                         Program Version 4.2.0 -  RELEASE  -
|  1> ! ri-mp2 cc-pvtz cc-pvtz/c TightSCF NoKeepInts
|  2>
|  3> %scf
|  4>   MaxCore 4096
|  5> end
|  6> *xyz  0  1
|  7>     C       14.6177202   16.0827200   16.3589923
|  8>     C       15.0402569   16.1915901   14.8763526
|  9>     O       16.4693530   16.0627948   14.6632101
| 10>     C       17.4847356   16.4512053   15.5040117
| 11>     O       18.5353559   15.8366238   15.5237442
| 12>     C       17.2309274   17.5962903   16.4326615
| 13>     C       16.8743976   18.8132533   15.9508947
| 14>     C       16.4960876   19.1735141   14.5280519
| 15>     N       16.9300883   19.9472534   16.7636073
| 16>     C       17.5708197   19.9966213   17.9730411
| 17>     S       17.7064700   21.4039475   18.8305308
| 18>     N       18.1190214   18.8208809   18.4218408
| 19>     C       17.9215844   17.4982642   17.7959898
| 20>     C       17.2970956   16.4525364   18.7085483
| 21>     C       17.7998286   15.1392288   18.7270718
| 22>     C       17.2133887   14.1611771   19.5473476
| 23>     C       16.1133776   14.4989605   20.3542207
| 24>     C       15.6079024   15.8060785   20.3348188
| 25>     O       14.5394887   16.1324995   21.1045876
| 26>     C       16.1936659   16.7778910   19.5172858
| 27>     H       15.1849215   15.2974650   16.8756323
| 28>     H       13.5549380   15.8198366   16.4250192
| 29>     H       14.7440610   17.0292951   16.8957402
| 30>     H       14.5422102   15.3939599   14.3097048
| 31>     H       14.6757140   17.1416770   14.4705221
| 32>     H       16.8353858   18.4277479   13.7995543
| 33>     H       16.9594922   20.1214161   14.2252363
| 34>     H       15.4108979   19.2882935   14.4241310
| 35>     H       16.5674202   20.8257205   16.4280948
| 36>     H       18.5847773   18.8818333   19.3186900
| 37>     H       18.9671537   17.2315695   17.5806968
| 38>     H       18.6429294   14.8737170   18.0921767
| 39>     H       17.6097092   13.1471154   19.5511401
| 40>     H       15.6562501   13.7457318   20.9874132
| 41>     H       14.3055664   15.3486702   21.6243468
| 42>     H       15.7840076   17.7826205   19.5130921
| 43> *
| 44>
| 45>                          ****END OF INPUT****

CARTESIAN COORDINATES (ANGSTROEM)
---------------------------------
  C     14.617720   16.082720   16.358992
  C     15.040257   16.191590   14.876353
  O     16.469353   16.062795   14.663210
  C     17.484736   16.451205   15.504012
  O     18.535356   15.836624   15.523744
  C     17.230927   17.596290   16.432661
  C     16.874398   18.813253   15.950895
  C     16.496088   19.173514   14.528052
  N     16.930088   19.947253   16.763607
  C     17.570820   19.996621   17.973041
  S     17.706470   21.403947   18.830531
  N     18.119021   18.820881   18.421841
  C     17.921584   17.498264   17.795990
  C     17.297096   16.452536   18.708548
  C     17.799829   15.139229   18.727072
  C     17.213389   14.161177   19.547348
  C     16.113378   14.498960   20.354221
  C     15.607902   15.806078   20.334819
  O     14.539489   16.132500   21.104588
  C     16.193666   16.777891   19.517286
  H     15.184921   15.297465   16.875632
  H     13.554938   15.819837   16.425019
  H     14.744061   17.029295   16.895740
  H     14.542210   15.393960   14.309705
  H     14.675714   17.141677   14.470522
  H     16.835386   18.427748   13.799554
  H     16.959492   20.121416   14.225236
  H     15.410898   19.288294   14.424131
  H     16.567420   20.825720   16.428095
  H     18.584777   18.881833   19.318690
  H     18.967154   17.231569   17.580697
  H     18.642929   14.873717   18.092177
  H     17.609709   13.147115   19.551140
  H     15.656250   13.745732   20.987413
  H     14.305566   15.348670   21.624347
  H     15.784008   17.782620   19.513092

 Total Charge           Charge          ....    0
 Multiplicity           Mult            ....    1
 Number of Electrons    NEL             ....  154
 Basis Dimension        Dim             ....  828

ORBITAL ENERGIES
----------------

  NO   OCC          E(Eh)            E(eV)
   0   2.0000     -91.889916     -2500.4517
   1   2.0000     -20.598649      -560.5177
   2   2.0000     -20.598569      -560.5155
   3   2.0000     -20.549117      -559.1699
   4   2.0000     -15.628255      -425.2664
   5   2.0000     -15.609217      -424.7484
   6   2.0000     -11.400049      -310.2111
   7   2.0000     -11.385556      -309.8167
   8   2.0000     -11.334692      -308.4326
   9   2.0000     -11.315568      -307.9122
  10   2.0000     -11.311474      -307.8009
  11   2.0000     -11.309418      -307.7449
  12   2.0000     -11.266634      -306.5807
  13   2.0000     -11.265027      -306.5370
  14   2.0000     -11.262951      -306.4805
  15   2.0000     -11.255883      -306.2881
  16   2.0000     -11.245050      -305.9934
  17   2.0000     -11.240632      -305.8731
  18   2.0000     -11.237613      -305.7910
  19   2.0000     -11.233638      -305.6828
  20   2.0000      -8.895022      -242.0459
  21   2.0000      -6.576604      -178.9585
  22   2.0000      -6.574591      -178.9037
  23   2.0000      -6.574008      -178.8879
  24   2.0000      -1.444567       -39.3087
  25   2.0000      -1.418325       -38.5946
  26   2.0000      -1.358198       -36.9585
  27   2.0000      -1.341549       -36.5054
  28   2.0000      -1.239588       -33.7309
  29   2.0000      -1.159950       -31.5638
  30   2.0000      -1.125473       -30.6257
  31   2.0000      -1.047400       -28.5012
  32   2.0000      -1.038282       -28.2531
  33   2.0000      -1.018020       -27.7017
  34   2.0000      -1.006571       -27.3902
  35   2.0000      -0.989934       -26.9375
  36   2.0000      -0.926783       -25.2190
  37   2.0000      -0.900218       -24.4962
  38   2.0000      -0.853436       -23.2232
  39   2.0000      -0.841159       -22.8891
  40   2.0000      -0.835460       -22.7340
  41   2.0000      -0.828265       -22.5382
  42   2.0000      -0.744991       -20.2722
  43   2.0000      -0.736252       -20.0344
  44   2.0000      -0.731699       -19.9105
  45   2.0000      -0.695698       -18.9309
  46   2.0000      -0.687235       -18.7006
  47   2.0000      -0.680260       -18.5108
  48   2.0000      -0.674659       -18.3584
  49   2.0000      -0.660953       -17.9854
  50   2.0000      -0.658727       -17.9249
  51   2.0000      -0.650316       -17.6960
  52   2.0000      -0.638914       -17.3857
  53   2.0000      -0.618976       -16.8432
  54   2.0000      -0.610632       -16.6161
  55   2.0000      -0.606173       -16.4948
  56   2.0000      -0.602261       -16.3884
  57   2.0000      -0.587374       -15.9833
  58   2.0000      -0.576641       -15.6912
  59   2.0000      -0.566848       -15.4247
  60   2.0000      -0.564075       -15.3493
  61   2.0000      -0.554542       -15.0899
  62   2.0000      -0.542184       -14.7536
  63   2.0000      -0.533639       -14.5211
  64   2.0000      -0.522518       -14.2184
  65   2.0000      -0.512549       -13.9472
  66   2.0000      -0.500743       -13.6259
  67   2.0000      -0.498622       -13.5682
  68   2.0000      -0.484954       -13.1963
  69   2.0000      -0.469535       -12.7767
  70   2.0000      -0.455846       -12.4042
  71   2.0000      -0.449363       -12.2278
  72   2.0000      -0.356507        -9.7011
  73   2.0000      -0.349376        -9.5070
  74   2.0000      -0.329395        -8.9633
  75   2.0000      -0.323544        -8.8041
  76   2.0000      -0.319921        -8.7055
  77   0.0000       0.082118         2.2345
  78   0.0000       0.105327         2.8661
  79   0.0000       0.114809         3.1241
  80   0.0000       0.129905         3.5349
  81   0.0000       0.130495         3.5509

MULLIKEN ATOMIC CHARGES
-----------------------
   0 C :   -0.332085
   1 C :    0.035791
   2 O :   -0.335946
   3 C :    0.433543
   4 O :   -0.381930
   5 C :   -0.252170
   6 C :    0.184644
   7 C :   -0.344681
   8 N :   -0.140213
   9 C :    0.205577
  10 S :   -0.442645
  11 N :   -0.223450
  12 C :    0.073468
  13 C :    0.014967
  14 C :   -0.217031
  15 C :   -0.129803
  16 C :   -0.278333
  17 C :    0.316165
  18 O :   -0.357079
  19 C :   -0.253616
  20 H :    0.126624
  21 H :    0.117424
  22 H :    0.111797
  23 H :    0.129299
  24 H :    0.083697
  25 H :    0.142157
  26 H :    0.131080
  27 H :    0.122478
  28 H :    0.198418
  29 H :    0.202957
  30 H :    0.167261
  31 H :    0.178226
  32 H :    0.164441
  33 H :    0.131941
  34 H :    0.241172
  35 H :    0.175853
Sum of atomic charges:   -0.0000000

LOEWDIN ATOMIC CHARGES
----------------------
   0 C :    0.102897
   1 C :   -0.014081
   2 O :    0.292951
   3 C :   -0.416958
   4 O :    0.120931
   5 C :   -0.082222
   6 C :   -0.086089
   7 C :    0.124657
   8 N :    0.403089
   9 C :   -0.458275
  10 S :   -0.038111
  11 N :    0.396561
  12 C :   -0.047604
  13 C :   -0.043360
  14 C :    0.020319
  15 C :    0.043306
  16 C :   -0.000672
  17 C :   -0.192172
  18 O :    0.395081
  19 C :    0.029473
  20 H :   -0.019775
  21 H :   -0.023375
  22 H :   -0.034153
  23 H :   -0.019321
  24 H :   -0.038030
  25 H :   -0.007787
  26 H :   -0.011127
  27 H :   -0.019118
  28 H :   -0.057095
  29 H :   -0.063282
  30 H :   -0.003879
  31 H :   -0.021293
  32 H :   -0.018744
  33 H :   -0.034927
  34 H :   -0.153433
  35 H :   -0.024384

  Mayer bond orders larger than 0.100000
B(  0-C ,  1-C ) :   0.9527 B(  0-C , 20-H ) :   0.9680 B(  0-C , 21-H ) :   0.9766
B(  0-C , 22-H ) :   0.9726 B(  1-C ,  2-O ) :   0.9061 B(  1-C , 23-H ) :   0.9817
B(  1-C , 24-H ) :   0.9737 B(  2-O ,  3-C ) :   1.1647 B(  3-C ,  4-O ) :   2.0846
B(  3-C ,  5-C ) :   0.9321 B(  5-C ,  6-C ) :   1.7069 B(  5-C , 12-C ) :   0.9387
B(  6-C ,  7-C ) :   0.9374 B(  6-C ,  8-N ) :   1.1087 B(  7-C , 25-H ) :   0.9728
B(  7-C , 26-H ) :   0.9771 B(  7-C , 27-H ) :   0.9661 B(  8-N ,  9-C ) :   1.1963
B(  8-N , 28-H ) :   0.9506 B(  9-C , 10-S ) :   1.6096 B(  9-C , 11-N ) :   1.2926
B( 11-N , 12-C ) :   0.9812 B( 11-N , 29-H ) :   0.9478 B( 12-C , 13-C ) :   0.9687
B( 12-C , 30-H ) :   0.9899 B( 13-C , 14-C ) :   1.3886 B( 13-C , 19-C ) :   1.3467
B( 14-C , 15-C ) :   1.3945 B( 14-C , 31-H ) :   0.9579 B( 15-C , 16-C ) :   1.3602
B( 15-C , 32-H ) :   0.9701 B( 16-C , 17-C ) :   1.3308 B( 16-C , 33-H ) :   0.9848
B( 17-C , 18-O ) :   1.1087 B( 17-C , 19-C ) :   1.3666 B( 18-O , 34-H ) :   0.9796
B( 19-C , 35-H ) :   0.9565

MP2 TOTAL ENERGY:    -1274.325952702 Eh
FINAL SINGLE POINT ENERGY     -1274.325952701952

DIPOLE MOMENT
-------------
                                X             Y             Z
Electronic contribution:      8.70984       6.63618       6.69106
Nuclear contribution   :    -10.34144      -7.78040      -7.23882
                        -----------------------------------------
Total Dipole Moment    :     -1.63160      -1.14422      -0.54776
                        -----------------------------------------
Magnitude (a.u.)       :      2.06673
Magnitude (Debye)      :      5.25322

Rotational constants in cm-1:     0.011557     0.009302     0.006503
Rotational constants in MHz :   346.459200   278.866921   194.958564

                             ****ORCA TERMINATED NORMALLY****
TOTAL RUN TIME: 0 days 2 hours 4 minutes 13 seconds 783 msec
