                         Program Version 4.2.0 -  RELEASE  -
|  1> ! ri-mp2 cc-pvtz cc-pvtz/c TightSCF NoKeepInts
|  2>
|  3> %scf
|  4>   MaxCore 4096
|  5> end
|  6> *xyz  0  1
|  7>     C       15.1038356   15.5999106   13.0292156
|  8>     C       14.7340807   15.4799564   14.5174880
|  9>     O       15.3827305   16.5630977   15.2106985
| 10>     C       16.3669120   16.3176686   16.1261497
| 11>     O       16.7774379   15.1933621   16.3631048
| 12>     C       16.8777580   17.5323065   16.8520575
| 13>     C       16.8481585   18.7835556   16.3188515
| 14>     C       16.1237945   19.2549784   15.0726811
| 15>     N       17.5754300   19.8245233   16.9022414
| 16>     C       18.5222018   19.6592554   17.8763964
| 17>     S       19.4246093   20.9253697   18.4405287
| 18>     N       18.6988578   18.3820700   18.3434256
| 19>     C       17.8575695   17.2218187   17.9920754
| 20>     C       17.1997580   16.5726879   19.2028123
| 21>     C       17.3889835   15.2059120   19.4756937
| 22>     C       16.7845006   14.6102606   20.5954435
| 23>     C       15.9853840   15.3885825   21.4504342
| 24>     C       15.7939092   16.7505531   21.1798172
| 25>     O       15.0199526   17.5034943   22.0016903
| 26>     C       16.3965887   17.3404004   20.0641184
| 27>     H       14.8000314   16.5757137   12.6305028
| 28>     H       14.6030733   14.8183528   12.4449032
| 29>     H       16.1867612   15.4889513   12.8915495
| 30>     H       13.6463180   15.5744584   14.6294709
| 31>     H       15.0283868   14.4942501   14.9024907
| 32>     H       15.0403033   19.1182692   15.1790804
| 33>     H       16.4531218   18.6886001   14.1926144
| 34>     H       16.2959233   20.3159420   14.8543200
| 35>     H       17.4721551   20.7644983   16.5550720
| 36>     H       19.3868935   18.2903299   19.0801258
| 37>     H       18.6174121   16.5543606   17.5601125
| 38>     H       17.9945121   14.6002859   18.8055454
| 39>     H       16.9322695   13.5500153   20.7924399
| 40>     H       15.5153712   14.9321986   22.3151147
| 41>     H       14.7121699   16.9274049   22.7172950
| 42>     H       16.2398447   18.3966049   19.8724390
| 43> *
| 44>
| 45>                          ****END OF INPUT****

CARTESIAN COORDINATES (ANGSTROEM)
---------------------------------
  C     15.103836   15.599911   13.029216
  C     14.734081   15.479956   14.517488
  O     15.382730   16.563098   15.210698
  C     16.366912   16.317669   16.126150
  O     16.777438   15.193362   16.363105
  C     16.877758   17.532307   16.852058
  C     16.848159   18.783556   16.318852
  C     16.123794   19.254978   15.072681
  N     17.575430   19.824523   16.902241
  C     18.522202   19.659255   17.876396
  S     19.424609   20.925370   18.440529
  N     18.698858   18.382070   18.343426
  C     17.857570   17.221819   17.992075
  C     17.199758   16.572688   19.202812
  C     17.388983   15.205912   19.475694
  C     16.784501   14.610261   20.595443
  C     15.985384   15.388583   21.450434
  C     15.793909   16.750553   21.179817
  O     15.019953   17.503494   22.001690
  C     16.396589   17.340400   20.064118
  H     14.800031   16.575714   12.630503
  H     14.603073   14.818353   12.444903
  H     16.186761   15.488951   12.891549
  H     13.646318   15.574458   14.629471
  H     15.028387   14.494250   14.902491
  H     15.040303   19.118269   15.179080
  H     16.453122   18.688600   14.192614
  H     16.295923   20.315942   14.854320
  H     17.472155   20.764498   16.555072
  H     19.386893   18.290330   19.080126
  H     18.617412   16.554361   17.560112
  H     17.994512   14.600286   18.805545
  H     16.932270   13.550015   20.792440
  H     15.515371   14.932199   22.315115
  H     14.712170   16.927405   22.717295
  H     16.239845   18.396605   19.872439

 Total Charge           Charge          ....    0
 Multiplicity           Mult            ....    1
 Number of Electrons    NEL             ....  154
 Basis Dimension        Dim             ....  828

ORBITAL ENERGIES
----------------

  NO   OCC          E(Eh)            E(eV)
   0   2.0000     -91.887642     -2500.3898
   1   2.0000     -20.605123      -560.6939
   2   2.0000     -20.590671      -560.3007
   3   2.0000     -20.544381      -559.0410
   4   2.0000     -15.628208      -425.2652
   5   2.0000     -15.605261      -424.6408
   6   2.0000     -11.397011      -310.1284
   7   2.0000     -11.382104      -309.7228
   8   2.0000     -11.338211      -308.5284
   9   2.0000     -11.306618      -307.6687
  10   2.0000     -11.303680      -307.5888
  11   2.0000     -11.299417      -307.4728
  12   2.0000     -11.261466      -306.4401
  13   2.0000     -11.259076      -306.3750
  14   2.0000     -11.253955      -306.2357
  15   2.0000     -11.246701      -306.0383
  16   2.0000     -11.236932      -305.7725
  17   2.0000     -11.233350      -305.6750
  18   2.0000     -11.233075      -305.6675
  19   2.0000     -11.229839      -305.5795
  20   2.0000      -8.892729      -241.9835
  21   2.0000      -6.574308      -178.8960
  22   2.0000      -6.572304      -178.8415
  23   2.0000      -6.571717      -178.8255
  24   2.0000      -1.453919       -39.5631
  25   2.0000      -1.410414       -38.3793
  26   2.0000      -1.357528       -36.9402
  27   2.0000      -1.339620       -36.4529
  28   2.0000      -1.236724       -33.6530
  29   2.0000      -1.151395       -31.3310
  30   2.0000      -1.120209       -30.4824
  31   2.0000      -1.044463       -28.4213
  32   2.0000      -1.036508       -28.2048
  33   2.0000      -1.008917       -27.4540
  34   2.0000      -0.998252       -27.1638
  35   2.0000      -0.983365       -26.7587
  36   2.0000      -0.920187       -25.0396
  37   2.0000      -0.892017       -24.2730
  38   2.0000      -0.847063       -23.0497
  39   2.0000      -0.834050       -22.6957
  40   2.0000      -0.826954       -22.5026
  41   2.0000      -0.817087       -22.2341
  42   2.0000      -0.761148       -20.7119
  43   2.0000      -0.735981       -20.0271
  44   2.0000      -0.725323       -19.7370
  45   2.0000      -0.689414       -18.7599
  46   2.0000      -0.684517       -18.6266
  47   2.0000      -0.680179       -18.5086
  48   2.0000      -0.673272       -18.3207
  49   2.0000      -0.653707       -17.7883
  50   2.0000      -0.651187       -17.7197
  51   2.0000      -0.639250       -17.3949
  52   2.0000      -0.630138       -17.1469
  53   2.0000      -0.610399       -16.6098
  54   2.0000      -0.602595       -16.3974
  55   2.0000      -0.597223       -16.2513
  56   2.0000      -0.593944       -16.1620
  57   2.0000      -0.582106       -15.8399
  58   2.0000      -0.572087       -15.5673
  59   2.0000      -0.565067       -15.3763
  60   2.0000      -0.561706       -15.2848
  61   2.0000      -0.546360       -14.8672
  62   2.0000      -0.541836       -14.7441
  63   2.0000      -0.531778       -14.4704
  64   2.0000      -0.514795       -14.0083
  65   2.0000      -0.508262       -13.8305
  66   2.0000      -0.499880       -13.6024
  67   2.0000      -0.493374       -13.4254
  68   2.0000      -0.480963       -13.0877
  69   2.0000      -0.464978       -12.6527
  70   2.0000      -0.457554       -12.4507
  71   2.0000      -0.452769       -12.3205
  72   2.0000      -0.352922        -9.6035
  73   2.0000      -0.343579        -9.3493
  74   2.0000      -0.326724        -8.8906
  75   2.0000      -0.316789        -8.6203
  76   2.0000      -0.313229        -8.5234
  77   0.0000       0.078080         2.1247
  78   0.0000       0.112869         3.0713
  79   0.0000       0.121259         3.2996
  80   0.0000       0.136397         3.7115
  81   0.0000       0.139624         3.7994

MULLIKEN ATOMIC CHARGES
-----------------------
   0 C :   -0.280640
   1 C :    0.019794
   2 O :   -0.341912
   3 C :    0.429847
   4 O :   -0.429397
   5 C :   -0.182126
   6 C :    0.164863
   7 C :   -0.285825
   8 N :   -0.128784
   9 C :    0.207461
  10 S :   -0.443132
  11 N :   -0.210623
  12 C :    0.040431
  13 C :    0.031638
  14 C :   -0.164881
  15 C :   -0.134134
  16 C :   -0.276633
  17 C :    0.314523
  18 O :   -0.359209
  19 C :   -0.250387
  20 H :    0.091581
  21 H :    0.101252
  22 H :    0.099653
  23 H :    0.102543
  24 H :    0.122907
  25 H :    0.131764
  26 H :    0.123554
  27 H :    0.104315
  28 H :    0.198726
  29 H :    0.199984
  30 H :    0.154906
  31 H :    0.158045
  32 H :    0.159386
  33 H :    0.127824
  34 H :    0.239786
  35 H :    0.162899
Sum of atomic charges:   -0.0000000

LOEWDIN ATOMIC CHARGES
----------------------
   0 C :    0.102777
   1 C :   -0.011534
   2 O :    0.308923
   3 C :   -0.414641
   4 O :    0.100867
   5 C :   -0.090378
   6 C :   -0.063755
   7 C :    0.124342
   8 N :    0.405364
   9 C :   -0.458923
  10 S :   -0.038146
  11 N :    0.396647
  12 C :   -0.048373
  13 C :   -0.040387
  14 C :    0.025202
  15 C :    0.041008
  16 C :   -0.001005
  17 C :   -0.192318
  18 O :    0.393034
  19 C :    0.029940
  20 H :   -0.030134
  21 H :   -0.024598
  22 H :   -0.026224
  23 H :   -0.028553
  24 H :   -0.027175
  25 H :   -0.009037
  26 H :   -0.010457
  27 H :   -0.021308
  28 H :   -0.058898
  29 H :   -0.062981
  30 H :   -0.008683
  31 H :   -0.024194
  32 H :   -0.021208
  33 H :   -0.036251
  34 H :   -0.154993
  35 H :   -0.023952

  Mayer bond orders larger than 0.100000
B(  0-C ,  1-C ) :   0.9682 B(  0-C , 20-H ) :   0.9789 B(  0-C , 21-H ) :   0.9767
B(  0-C , 22-H ) :   0.9782 B(  1-C ,  2-O ) :   0.8847 B(  1-C , 23-H ) :   0.9832
B(  1-C , 24-H ) :   0.9728 B(  2-O ,  3-C ) :   1.1676 B(  3-C ,  4-O ) :   1.9739
B(  3-C ,  5-C ) :   1.0517 B(  5-C ,  6-C ) :   1.6528 B(  5-C , 12-C ) :   0.9505
B(  6-C ,  7-C ) :   0.9521 B(  6-C ,  8-N ) :   1.1367 B(  7-C , 25-H ) :   0.9631
B(  7-C , 26-H ) :   0.9663 B(  7-C , 27-H ) :   0.9920 B(  8-N ,  9-C ) :   1.1852
B(  8-N , 28-H ) :   0.9469 B(  9-C , 10-S ) :   1.6071 B(  9-C , 11-N ) :   1.3071
B( 11-N , 12-C ) :   0.9770 B( 11-N , 29-H ) :   0.9485 B( 12-C , 13-C ) :   0.9755
B( 12-C , 30-H ) :   0.9978 B( 13-C , 14-C ) :   1.3754 B( 13-C , 19-C ) :   1.3671
B( 14-C , 15-C ) :   1.3972 B( 14-C , 31-H ) :   0.9641 B( 15-C , 16-C ) :   1.3587
B( 15-C , 32-H ) :   0.9713 B( 16-C , 17-C ) :   1.3334 B( 16-C , 33-H ) :   0.9861
B( 17-C , 18-O ) :   1.1029 B( 17-C , 19-C ) :   1.3677 B( 18-O , 34-H ) :   0.9808
B( 19-C , 35-H ) :   0.9601

MP2 TOTAL ENERGY:    -1274.341531731 Eh
FINAL SINGLE POINT ENERGY     -1274.341531731391

DIPOLE MOMENT
-------------
                                X             Y             Z
Electronic contribution:      8.89534       8.20658      13.88372
Nuclear contribution   :    -10.47966      -9.35707     -14.93408
                        -----------------------------------------
Total Dipole Moment    :     -1.58432      -1.15048      -1.05036
                        -----------------------------------------
Magnitude (a.u.)       :      2.22193
Magnitude (Debye)      :      5.64769

Rotational constants in cm-1:     0.010271     0.008449     0.005362
Rotational constants in MHz :   307.930531   253.293255   160.754447

                             ****ORCA TERMINATED NORMALLY****
TOTAL RUN TIME: 0 days 1 hours 33 minutes 24 seconds 221 msec
