                         Program Version 4.2.0 -  RELEASE  -
|  1> ! ri-mp2 cc-pvtz cc-pvtz/c TightSCF NoKeepInts
|  2>
|  3> %scf
|  4>   MaxCore 4096
|  5> end
|  6> *xyz  0  1
|  7>     C       15.0113638   14.1278516   15.2208969
|  8>     C       15.0810869   15.4700267   15.9670248
|  9>     O       16.2716658   16.1440169   15.5242964
| 10>     C       16.1976920   17.4956495   15.3770419
| 11>     O       15.5582904   17.9828292   14.4623849
| 12>     C       16.8371679   18.2638893   16.5047134
| 13>     C       16.9207988   19.6190947   16.4514483
| 14>     C       16.1802773   20.5489255   15.5121332
| 15>     N       17.7588390   20.3250746   17.3174904
| 16>     C       18.7042117   19.7476546   18.1204167
| 17>     S       19.7409932   20.6481981   19.0420415
| 18>     N       18.7640185   18.3776475   18.1022972
| 19>     C       17.8090230   17.4892847   17.4138691
| 20>     C       17.1545482   16.4984092   18.3656367
| 21>     C       17.5579289   15.1503968   18.3822623
| 22>     C       16.9501675   14.2353801   19.2582980
| 23>     C       15.9365938   14.6738222   20.1278253
| 24>     C       15.5405775   16.0184912   20.1196021
| 25>     O       14.5623764   16.4444832   20.9573662
| 26>     C       16.1450287   16.9264134   19.2444446
| 27>     H       14.1093232   13.5739914   15.5076059
| 28>     H       15.8857315   13.5090975   15.4575470
| 29>     H       14.9848303   14.2912837   14.1360664
| 30>     H       14.1862417   16.0572708   15.7172877
| 31>     H       15.0966873   15.3081169   17.0515947
| 32>     H       15.1070065   20.3196700   15.5055688
| 33>     H       16.5465518   20.4314397   14.4840782
| 34>     H       16.2842278   21.6062457   15.7828919
| 35>     H       17.7441481   21.3325250   17.3177556
| 36>     H       19.4541848   17.9790054   18.7263088
| 37>     H       18.4943361   16.9698169   16.7287517
| 38>     H       18.3381872   14.8094968   17.7065136
| 39>     H       17.2655862   13.1932195   19.2623352
| 40>     H       15.4653090   13.9707942   20.8070613
| 41>     H       14.3108202   15.6955085   21.5187852
| 42>     H       15.8311789   17.9649794   19.2563579
| 43> *
| 44>
| 45>                          ****END OF INPUT****

CARTESIAN COORDINATES (ANGSTROEM)
---------------------------------
  C     15.011364   14.127852   15.220897
  C     15.081087   15.470027   15.967025
  O     16.271666   16.144017   15.524296
  C     16.197692   17.495649   15.377042
  O     15.558290   17.982829   14.462385
  C     16.837168   18.263889   16.504713
  C     16.920799   19.619095   16.451448
  C     16.180277   20.548925   15.512133
  N     17.758839   20.325075   17.317490
  C     18.704212   19.747655   18.120417
  S     19.740993   20.648198   19.042041
  N     18.764018   18.377647   18.102297
  C     17.809023   17.489285   17.413869
  C     17.154548   16.498409   18.365637
  C     17.557929   15.150397   18.382262
  C     16.950167   14.235380   19.258298
  C     15.936594   14.673822   20.127825
  C     15.540577   16.018491   20.119602
  O     14.562376   16.444483   20.957366
  C     16.145029   16.926413   19.244445
  H     14.109323   13.573991   15.507606
  H     15.885732   13.509097   15.457547
  H     14.984830   14.291284   14.136066
  H     14.186242   16.057271   15.717288
  H     15.096687   15.308117   17.051595
  H     15.107006   20.319670   15.505569
  H     16.546552   20.431440   14.484078
  H     16.284228   21.606246   15.782892
  H     17.744148   21.332525   17.317756
  H     19.454185   17.979005   18.726309
  H     18.494336   16.969817   16.728752
  H     18.338187   14.809497   17.706514
  H     17.265586   13.193219   19.262335
  H     15.465309   13.970794   20.807061
  H     14.310820   15.695508   21.518785
  H     15.831179   17.964979   19.256358

 Total Charge           Charge          ....    0
 Multiplicity           Mult            ....    1
 Number of Electrons    NEL             ....  154
 Basis Dimension        Dim             ....  828

ORBITAL ENERGIES
----------------

  NO   OCC          E(Eh)            E(eV)
   0   2.0000     -91.890957     -2500.4801
   1   2.0000     -20.602143      -560.6128
   2   2.0000     -20.583131      -560.0955
   3   2.0000     -20.545561      -559.0731
   4   2.0000     -15.631376      -425.3514
   5   2.0000     -15.609080      -424.7447
   6   2.0000     -11.391664      -309.9829
   7   2.0000     -11.385369      -309.8117
   8   2.0000     -11.339688      -308.5686
   9   2.0000     -11.320176      -308.0377
  10   2.0000     -11.310629      -307.7778
  11   2.0000     -11.293810      -307.3202
  12   2.0000     -11.265865      -306.5598
  13   2.0000     -11.261344      -306.4368
  14   2.0000     -11.258972      -306.3722
  15   2.0000     -11.253159      -306.2140
  16   2.0000     -11.249838      -306.1237
  17   2.0000     -11.244576      -305.9805
  18   2.0000     -11.244099      -305.9675
  19   2.0000     -11.224394      -305.4313
  20   2.0000      -8.896010      -242.0727
  21   2.0000      -6.577576      -178.9849
  22   2.0000      -6.575583      -178.9307
  23   2.0000      -6.574987      -178.9145
  24   2.0000      -1.448204       -39.4076
  25   2.0000      -1.421858       -38.6907
  26   2.0000      -1.352957       -36.8158
  27   2.0000      -1.342770       -36.5386
  28   2.0000      -1.240809       -33.7641
  29   2.0000      -1.163121       -31.6501
  30   2.0000      -1.122829       -30.5537
  31   2.0000      -1.047126       -28.4937
  32   2.0000      -1.034081       -28.1388
  33   2.0000      -1.021029       -27.7836
  34   2.0000      -0.998685       -27.1756
  35   2.0000      -0.986824       -26.8528
  36   2.0000      -0.925064       -25.1723
  37   2.0000      -0.877951       -23.8903
  38   2.0000      -0.849397       -23.1133
  39   2.0000      -0.842615       -22.9287
  40   2.0000      -0.839587       -22.8463
  41   2.0000      -0.828657       -22.5489
  42   2.0000      -0.762196       -20.7404
  43   2.0000      -0.738103       -20.0848
  44   2.0000      -0.724600       -19.7174
  45   2.0000      -0.700788       -19.0694
  46   2.0000      -0.690596       -18.7921
  47   2.0000      -0.678083       -18.4516
  48   2.0000      -0.673388       -18.3238
  49   2.0000      -0.653941       -17.7946
  50   2.0000      -0.649751       -17.6806
  51   2.0000      -0.641700       -17.4615
  52   2.0000      -0.633591       -17.2409
  53   2.0000      -0.616330       -16.7712
  54   2.0000      -0.612234       -16.6597
  55   2.0000      -0.604173       -16.4404
  56   2.0000      -0.602216       -16.3871
  57   2.0000      -0.581687       -15.8285
  58   2.0000      -0.571694       -15.5566
  59   2.0000      -0.566798       -15.4233
  60   2.0000      -0.559586       -15.2271
  61   2.0000      -0.542930       -14.7739
  62   2.0000      -0.535874       -14.5819
  63   2.0000      -0.528957       -14.3936
  64   2.0000      -0.516600       -14.0574
  65   2.0000      -0.512134       -13.9359
  66   2.0000      -0.503721       -13.7069
  67   2.0000      -0.497111       -13.5271
  68   2.0000      -0.488878       -13.3030
  69   2.0000      -0.464940       -12.6517
  70   2.0000      -0.456403       -12.4194
  71   2.0000      -0.445705       -12.1283
  72   2.0000      -0.356380        -9.6976
  73   2.0000      -0.354314        -9.6414
  74   2.0000      -0.330790        -9.0013
  75   2.0000      -0.327243        -8.9047
  76   2.0000      -0.320554        -8.7227
  77   0.0000       0.071147         1.9360
  78   0.0000       0.099258         2.7009
  79   0.0000       0.122571         3.3353
  80   0.0000       0.129020         3.5108
  81   0.0000       0.131278         3.5722

MULLIKEN ATOMIC CHARGES
-----------------------
   0 C :   -0.260469
   1 C :    0.017380
   2 O :   -0.378213
   3 C :    0.481299
   4 O :   -0.406234
   5 C :   -0.292490
   6 C :    0.185036
   7 C :   -0.265065
   8 N :   -0.127304
   9 C :    0.211194
  10 S :   -0.439026
  11 N :   -0.215558
  12 C :    0.069654
  13 C :   -0.017130
  14 C :   -0.157248
  15 C :   -0.135028
  16 C :   -0.272894
  17 C :    0.307751
  18 O :   -0.356423
  19 C :   -0.223341
  20 H :    0.085526
  21 H :    0.090800
  22 H :    0.105929
  23 H :    0.103591
  24 H :    0.118356
  25 H :    0.131002
  26 H :    0.132603
  27 H :    0.094270
  28 H :    0.199871
  29 H :    0.201000
  30 H :    0.151894
  31 H :    0.154184
  32 H :    0.163800
  33 H :    0.133856
  34 H :    0.241684
  35 H :    0.165741
Sum of atomic charges:   -0.0000000

LOEWDIN ATOMIC CHARGES
----------------------
   0 C :    0.108733
   1 C :   -0.019159
   2 O :    0.297438
   3 C :   -0.424310
   4 O :    0.113441
   5 C :   -0.102365
   6 C :   -0.053467
   7 C :    0.131460
   8 N :    0.407881
   9 C :   -0.456875
  10 S :   -0.034054
  11 N :    0.394588
  12 C :   -0.054818
  13 C :   -0.040941
  14 C :    0.017637
  15 C :    0.041025
  16 C :   -0.000629
  17 C :   -0.191145
  18 O :    0.396521
  19 C :    0.032356
  20 H :   -0.027215
  21 H :   -0.029727
  22 H :   -0.023124
  23 H :   -0.029316
  24 H :   -0.032417
  25 H :   -0.004670
  26 H :   -0.003958
  27 H :   -0.023440
  28 H :   -0.056653
  29 H :   -0.064229
  30 H :   -0.011953
  31 H :   -0.027702
  32 H :   -0.019628
  33 H :   -0.034112
  34 H :   -0.152656
  35 H :   -0.022521

  Mayer bond orders larger than 0.100000
B(  0-C ,  1-C ) :   0.9838 B(  0-C , 20-H ) :   0.9764 B(  0-C , 21-H ) :   0.9795
B(  0-C , 22-H ) :   0.9786 B(  1-C ,  2-O ) :   0.8776 B(  1-C , 23-H ) :   0.9742
B(  1-C , 24-H ) :   0.9655 B(  2-O ,  3-C ) :   1.1029 B(  3-C ,  4-O ) :   2.0275
B(  3-C ,  5-C ) :   1.0684 B(  5-C ,  6-C ) :   1.6230 B(  5-C , 12-C ) :   0.9526
B(  6-C ,  7-C ) :   0.9676 B(  6-C ,  8-N ) :   1.1576 B(  7-C , 25-H ) :   0.9627
B(  7-C , 26-H ) :   0.9564 B(  7-C , 27-H ) :   0.9894 B(  8-N ,  9-C ) :   1.1854
B(  8-N , 28-H ) :   0.9462 B(  9-C , 10-S ) :   1.6080 B(  9-C , 11-N ) :   1.3096
B( 11-N , 12-C ) :   0.9637 B( 11-N , 29-H ) :   0.9485 B( 12-C , 13-C ) :   0.9645
B( 12-C , 30-H ) :   1.0025 B( 13-C , 14-C ) :   1.3545 B( 13-C , 19-C ) :   1.3784
B( 14-C , 15-C ) :   1.3946 B( 14-C , 31-H ) :   0.9722 B( 15-C , 16-C ) :   1.3572
B( 15-C , 32-H ) :   0.9701 B( 16-C , 17-C ) :   1.3312 B( 16-C , 33-H ) :   0.9841
B( 17-C , 18-O ) :   1.1075 B( 17-C , 19-C ) :   1.3664 B( 18-O , 34-H ) :   0.9787
B( 19-C , 35-H ) :   0.9591

MP2 TOTAL ENERGY:    -1274.329272178 Eh
FINAL SINGLE POINT ENERGY     -1274.329272178331

DIPOLE MOMENT
-------------
                                X             Y             Z
Electronic contribution:      9.30914      10.97694       6.96608
Nuclear contribution   :    -10.41885     -12.48624      -6.74987
                        -----------------------------------------
Total Dipole Moment    :     -1.10971      -1.50930       0.21621
                        -----------------------------------------
Magnitude (a.u.)       :      1.88579
Magnitude (Debye)      :      4.79329

Rotational constants in cm-1:     0.012294     0.008413     0.005989
Rotational constants in MHz :   368.557869   252.212134   179.544377

                             ****ORCA TERMINATED NORMALLY****
TOTAL RUN TIME: 0 days 1 hours 45 minutes 51 seconds 901 msec
