                         Program Version 4.2.0 -  RELEASE  -
|  1> ! ri-mp2 cc-pvtz cc-pvtz/c TightSCF NoKeepInts
|  2>
|  3> %scf
|  4>   MaxCore 4096
|  5> end
|  6> *xyz  0  1
|  7>     C       14.6688740   15.7181788   16.4798512
|  8>     C       15.5694569   15.2629913   15.3169069
|  9>     O       16.9612466   15.5922169   15.5157566
| 10>     C       17.3791269   16.8605109   15.2401961
| 11>     O       17.7883142   17.1457551   14.1295924
| 12>     C       17.1373689   17.8633576   16.3278375
| 13>     C       16.9029780   19.1554808   15.9902623
| 14>     C       16.4378933   19.6629275   14.6415226
| 15>     N       17.0657179   20.1879190   16.9153240
| 16>     C       17.7055634   20.0454168   18.1168817
| 17>     S       17.9840704   21.3305772   19.1196490
| 18>     N       18.1278807   18.7790219   18.4360922
| 19>     C       17.7966369   17.5525418   17.6828851
| 20>     C       17.1418364   16.4833811   18.5460987
| 21>     C       17.6350480   15.1655207   18.5490496
| 22>     C       17.0527232   14.1867556   19.3718876
| 23>     C       15.9745308   14.5305588   20.2054297
| 24>     C       15.4870930   15.8447769   20.2118769
| 25>     O       14.4451741   16.1790746   21.0136644
| 26>     C       16.0666782   16.8164818   19.3896115
| 27>     H       14.9405095   15.1933776   17.4016300
| 28>     H       13.6227523   15.4722561   16.2612102
| 29>     H       14.7250763   16.7987471   16.6493880
| 30>     H       15.4784730   14.1733544   15.2201577
| 31>     H       15.2140573   15.7044972   14.3757362
| 32>     H       15.7670550   18.9420872   14.1580557
| 33>     H       17.2955439   19.8100199   13.9719534
| 34>     H       15.8957480   20.6132691   14.7134984
| 35>     H       16.7988868   21.1283775   16.6710486
| 36>     H       18.5853278   18.7011493   19.3360021
| 37>     H       18.8162337   17.2317801   17.4247064
| 38>     H       18.4678868   14.8970846   17.9037718
| 39>     H       17.4381551   13.1685557   19.3622072
| 40>     H       15.5225960   13.7778248   20.8430888
| 41>     H       14.2126430   15.3947121   21.5331704
| 42>     H       15.6778436   17.8294620   19.4119991
| 43> *
| 44>
| 45>                          ****END OF INPUT****

CARTESIAN COORDINATES (ANGSTROEM)
---------------------------------
  C     14.668874   15.718179   16.479851
  C     15.569457   15.262991   15.316907
  O     16.961247   15.592217   15.515757
  C     17.379127   16.860511   15.240196
  O     17.788314   17.145755   14.129592
  C     17.137369   17.863358   16.327838
  C     16.902978   19.155481   15.990262
  C     16.437893   19.662927   14.641523
  N     17.065718   20.187919   16.915324
  C     17.705563   20.045417   18.116882
  S     17.984070   21.330577   19.119649
  N     18.127881   18.779022   18.436092
  C     17.796637   17.552542   17.682885
  C     17.141836   16.483381   18.546099
  C     17.635048   15.165521   18.549050
  C     17.052723   14.186756   19.371888
  C     15.974531   14.530559   20.205430
  C     15.487093   15.844777   20.211877
  O     14.445174   16.179075   21.013664
  C     16.066678   16.816482   19.389612
  H     14.940509   15.193378   17.401630
  H     13.622752   15.472256   16.261210
  H     14.725076   16.798747   16.649388
  H     15.478473   14.173354   15.220158
  H     15.214057   15.704497   14.375736
  H     15.767055   18.942087   14.158056
  H     17.295544   19.810020   13.971953
  H     15.895748   20.613269   14.713498
  H     16.798887   21.128377   16.671049
  H     18.585328   18.701149   19.336002
  H     18.816234   17.231780   17.424706
  H     18.467887   14.897085   17.903772
  H     17.438155   13.168556   19.362207
  H     15.522596   13.777825   20.843089
  H     14.212643   15.394712   21.533170
  H     15.677844   17.829462   19.411999

 Total Charge           Charge          ....    0
 Multiplicity           Mult            ....    1
 Number of Electrons    NEL             ....  154
 Basis Dimension        Dim             ....  828

ORBITAL ENERGIES
----------------

  NO   OCC          E(Eh)            E(eV)
   0   2.0000     -91.890878     -2500.4779
   1   2.0000     -20.599522      -560.5415
   2   2.0000     -20.582721      -560.0843
   3   2.0000     -20.556641      -559.3746
   4   2.0000     -15.629166      -425.2912
   5   2.0000     -15.609943      -424.7681
   6   2.0000     -11.394296      -310.0546
   7   2.0000     -11.385559      -309.8168
   8   2.0000     -11.334049      -308.4152
   9   2.0000     -11.316825      -307.9465
  10   2.0000     -11.314256      -307.8766
  11   2.0000     -11.303416      -307.5816
  12   2.0000     -11.264517      -306.5231
  13   2.0000     -11.258255      -306.3527
  14   2.0000     -11.257986      -306.3454
  15   2.0000     -11.255990      -306.2911
  16   2.0000     -11.247584      -306.0623
  17   2.0000     -11.242135      -305.9140
  18   2.0000     -11.241842      -305.9061
  19   2.0000     -11.223792      -305.4149
  20   2.0000      -8.895928      -242.0705
  21   2.0000      -6.577495      -178.9827
  22   2.0000      -6.575501      -178.9285
  23   2.0000      -6.574905      -178.9123
  24   2.0000      -1.448602       -39.4185
  25   2.0000      -1.419344       -38.6223
  26   2.0000      -1.357220       -36.9318
  27   2.0000      -1.341631       -36.5076
  28   2.0000      -1.240382       -33.7525
  29   2.0000      -1.160873       -31.5890
  30   2.0000      -1.123658       -30.5763
  31   2.0000      -1.046476       -28.4760
  32   2.0000      -1.033587       -28.1253
  33   2.0000      -1.018662       -27.7192
  34   2.0000      -1.002349       -27.2753
  35   2.0000      -0.988682       -26.9034
  36   2.0000      -0.925149       -25.1746
  37   2.0000      -0.891164       -24.2498
  38   2.0000      -0.849096       -23.1051
  39   2.0000      -0.841783       -22.9061
  40   2.0000      -0.837504       -22.7897
  41   2.0000      -0.823841       -22.4178
  42   2.0000      -0.755861       -20.5680
  43   2.0000      -0.736410       -20.0387
  44   2.0000      -0.726580       -19.7712
  45   2.0000      -0.697929       -18.9916
  46   2.0000      -0.690695       -18.7948
  47   2.0000      -0.675611       -18.3843
  48   2.0000      -0.674974       -18.3670
  49   2.0000      -0.667584       -18.1659
  50   2.0000      -0.649154       -17.6644
  51   2.0000      -0.647324       -17.6146
  52   2.0000      -0.635528       -17.2936
  53   2.0000      -0.610437       -16.6108
  54   2.0000      -0.605538       -16.4775
  55   2.0000      -0.602194       -16.3865
  56   2.0000      -0.594312       -16.1721
  57   2.0000      -0.582072       -15.8390
  58   2.0000      -0.578533       -15.7427
  59   2.0000      -0.573616       -15.6089
  60   2.0000      -0.565586       -15.3904
  61   2.0000      -0.553854       -15.0711
  62   2.0000      -0.540566       -14.7096
  63   2.0000      -0.525106       -14.2889
  64   2.0000      -0.518257       -14.1025
  65   2.0000      -0.514471       -13.9995
  66   2.0000      -0.502428       -13.6718
  67   2.0000      -0.502290       -13.6680
  68   2.0000      -0.478383       -13.0175
  69   2.0000      -0.463709       -12.6182
  70   2.0000      -0.455300       -12.3894
  71   2.0000      -0.452678       -12.3180
  72   2.0000      -0.356611        -9.7039
  73   2.0000      -0.348623        -9.4865
  74   2.0000      -0.329882        -8.9765
  75   2.0000      -0.324820        -8.8388
  76   2.0000      -0.320586        -8.7236
  77   0.0000       0.075281         2.0485
  78   0.0000       0.101944         2.7740
  79   0.0000       0.119445         3.2503
  80   0.0000       0.128246         3.4898
  81   0.0000       0.129397         3.5211

MULLIKEN ATOMIC CHARGES
-----------------------
   0 C :   -0.317339
   1 C :    0.040081
   2 O :   -0.367380
   3 C :    0.443911
   4 O :   -0.370366
   5 C :   -0.230370
   6 C :    0.156873
   7 C :   -0.276468
   8 N :   -0.130565
   9 C :    0.208459
  10 S :   -0.437747
  11 N :   -0.219424
  12 C :    0.036338
  13 C :    0.019684
  14 C :   -0.183578
  15 C :   -0.136341
  16 C :   -0.274896
  17 C :    0.307821
  18 O :   -0.357792
  19 C :   -0.227055
  20 H :    0.113538
  21 H :    0.118301
  22 H :    0.101086
  23 H :    0.115055
  24 H :    0.094302
  25 H :    0.116681
  26 H :    0.141851
  27 H :    0.097182
  28 H :    0.199317
  29 H :    0.202406
  30 H :    0.154716
  31 H :    0.153693
  32 H :    0.163240
  33 H :    0.132731
  34 H :    0.240965
  35 H :    0.171090
Sum of atomic charges:   -0.0000000

LOEWDIN ATOMIC CHARGES
----------------------
   0 C :    0.104131
   1 C :   -0.018106
   2 O :    0.287992
   3 C :   -0.423187
   4 O :    0.134829
   5 C :   -0.096482
   6 C :   -0.069414
   7 C :    0.128418
   8 N :    0.406855
   9 C :   -0.457278
  10 S :   -0.033780
  11 N :    0.396245
  12 C :   -0.053076
  13 C :   -0.042414
  14 C :    0.021253
  15 C :    0.040133
  16 C :   -0.001092
  17 C :   -0.193353
  18 O :    0.396277
  19 C :    0.033666
  20 H :   -0.024446
  21 H :   -0.025540
  22 H :   -0.036164
  23 H :   -0.019557
  24 H :   -0.031689
  25 H :   -0.009509
  26 H :   -0.004323
  27 H :   -0.021636
  28 H :   -0.056969
  29 H :   -0.063468
  30 H :   -0.011237
  31 H :   -0.026822
  32 H :   -0.019708
  33 H :   -0.034569
  34 H :   -0.153358
  35 H :   -0.022622

  Mayer bond orders larger than 0.100000
B(  0-C ,  1-C ) :   0.9642 B(  0-C , 20-H ) :   0.9722 B(  0-C , 21-H ) :   0.9767
B(  0-C , 22-H ) :   0.9683 B(  1-C ,  2-O ) :   0.8913 B(  1-C , 23-H ) :   0.9850
B(  1-C , 24-H ) :   0.9814 B(  2-O ,  3-C ) :   1.1161 B(  3-C ,  4-O ) :   2.1022
B(  3-C ,  5-C ) :   0.9762 B(  5-C ,  6-C ) :   1.6568 B(  5-C , 12-C ) :   0.9598
B(  6-C ,  7-C ) :   0.9558 B(  6-C ,  8-N ) :   1.1371 B(  7-C , 25-H ) :   0.9739
B(  7-C , 26-H ) :   0.9562 B(  7-C , 27-H ) :   0.9847 B(  8-N ,  9-C ) :   1.1921
B(  8-N , 28-H ) :   0.9485 B(  9-C , 10-S ) :   1.6144 B(  9-C , 11-N ) :   1.2935
B( 11-N , 12-C ) :   0.9756 B( 11-N , 29-H ) :   0.9465 B( 12-C , 13-C ) :   0.9541
B( 12-C , 30-H ) :   1.0053 B( 13-C , 14-C ) :   1.3723 B( 13-C , 19-C ) :   1.3553
B( 14-C , 15-C ) :   1.3999 B( 14-C , 31-H ) :   0.9686 B( 15-C , 16-C ) :   1.3539
B( 15-C , 32-H ) :   0.9703 B( 16-C , 17-C ) :   1.3336 B( 16-C , 33-H ) :   0.9846
B( 17-C , 18-O ) :   1.1078 B( 17-C , 19-C ) :   1.3657 B( 18-O , 34-H ) :   0.9795
B( 19-C , 35-H ) :   0.9588

MP2 TOTAL ENERGY:    -1274.315828673 Eh
FINAL SINGLE POINT ENERGY     -1274.315828672703

DIPOLE MOMENT
-------------
                                X             Y             Z
Electronic contribution:      8.64916       8.50785       6.20542
Nuclear contribution   :     -9.93145     -10.17683      -6.36347
                        -----------------------------------------
Total Dipole Moment    :     -1.28228      -1.66898      -0.15805
                        -----------------------------------------
Magnitude (a.u.)       :      2.11062
Magnitude (Debye)      :      5.36478

Rotational constants in cm-1:     0.012078     0.009251     0.006196
Rotational constants in MHz :   362.090750   277.331907   185.748917

                             ****ORCA TERMINATED NORMALLY****
TOTAL RUN TIME: 0 days 1 hours 47 minutes 16 seconds 467 msec
