                         Program Version 4.2.0 -  RELEASE  -
|  1> ! ri-mp2 cc-pvtz cc-pvtz/c TightSCF NoKeepInts
|  2>
|  3> %scf
|  4>   MaxCore 4096
|  5> end
|  6> *xyz  0  1
|  7>     C       15.1901567   15.0641009   13.3900487
|  8>     C       14.5826693   15.6391063   14.6831881
|  9>     O       15.4091581   16.7305812   15.1266160
| 10>     C       16.4439760   16.4882842   15.9848492
| 11>     O       16.8989171   15.3696107   16.1600061
| 12>     C       16.8908840   17.6775386   16.7884674
| 13>     C       16.8056559   18.9536182   16.3262512
| 14>     C       16.0734442   19.4551605   15.0968132
| 15>     N       17.4773506   19.9932492   16.9748108
| 16>     C       18.4247290   19.8171544   17.9466940
| 17>     S       19.2612167   21.0901032   18.5912683
| 18>     N       18.6600898   18.5247959   18.3410685
| 19>     C       17.8771464   17.3480069   17.9169315
| 20>     C       17.2429999   16.5988373   19.0815923
| 21>     C       17.4910055   15.2276345   19.2729575
| 22>     C       16.9075825   14.5392529   20.3498813
| 23>     C       16.0702412   15.2285017   21.2438503
| 24>     C       15.8200180   16.5946388   21.0543171
| 25>     O       15.0089058   17.2616364   21.9137253
| 26>     C       16.4017718   17.2768750   19.9809780
| 27>     H       15.2837317   15.8439102   12.6243040
| 28>     H       14.5553585   14.2639562   12.9906658
| 29>     H       16.1858073   14.6440582   13.5813119
| 30>     H       13.5750173   16.0144018   14.4633729
| 31>     H       14.4959616   14.8616838   15.4551438
| 32>     H       14.9934299   19.2878355   15.1937133
| 33>     H       16.4185323   18.9314911   14.1964565
| 34>     H       16.2214726   20.5274463   14.9199352
| 35>     H       17.3313431   20.9455794   16.6805961
| 36>     H       19.3477633   18.4236016   19.0768803
| 37>     H       18.6702531   16.7430747   17.4537421
| 38>     H       18.1264342   14.6909276   18.5723856
| 39>     H       17.1014210   13.4765849   20.4839039
| 40>     H       15.6164933   14.7004030   22.0757888
| 41>     H       14.7267214   16.6315102   22.5934633
| 42>     H       16.1993408   18.3348484   19.8520220
| 43> *
| 44>
| 45>                          ****END OF INPUT****

CARTESIAN COORDINATES (ANGSTROEM)
---------------------------------
  C     15.190157   15.064101   13.390049
  C     14.582669   15.639106   14.683188
  O     15.409158   16.730581   15.126616
  C     16.443976   16.488284   15.984849
  O     16.898917   15.369611   16.160006
  C     16.890884   17.677539   16.788467
  C     16.805656   18.953618   16.326251
  C     16.073444   19.455161   15.096813
  N     17.477351   19.993249   16.974811
  C     18.424729   19.817154   17.946694
  S     19.261217   21.090103   18.591268
  N     18.660090   18.524796   18.341068
  C     17.877146   17.348007   17.916931
  C     17.243000   16.598837   19.081592
  C     17.491005   15.227635   19.272958
  C     16.907583   14.539253   20.349881
  C     16.070241   15.228502   21.243850
  C     15.820018   16.594639   21.054317
  O     15.008906   17.261636   21.913725
  C     16.401772   17.276875   19.980978
  H     15.283732   15.843910   12.624304
  H     14.555358   14.263956   12.990666
  H     16.185807   14.644058   13.581312
  H     13.575017   16.014402   14.463373
  H     14.495962   14.861684   15.455144
  H     14.993430   19.287835   15.193713
  H     16.418532   18.931491   14.196457
  H     16.221473   20.527446   14.919935
  H     17.331343   20.945579   16.680596
  H     19.347763   18.423602   19.076880
  H     18.670253   16.743075   17.453742
  H     18.126434   14.690928   18.572386
  H     17.101421   13.476585   20.483904
  H     15.616493   14.700403   22.075789
  H     14.726721   16.631510   22.593463
  H     16.199341   18.334848   19.852022

 Total Charge           Charge          ....    0
 Multiplicity           Mult            ....    1
 Number of Electrons    NEL             ....  154
 Basis Dimension        Dim             ....  828

ORBITAL ENERGIES
----------------

  NO   OCC          E(Eh)            E(eV)
   0   2.0000     -91.887871     -2500.3961
   1   2.0000     -20.602700      -560.6280
   2   2.0000     -20.591403      -560.3206
   3   2.0000     -20.546444      -559.0972
   4   2.0000     -15.628372      -425.2696
   5   2.0000     -15.605567      -424.6491
   6   2.0000     -11.396814      -310.1231
   7   2.0000     -11.382401      -309.7309
   8   2.0000     -11.338001      -308.5227
   9   2.0000     -11.307418      -307.6905
  10   2.0000     -11.304173      -307.6022
  11   2.0000     -11.300870      -307.5123
  12   2.0000     -11.260998      -306.4273
  13   2.0000     -11.258914      -306.3706
  14   2.0000     -11.254730      -306.2568
  15   2.0000     -11.247536      -306.0610
  16   2.0000     -11.237724      -305.7940
  17   2.0000     -11.233822      -305.6878
  18   2.0000     -11.230637      -305.6012
  19   2.0000     -11.226374      -305.4852
  20   2.0000      -8.892956      -241.9896
  21   2.0000      -6.574534      -178.9022
  22   2.0000      -6.572530      -178.8476
  23   2.0000      -6.571943      -178.8317
  24   2.0000      -1.454453       -39.5777
  25   2.0000      -1.411147       -38.3993
  26   2.0000      -1.357881       -36.9498
  27   2.0000      -1.339750       -36.4564
  28   2.0000      -1.236905       -33.6579
  29   2.0000      -1.152119       -31.3508
  30   2.0000      -1.120703       -30.4959
  31   2.0000      -1.042755       -28.3748
  32   2.0000      -1.034639       -28.1540
  33   2.0000      -1.009587       -27.4722
  34   2.0000      -0.998198       -27.1623
  35   2.0000      -0.983189       -26.7539
  36   2.0000      -0.920628       -25.0516
  37   2.0000      -0.891268       -24.2526
  38   2.0000      -0.847528       -23.0624
  39   2.0000      -0.834911       -22.7191
  40   2.0000      -0.827744       -22.5241
  41   2.0000      -0.818812       -22.2810
  42   2.0000      -0.756599       -20.5881
  43   2.0000      -0.735141       -20.0042
  44   2.0000      -0.725959       -19.7543
  45   2.0000      -0.690396       -18.7866
  46   2.0000      -0.685779       -18.6610
  47   2.0000      -0.680183       -18.5087
  48   2.0000      -0.670701       -18.2507
  49   2.0000      -0.658254       -17.9120
  50   2.0000      -0.646514       -17.5925
  51   2.0000      -0.639636       -17.4054
  52   2.0000      -0.629761       -17.1367
  53   2.0000      -0.611472       -16.6390
  54   2.0000      -0.602265       -16.3885
  55   2.0000      -0.597955       -16.2712
  56   2.0000      -0.594579       -16.1793
  57   2.0000      -0.585439       -15.9306
  58   2.0000      -0.572656       -15.5828
  59   2.0000      -0.565810       -15.3965
  60   2.0000      -0.560731       -15.2583
  61   2.0000      -0.547150       -14.8887
  62   2.0000      -0.535721       -14.5777
  63   2.0000      -0.526381       -14.3236
  64   2.0000      -0.515402       -14.0248
  65   2.0000      -0.509341       -13.8599
  66   2.0000      -0.500907       -13.6304
  67   2.0000      -0.493920       -13.4402
  68   2.0000      -0.480348       -13.0709
  69   2.0000      -0.464022       -12.6267
  70   2.0000      -0.455858       -12.4045
  71   2.0000      -0.454406       -12.3650
  72   2.0000      -0.352995        -9.6055
  73   2.0000      -0.344238        -9.3672
  74   2.0000      -0.326950        -8.8968
  75   2.0000      -0.317047        -8.6273
  76   2.0000      -0.314075        -8.5464
  77   0.0000       0.077419         2.1067
  78   0.0000       0.111973         3.0469
  79   0.0000       0.121623         3.3095
  80   0.0000       0.136071         3.7027
  81   0.0000       0.140611         3.8262

MULLIKEN ATOMIC CHARGES
-----------------------
   0 C :   -0.286566
   1 C :    0.032396
   2 O :   -0.345409
   3 C :    0.416297
   4 O :   -0.426930
   5 C :   -0.163492
   6 C :    0.162825
   7 C :   -0.281170
   8 N :   -0.129284
   9 C :    0.207481
  10 S :   -0.442684
  11 N :   -0.210876
  12 C :    0.041254
  13 C :    0.031074
  14 C :   -0.167284
  15 C :   -0.134423
  16 C :   -0.276974
  17 C :    0.314387
  18 O :   -0.359009
  19 C :   -0.250395
  20 H :    0.089942
  21 H :    0.094253
  22 H :    0.114735
  23 H :    0.105520
  24 H :    0.103865
  25 H :    0.130229
  26 H :    0.124862
  27 H :    0.101545
  28 H :    0.198878
  29 H :    0.200002
  30 H :    0.155236
  31 H :    0.158683
  32 H :    0.159792
  33 H :    0.128111
  34 H :    0.239849
  35 H :    0.163278
Sum of atomic charges:   -0.0000000

LOEWDIN ATOMIC CHARGES
----------------------
   0 C :    0.104103
   1 C :   -0.016167
   2 O :    0.305713
   3 C :   -0.414177
   4 O :    0.104320
   5 C :   -0.090817
   6 C :   -0.064267
   7 C :    0.125027
   8 N :    0.405406
   9 C :   -0.458690
  10 S :   -0.037831
  11 N :    0.396470
  12 C :   -0.048185
  13 C :   -0.040535
  14 C :    0.024724
  15 C :    0.040813
  16 C :   -0.001121
  17 C :   -0.192390
  18 O :    0.393120
  19 C :    0.029907
  20 H :   -0.030639
  21 H :   -0.027304
  22 H :   -0.023988
  23 H :   -0.026732
  24 H :   -0.026144
  25 H :   -0.009045
  26 H :   -0.009861
  27 H :   -0.021233
  28 H :   -0.058763
  29 H :   -0.063093
  30 H :   -0.008411
  31 H :   -0.024125
  32 H :   -0.021137
  33 H :   -0.036197
  34 H :   -0.154916
  35 H :   -0.023833

  Mayer bond orders larger than 0.100000
B(  0-C ,  1-C ) :   0.9665 B(  0-C , 20-H ) :   0.9778 B(  0-C , 21-H ) :   0.9764
B(  0-C , 22-H ) :   0.9748 B(  1-C ,  2-O ) :   0.8994 B(  1-C , 23-H ) :   0.9846
B(  1-C , 24-H ) :   0.9747 B(  2-O ,  3-C ) :   1.1379 B(  3-C ,  4-O ) :   1.9638
B(  3-C ,  5-C ) :   1.0579 B(  5-C ,  6-C ) :   1.6550 B(  5-C , 12-C ) :   0.9474
B(  6-C ,  7-C ) :   0.9540 B(  6-C ,  8-N ) :   1.1336 B(  7-C , 25-H ) :   0.9632
B(  7-C , 26-H ) :   0.9656 B(  7-C , 27-H ) :   0.9911 B(  8-N ,  9-C ) :   1.1859
B(  8-N , 28-H ) :   0.9468 B(  9-C , 10-S ) :   1.6078 B(  9-C , 11-N ) :   1.3063
B( 11-N , 12-C ) :   0.9758 B( 11-N , 29-H ) :   0.9484 B( 12-C , 13-C ) :   0.9744
B( 12-C , 30-H ) :   0.9972 B( 13-C , 14-C ) :   1.3754 B( 13-C , 19-C ) :   1.3669
B( 14-C , 15-C ) :   1.3971 B( 14-C , 31-H ) :   0.9640 B( 15-C , 16-C ) :   1.3587
B( 15-C , 32-H ) :   0.9712 B( 16-C , 17-C ) :   1.3333 B( 16-C , 33-H ) :   0.9860
B( 17-C , 18-O ) :   1.1033 B( 17-C , 19-C ) :   1.3674 B( 18-O , 34-H ) :   0.9807
B( 19-C , 35-H ) :   0.9601

MP2 TOTAL ENERGY:    -1274.340027861 Eh
FINAL SINGLE POINT ENERGY     -1274.340027861031

DIPOLE MOMENT
-------------
                                X             Y             Z
Electronic contribution:      8.83339       9.56233      12.89459
Nuclear contribution   :    -10.43270     -10.73792     -13.84014
                        -----------------------------------------
Total Dipole Moment    :     -1.59931      -1.17558      -0.94555
                        -----------------------------------------
Magnitude (a.u.)       :      2.19861
Magnitude (Debye)      :      5.58841

Rotational constants in cm-1:     0.009980     0.008823     0.005445
Rotational constants in MHz :   299.190633   264.503999   163.227101

                             ****ORCA TERMINATED NORMALLY****
TOTAL RUN TIME: 0 days 1 hours 33 minutes 25 seconds 452 msec
