                         Program Version 4.2.0 -  RELEASE  -
|  1> ! ri-mp2 cc-pvtz cc-pvtz/c TightSCF NoKeepInts
|  2>
|  3> %scf
|  4>   MaxCore 4096
|  5> end
|  6> *xyz  0  1
|  7>     C       14.9703845   14.7418570   13.8394943
|  8>     C       14.5137227   15.7897852   14.8749070
|  9>     O       15.5317598   16.7964876   15.0299089
| 10>     C       16.5963985   16.5665717   15.8545263
| 11>     O       17.0787685   15.4582704   16.0153432
| 12>     C       16.9842246   17.7416993   16.7063724
| 13>     C       16.8848085   19.0250539   16.2693166
| 14>     C       16.1925934   19.5318022   15.0191581
| 15>     N       17.5047684   20.0657311   16.9657254
| 16>     C       18.4200673   19.8897229   17.9680954
| 17>     S       19.1991415   21.1671633   18.6728652
| 18>     N       18.6741418   18.5943282   18.3410453
| 19>     C       17.9368811   17.4090102   17.8619294
| 20>     C       17.2784440   16.6163292   18.9834549
| 21>     C       17.5464381   15.2451723   19.1458400
| 22>     C       16.9391983   14.5160006   20.1819598
| 23>     C       16.0574144   15.1640295   21.0639444
| 24>     C       15.7869916   16.5299768   20.9029946
| 25>     O       14.9326464   17.1571319   21.7503966
| 26>     C       16.3924013   17.2528320   19.8700760
| 27>     H       15.2623326   15.2272413   12.9001473
| 28>     H       14.1562987   14.0397721   13.6229801
| 29>     H       15.8240269   14.1599671   14.2074964
| 30>     H       13.5932420   16.2645635   14.5118233
| 31>     H       14.2922885   15.3078049   15.8371621
| 32>     H       16.5631026   19.0089976   14.1283641
| 33>     H       16.3513023   20.6037056   14.8491746
| 34>     H       15.1096219   19.3678998   15.0820494
| 35>     H       17.3457120   21.0208209   16.6875313
| 36>     H       19.3378011   18.4925477   19.0985233
| 37>     H       18.7609879   16.8344562   17.4143552
| 38>     H       18.2166861   14.7403773   18.4539595
| 39>     H       17.1494609   13.4538634   20.2937998
| 40>     H       15.5853384   14.6043656   21.8644788
| 41>     H       14.6440247   16.5046791   22.4059845
| 42>     H       16.1735785   18.3099826   19.7628162
| 43> *
| 44>
| 45>                          ****END OF INPUT****

CARTESIAN COORDINATES (ANGSTROEM)
---------------------------------
  C     14.970384   14.741857   13.839494
  C     14.513723   15.789785   14.874907
  O     15.531760   16.796488   15.029909
  C     16.596398   16.566572   15.854526
  O     17.078768   15.458270   16.015343
  C     16.984225   17.741699   16.706372
  C     16.884808   19.025054   16.269317
  C     16.192593   19.531802   15.019158
  N     17.504768   20.065731   16.965725
  C     18.420067   19.889723   17.968095
  S     19.199141   21.167163   18.672865
  N     18.674142   18.594328   18.341045
  C     17.936881   17.409010   17.861929
  C     17.278444   16.616329   18.983455
  C     17.546438   15.245172   19.145840
  C     16.939198   14.516001   20.181960
  C     16.057414   15.164029   21.063944
  C     15.786992   16.529977   20.902995
  O     14.932646   17.157132   21.750397
  C     16.392401   17.252832   19.870076
  H     15.262333   15.227241   12.900147
  H     14.156299   14.039772   13.622980
  H     15.824027   14.159967   14.207496
  H     13.593242   16.264564   14.511823
  H     14.292288   15.307805   15.837162
  H     16.563103   19.008998   14.128364
  H     16.351302   20.603706   14.849175
  H     15.109622   19.367900   15.082049
  H     17.345712   21.020821   16.687531
  H     19.337801   18.492548   19.098523
  H     18.760988   16.834456   17.414355
  H     18.216686   14.740377   18.453959
  H     17.149461   13.453863   20.293800
  H     15.585338   14.604366   21.864479
  H     14.644025   16.504679   22.405984
  H     16.173579   18.309983   19.762816

 Total Charge           Charge          ....    0
 Multiplicity           Mult            ....    1
 Number of Electrons    NEL             ....  154
 Basis Dimension        Dim             ....  828

ORBITAL ENERGIES
----------------

  NO   OCC          E(Eh)            E(eV)
   0   2.0000     -91.888093     -2500.4021
   1   2.0000     -20.597505      -560.4866
   2   2.0000     -20.592317      -560.3454
   3   2.0000     -20.548958      -559.1656
   4   2.0000     -15.628523      -425.2737
   5   2.0000     -15.605811      -424.6557
   6   2.0000     -11.396778      -310.1221
   7   2.0000     -11.382680      -309.7385
   8   2.0000     -11.337675      -308.5138
   9   2.0000     -11.308399      -307.7172
  10   2.0000     -11.304429      -307.6091
  11   2.0000     -11.303125      -307.5737
  12   2.0000     -11.260104      -306.4030
  13   2.0000     -11.258973      -306.3722
  14   2.0000     -11.255640      -306.2815
  15   2.0000     -11.248524      -306.0879
  16   2.0000     -11.238662      -305.8196
  17   2.0000     -11.234717      -305.7122
  18   2.0000     -11.231550      -305.6260
  19   2.0000     -11.222144      -305.3701
  20   2.0000      -8.893177      -241.9956
  21   2.0000      -6.574754      -178.9081
  22   2.0000      -6.572751      -178.8537
  23   2.0000      -6.572163      -178.8376
  24   2.0000      -1.452712       -39.5303
  25   2.0000      -1.412063       -38.4242
  26   2.0000      -1.358780       -36.9743
  27   2.0000      -1.339846       -36.4591
  28   2.0000      -1.237035       -33.6614
  29   2.0000      -1.152915       -31.3724
  30   2.0000      -1.120922       -30.5018
  31   2.0000      -1.042580       -28.3700
  32   2.0000      -1.033203       -28.1149
  33   2.0000      -1.010422       -27.4950
  34   2.0000      -0.998336       -27.1661
  35   2.0000      -0.983286       -26.7566
  36   2.0000      -0.921002       -25.0617
  37   2.0000      -0.889654       -24.2087
  38   2.0000      -0.847989       -23.0750
  39   2.0000      -0.835910       -22.7463
  40   2.0000      -0.828681       -22.5496
  41   2.0000      -0.821383       -22.3510
  42   2.0000      -0.753211       -20.4959
  43   2.0000      -0.733831       -19.9686
  44   2.0000      -0.726596       -19.7717
  45   2.0000      -0.691194       -18.8083
  46   2.0000      -0.685948       -18.6656
  47   2.0000      -0.680295       -18.5118
  48   2.0000      -0.669607       -18.2209
  49   2.0000      -0.662251       -18.0208
  50   2.0000      -0.645363       -17.5612
  51   2.0000      -0.641085       -17.4448
  52   2.0000      -0.632400       -17.2085
  53   2.0000      -0.605994       -16.4899
  54   2.0000      -0.599626       -16.3166
  55   2.0000      -0.598490       -16.2857
  56   2.0000      -0.595231       -16.1971
  57   2.0000      -0.587590       -15.9891
  58   2.0000      -0.573355       -15.6018
  59   2.0000      -0.567690       -15.4476
  60   2.0000      -0.560485       -15.2516
  61   2.0000      -0.547742       -14.9048
  62   2.0000      -0.536673       -14.6036
  63   2.0000      -0.519936       -14.1482
  64   2.0000      -0.516080       -14.0433
  65   2.0000      -0.510718       -13.8974
  66   2.0000      -0.502594       -13.6763
  67   2.0000      -0.494511       -13.4563
  68   2.0000      -0.480012       -13.0618
  69   2.0000      -0.462020       -12.5722
  70   2.0000      -0.457227       -12.4418
  71   2.0000      -0.451159       -12.2767
  72   2.0000      -0.352999        -9.6056
  73   2.0000      -0.345030        -9.3887
  74   2.0000      -0.327178        -8.9030
  75   2.0000      -0.317292        -8.6339
  76   2.0000      -0.315120        -8.5748
  77   0.0000       0.075985         2.0676
  78   0.0000       0.110769         3.0142
  79   0.0000       0.121825         3.3150
  80   0.0000       0.135519         3.6876
  81   0.0000       0.140135         3.8133

MULLIKEN ATOMIC CHARGES
-----------------------
   0 C :   -0.286972
   1 C :    0.039936
   2 O :   -0.355155
   3 C :    0.416753
   4 O :   -0.416885
   5 C :   -0.153011
   6 C :    0.153180
   7 C :   -0.279640
   8 N :   -0.128475
   9 C :    0.207659
  10 S :   -0.442330
  11 N :   -0.211043
  12 C :    0.039868
  13 C :    0.032574
  14 C :   -0.170600
  15 C :   -0.134481
  16 C :   -0.277429
  17 C :    0.313857
  18 O :   -0.358809
  19 C :   -0.251007
  20 H :    0.089686
  21 H :    0.091191
  22 H :    0.123481
  23 H :    0.101864
  24 H :    0.093644
  25 H :    0.125157
  26 H :    0.101386
  27 H :    0.128469
  28 H :    0.198829
  29 H :    0.199858
  30 H :    0.155989
  31 H :    0.159790
  32 H :    0.160287
  33 H :    0.128486
  34 H :    0.239967
  35 H :    0.163923
Sum of atomic charges:   -0.0000000

LOEWDIN ATOMIC CHARGES
----------------------
   0 C :    0.104922
   1 C :   -0.015567
   2 O :    0.298594
   3 C :   -0.414192
   4 O :    0.114427
   5 C :   -0.092405
   6 C :   -0.064868
   7 C :    0.125483
   8 N :    0.405434
   9 C :   -0.458507
  10 S :   -0.037637
  11 N :    0.396270
  12 C :   -0.048232
  13 C :   -0.040775
  14 C :    0.024195
  15 C :    0.040741
  16 C :   -0.001275
  17 C :   -0.192566
  18 O :    0.393181
  19 C :    0.029610
  20 H :   -0.029750
  21 H :   -0.029318
  22 H :   -0.025461
  23 H :   -0.025583
  24 H :   -0.027512
  25 H :   -0.009158
  26 H :   -0.021044
  27 H :   -0.009293
  28 H :   -0.058652
  29 H :   -0.063244
  30 H :   -0.008187
  31 H :   -0.023990
  32 H :   -0.020996
  33 H :   -0.036115
  34 H :   -0.154797
  35 H :   -0.023732

  Mayer bond orders larger than 0.100000
B(  0-C ,  1-C ) :   0.9724 B(  0-C , 20-H ) :   0.9761 B(  0-C , 21-H ) :   0.9764
B(  0-C , 22-H ) :   0.9717 B(  1-C ,  2-O ) :   0.9052 B(  1-C , 23-H ) :   0.9846
B(  1-C , 24-H ) :   0.9759 B(  2-O ,  3-C ) :   1.0999 B(  3-C ,  4-O ) :   1.9841
B(  3-C ,  5-C ) :   1.0450 B(  5-C ,  6-C ) :   1.6562 B(  5-C , 12-C ) :   0.9454
B(  6-C ,  7-C ) :   0.9551 B(  6-C ,  8-N ) :   1.1338 B(  7-C , 25-H ) :   0.9657
B(  7-C , 26-H ) :   0.9908 B(  7-C , 27-H ) :   0.9632 B(  8-N ,  9-C ) :   1.1859
B(  8-N , 28-H ) :   0.9470 B(  9-C , 10-S ) :   1.6085 B(  9-C , 11-N ) :   1.3054
B( 11-N , 12-C ) :   0.9759 B( 11-N , 29-H ) :   0.9484 B( 12-C , 13-C ) :   0.9722
B( 12-C , 30-H ) :   0.9968 B( 13-C , 14-C ) :   1.3768 B( 13-C , 19-C ) :   1.3656
B( 14-C , 15-C ) :   1.3972 B( 14-C , 31-H ) :   0.9636 B( 15-C , 16-C ) :   1.3589
B( 15-C , 32-H ) :   0.9711 B( 16-C , 17-C ) :   1.3331 B( 16-C , 33-H ) :   0.9859
B( 17-C , 18-O ) :   1.1038 B( 17-C , 19-C ) :   1.3673 B( 18-O , 34-H ) :   0.9806
B( 19-C , 35-H ) :   0.9600

MP2 TOTAL ENERGY:    -1274.333891028 Eh
FINAL SINGLE POINT ENERGY     -1274.333891027990

DIPOLE MOMENT
-------------
                                X             Y             Z
Electronic contribution:      9.52116      10.24880      11.64468
Nuclear contribution   :    -11.14088     -11.41491     -12.48456
                        -----------------------------------------
Total Dipole Moment    :     -1.61971      -1.16611      -0.83988
                        -----------------------------------------
Magnitude (a.u.)       :      2.16534
Magnitude (Debye)      :      5.50386

Rotational constants in cm-1:     0.009922     0.009073     0.005547
Rotational constants in MHz :   297.467226   272.007260   166.289343

                             ****ORCA TERMINATED NORMALLY****
TOTAL RUN TIME: 0 days 1 hours 35 minutes 8 seconds 136 msec
