                         Program Version 4.2.0 -  RELEASE  -
|  1> ! ri-mp2 cc-pvtz cc-pvtz/c TightSCF NoKeepInts
|  2>
|  3> %scf
|  4>   MaxCore 4096
|  5> end
|  6> *xyz  0  1
|  7>     C       14.7102896   14.9184307   16.5746812
|  8>     C       15.3296233   15.5825587   15.3353531
|  9>     O       16.7597373   15.6705956   15.4834345
| 10>     C       17.3333117   16.8766102   15.2177488
| 11>     O       17.8175229   17.1098395   14.1255189
| 12>     C       17.1761911   17.8972820   16.3027720
| 13>     C       17.0527856   19.2020452   15.9559065
| 14>     C       16.6366270   19.7351275   14.6010216
| 15>     N       17.3064764   20.2243064   16.8717078
| 16>     C       17.9366665   20.0367285   18.0721805
| 17>     S       18.3282252   21.3009791   19.0636898
| 18>     N       18.2508445   18.7412132   18.3993560
| 19>     C       17.8136734   17.5421536   17.6560953
| 20>     C       17.0788352   16.5373842   18.5304200
| 21>     C       17.4943495   15.1939466   18.5777728
| 22>     C       16.8498492   14.2769102   19.4251613
| 23>     C       15.7861412   14.7084042   20.2362566
| 24>     C       15.3762692   16.0483472   20.1978600
| 25>     O       14.3496573   16.4674449   20.9792629
| 26>     C       16.0188298   16.9591248   19.3527099
| 27>     H       15.2712370   14.0195623   16.8588737
| 28>     H       13.6736521   14.6241834   16.3715415
| 29>     H       14.6970170   15.6099786   17.4212173
| 30>     H       15.1020793   14.9811540   14.4453919
| 31>     H       14.8783932   16.5743315   15.1937903
| 32>     H       17.5079849   19.8126691   13.9373790
| 33>     H       16.1687890   20.7248016   14.6646729
| 34>     H       15.9162540   19.0657992   14.1150993
| 35>     H       17.1210195   21.1823514   16.6204164
| 36>     H       18.7034322   18.6309789   19.2983581
| 37>     H       18.8014135   17.1358136   17.3943609
| 38>     H       18.3163932   14.8581350   17.9504845
| 39>     H       17.1755218   13.2383315   19.4509091
| 40>     H       15.2856758   14.0032987   20.8918483
| 41>     H       14.0686349   15.7146856   21.5211425
| 42>     H       15.6935965   17.9944934   19.3436046
| 43> *
| 44>
| 45>                          ****END OF INPUT****

CARTESIAN COORDINATES (ANGSTROEM)
---------------------------------
  C     14.710290   14.918431   16.574681
  C     15.329623   15.582559   15.335353
  O     16.759737   15.670596   15.483434
  C     17.333312   16.876610   15.217749
  O     17.817523   17.109839   14.125519
  C     17.176191   17.897282   16.302772
  C     17.052786   19.202045   15.955906
  C     16.636627   19.735128   14.601022
  N     17.306476   20.224306   16.871708
  C     17.936667   20.036728   18.072180
  S     18.328225   21.300979   19.063690
  N     18.250844   18.741213   18.399356
  C     17.813673   17.542154   17.656095
  C     17.078835   16.537384   18.530420
  C     17.494349   15.193947   18.577773
  C     16.849849   14.276910   19.425161
  C     15.786141   14.708404   20.236257
  C     15.376269   16.048347   20.197860
  O     14.349657   16.467445   20.979263
  C     16.018830   16.959125   19.352710
  H     15.271237   14.019562   16.858874
  H     13.673652   14.624183   16.371541
  H     14.697017   15.609979   17.421217
  H     15.102079   14.981154   14.445392
  H     14.878393   16.574331   15.193790
  H     17.507985   19.812669   13.937379
  H     16.168789   20.724802   14.664673
  H     15.916254   19.065799   14.115099
  H     17.121019   21.182351   16.620416
  H     18.703432   18.630979   19.298358
  H     18.801413   17.135814   17.394361
  H     18.316393   14.858135   17.950485
  H     17.175522   13.238331   19.450909
  H     15.285676   14.003299   20.891848
  H     14.068635   15.714686   21.521142
  H     15.693596   17.994493   19.343605

 Total Charge           Charge          ....    0
 Multiplicity           Mult            ....    1
 Number of Electrons    NEL             ....  154
 Basis Dimension        Dim             ....  828

ORBITAL ENERGIES
----------------

  NO   OCC          E(Eh)            E(eV)
   0   2.0000     -91.890957     -2500.4801
   1   2.0000     -20.600477      -560.5675
   2   2.0000     -20.583778      -560.1131
   3   2.0000     -20.556798      -559.3789
   4   2.0000     -15.629192      -425.2919
   5   2.0000     -15.610155      -424.7739
   6   2.0000     -11.393896      -310.0437
   7   2.0000     -11.385696      -309.8205
   8   2.0000     -11.334236      -308.4202
   9   2.0000     -11.318041      -307.9796
  10   2.0000     -11.314516      -307.8836
  11   2.0000     -11.301970      -307.5422
  12   2.0000     -11.265724      -306.5559
  13   2.0000     -11.258741      -306.3659
  14   2.0000     -11.257651      -306.3363
  15   2.0000     -11.256523      -306.3056
  16   2.0000     -11.248016      -306.0741
  17   2.0000     -11.243327      -305.9465
  18   2.0000     -11.242448      -305.9226
  19   2.0000     -11.222712      -305.3855
  20   2.0000      -8.896008      -242.0727
  21   2.0000      -6.577575      -178.9849
  22   2.0000      -6.575581      -178.9307
  23   2.0000      -6.574985      -178.9144
  24   2.0000      -1.450140       -39.4603
  25   2.0000      -1.420280       -38.6478
  26   2.0000      -1.359167       -36.9848
  27   2.0000      -1.341745       -36.5107
  28   2.0000      -1.240550       -33.7571
  29   2.0000      -1.161632       -31.6096
  30   2.0000      -1.124063       -30.5873
  31   2.0000      -1.047194       -28.4956
  32   2.0000      -1.034335       -28.1457
  33   2.0000      -1.019841       -27.7513
  34   2.0000      -1.001891       -27.2628
  35   2.0000      -0.988524       -26.8991
  36   2.0000      -0.925558       -25.1857
  37   2.0000      -0.881392       -23.9839
  38   2.0000      -0.849763       -23.1232
  39   2.0000      -0.842277       -22.9195
  40   2.0000      -0.838374       -22.8133
  41   2.0000      -0.831464       -22.6253
  42   2.0000      -0.761579       -20.7236
  43   2.0000      -0.736920       -20.0526
  44   2.0000      -0.726409       -19.7666
  45   2.0000      -0.698761       -19.0143
  46   2.0000      -0.690548       -18.7908
  47   2.0000      -0.682659       -18.5761
  48   2.0000      -0.675211       -18.3734
  49   2.0000      -0.663768       -18.0620
  50   2.0000      -0.649287       -17.6680
  51   2.0000      -0.642811       -17.4918
  52   2.0000      -0.630656       -17.1610
  53   2.0000      -0.612335       -16.6625
  54   2.0000      -0.610107       -16.6019
  55   2.0000      -0.604053       -16.4371
  56   2.0000      -0.602334       -16.3903
  57   2.0000      -0.580910       -15.8074
  58   2.0000      -0.575793       -15.6681
  59   2.0000      -0.567803       -15.4507
  60   2.0000      -0.564637       -15.3645
  61   2.0000      -0.551224       -14.9996
  62   2.0000      -0.539883       -14.6910
  63   2.0000      -0.525545       -14.3008
  64   2.0000      -0.517219       -14.0742
  65   2.0000      -0.513575       -13.9751
  66   2.0000      -0.502924       -13.6852
  67   2.0000      -0.501620       -13.6498
  68   2.0000      -0.485045       -13.1988
  69   2.0000      -0.464360       -12.6359
  70   2.0000      -0.455138       -12.3849
  71   2.0000      -0.452994       -12.3266
  72   2.0000      -0.356238        -9.6937
  73   2.0000      -0.351205        -9.5568
  74   2.0000      -0.329971        -8.9790
  75   2.0000      -0.325331        -8.8527
  76   2.0000      -0.320738        -8.7277
  77   0.0000       0.076420         2.0795
  78   0.0000       0.100055         2.7226
  79   0.0000       0.121562         3.3079
  80   0.0000       0.128356         3.4927
  81   0.0000       0.129796         3.5319

MULLIKEN ATOMIC CHARGES
-----------------------
   0 C :   -0.304862
   1 C :    0.042393
   2 O :   -0.356643
   3 C :    0.422952
   4 O :   -0.365217
   5 C :   -0.214510
   6 C :    0.161611
   7 C :   -0.276859
   8 N :   -0.130680
   9 C :    0.209274
  10 S :   -0.437808
  11 N :   -0.216045
  12 C :    0.022704
  13 C :    0.012543
  14 C :   -0.160037
  15 C :   -0.159691
  16 C :   -0.258567
  17 C :    0.301408
  18 O :   -0.358120
  19 C :   -0.229735
  20 H :    0.105796
  21 H :    0.111220
  22 H :    0.108499
  23 H :    0.114998
  24 H :    0.079302
  25 H :    0.141402
  26 H :    0.097499
  27 H :    0.116078
  28 H :    0.199206
  29 H :    0.202123
  30 H :    0.154995
  31 H :    0.151175
  32 H :    0.166309
  33 H :    0.133848
  34 H :    0.240959
  35 H :    0.172479
Sum of atomic charges:   -0.0000000

LOEWDIN ATOMIC CHARGES
----------------------
   0 C :    0.107816
   1 C :   -0.018658
   2 O :    0.292517
   3 C :   -0.427619
   4 O :    0.134886
   5 C :   -0.101125
   6 C :   -0.068876
   7 C :    0.128904
   8 N :    0.406734
   9 C :   -0.457010
  10 S :   -0.033733
  11 N :    0.396236
  12 C :   -0.053908
  13 C :   -0.042977
  14 C :    0.023310
  15 C :    0.045019
  16 C :    0.001201
  17 C :   -0.192363
  18 O :    0.396501
  19 C :    0.029900
  20 H :   -0.025423
  21 H :   -0.026715
  22 H :   -0.028984
  23 H :   -0.026693
  24 H :   -0.034308
  25 H :   -0.004256
  26 H :   -0.021310
  27 H :   -0.010486
  28 H :   -0.056867
  29 H :   -0.063429
  30 H :   -0.011453
  31 H :   -0.027120
  32 H :   -0.019898
  33 H :   -0.034490
  34 H :   -0.153010
  35 H :   -0.022310

  Mayer bond orders larger than 0.100000
B(  0-C ,  1-C ) :   0.9752 B(  0-C , 20-H ) :   0.9719 B(  0-C , 21-H ) :   0.9801
B(  0-C , 22-H ) :   0.9731 B(  1-C ,  2-O ) :   0.8952 B(  1-C , 23-H ) :   0.9844
B(  1-C , 24-H ) :   0.9695 B(  2-O ,  3-C ) :   1.1112 B(  3-C ,  4-O ) :   2.1138
B(  3-C ,  5-C ) :   0.9771 B(  5-C ,  6-C ) :   1.6483 B(  5-C , 12-C ) :   0.9692
B(  6-C ,  7-C ) :   0.9564 B(  6-C ,  8-N ) :   1.1377 B(  7-C , 25-H ) :   0.9556
B(  7-C , 26-H ) :   0.9845 B(  7-C , 27-H ) :   0.9748 B(  8-N ,  9-C ) :   1.1920
B(  8-N , 28-H ) :   0.9489 B(  9-C , 10-S ) :   1.6148 B(  9-C , 11-N ) :   1.2933
B( 11-N , 12-C ) :   0.9777 B( 11-N , 29-H ) :   0.9466 B( 12-C , 13-C ) :   0.9523
B( 12-C , 30-H ) :   1.0050 B( 13-C , 14-C ) :   1.3705 B( 13-C , 19-C ) :   1.3588
B( 14-C , 15-C ) :   1.3943 B( 14-C , 31-H ) :   0.9712 B( 15-C , 16-C ) :   1.3526
B( 15-C , 32-H ) :   0.9703 B( 16-C , 17-C ) :   1.3358 B( 16-C , 33-H ) :   0.9838
B( 17-C , 18-O ) :   1.1077 B( 17-C , 19-C ) :   1.3624 B( 18-O , 34-H ) :   0.9793
B( 19-C , 35-H ) :   0.9587

MP2 TOTAL ENERGY:    -1274.316570403 Eh
FINAL SINGLE POINT ENERGY     -1274.316570403364

DIPOLE MOMENT
-------------
                                X             Y             Z
Electronic contribution:      8.99259       9.68339       5.83515
Nuclear contribution   :    -10.39754     -11.21001      -5.91966
                        -----------------------------------------
Total Dipole Moment    :     -1.40494      -1.52662      -0.08451
                        -----------------------------------------
Magnitude (a.u.)       :      2.07643
Magnitude (Debye)      :      5.27788

Rotational constants in cm-1:     0.012172     0.009054     0.006063
Rotational constants in MHz :   364.914216   271.441627   181.753475

                             ****ORCA TERMINATED NORMALLY****
TOTAL RUN TIME: 0 days 1 hours 43 minutes 25 seconds 986 msec
