                         Program Version 4.2.0 -  RELEASE  -
|  1> ! ri-mp2 cc-pvtz cc-pvtz/c TightSCF NoKeepInts
|  2>
|  3> %scf
|  4>   MaxCore 4096
|  5> end
|  6> *xyz  0  1
|  7>     C       14.6812884   15.0278900   15.8883610
|  8>     C       14.7849372   16.3786636   15.1498393
|  9>     O       16.1195055   16.5598800   14.6345055
| 10>     C       17.1625321   16.5551145   15.5128975
| 11>     O       17.9452937   15.6238411   15.5693780
| 12>     C       17.2112958   17.7248081   16.4481998
| 13>     C       16.9674607   18.9921189   16.0283805
| 14>     C       16.4375716   19.4278956   14.6766322
| 15>     N       17.2765912   20.0834432   16.8435516
| 16>     C       18.0273179   20.0051514   17.9863998
| 17>     S       18.4421518   21.3529288   18.8500911
| 18>     N       18.4344285   18.7504212   18.3664703
| 19>     C       18.0073848   17.4871643   17.7331986
| 20>     C       17.3091037   16.5245532   18.6831901
| 21>     C       17.7242711   15.1839576   18.7730644
| 22>     C       17.0647280   14.2878806   19.6307265
| 23>     C       15.9799526   14.7362509   20.4037223
| 24>     C       15.5615513   16.0708659   20.3125898
| 25>     O       14.5082948   16.5042308   21.0498953
| 26>     C       16.2192319   16.9602943   19.4568330
| 27>     H       15.2780361   15.0282948   16.8096036
| 28>     H       15.0351203   14.2090978   15.2488866
| 29>     H       13.6403003   14.8207550   16.1641686
| 30>     H       14.0727509   16.3893496   14.3145907
| 31>     H       14.5173818   17.1941435   15.8347008
| 32>     H       16.9537245   18.9015599   13.8633242
| 33>     H       16.5819355   20.5002436   14.4953402
| 34>     H       15.3651293   19.2198080   14.5870761
| 35>     H       17.0101334   21.0137933   16.5626982
| 36>     H       18.9754678   18.7192113   19.2215794
| 37>     H       18.9796323   17.0812913   17.4163750
| 38>     H       18.5519774   14.8321580   18.1608108
| 39>     H       17.3920614   13.2511387   19.6882189
| 40>     H       15.4666495   14.0466505   21.0656793
| 41>     H       14.2215116   15.7658347   21.6083035
| 42>     H       15.8802955   17.9893161   19.3987175
| 43> *
| 44>
| 45>                          ****END OF INPUT****

CARTESIAN COORDINATES (ANGSTROEM)
---------------------------------
  C     14.681288   15.027890   15.888361
  C     14.784937   16.378664   15.149839
  O     16.119505   16.559880   14.634505
  C     17.162532   16.555114   15.512897
  O     17.945294   15.623841   15.569378
  C     17.211296   17.724808   16.448200
  C     16.967461   18.992119   16.028381
  C     16.437572   19.427896   14.676632
  N     17.276591   20.083443   16.843552
  C     18.027318   20.005151   17.986400
  S     18.442152   21.352929   18.850091
  N     18.434428   18.750421   18.366470
  C     18.007385   17.487164   17.733199
  C     17.309104   16.524553   18.683190
  C     17.724271   15.183958   18.773064
  C     17.064728   14.287881   19.630727
  C     15.979953   14.736251   20.403722
  C     15.561551   16.070866   20.312590
  O     14.508295   16.504231   21.049895
  C     16.219232   16.960294   19.456833
  H     15.278036   15.028295   16.809604
  H     15.035120   14.209098   15.248887
  H     13.640300   14.820755   16.164169
  H     14.072751   16.389350   14.314591
  H     14.517382   17.194143   15.834701
  H     16.953724   18.901560   13.863324
  H     16.581936   20.500244   14.495340
  H     15.365129   19.219808   14.587076
  H     17.010133   21.013793   16.562698
  H     18.975468   18.719211   19.221579
  H     18.979632   17.081291   17.416375
  H     18.551977   14.832158   18.160811
  H     17.392061   13.251139   19.688219
  H     15.466649   14.046651   21.065679
  H     14.221512   15.765835   21.608304
  H     15.880296   17.989316   19.398718

 Total Charge           Charge          ....    0
 Multiplicity           Mult            ....    1
 Number of Electrons    NEL             ....  154
 Basis Dimension        Dim             ....  828

ORBITAL ENERGIES
----------------

  NO   OCC          E(Eh)            E(eV)
   0   2.0000     -91.890332     -2500.4631
   1   2.0000     -20.597357      -560.4826
   2   2.0000     -20.590509      -560.2962
   3   2.0000     -20.552944      -559.2740
   4   2.0000     -15.630642      -425.3314
   5   2.0000     -15.608474      -424.7282
   6   2.0000     -11.394801      -310.0683
   7   2.0000     -11.385465      -309.8143
   8   2.0000     -11.339106      -308.5528
   9   2.0000     -11.314105      -307.8725
  10   2.0000     -11.307377      -307.6894
  11   2.0000     -11.306840      -307.6748
  12   2.0000     -11.263476      -306.4948
  13   2.0000     -11.260874      -306.4239
  14   2.0000     -11.260814      -306.4223
  15   2.0000     -11.253959      -306.2358
  16   2.0000     -11.243897      -305.9620
  17   2.0000     -11.240025      -305.8566
  18   2.0000     -11.236377      -305.7574
  19   2.0000     -11.227609      -305.5188
  20   2.0000      -8.895413      -242.0565
  21   2.0000      -6.576988      -178.9689
  22   2.0000      -6.574985      -178.9144
  23   2.0000      -6.574395      -178.8984
  24   2.0000      -1.450076       -39.4586
  25   2.0000      -1.417121       -38.5618
  26   2.0000      -1.360297       -37.0156
  27   2.0000      -1.341923       -36.5156
  28   2.0000      -1.239319       -33.7236
  29   2.0000      -1.158394       -31.5215
  30   2.0000      -1.124007       -30.5858
  31   2.0000      -1.046049       -28.4644
  32   2.0000      -1.033301       -28.1175
  33   2.0000      -1.015963       -27.6458
  34   2.0000      -1.003520       -27.3072
  35   2.0000      -0.988107       -26.8877
  36   2.0000      -0.924901       -25.1678
  37   2.0000      -0.891515       -24.2594
  38   2.0000      -0.852717       -23.2036
  39   2.0000      -0.840680       -22.8761
  40   2.0000      -0.834020       -22.6948
  41   2.0000      -0.830167       -22.5900
  42   2.0000      -0.746546       -20.3145
  43   2.0000      -0.733334       -19.9550
  44   2.0000      -0.730678       -19.8828
  45   2.0000      -0.694993       -18.9117
  46   2.0000      -0.685818       -18.6621
  47   2.0000      -0.681726       -18.5507
  48   2.0000      -0.678098       -18.4520
  49   2.0000      -0.665197       -18.1009
  50   2.0000      -0.652941       -17.7674
  51   2.0000      -0.646191       -17.5838
  52   2.0000      -0.636879       -17.3304
  53   2.0000      -0.617026       -16.7901
  54   2.0000      -0.607593       -16.5335
  55   2.0000      -0.603481       -16.4216
  56   2.0000      -0.600671       -16.3451
  57   2.0000      -0.580156       -15.7868
  58   2.0000      -0.575685       -15.6652
  59   2.0000      -0.567306       -15.4372
  60   2.0000      -0.557211       -15.1625
  61   2.0000      -0.551929       -15.0187
  62   2.0000      -0.542794       -14.7702
  63   2.0000      -0.530227       -14.4282
  64   2.0000      -0.519796       -14.1444
  65   2.0000      -0.512168       -13.9368
  66   2.0000      -0.499615       -13.5952
  67   2.0000      -0.491716       -13.3803
  68   2.0000      -0.487600       -13.2683
  69   2.0000      -0.467881       -12.7317
  70   2.0000      -0.461244       -12.5511
  71   2.0000      -0.449515       -12.2319
  72   2.0000      -0.356093        -9.6898
  73   2.0000      -0.350165        -9.5285
  74   2.0000      -0.329488        -8.9658
  75   2.0000      -0.321265        -8.7421
  76   2.0000      -0.319678        -8.6989
  77   0.0000       0.074022         2.0142
  78   0.0000       0.104530         2.8444
  79   0.0000       0.119153         3.2423
  80   0.0000       0.131342         3.5740
  81   0.0000       0.136783         3.7220

MULLIKEN ATOMIC CHARGES
-----------------------
   0 C :   -0.280248
   1 C :    0.013404
   2 O :   -0.363191
   3 C :    0.450614
   4 O :   -0.382683
   5 C :   -0.248155
   6 C :    0.173309
   7 C :   -0.294053
   8 N :   -0.129659
   9 C :    0.206623
  10 S :   -0.439802
  11 N :   -0.214746
  12 C :    0.061817
  13 C :    0.002196
  14 C :   -0.187645
  15 C :   -0.130560
  16 C :   -0.275775
  17 C :    0.307979
  18 O :   -0.357770
  19 C :   -0.235308
  20 H :    0.112055
  21 H :    0.110495
  22 H :    0.096559
  23 H :    0.118301
  24 H :    0.088310
  25 H :    0.137037
  26 H :    0.110016
  27 H :    0.120746
  28 H :    0.198153
  29 H :    0.199967
  30 H :    0.159854
  31 H :    0.168555
  32 H :    0.162784
  33 H :    0.131451
  34 H :    0.240953
  35 H :    0.168419
Sum of atomic charges:   -0.0000000

LOEWDIN ATOMIC CHARGES
----------------------
   0 C :    0.110206
   1 C :   -0.026112
   2 O :    0.295010
   3 C :   -0.422471
   4 O :    0.127462
   5 C :   -0.096141
   6 C :   -0.071416
   7 C :    0.127886
   8 N :    0.405072
   9 C :   -0.457594
  10 S :   -0.035896
  11 N :    0.396045
  12 C :   -0.049342
  13 C :   -0.044287
  14 C :    0.022947
  15 C :    0.042259
  16 C :   -0.000537
  17 C :   -0.192770
  18 O :    0.394067
  19 C :    0.027648
  20 H :   -0.024494
  21 H :   -0.020889
  22 H :   -0.025980
  23 H :   -0.022384
  24 H :   -0.039273
  25 H :   -0.005637
  26 H :   -0.018175
  27 H :   -0.013157
  28 H :   -0.058163
  29 H :   -0.063485
  30 H :   -0.006308
  31 H :   -0.022207
  32 H :   -0.019499
  33 H :   -0.035103
  34 H :   -0.153679
  35 H :   -0.023603

  Mayer bond orders larger than 0.100000
B(  0-C ,  1-C ) :   0.9806 B(  0-C , 20-H ) :   0.9664 B(  0-C , 21-H ) :   0.9752
B(  0-C , 22-H ) :   0.9762 B(  1-C ,  2-O ) :   0.9008 B(  1-C , 23-H ) :   0.9775
B(  1-C , 24-H ) :   0.9689 B(  2-O ,  3-C ) :   1.0959 B(  3-C ,  4-O ) :   2.0710
B(  3-C ,  5-C ) :   0.9753 B(  5-C ,  6-C ) :   1.6797 B(  5-C , 12-C ) :   0.9471
B(  6-C ,  7-C ) :   0.9441 B(  6-C ,  8-N ) :   1.1369 B(  7-C , 25-H ) :   0.9657
B(  7-C , 26-H ) :   0.9878 B(  7-C , 27-H ) :   0.9672 B(  8-N ,  9-C ) :   1.1859
B(  8-N , 28-H ) :   0.9477 B(  9-C , 10-S ) :   1.6125 B(  9-C , 11-N ) :   1.2993
B( 11-N , 12-C ) :   0.9854 B( 11-N , 29-H ) :   0.9488 B( 12-C , 13-C ) :   0.9658
B( 12-C , 30-H ) :   0.9940 B( 13-C , 14-C ) :   1.3860 B( 13-C , 19-C ) :   1.3618
B( 14-C , 15-C ) :   1.3935 B( 14-C , 31-H ) :   0.9607 B( 15-C , 16-C ) :   1.3603
B( 15-C , 32-H ) :   0.9708 B( 16-C , 17-C ) :   1.3321 B( 16-C , 33-H ) :   0.9849
B( 17-C , 18-O ) :   1.1075 B( 17-C , 19-C ) :   1.3671 B( 18-O , 34-H ) :   0.9797
B( 19-C , 35-H ) :   0.9583

MP2 TOTAL ENERGY:    -1274.330566789 Eh
FINAL SINGLE POINT ENERGY     -1274.330566789283

DIPOLE MOMENT
-------------
                                X             Y             Z
Electronic contribution:      9.55576       8.92795       6.88747
Nuclear contribution   :    -11.15628      -9.95434      -7.37676
                        -----------------------------------------
Total Dipole Moment    :     -1.60052      -1.02639      -0.48930
                        -----------------------------------------
Magnitude (a.u.)       :      1.96330
Magnitude (Debye)      :      4.99032

Rotational constants in cm-1:     0.011505     0.009185     0.006291
Rotational constants in MHz :   344.897603   275.357583   188.589567

                             ****ORCA TERMINATED NORMALLY****
TOTAL RUN TIME: 0 days 2 hours 9 minutes 52 seconds 162 msec
