                         Program Version 4.2.0 -  RELEASE  -
|  1> ! ri-mp2 cc-pvtz cc-pvtz/c TightSCF NoKeepInts
|  2>
|  3> %scf
|  4>   MaxCore 4096
|  5> end
|  6> *xyz  0  1
|  7>     C       14.3791581   16.7609355   16.0818786
|  8>     C       15.1616092   15.6278081   15.3833471
|  9>     O       16.4580363   15.9716164   14.8234004
| 10>     C       17.5121934   16.5887450   15.4534648
| 11>     O       18.6555965   16.2273631   15.2464588
| 12>     C       17.2101225   17.6546574   16.4447335
| 13>     C       16.8318720   18.8763677   16.0012127
| 14>     C       16.4478763   19.2448623   14.5825997
| 15>     N       16.8855251   19.9908624   16.8399626
| 16>     C       17.5227969   20.0074296   18.0532482
| 17>     S       17.6478207   21.3889098   18.9534984
| 18>     N       18.0794302   18.8224887   18.4701394
| 19>     C       17.9095018   17.5195472   17.7959502
| 20>     C       17.3239926   16.4092094   18.6554245
| 21>     C       17.8246719   15.0994084   18.5465160
| 22>     C       17.2744620   14.0585823   19.3128610
| 23>     C       16.2123149   14.3297682   20.1924221
| 24>     C       15.7079200   15.6332517   20.2986629
| 25>     O       14.6757408   15.8957870   21.1389477
| 26>     C       16.2571308   16.6675849   19.5340533
| 27>     H       14.8057892   17.0199698   17.0565297
| 28>     H       13.3513228   16.4284521   16.2723977
| 29>     H       14.3169804   17.6549450   15.4528758
| 30>     H       15.2977328   14.8121713   16.1063484
| 31>     H       14.5388753   15.2301212   14.5714876
| 32>     H       16.1225947   18.3801831   13.9932667
| 33>     H       17.3046932   19.6882564   14.0591458
| 34>     H       15.6268332   19.9719044   14.5633998
| 35>     H       16.5276819   20.8781923   16.5233340
| 36>     H       18.5460377   18.8624716   19.3676797
| 37>     H       18.9595544   17.2897090   17.5599586
| 38>     H       18.6405811   14.8875813   17.8579120
| 39>     H       17.6707510   13.0484836   19.2217499
| 40>     H       15.7839678   13.5285609   20.7857697
| 41>     H       14.4681130   15.0753749   21.6113346
| 42>     H       15.8477198   17.6684381   19.6260278
| 43> *
| 44>
| 45>                          ****END OF INPUT****

CARTESIAN COORDINATES (ANGSTROEM)
---------------------------------
  C     14.379158   16.760935   16.081879
  C     15.161609   15.627808   15.383347
  O     16.458036   15.971616   14.823400
  C     17.512193   16.588745   15.453465
  O     18.655597   16.227363   15.246459
  C     17.210123   17.654657   16.444734
  C     16.831872   18.876368   16.001213
  C     16.447876   19.244862   14.582600
  N     16.885525   19.990862   16.839963
  C     17.522797   20.007430   18.053248
  S     17.647821   21.388910   18.953498
  N     18.079430   18.822489   18.470139
  C     17.909502   17.519547   17.795950
  C     17.323993   16.409209   18.655424
  C     17.824672   15.099408   18.546516
  C     17.274462   14.058582   19.312861
  C     16.212315   14.329768   20.192422
  C     15.707920   15.633252   20.298663
  O     14.675741   15.895787   21.138948
  C     16.257131   16.667585   19.534053
  H     14.805789   17.019970   17.056530
  H     13.351323   16.428452   16.272398
  H     14.316980   17.654945   15.452876
  H     15.297733   14.812171   16.106348
  H     14.538875   15.230121   14.571488
  H     16.122595   18.380183   13.993267
  H     17.304693   19.688256   14.059146
  H     15.626833   19.971904   14.563400
  H     16.527682   20.878192   16.523334
  H     18.546038   18.862472   19.367680
  H     18.959554   17.289709   17.559959
  H     18.640581   14.887581   17.857912
  H     17.670751   13.048484   19.221750
  H     15.783968   13.528561   20.785770
  H     14.468113   15.075375   21.611335
  H     15.847720   17.668438   19.626028

 Total Charge           Charge          ....    0
 Multiplicity           Mult            ....    1
 Number of Electrons    NEL             ....  154
 Basis Dimension        Dim             ....  828

ORBITAL ENERGIES
----------------

  NO   OCC          E(Eh)            E(eV)
   0   2.0000     -91.889164     -2500.4313
   1   2.0000     -20.601984      -560.6085
   2   2.0000     -20.596546      -560.4605
   3   2.0000     -20.551951      -559.2470
   4   2.0000     -15.626067      -425.2069
   5   2.0000     -15.609708      -424.7617
   6   2.0000     -11.399342      -310.1919
   7   2.0000     -11.385132      -309.8052
   8   2.0000     -11.328252      -308.2574
   9   2.0000     -11.319917      -308.0306
  10   2.0000     -11.311067      -307.7898
  11   2.0000     -11.310645      -307.7783
  12   2.0000     -11.267939      -306.6162
  13   2.0000     -11.262598      -306.4709
  14   2.0000     -11.260671      -306.4184
  15   2.0000     -11.259073      -306.3749
  16   2.0000     -11.248613      -306.0903
  17   2.0000     -11.244491      -305.9781
  18   2.0000     -11.242594      -305.9265
  19   2.0000     -11.235387      -305.7304
  20   2.0000      -8.894267      -242.0253
  21   2.0000      -6.575849      -178.9380
  22   2.0000      -6.573838      -178.8832
  23   2.0000      -6.573256      -178.8674
  24   2.0000      -1.443896       -39.2904
  25   2.0000      -1.421686       -38.6860
  26   2.0000      -1.357992       -36.9528
  27   2.0000      -1.339272       -36.4434
  28   2.0000      -1.238484       -33.7009
  29   2.0000      -1.163728       -31.6666
  30   2.0000      -1.126109       -30.6430
  31   2.0000      -1.049599       -28.5610
  32   2.0000      -1.039302       -28.2808
  33   2.0000      -1.021724       -27.8025
  34   2.0000      -1.005384       -27.3579
  35   2.0000      -0.990354       -26.9489
  36   2.0000      -0.926979       -25.2244
  37   2.0000      -0.898591       -24.4519
  38   2.0000      -0.851531       -23.1713
  39   2.0000      -0.842775       -22.9331
  40   2.0000      -0.839436       -22.8422
  41   2.0000      -0.829047       -22.5595
  42   2.0000      -0.750955       -20.4345
  43   2.0000      -0.736772       -20.0486
  44   2.0000      -0.728734       -19.8298
  45   2.0000      -0.699634       -19.0380
  46   2.0000      -0.689552       -18.7637
  47   2.0000      -0.677616       -18.4389
  48   2.0000      -0.674487       -18.3537
  49   2.0000      -0.664760       -18.0890
  50   2.0000      -0.653899       -17.7935
  51   2.0000      -0.650091       -17.6899
  52   2.0000      -0.637912       -17.3585
  53   2.0000      -0.614611       -16.7244
  54   2.0000      -0.607054       -16.5188
  55   2.0000      -0.605434       -16.4747
  56   2.0000      -0.599793       -16.3212
  57   2.0000      -0.594481       -16.1766
  58   2.0000      -0.579809       -15.7774
  59   2.0000      -0.577653       -15.7187
  60   2.0000      -0.564675       -15.3656
  61   2.0000      -0.557102       -15.1595
  62   2.0000      -0.542893       -14.7729
  63   2.0000      -0.532702       -14.4956
  64   2.0000      -0.522788       -14.2258
  65   2.0000      -0.513936       -13.9849
  66   2.0000      -0.503013       -13.6877
  67   2.0000      -0.498860       -13.5747
  68   2.0000      -0.487553       -13.2670
  69   2.0000      -0.463029       -12.5997
  70   2.0000      -0.458239       -12.4693
  71   2.0000      -0.451541       -12.2871
  72   2.0000      -0.355232        -9.6664
  73   2.0000      -0.351062        -9.5529
  74   2.0000      -0.328966        -8.9516
  75   2.0000      -0.327417        -8.9095
  76   2.0000      -0.318753        -8.6737
  77   0.0000       0.087892         2.3917
  78   0.0000       0.101974         2.7748
  79   0.0000       0.118674         3.2293
  80   0.0000       0.121184         3.2976
  81   0.0000       0.128449         3.4953

MULLIKEN ATOMIC CHARGES
-----------------------
   0 C :   -0.332073
   1 C :    0.043577
   2 O :   -0.346510
   3 C :    0.418584
   4 O :   -0.374907
   5 C :   -0.225095
   6 C :    0.156962
   7 C :   -0.326587
   8 N :   -0.139740
   9 C :    0.210840
  10 S :   -0.443536
  11 N :   -0.232778
  12 C :    0.093672
  13 C :    0.033096
  14 C :   -0.243803
  15 C :   -0.128370
  16 C :   -0.278202
  17 C :    0.324036
  18 O :   -0.354588
  19 C :   -0.273434
  20 H :    0.121879
  21 H :    0.123961
  22 H :    0.097508
  23 H :    0.103468
  24 H :    0.118434
  25 H :    0.123657
  26 H :    0.150376
  27 H :    0.108432
  28 H :    0.197246
  29 H :    0.203730
  30 H :    0.170218
  31 H :    0.177563
  32 H :    0.166428
  33 H :    0.132952
  34 H :    0.241569
  35 H :    0.181435
Sum of atomic charges:   -0.0000000

LOEWDIN ATOMIC CHARGES
----------------------
   0 C :    0.102017
   1 C :   -0.011007
   2 O :    0.286974
   3 C :   -0.415327
   4 O :    0.125660
   5 C :   -0.082748
   6 C :   -0.089644
   7 C :    0.123739
   8 N :    0.403989
   9 C :   -0.455123
  10 S :   -0.038830
  11 N :    0.396285
  12 C :   -0.050439
  13 C :   -0.043465
  14 C :    0.017445
  15 C :    0.044354
  16 C :   -0.000601
  17 C :   -0.190725
  18 O :    0.396256
  19 C :    0.027796
  20 H :   -0.032116
  21 H :   -0.021493
  22 H :   -0.030895
  23 H :   -0.027533
  24 H :   -0.019585
  25 H :   -0.013424
  26 H :   -0.006744
  27 H :   -0.018496
  28 H :   -0.057842
  29 H :   -0.064404
  30 H :   -0.003753
  31 H :   -0.021620
  32 H :   -0.018158
  33 H :   -0.034514
  34 H :   -0.152761
  35 H :   -0.023269

  Mayer bond orders larger than 0.100000
B(  0-C ,  1-C ) :   0.9593 B(  0-C , 20-H ) :   0.9668 B(  0-C , 21-H ) :   0.9783
B(  0-C , 22-H ) :   0.9762 B(  1-C ,  2-O ) :   0.9035 B(  1-C , 23-H ) :   0.9784
B(  1-C , 24-H ) :   0.9819 B(  2-O ,  3-C ) :   1.1512 B(  3-C ,  4-O ) :   2.1052
B(  3-C ,  5-C ) :   0.9348 B(  5-C ,  6-C ) :   1.7083 B(  5-C , 12-C ) :   0.9236
B(  6-C ,  7-C ) :   0.9459 B(  6-C ,  8-N ) :   1.1073 B(  7-C , 25-H ) :   0.9757
B(  7-C , 26-H ) :   0.9629 B(  7-C , 27-H ) :   0.9754 B(  8-N ,  9-C ) :   1.2007
B(  8-N , 28-H ) :   0.9497 B(  9-C , 10-S ) :   1.6081 B(  9-C , 11-N ) :   1.2882
B( 11-N , 12-C ) :   0.9769 B( 11-N , 29-H ) :   0.9471 B( 12-C , 13-C ) :   0.9644
B( 12-C , 30-H ) :   0.9916 B( 13-C , 14-C ) :   1.3839 B( 13-C , 19-C ) :   1.3430
B( 14-C , 15-C ) :   1.3963 B( 14-C , 31-H ) :   0.9598 B( 15-C , 16-C ) :   1.3605
B( 15-C , 32-H ) :   0.9689 B( 16-C , 17-C ) :   1.3313 B( 16-C , 33-H ) :   0.9845
B( 17-C , 18-O ) :   1.1108 B( 17-C , 19-C ) :   1.3610 B( 18-O , 34-H ) :   0.9790
B( 19-C , 35-H ) :   0.9546

MP2 TOTAL ENERGY:    -1274.320718045 Eh
FINAL SINGLE POINT ENERGY     -1274.320718044588

DIPOLE MOMENT
-------------
                                X             Y             Z
Electronic contribution:      9.02225       6.15298       6.90142
Nuclear contribution   :    -10.64295      -7.67831      -7.20306
                        -----------------------------------------
Total Dipole Moment    :     -1.62070      -1.52534      -0.30164
                        -----------------------------------------
Magnitude (a.u.)       :      2.24595
Magnitude (Debye)      :      5.70876

Rotational constants in cm-1:     0.011724     0.009171     0.006523
Rotational constants in MHz :   351.484392   274.952387   195.549118

                             ****ORCA TERMINATED NORMALLY****
TOTAL RUN TIME: 0 days 1 hours 49 minutes 45 seconds 365 msec
