                         Program Version 4.2.0 -  RELEASE  -
|  1> ! ri-mp2 cc-pvtz cc-pvtz/c TightSCF NoKeepInts
|  2>
|  3> %scf
|  4>   MaxCore 4096
|  5> end
|  6> *xyz  0  1
|  7>     C       14.8735176   14.5298315   14.4434497
|  8>     C       14.7845398   16.0292571   14.0845650
|  9>     O       15.4958948   16.9382288   14.9672019
| 10>     C       16.4939168   16.6398552   15.8598780
| 11>     O       17.0171711   15.5441221   15.9637885
| 12>     C       16.9124739   17.7950016   16.7305412
| 13>     C       16.7949766   19.0972156   16.3531447
| 14>     C       16.0470232   19.6675161   15.1633698
| 15>     N       17.4389524   20.1088204   17.0708952
| 16>     C       18.3869441   19.8953997   18.0342147
| 17>     S       19.1875640   21.1456826   18.7632904
| 18>     N       18.6535140   18.5872025   18.3463124
| 19>     C       17.9039324   17.4206934   17.8418180
| 20>     C       17.2847711   16.5837740   18.9538546
| 21>     C       17.5701573   15.2107783   19.0624549
| 22>     C       17.0002796   14.4413251   20.0906404
| 23>     C       16.1389642   15.0506410   21.0192004
| 24>     C       15.8515963   16.4184333   20.9122569
| 25>     O       15.0173279   17.0083743   21.8052282
| 26>     C       16.4200046   17.1814879   19.8872742
| 27>     H       15.8744157   14.1297975   14.2388422
| 28>     H       14.1614886   13.9536653   13.8405758
| 29>     H       14.6328921   14.3620953   15.5009322
| 30>     H       15.1720357   16.1555389   13.0653795
| 31>     H       13.7277446   16.3249174   14.0636746
| 32>     H       16.4196038   19.2363945   14.2258704
| 33>     H       16.1483579   20.7562768   15.0773902
| 34>     H       14.9747070   19.4476686   15.2381159
| 35>     H       17.2694465   21.0741892   16.8385308
| 36>     H       19.3403984   18.4560317   19.0780517
| 37>     H       18.7150485   16.8674440   17.3463478
| 38>     H       18.2239749   14.7361507   18.3345362
| 39>     H       17.2228563   13.3781342   20.1601224
| 40>     H       15.6954280   14.4598077   21.8135775
| 41>     H       14.7465189   16.3289206   22.4405956
| 42>     H       16.1885613   18.2393272   19.8220779
| 43> *
| 44>
| 45>                          ****END OF INPUT****

CARTESIAN COORDINATES (ANGSTROEM)
---------------------------------
  C     14.873518   14.529832   14.443450
  C     14.784540   16.029257   14.084565
  O     15.495895   16.938229   14.967202
  C     16.493917   16.639855   15.859878
  O     17.017171   15.544122   15.963788
  C     16.912474   17.795002   16.730541
  C     16.794977   19.097216   16.353145
  C     16.047023   19.667516   15.163370
  N     17.438952   20.108820   17.070895
  C     18.386944   19.895400   18.034215
  S     19.187564   21.145683   18.763290
  N     18.653514   18.587203   18.346312
  C     17.903932   17.420693   17.841818
  C     17.284771   16.583774   18.953855
  C     17.570157   15.210778   19.062455
  C     17.000280   14.441325   20.090640
  C     16.138964   15.050641   21.019200
  C     15.851596   16.418433   20.912257
  O     15.017328   17.008374   21.805228
  C     16.420005   17.181488   19.887274
  H     15.874416   14.129798   14.238842
  H     14.161489   13.953665   13.840576
  H     14.632892   14.362095   15.500932
  H     15.172036   16.155539   13.065380
  H     13.727745   16.324917   14.063675
  H     16.419604   19.236394   14.225870
  H     16.148358   20.756277   15.077390
  H     14.974707   19.447669   15.238116
  H     17.269447   21.074189   16.838531
  H     19.340398   18.456032   19.078052
  H     18.715048   16.867444   17.346348
  H     18.223975   14.736151   18.334536
  H     17.222856   13.378134   20.160122
  H     15.695428   14.459808   21.813578
  H     14.746519   16.328921   22.440596
  H     16.188561   18.239327   19.822078

 Total Charge           Charge          ....    0
 Multiplicity           Mult            ....    1
 Number of Electrons    NEL             ....  154
 Basis Dimension        Dim             ....  828

ORBITAL ENERGIES
----------------

  NO   OCC          E(Eh)            E(eV)
   0   2.0000     -91.886719     -2500.3647
   1   2.0000     -20.601698      -560.6007
   2   2.0000     -20.590811      -560.3044
   3   2.0000     -20.543071      -559.0054
   4   2.0000     -15.626839      -425.2279
   5   2.0000     -15.604455      -424.6188
   6   2.0000     -11.399258      -310.1896
   7   2.0000     -11.381093      -309.6953
   8   2.0000     -11.336378      -308.4785
   9   2.0000     -11.307552      -307.6941
  10   2.0000     -11.306749      -307.6723
  11   2.0000     -11.302808      -307.5650
  12   2.0000     -11.260348      -306.4096
  13   2.0000     -11.257798      -306.3402
  14   2.0000     -11.253902      -306.2342
  15   2.0000     -11.246894      -306.0435
  16   2.0000     -11.237066      -305.7761
  17   2.0000     -11.233076      -305.6675
  18   2.0000     -11.229887      -305.5808
  19   2.0000     -11.225256      -305.4547
  20   2.0000      -8.891817      -241.9587
  21   2.0000      -6.573400      -178.8713
  22   2.0000      -6.571393      -178.8167
  23   2.0000      -6.570809      -178.8008
  24   2.0000      -1.445583       -39.3363
  25   2.0000      -1.410555       -38.3832
  26   2.0000      -1.356805       -36.9205
  27   2.0000      -1.338517       -36.4229
  28   2.0000      -1.235783       -33.6274
  29   2.0000      -1.151133       -31.3239
  30   2.0000      -1.118694       -30.4412
  31   2.0000      -1.041951       -28.3529
  32   2.0000      -1.034361       -28.1464
  33   2.0000      -1.008781       -27.4503
  34   2.0000      -0.997166       -27.1343
  35   2.0000      -0.981842       -26.7173
  36   2.0000      -0.920041       -25.0356
  37   2.0000      -0.897377       -24.4189
  38   2.0000      -0.847071       -23.0500
  39   2.0000      -0.834262       -22.7014
  40   2.0000      -0.827041       -22.5049
  41   2.0000      -0.817129       -22.2352
  42   2.0000      -0.742931       -20.2162
  43   2.0000      -0.728045       -19.8111
  44   2.0000      -0.724318       -19.7097
  45   2.0000      -0.688347       -18.7309
  46   2.0000      -0.683325       -18.5942
  47   2.0000      -0.677822       -18.4445
  48   2.0000      -0.672592       -18.3021
  49   2.0000      -0.663278       -18.0487
  50   2.0000      -0.647506       -17.6195
  51   2.0000      -0.642083       -17.4720
  52   2.0000      -0.631296       -17.1784
  53   2.0000      -0.606934       -16.5155
  54   2.0000      -0.602005       -16.3814
  55   2.0000      -0.597003       -16.2453
  56   2.0000      -0.594151       -16.1677
  57   2.0000      -0.578696       -15.7471
  58   2.0000      -0.572605       -15.5814
  59   2.0000      -0.569179       -15.4881
  60   2.0000      -0.558419       -15.1953
  61   2.0000      -0.542777       -14.7697
  62   2.0000      -0.538085       -14.6420
  63   2.0000      -0.525959       -14.3121
  64   2.0000      -0.514435       -13.9985
  65   2.0000      -0.510148       -13.8818
  66   2.0000      -0.498368       -13.5613
  67   2.0000      -0.492952       -13.4139
  68   2.0000      -0.479597       -13.0505
  69   2.0000      -0.463660       -12.6168
  70   2.0000      -0.451877       -12.2962
  71   2.0000      -0.446634       -12.1535
  72   2.0000      -0.351592        -9.5673
  73   2.0000      -0.343499        -9.3471
  74   2.0000      -0.325901        -8.8682
  75   2.0000      -0.315859        -8.5950
  76   2.0000      -0.313355        -8.5268
  77   0.0000       0.079220         2.1557
  78   0.0000       0.112792         3.0692
  79   0.0000       0.120999         3.2926
  80   0.0000       0.136556         3.7159
  81   0.0000       0.139752         3.8028

MULLIKEN ATOMIC CHARGES
-----------------------
   0 C :   -0.291161
   1 C :    0.048936
   2 O :   -0.355747
   3 C :    0.421453
   4 O :   -0.424437
   5 C :   -0.166199
   6 C :    0.164151
   7 C :   -0.283339
   8 N :   -0.129114
   9 C :    0.207327
  10 S :   -0.444811
  11 N :   -0.210912
  12 C :    0.042771
  13 C :    0.030876
  14 C :   -0.168137
  15 C :   -0.134512
  16 C :   -0.277160
  17 C :    0.314554
  18 O :   -0.359093
  19 C :   -0.250855
  20 H :    0.118929
  21 H :    0.096220
  22 H :    0.106737
  23 H :    0.086686
  24 H :    0.096508
  25 H :    0.123549
  26 H :    0.103088
  27 H :    0.130100
  28 H :    0.198479
  29 H :    0.199772
  30 H :    0.155834
  31 H :    0.158964
  32 H :    0.159587
  33 H :    0.127908
  34 H :    0.239739
  35 H :    0.163306
Sum of atomic charges:    0.0000000

LOEWDIN ATOMIC CHARGES
----------------------
   0 C :    0.103217
   1 C :   -0.008017
   2 O :    0.293783
   3 C :   -0.413244
   4 O :    0.112617
   5 C :   -0.089915
   6 C :   -0.064406
   7 C :    0.123897
   8 N :    0.404996
   9 C :   -0.459200
  10 S :   -0.039457
  11 N :    0.396676
  12 C :   -0.048339
  13 C :   -0.040346
  14 C :    0.024466
  15 C :    0.040446
  16 C :   -0.001381
  17 C :   -0.192433
  18 O :    0.393050
  19 C :    0.029978
  20 H :   -0.024837
  21 H :   -0.027858
  22 H :   -0.024146
  23 H :   -0.030614
  24 H :   -0.025893
  25 H :   -0.010041
  26 H :   -0.021662
  27 H :   -0.009407
  28 H :   -0.059169
  29 H :   -0.063116
  30 H :   -0.009025
  31 H :   -0.024171
  32 H :   -0.021284
  33 H :   -0.036324
  34 H :   -0.155034
  35 H :   -0.023807

  Mayer bond orders larger than 0.100000
B(  0-C ,  1-C ) :   0.9789 B(  0-C , 20-H ) :   0.9722 B(  0-C , 21-H ) :   0.9734
B(  0-C , 22-H ) :   0.9746 B(  1-C ,  2-O ) :   0.8992 B(  1-C , 23-H ) :   0.9776
B(  1-C , 24-H ) :   0.9801 B(  2-O ,  3-C ) :   1.1501 B(  3-C ,  4-O ) :   1.9773
B(  3-C ,  5-C ) :   1.0433 B(  5-C ,  6-C ) :   1.6619 B(  5-C , 12-C ) :   0.9515
B(  6-C ,  7-C ) :   0.9514 B(  6-C ,  8-N ) :   1.1334 B(  7-C , 25-H ) :   0.9662
B(  7-C , 26-H ) :   0.9923 B(  7-C , 27-H ) :   0.9637 B(  8-N ,  9-C ) :   1.1869
B(  8-N , 28-H ) :   0.9470 B(  9-C , 10-S ) :   1.6056 B(  9-C , 11-N ) :   1.3072
B( 11-N , 12-C ) :   0.9766 B( 11-N , 29-H ) :   0.9487 B( 12-C , 13-C ) :   0.9732
B( 12-C , 30-H ) :   0.9976 B( 13-C , 14-C ) :   1.3750 B( 13-C , 19-C ) :   1.3678
B( 14-C , 15-C ) :   1.3969 B( 14-C , 31-H ) :   0.9638 B( 15-C , 16-C ) :   1.3586
B( 15-C , 32-H ) :   0.9713 B( 16-C , 17-C ) :   1.3334 B( 16-C , 33-H ) :   0.9861
B( 17-C , 18-O ) :   1.1031 B( 17-C , 19-C ) :   1.3670 B( 18-O , 34-H ) :   0.9808
B( 19-C , 35-H ) :   0.9600

MP2 TOTAL ENERGY:    -1274.331074251 Eh
FINAL SINGLE POINT ENERGY     -1274.331074251198

DIPOLE MOMENT
-------------
                                X             Y             Z
Electronic contribution:      9.31550      10.25902      11.44569
Nuclear contribution   :    -10.89565     -11.46281     -12.63403
                        -----------------------------------------
Total Dipole Moment    :     -1.58015      -1.20378      -1.18833
                        -----------------------------------------
Magnitude (a.u.)       :      2.31476
Magnitude (Debye)      :      5.88366

Rotational constants in cm-1:     0.009882     0.009094     0.005513
Rotational constants in MHz :   296.269099   272.641343   165.275761

                             ****ORCA TERMINATED NORMALLY****
TOTAL RUN TIME: 0 days 1 hours 53 minutes 2 seconds 641 msec
