                         Program Version 4.2.0 -  RELEASE  -
|  1> ! ri-mp2 cc-pvtz cc-pvtz/c TightSCF NoKeepInts
|  2>
|  3> %scf
|  4>   MaxCore 4096
|  5> end
|  6> *xyz  0  1
|  7>     C       14.4383859   15.0181064   14.4691450
|  8>     C       15.6946221   14.7334743   15.3199597
|  9>     O       16.3989064   15.8929771   15.8397226
| 10>     C       16.1178821   17.2238799   15.6460996
| 11>     O       15.3827504   17.6484261   14.7729463
| 12>     C       16.8366409   18.0956452   16.6445052
| 13>     C       16.9296579   19.4387872   16.4606549
| 14>     C       16.1679118   20.2856078   15.4615103
| 15>     N       17.8050864   20.2123136   17.2265404
| 16>     C       18.7567659   19.7028314   18.0672962
| 17>     S       19.8252199   20.6746230   18.8734887
| 18>     N       18.7930256   18.3374931   18.1912662
| 19>     C       17.8207840   17.3983499   17.6010880
| 20>     C       17.1534052   16.5165927   18.6488344
| 21>     C       17.4794911   15.1514175   18.7492359
| 22>     C       16.8636160   14.3401181   19.7171346
| 23>     C       15.9172113   14.8997510   20.5927622
| 24>     C       15.5946955   16.2607238   20.4974506
| 25>     O       14.6829804   16.8038376   21.3429479
| 26>     C       16.2093900   17.0655178   19.5331448
| 27>     H       13.7150839   15.6289510   15.0239183
| 28>     H       13.9437563   14.0776620   14.1984646
| 29>     H       14.7000624   15.5343104   13.5369452
| 30>     H       15.3983828   14.1057075   16.1704149
| 31>     H       16.3939902   14.1414022   14.7159106
| 32>     H       16.4596062   20.0289273   14.4351413
| 33>     H       16.3327547   21.3613491   15.5938086
| 34>     H       15.0882919   20.1084074   15.5495351
| 35>     H       17.8031314   21.2149044   17.1280865
| 36>     H       19.4838614   17.9925848   18.8455485
| 37>     H       18.4878729   16.8034534   16.9613284
| 38>     H       18.2083278   14.7177045   18.0698641
| 39>     H       17.1203389   13.2845646   19.7872411
| 40>     H       15.4392934   14.2776827   21.3423698
| 41>     H       14.3911217   16.1037759   21.9458548
| 42>     H       15.9526951   18.1181392   19.4778347
| 43> *
| 44>
| 45>                          ****END OF INPUT****

CARTESIAN COORDINATES (ANGSTROEM)
---------------------------------
  C     14.438386   15.018106   14.469145
  C     15.694622   14.733474   15.319960
  O     16.398906   15.892977   15.839723
  C     16.117882   17.223880   15.646100
  O     15.382750   17.648426   14.772946
  C     16.836641   18.095645   16.644505
  C     16.929658   19.438787   16.460655
  C     16.167912   20.285608   15.461510
  N     17.805086   20.212314   17.226540
  C     18.756766   19.702831   18.067296
  S     19.825220   20.674623   18.873489
  N     18.793026   18.337493   18.191266
  C     17.820784   17.398350   17.601088
  C     17.153405   16.516593   18.648834
  C     17.479491   15.151417   18.749236
  C     16.863616   14.340118   19.717135
  C     15.917211   14.899751   20.592762
  C     15.594696   16.260724   20.497451
  O     14.682980   16.803838   21.342948
  C     16.209390   17.065518   19.533145
  H     13.715084   15.628951   15.023918
  H     13.943756   14.077662   14.198465
  H     14.700062   15.534310   13.536945
  H     15.398383   14.105707   16.170415
  H     16.393990   14.141402   14.715911
  H     16.459606   20.028927   14.435141
  H     16.332755   21.361349   15.593809
  H     15.088292   20.108407   15.549535
  H     17.803131   21.214904   17.128086
  H     19.483861   17.992585   18.845548
  H     18.487873   16.803453   16.961328
  H     18.208328   14.717704   18.069864
  H     17.120339   13.284565   19.787241
  H     15.439293   14.277683   21.342370
  H     14.391122   16.103776   21.945855
  H     15.952695   18.118139   19.477835

 Total Charge           Charge          ....    0
 Multiplicity           Mult            ....    1
 Number of Electrons    NEL             ....  154
 Basis Dimension        Dim             ....  828

ORBITAL ENERGIES
----------------

  NO   OCC          E(Eh)            E(eV)
   0   2.0000     -91.887731     -2500.3923
   1   2.0000     -20.597117      -560.4761
   2   2.0000     -20.596202      -560.4512
   3   2.0000     -20.539315      -558.9032
   4   2.0000     -15.627888      -425.2564
   5   2.0000     -15.605740      -424.6538
   6   2.0000     -11.398054      -310.1568
   7   2.0000     -11.382252      -309.7268
   8   2.0000     -11.335913      -308.4659
   9   2.0000     -11.313295      -307.8504
  10   2.0000     -11.305991      -307.6517
  11   2.0000     -11.303154      -307.5744
  12   2.0000     -11.260238      -306.4066
  13   2.0000     -11.258220      -306.3517
  14   2.0000     -11.254897      -306.2613
  15   2.0000     -11.250557      -306.1432
  16   2.0000     -11.243092      -305.9401
  17   2.0000     -11.238274      -305.8090
  18   2.0000     -11.238216      -305.8074
  19   2.0000     -11.222893      -305.3904
  20   2.0000      -8.892816      -241.9858
  21   2.0000      -6.574392      -178.8983
  22   2.0000      -6.572391      -178.8439
  23   2.0000      -6.571804      -178.8279
  24   2.0000      -1.441669       -39.2298
  25   2.0000      -1.415849       -38.5272
  26   2.0000      -1.353419       -36.8284
  27   2.0000      -1.339206       -36.4416
  28   2.0000      -1.237103       -33.6633
  29   2.0000      -1.156813       -31.4785
  30   2.0000      -1.119344       -30.4589
  31   2.0000      -1.041841       -28.3499
  32   2.0000      -1.036493       -28.2044
  33   2.0000      -1.014500       -27.6059
  34   2.0000      -0.995065       -27.0771
  35   2.0000      -0.983015       -26.7492
  36   2.0000      -0.920713       -25.0539
  37   2.0000      -0.897818       -24.4309
  38   2.0000      -0.845922       -23.0187
  39   2.0000      -0.837555       -22.7910
  40   2.0000      -0.833667       -22.6852
  41   2.0000      -0.817613       -22.2484
  42   2.0000      -0.744074       -20.2473
  43   2.0000      -0.731317       -19.9001
  44   2.0000      -0.716880       -19.5073
  45   2.0000      -0.694681       -18.9032
  46   2.0000      -0.686419       -18.6784
  47   2.0000      -0.674235       -18.3469
  48   2.0000      -0.670974       -18.2581
  49   2.0000      -0.661457       -17.9992
  50   2.0000      -0.647802       -17.6276
  51   2.0000      -0.642399       -17.4806
  52   2.0000      -0.634143       -17.2559
  53   2.0000      -0.606737       -16.5102
  54   2.0000      -0.603094       -16.4110
  55   2.0000      -0.600143       -16.3307
  56   2.0000      -0.598229       -16.2787
  57   2.0000      -0.577723       -15.7206
  58   2.0000      -0.574322       -15.6281
  59   2.0000      -0.568652       -15.4738
  60   2.0000      -0.560320       -15.2471
  61   2.0000      -0.540036       -14.6951
  62   2.0000      -0.535083       -14.5604
  63   2.0000      -0.524751       -14.2792
  64   2.0000      -0.522319       -14.2130
  65   2.0000      -0.511747       -13.9254
  66   2.0000      -0.501222       -13.6389
  67   2.0000      -0.496720       -13.5164
  68   2.0000      -0.483593       -13.1592
  69   2.0000      -0.461943       -12.5701
  70   2.0000      -0.450636       -12.2624
  71   2.0000      -0.439819       -11.9681
  72   2.0000      -0.351622        -9.5681
  73   2.0000      -0.349113        -9.4998
  74   2.0000      -0.327038        -8.8992
  75   2.0000      -0.320741        -8.7278
  76   2.0000      -0.316965        -8.6251
  77   0.0000       0.078870         2.1461
  78   0.0000       0.105708         2.8765
  79   0.0000       0.125174         3.4062
  80   0.0000       0.133489         3.6324
  81   0.0000       0.137993         3.7550

MULLIKEN ATOMIC CHARGES
-----------------------
   0 C :   -0.288576
   1 C :    0.050398
   2 O :   -0.360154
   3 C :    0.432025
   4 O :   -0.431513
   5 C :   -0.214883
   6 C :    0.175005
   7 C :   -0.267669
   8 N :   -0.126526
   9 C :    0.210927
  10 S :   -0.444141
  11 N :   -0.215803
  12 C :    0.063040
  13 C :    0.048808
  14 C :   -0.183731
  15 C :   -0.133845
  16 C :   -0.277375
  17 C :    0.317112
  18 O :   -0.356918
  19 C :   -0.250265
  20 H :    0.105397
  21 H :    0.096529
  22 H :    0.115022
  23 H :    0.095512
  24 H :    0.089487
  25 H :    0.128928
  26 H :    0.094247
  27 H :    0.132484
  28 H :    0.199540
  29 H :    0.200259
  30 H :    0.150974
  31 H :    0.151727
  32 H :    0.161002
  33 H :    0.129885
  34 H :    0.240483
  35 H :    0.162610
Sum of atomic charges:    0.0000000

LOEWDIN ATOMIC CHARGES
----------------------
   0 C :    0.102464
   1 C :   -0.008201
   2 O :    0.295974
   3 C :   -0.412832
   4 O :    0.106222
   5 C :   -0.094059
   6 C :   -0.056882
   7 C :    0.130064
   8 N :    0.406877
   9 C :   -0.456841
  10 S :   -0.038167
  11 N :    0.394585
  12 C :   -0.055005
  13 C :   -0.038476
  14 C :    0.016802
  15 C :    0.038386
  16 C :   -0.001325
  17 C :   -0.189586
  18 O :    0.395001
  19 C :    0.033096
  20 H :   -0.025433
  21 H :   -0.027716
  22 H :   -0.025009
  23 H :   -0.027025
  24 H :   -0.028879
  25 H :   -0.005420
  26 H :   -0.023989
  27 H :   -0.004804
  28 H :   -0.057393
  29 H :   -0.064615
  30 H :   -0.014287
  31 H :   -0.029445
  32 H :   -0.021517
  33 H :   -0.035613
  34 H :   -0.154076
  35 H :   -0.022874

  Mayer bond orders larger than 0.100000
B(  0-C ,  1-C ) :   0.9826 B(  0-C , 20-H ) :   0.9747 B(  0-C , 21-H ) :   0.9730
B(  0-C , 22-H ) :   0.9729 B(  1-C ,  2-O ) :   0.9001 B(  1-C , 23-H ) :   0.9749
B(  1-C , 24-H ) :   0.9789 B(  2-O ,  3-C ) :   1.1496 B(  3-C ,  4-O ) :   1.9728
B(  3-C ,  5-C ) :   1.0651 B(  5-C ,  6-C ) :   1.6422 B(  5-C , 12-C ) :   0.9595
B(  6-C ,  7-C ) :   0.9652 B(  6-C ,  8-N ) :   1.1500 B(  7-C , 25-H ) :   0.9588
B(  7-C , 26-H ) :   0.9909 B(  7-C , 27-H ) :   0.9616 B(  8-N ,  9-C ) :   1.1889
B(  8-N , 28-H ) :   0.9465 B(  9-C , 10-S ) :   1.6033 B(  9-C , 11-N ) :   1.3107
B( 11-N , 12-C ) :   0.9660 B( 11-N , 29-H ) :   0.9486 B( 12-C , 13-C ) :   0.9637
B( 12-C , 30-H ) :   1.0009 B( 13-C , 14-C ) :   1.3510 B( 13-C , 19-C ) :   1.3820
B( 14-C , 15-C ) :   1.3938 B( 14-C , 31-H ) :   0.9722 B( 15-C , 16-C ) :   1.3595
B( 15-C , 32-H ) :   0.9706 B( 16-C , 17-C ) :   1.3337 B( 16-C , 33-H ) :   0.9852
B( 17-C , 18-O ) :   1.1042 B( 17-C , 19-C ) :   1.3645 B( 18-O , 34-H ) :   0.9799
B( 19-C , 35-H ) :   0.9596

MP2 TOTAL ENERGY:    -1274.331828777 Eh
FINAL SINGLE POINT ENERGY     -1274.331828776754

DIPOLE MOMENT
-------------
                                X             Y             Z
Electronic contribution:      9.75401       9.91543       9.68616
Nuclear contribution   :    -10.80865     -11.72376     -10.04888
                        -----------------------------------------
Total Dipole Moment    :     -1.05464      -1.80833      -0.36272
                        -----------------------------------------
Magnitude (a.u.)       :      2.12459
Magnitude (Debye)      :      5.40028

Rotational constants in cm-1:     0.010920     0.008690     0.005809
Rotational constants in MHz :   327.386163   260.523526   174.160468

                             ****ORCA TERMINATED NORMALLY****
TOTAL RUN TIME: 0 days 1 hours 53 minutes 35 seconds 191 msec
