                         Program Version 4.2.0 -  RELEASE  -
|  1> ! ri-mp2 cc-pvtz cc-pvtz/c TightSCF NoKeepInts
|  2>
|  3> %scf
|  4>   MaxCore 4096
|  5> end
|  6> *xyz  0  1
|  7>     C       14.8735620   14.6491918   14.0855857
|  8>     C       14.5395329   15.8748608   14.9599565
|  9>     O       15.6436686   16.7991360   14.9525782
| 10>     C       16.7016303   16.5897630   15.7898162
| 11>     O       17.2109329   15.4932509   15.9452017
| 12>     C       17.0369248   17.7627642   16.6657546
| 13>     C       16.9194456   19.0479416   16.2393750
| 14>     C       16.2533029   19.5502862   14.9734536
| 15>     N       17.4931802   20.0952266   16.9647976
| 16>     C       18.3820182   19.9294831   17.9925151
| 17>     S       19.1080680   21.2169759   18.7345584
| 18>     N       18.6560624   18.6362598   18.3591811
| 19>     C       17.9626745   17.4391228   17.8450879
| 20>     C       17.2890716   16.6176649   18.9364499
| 21>     C       17.5800535   15.2499173   19.0874293
| 22>     C       16.9575771   14.4936627   20.0946745
| 23>     C       16.0370601   15.1109100   20.9589815
| 24>     C       15.7435614   16.4733430   20.8091728
| 25>     O       14.8515434   17.0707112   21.6390655
| 26>     C       16.3641252   17.2231789   19.8048695
| 27>     H       15.2050447   14.9634675   13.0882569
| 28>     H       13.9886575   14.0124836   13.9670691
| 29>     H       15.6653215   14.0388559   14.5364298
| 30>     H       13.6554547   16.3727737   14.5415706
| 31>     H       14.3004978   15.5608518   15.9853601
| 32>     H       16.6563989   19.0384997   14.0903720
| 33>     H       16.3997470   20.6254541   14.8132493
| 34>     H       15.1718799   19.3686501   15.0055691
| 35>     H       17.3200231   21.0493695   16.6917277
| 36>     H       19.2996180   18.5416685   19.1347450
| 37>     H       18.8132631   16.8894025   17.4161632
| 38>     H       18.2805781   14.7687687   18.4087491
| 39>     H       17.1862700   13.4344393   20.1978603
| 40>     H       15.5531844   14.5302233   21.7372077
| 41>     H       14.5602221   16.4042756   22.2792629
| 42>     H       16.1268436   18.2771651   19.7059025
| 43> *
| 44>
| 45>                          ****END OF INPUT****

CARTESIAN COORDINATES (ANGSTROEM)
---------------------------------
  C     14.873562   14.649192   14.085586
  C     14.539533   15.874861   14.959956
  O     15.643669   16.799136   14.952578
  C     16.701630   16.589763   15.789816
  O     17.210933   15.493251   15.945202
  C     17.036925   17.762764   16.665755
  C     16.919446   19.047942   16.239375
  C     16.253303   19.550286   14.973454
  N     17.493180   20.095227   16.964798
  C     18.382018   19.929483   17.992515
  S     19.108068   21.216976   18.734558
  N     18.656062   18.636260   18.359181
  C     17.962674   17.439123   17.845088
  C     17.289072   16.617665   18.936450
  C     17.580053   15.249917   19.087429
  C     16.957577   14.493663   20.094674
  C     16.037060   15.110910   20.958982
  C     15.743561   16.473343   20.809173
  O     14.851543   17.070711   21.639066
  C     16.364125   17.223179   19.804869
  H     15.205045   14.963467   13.088257
  H     13.988658   14.012484   13.967069
  H     15.665321   14.038856   14.536430
  H     13.655455   16.372774   14.541571
  H     14.300498   15.560852   15.985360
  H     16.656399   19.038500   14.090372
  H     16.399747   20.625454   14.813249
  H     15.171880   19.368650   15.005569
  H     17.320023   21.049370   16.691728
  H     19.299618   18.541669   19.134745
  H     18.813263   16.889402   17.416163
  H     18.280578   14.768769   18.408749
  H     17.186270   13.434439   20.197860
  H     15.553184   14.530223   21.737208
  H     14.560222   16.404276   22.279263
  H     16.126844   18.277165   19.705903

 Total Charge           Charge          ....    0
 Multiplicity           Mult            ....    1
 Number of Electrons    NEL             ....  154
 Basis Dimension        Dim             ....  828

ORBITAL ENERGIES
----------------

  NO   OCC          E(Eh)            E(eV)
   0   2.0000     -91.888456     -2500.4120
   1   2.0000     -20.593745      -560.3843
   2   2.0000     -20.592967      -560.3631
   3   2.0000     -20.550435      -559.2058
   4   2.0000     -15.628997      -425.2866
   5   2.0000     -15.606136      -424.6646
   6   2.0000     -11.396424      -310.1124
   7   2.0000     -11.383071      -309.7491
   8   2.0000     -11.338113      -308.5257
   9   2.0000     -11.309093      -307.7361
  10   2.0000     -11.304635      -307.6148
  11   2.0000     -11.303988      -307.5971
  12   2.0000     -11.259885      -306.3971
  13   2.0000     -11.259333      -306.3820
  14   2.0000     -11.256292      -306.2993
  15   2.0000     -11.249179      -306.1057
  16   2.0000     -11.239306      -305.8371
  17   2.0000     -11.235387      -305.7304
  18   2.0000     -11.232157      -305.6425
  19   2.0000     -11.221271      -305.3463
  20   2.0000      -8.893537      -242.0054
  21   2.0000      -6.575113      -178.9179
  22   2.0000      -6.573111      -178.8634
  23   2.0000      -6.572522      -178.8474
  24   2.0000      -1.452059       -39.5125
  25   2.0000      -1.412716       -38.4420
  26   2.0000      -1.359030       -36.9811
  27   2.0000      -1.340211       -36.4690
  28   2.0000      -1.237370       -33.6705
  29   2.0000      -1.153530       -31.3891
  30   2.0000      -1.121219       -30.5099
  31   2.0000      -1.042826       -28.3767
  32   2.0000      -1.032773       -28.1032
  33   2.0000      -1.011063       -27.5124
  34   2.0000      -0.998792       -27.1785
  35   2.0000      -0.983710       -26.7681
  36   2.0000      -0.921400       -25.0726
  37   2.0000      -0.888281       -24.1714
  38   2.0000      -0.848561       -23.0905
  39   2.0000      -0.836664       -22.7668
  40   2.0000      -0.829339       -22.5675
  41   2.0000      -0.823204       -22.4005
  42   2.0000      -0.752406       -20.4740
  43   2.0000      -0.733515       -19.9600
  44   2.0000      -0.727120       -19.7859
  45   2.0000      -0.691678       -18.8215
  46   2.0000      -0.686131       -18.6706
  47   2.0000      -0.680460       -18.5162
  48   2.0000      -0.669558       -18.2196
  49   2.0000      -0.663986       -18.0680
  50   2.0000      -0.645442       -17.5634
  51   2.0000      -0.642304       -17.4780
  52   2.0000      -0.633446       -17.2369
  53   2.0000      -0.605474       -16.4758
  54   2.0000      -0.599439       -16.3116
  55   2.0000      -0.597152       -16.2493
  56   2.0000      -0.594876       -16.1874
  57   2.0000      -0.588047       -16.0016
  58   2.0000      -0.573932       -15.6175
  59   2.0000      -0.568773       -15.4771
  60   2.0000      -0.560647       -15.2560
  61   2.0000      -0.548504       -14.9256
  62   2.0000      -0.536765       -14.6061
  63   2.0000      -0.519100       -14.1254
  64   2.0000      -0.516848       -14.0642
  65   2.0000      -0.510951       -13.9037
  66   2.0000      -0.502466       -13.6728
  67   2.0000      -0.494914       -13.4673
  68   2.0000      -0.480038       -13.0625
  69   2.0000      -0.462197       -12.5770
  70   2.0000      -0.457367       -12.4456
  71   2.0000      -0.449954       -12.2439
  72   2.0000      -0.353345        -9.6150
  73   2.0000      -0.345656        -9.4058
  74   2.0000      -0.327529        -8.9125
  75   2.0000      -0.317660        -8.6440
  76   2.0000      -0.315831        -8.5942
  77   0.0000       0.074548         2.0285
  78   0.0000       0.109899         2.9905
  79   0.0000       0.121596         3.3088
  80   0.0000       0.135067         3.6754
  81   0.0000       0.139458         3.7949

MULLIKEN ATOMIC CHARGES
-----------------------
   0 C :   -0.280925
   1 C :    0.040765
   2 O :   -0.363109
   3 C :    0.423938
   4 O :   -0.409814
   5 C :   -0.158870
   6 C :    0.150002
   7 C :   -0.278803
   8 N :   -0.127883
   9 C :    0.207497
  10 S :   -0.441772
  11 N :   -0.211096
  12 C :    0.039778
  13 C :    0.033376
  14 C :   -0.172723
  15 C :   -0.134222
  16 C :   -0.277623
  17 C :    0.313788
  18 O :   -0.358715
  19 C :   -0.252289
  20 H :    0.091249
  21 H :    0.089619
  22 H :    0.122514
  23 H :    0.099962
  24 H :    0.091189
  25 H :    0.126058
  26 H :    0.101564
  27 H :    0.126990
  28 H :    0.198861
  29 H :    0.199804
  30 H :    0.156453
  31 H :    0.160638
  32 H :    0.160612
  33 H :    0.128763
  34 H :    0.240090
  35 H :    0.164333
Sum of atomic charges:   -0.0000000

LOEWDIN ATOMIC CHARGES
----------------------
   0 C :    0.105501
   1 C :   -0.016292
   2 O :    0.295620
   3 C :   -0.415314
   4 O :    0.119482
   5 C :   -0.093951
   6 C :   -0.064711
   7 C :    0.125709
   8 N :    0.405573
   9 C :   -0.458434
  10 S :   -0.037231
  11 N :    0.396202
  12 C :   -0.048384
  13 C :   -0.041013
  14 C :    0.024003
  15 C :    0.040846
  16 C :   -0.001297
  17 C :   -0.192736
  18 O :    0.393197
  19 C :    0.029226
  20 H :   -0.028405
  21 H :   -0.029966
  22 H :   -0.025817
  23 H :   -0.025486
  24 H :   -0.028337
  25 H :   -0.008557
  26 H :   -0.020929
  27 H :   -0.009486
  28 H :   -0.058530
  29 H :   -0.063294
  30 H :   -0.008047
  31 H :   -0.023852
  32 H :   -0.020861
  33 H :   -0.036029
  34 H :   -0.154680
  35 H :   -0.023723

  Mayer bond orders larger than 0.100000
B(  0-C ,  1-C ) :   0.9770 B(  0-C , 20-H ) :   0.9759 B(  0-C , 21-H ) :   0.9760
B(  0-C , 22-H ) :   0.9712 B(  1-C ,  2-O ) :   0.9040 B(  1-C , 23-H ) :   0.9840
B(  1-C , 24-H ) :   0.9749 B(  2-O ,  3-C ) :   1.0773 B(  3-C ,  4-O ) :   1.9979
B(  3-C ,  5-C ) :   1.0423 B(  5-C ,  6-C ) :   1.6583 B(  5-C , 12-C ) :   0.9455
B(  6-C ,  7-C ) :   0.9551 B(  6-C ,  8-N ) :   1.1355 B(  7-C , 25-H ) :   0.9657
B(  7-C , 26-H ) :   0.9905 B(  7-C , 27-H ) :   0.9636 B(  8-N ,  9-C ) :   1.1853
B(  8-N , 28-H ) :   0.9470 B(  9-C , 10-S ) :   1.6092 B(  9-C , 11-N ) :   1.3050
B( 11-N , 12-C ) :   0.9764 B( 11-N , 29-H ) :   0.9484 B( 12-C , 13-C ) :   0.9712
B( 12-C , 30-H ) :   0.9966 B( 13-C , 14-C ) :   1.3777 B( 13-C , 19-C ) :   1.3645
B( 14-C , 15-C ) :   1.3972 B( 14-C , 31-H ) :   0.9632 B( 15-C , 16-C ) :   1.3591
B( 15-C , 32-H ) :   0.9710 B( 16-C , 17-C ) :   1.3330 B( 16-C , 33-H ) :   0.9858
B( 17-C , 18-O ) :   1.1041 B( 17-C , 19-C ) :   1.3672 B( 18-O , 34-H ) :   0.9805
B( 19-C , 35-H ) :   0.9600

MP2 TOTAL ENERGY:    -1274.330429474 Eh
FINAL SINGLE POINT ENERGY     -1274.330429474026

DIPOLE MOMENT
-------------
                                X             Y             Z
Electronic contribution:      9.73976      10.41545      10.99919
Nuclear contribution   :    -11.34741     -11.56268     -11.78213
                        -----------------------------------------
Total Dipole Moment    :     -1.60765      -1.14723      -0.78294
                        -----------------------------------------
Magnitude (a.u.)       :      2.12454
Magnitude (Debye)      :      5.40016

Rotational constants in cm-1:     0.010032     0.009128     0.005620
Rotational constants in MHz :   300.756265   273.636426   168.479115

                             ****ORCA TERMINATED NORMALLY****
TOTAL RUN TIME: 0 days 1 hours 36 minutes 3 seconds 725 msec
