                         Program Version 4.2.0 -  RELEASE  -
|  1> ! ri-mp2 cc-pvtz cc-pvtz/c TightSCF NoKeepInts
|  2>
|  3> %scf
|  4>   MaxCore 4096
|  5> end
|  6> *xyz  0  1
|  7>     C       14.4787057   16.1358434   16.0769883
|  8>     C       15.1447554   15.8005837   14.7246079
|  9>     O       16.3666815   16.5392025   14.5101823
| 10>     C       17.3191139   16.5795039   15.4853581
| 11>     O       18.1163735   15.6687814   15.6199365
| 12>     C       17.1908310   17.7055786   16.4701900
| 13>     C       16.8146984   18.9525033   16.0855533
| 14>     C       16.2686831   19.3774909   14.7367020
| 15>     N       16.9699948   20.0413148   16.9467488
| 16>     C       17.6979246   20.0115084   18.1059318
| 17>     S       17.9342951   21.3676858   19.0223226
| 18>     N       18.2403803   18.8003918   18.4553490
| 19>     C       17.9706954   17.5178236   17.7760775
| 20>     C       17.3665776   16.4598705   18.6894786
| 21>     C       17.9277123   15.1725278   18.7639519
| 22>     C       17.3612064   14.1930604   19.5966691
| 23>     C       16.2236766   14.5037133   20.3613923
| 24>     C       15.6610144   15.7852583   20.2873229
| 25>     O       14.5575700   16.0856457   21.0174028
| 26>     C       16.2269571   16.7580122   19.4571574
| 27>     H       15.0858286   15.7786985   16.9180898
| 28>     H       13.5016661   15.6424665   16.1475702
| 29>     H       14.3179551   17.2148846   16.1864613
| 30>     H       15.3630682   14.7244254   14.6950923
| 31>     H       14.4448676   16.0198554   13.9080256
| 32>     H       15.2694177   18.9585293   14.5686253
| 33>     H       16.9205965   19.0306756   13.9247350
| 34>     H       16.1890674   20.4668492   14.6358068
| 35>     H       16.6018136   20.9431503   16.6893013
| 36>     H       18.7602685   18.8019497   19.3239721
| 37>     H       18.9914600   17.2358331   17.4785446
| 38>     H       18.7982403   14.9266972   18.1596900
| 39>     H       17.8013440   13.1983783   19.6414952
| 40>     H       15.7819313   13.7492707   21.0038777
| 41>     H       14.3447357   15.3078118   21.5548038
| 42>     H       15.7768922   17.7442240   19.4125861
| 43> *
| 44>
| 45>                          ****END OF INPUT****

CARTESIAN COORDINATES (ANGSTROEM)
---------------------------------
  C     14.478706   16.135843   16.076988
  C     15.144755   15.800584   14.724608
  O     16.366681   16.539202   14.510182
  C     17.319114   16.579504   15.485358
  O     18.116374   15.668781   15.619936
  C     17.190831   17.705579   16.470190
  C     16.814698   18.952503   16.085553
  C     16.268683   19.377491   14.736702
  N     16.969995   20.041315   16.946749
  C     17.697925   20.011508   18.105932
  S     17.934295   21.367686   19.022323
  N     18.240380   18.800392   18.455349
  C     17.970695   17.517824   17.776077
  C     17.366578   16.459871   18.689479
  C     17.927712   15.172528   18.763952
  C     17.361206   14.193060   19.596669
  C     16.223677   14.503713   20.361392
  C     15.661014   15.785258   20.287323
  O     14.557570   16.085646   21.017403
  C     16.226957   16.758012   19.457157
  H     15.085829   15.778698   16.918090
  H     13.501666   15.642466   16.147570
  H     14.317955   17.214885   16.186461
  H     15.363068   14.724425   14.695092
  H     14.444868   16.019855   13.908026
  H     15.269418   18.958529   14.568625
  H     16.920596   19.030676   13.924735
  H     16.189067   20.466849   14.635807
  H     16.601814   20.943150   16.689301
  H     18.760268   18.801950   19.323972
  H     18.991460   17.235833   17.478545
  H     18.798240   14.926697   18.159690
  H     17.801344   13.198378   19.641495
  H     15.781931   13.749271   21.003878
  H     14.344736   15.307812   21.554804
  H     15.776892   17.744224   19.412586

 Total Charge           Charge          ....    0
 Multiplicity           Mult            ....    1
 Number of Electrons    NEL             ....  154
 Basis Dimension        Dim             ....  828

ORBITAL ENERGIES
----------------

  NO   OCC          E(Eh)            E(eV)
   0   2.0000     -91.889959     -2500.4529
   1   2.0000     -20.595881      -560.4424
   2   2.0000     -20.585225      -560.1525
   3   2.0000     -20.552227      -559.2545
   4   2.0000     -15.630410      -425.3251
   5   2.0000     -15.607735      -424.7080
   6   2.0000     -11.394112      -310.0495
   7   2.0000     -11.384731      -309.7943
   8   2.0000     -11.338606      -308.5392
   9   2.0000     -11.312266      -307.8224
  10   2.0000     -11.307160      -307.6835
  11   2.0000     -11.306347      -307.6613
  12   2.0000     -11.261912      -306.4522
  13   2.0000     -11.260134      -306.4038
  14   2.0000     -11.259199      -306.3784
  15   2.0000     -11.252279      -306.1901
  16   2.0000     -11.242387      -305.9209
  17   2.0000     -11.238211      -305.8073
  18   2.0000     -11.234801      -305.7145
  19   2.0000     -11.232642      -305.6557
  20   2.0000      -8.895035      -242.0462
  21   2.0000      -6.576608      -178.9586
  22   2.0000      -6.574608      -178.9042
  23   2.0000      -6.574016      -178.8881
  24   2.0000      -1.448318       -39.4107
  25   2.0000      -1.415681       -38.5226
  26   2.0000      -1.356704       -36.9178
  27   2.0000      -1.341681       -36.5090
  28   2.0000      -1.238901       -33.7122
  29   2.0000      -1.156609       -31.4729
  30   2.0000      -1.122812       -30.5533
  31   2.0000      -1.044775       -28.4298
  32   2.0000      -1.034497       -28.1501
  33   2.0000      -1.014279       -27.5999
  34   2.0000      -1.002809       -27.2878
  35   2.0000      -0.988072       -26.8868
  36   2.0000      -0.924088       -25.1457
  37   2.0000      -0.896866       -24.4050
  38   2.0000      -0.850062       -23.1314
  39   2.0000      -0.838827       -22.8256
  40   2.0000      -0.832330       -22.6488
  41   2.0000      -0.820409       -22.3245
  42   2.0000      -0.749988       -20.4082
  43   2.0000      -0.734734       -19.9931
  44   2.0000      -0.728585       -19.8258
  45   2.0000      -0.693666       -18.8756
  46   2.0000      -0.687013       -18.6946
  47   2.0000      -0.677430       -18.4338
  48   2.0000      -0.672083       -18.2883
  49   2.0000      -0.664181       -18.0733
  50   2.0000      -0.652803       -17.7637
  51   2.0000      -0.647664       -17.6238
  52   2.0000      -0.637275       -17.3411
  53   2.0000      -0.615196       -16.7403
  54   2.0000      -0.604468       -16.4484
  55   2.0000      -0.602048       -16.3826
  56   2.0000      -0.599648       -16.3173
  57   2.0000      -0.582770       -15.8580
  58   2.0000      -0.575779       -15.6677
  59   2.0000      -0.563365       -15.3299
  60   2.0000      -0.560743       -15.2586
  61   2.0000      -0.549198       -14.9444
  62   2.0000      -0.547679       -14.9031
  63   2.0000      -0.530078       -14.4242
  64   2.0000      -0.520148       -14.1539
  65   2.0000      -0.512075       -13.9343
  66   2.0000      -0.498727       -13.5710
  67   2.0000      -0.492628       -13.4051
  68   2.0000      -0.482703       -13.1350
  69   2.0000      -0.465133       -12.6569
  70   2.0000      -0.457760       -12.4563
  71   2.0000      -0.451071       -12.2743
  72   2.0000      -0.354754        -9.6533
  73   2.0000      -0.347855        -9.4656
  74   2.0000      -0.329054        -8.9540
  75   2.0000      -0.319891        -8.7047
  76   2.0000      -0.318912        -8.6780
  77   0.0000       0.072818         1.9815
  78   0.0000       0.106739         2.9045
  79   0.0000       0.118243         3.2176
  80   0.0000       0.132532         3.6064
  81   0.0000       0.135928         3.6988

MULLIKEN ATOMIC CHARGES
-----------------------
   0 C :   -0.333168
   1 C :    0.036199
   2 O :   -0.378938
   3 C :    0.462465
   4 O :   -0.388281
   5 C :   -0.232832
   6 C :    0.153186
   7 C :   -0.285502
   8 N :   -0.128115
   9 C :    0.205392
  10 S :   -0.439920
  11 N :   -0.212873
  12 C :    0.065725
  13 C :    0.014514
  14 C :   -0.176812
  15 C :   -0.135277
  16 C :   -0.277203
  17 C :    0.320438
  18 O :   -0.359104
  19 C :   -0.260872
  20 H :    0.125381
  21 H :    0.119323
  22 H :    0.100117
  23 H :    0.110521
  24 H :    0.110916
  25 H :    0.118178
  26 H :    0.134064
  27 H :    0.106235
  28 H :    0.197793
  29 H :    0.199691
  30 H :    0.158137
  31 H :    0.167745
  32 H :    0.162283
  33 H :    0.130953
  34 H :    0.240672
  35 H :    0.168968
Sum of atomic charges:   -0.0000000

LOEWDIN ATOMIC CHARGES
----------------------
   0 C :    0.103587
   1 C :   -0.018776
   2 O :    0.287602
   3 C :   -0.420888
   4 O :    0.125378
   5 C :   -0.094295
   6 C :   -0.069014
   7 C :    0.126352
   8 N :    0.405954
   9 C :   -0.458426
  10 S :   -0.035955
  11 N :    0.396344
  12 C :   -0.048331
  13 C :   -0.043714
  14 C :    0.023772
  15 C :    0.042245
  16 C :   -0.000941
  17 C :   -0.194105
  18 O :    0.393918
  19 C :    0.029474
  20 H :   -0.023629
  21 H :   -0.022666
  22 H :   -0.031703
  23 H :   -0.025758
  24 H :   -0.023340
  25 H :   -0.013351
  26 H :   -0.005990
  27 H :   -0.019809
  28 H :   -0.058521
  29 H :   -0.063310
  30 H :   -0.006515
  31 H :   -0.022412
  32 H :   -0.019809
  33 H :   -0.035397
  34 H :   -0.154065
  35 H :   -0.023906

  Mayer bond orders larger than 0.100000
B(  0-C ,  1-C ) :   0.9602 B(  0-C , 20-H ) :   0.9656 B(  0-C , 21-H ) :   0.9771
B(  0-C , 22-H ) :   0.9717 B(  1-C ,  2-O ) :   0.9028 B(  1-C , 23-H ) :   0.9853
B(  1-C , 24-H ) :   0.9818 B(  2-O ,  3-C ) :   1.0778 B(  3-C ,  4-O ) :   2.0524
B(  3-C ,  5-C ) :   0.9988 B(  5-C ,  6-C ) :   1.6864 B(  5-C , 12-C ) :   0.9421
B(  6-C ,  7-C ) :   0.9515 B(  6-C ,  8-N ) :   1.1344 B(  7-C , 25-H ) :   0.9657
B(  7-C , 26-H ) :   0.9648 B(  7-C , 27-H ) :   0.9897 B(  8-N ,  9-C ) :   1.1850
B(  8-N , 28-H ) :   0.9471 B(  9-C , 10-S ) :   1.6126 B(  9-C , 11-N ) :   1.3009
B( 11-N , 12-C ) :   0.9802 B( 11-N , 29-H ) :   0.9487 B( 12-C , 13-C ) :   0.9650
B( 12-C , 30-H ) :   0.9953 B( 13-C , 14-C ) :   1.3854 B( 13-C , 19-C ) :   1.3560
B( 14-C , 15-C ) :   1.3975 B( 14-C , 31-H ) :   0.9597 B( 15-C , 16-C ) :   1.3602
B( 15-C , 32-H ) :   0.9708 B( 16-C , 17-C ) :   1.3319 B( 16-C , 33-H ) :   0.9849
B( 17-C , 18-O ) :   1.1063 B( 17-C , 19-C ) :   1.3624 B( 18-O , 34-H ) :   0.9800
B( 19-C , 35-H ) :   0.9602

MP2 TOTAL ENERGY:    -1274.325455134 Eh
FINAL SINGLE POINT ENERGY     -1274.325455133760

DIPOLE MOMENT
-------------
                                X             Y             Z
Electronic contribution:      9.19142       7.48764       7.14528
Nuclear contribution   :    -10.61753      -8.72090      -7.84568
                        -----------------------------------------
Total Dipole Moment    :     -1.42611      -1.23326      -0.70040
                        -----------------------------------------
Magnitude (a.u.)       :      2.01129
Magnitude (Debye)      :      5.11228

Rotational constants in cm-1:     0.011195     0.009383     0.006401
Rotational constants in MHz :   335.631436   281.297794   191.904913

                             ****ORCA TERMINATED NORMALLY****
TOTAL RUN TIME: 0 days 1 hours 44 minutes 21 seconds 289 msec
