                         Program Version 4.2.0 -  RELEASE  -
|  1> ! ri-mp2 cc-pvtz cc-pvtz/c TightSCF NoKeepInts
|  2>
|  3> %scf
|  4>   MaxCore 4096
|  5> end
|  6> *xyz  0  1
|  7>     C       13.8022741   16.4439173   15.2549285
|  8>     C       15.1213561   15.6538053   15.2878425
|  9>     O       16.1623427   16.4874749   14.7508874
| 10>     C       17.2758485   16.6196589   15.5212769
| 11>     O       18.1633858   15.7857643   15.5165764
| 12>     C       17.1872293   17.7200891   16.5307325
| 13>     C       16.7563837   18.9592389   16.1862068
| 14>     C       16.1436669   19.3811638   14.8655886
| 15>     N       16.9348980   20.0410633   17.0513638
| 16>     C       17.7284262   20.0126264   18.1674783
| 17>     S       17.9816854   21.3604930   19.0915736
| 18>     N       18.3214453   18.8109009   18.4665919
| 19>     C       18.0513093   17.5324639   17.7792549
| 20>     C       17.5299841   16.4343151   18.6952578
| 21>     C       18.1308286   15.1628494   18.6991097
| 22>     C       17.6398126   14.1432952   19.5316560
| 23>     C       16.5374902   14.3972921   20.3658029
| 24>     C       15.9336077   15.6621979   20.3598172
| 25>     O       14.8636353   15.9076872   21.1571437
| 26>     C       16.4237931   16.6746936   19.5288126
| 27>     H       13.8479405   17.3044053   15.9333305
| 28>     H       12.9678584   15.8067416   15.5727078
| 29>     H       13.5905013   16.8047699   14.2406404
| 30>     H       15.3419555   15.3517646   16.3221288
| 31>     H       15.0295779   14.7441315   14.6799413
| 32>     H       16.7062132   18.9658254   14.0197331
| 33>     H       16.1370164   20.4702253   14.7343910
| 34>     H       15.1085327   19.0319090   14.7823779
| 35>     H       16.5292638   20.9362279   16.8289223
| 36>     H       18.8905937   18.8141789   19.3037807
| 37>     H       19.0591745   17.2851487   17.4141997
| 38>     H       18.9740280   14.9614302   18.0417625
| 39>     H       18.1111139   13.1619203   19.5238343
| 40>     H       16.1545271   13.6121401   21.0093177
| 41>     H       14.7062044   15.1107760   21.6856756
| 42>     H       15.9430956   17.6474146   19.5373546
| 43> *
| 44>
| 45>                          ****END OF INPUT****

CARTESIAN COORDINATES (ANGSTROEM)
---------------------------------
  C     13.802274   16.443917   15.254929
  C     15.121356   15.653805   15.287843
  O     16.162343   16.487475   14.750887
  C     17.275848   16.619659   15.521277
  O     18.163386   15.785764   15.516576
  C     17.187229   17.720089   16.530732
  C     16.756384   18.959239   16.186207
  C     16.143667   19.381164   14.865589
  N     16.934898   20.041063   17.051364
  C     17.728426   20.012626   18.167478
  S     17.981685   21.360493   19.091574
  N     18.321445   18.810901   18.466592
  C     18.051309   17.532464   17.779255
  C     17.529984   16.434315   18.695258
  C     18.130829   15.162849   18.699110
  C     17.639813   14.143295   19.531656
  C     16.537490   14.397292   20.365803
  C     15.933608   15.662198   20.359817
  O     14.863635   15.907687   21.157144
  C     16.423793   16.674694   19.528813
  H     13.847940   17.304405   15.933330
  H     12.967858   15.806742   15.572708
  H     13.590501   16.804770   14.240640
  H     15.341955   15.351765   16.322129
  H     15.029578   14.744131   14.679941
  H     16.706213   18.965825   14.019733
  H     16.137016   20.470225   14.734391
  H     15.108533   19.031909   14.782378
  H     16.529264   20.936228   16.828922
  H     18.890594   18.814179   19.303781
  H     19.059174   17.285149   17.414200
  H     18.974028   14.961430   18.041762
  H     18.111114   13.161920   19.523834
  H     16.154527   13.612140   21.009318
  H     14.706204   15.110776   21.685676
  H     15.943096   17.647415   19.537355

 Total Charge           Charge          ....    0
 Multiplicity           Mult            ....    1
 Number of Electrons    NEL             ....  154
 Basis Dimension        Dim             ....  828

ORBITAL ENERGIES
----------------

  NO   OCC          E(Eh)            E(eV)
   0   2.0000     -91.890001     -2500.4540
   1   2.0000     -20.596885      -560.4697
   2   2.0000     -20.585993      -560.1733
   3   2.0000     -20.554681      -559.3213
   4   2.0000     -15.630078      -425.3161
   5   2.0000     -15.608156      -424.7195
   6   2.0000     -11.393877      -310.0432
   7   2.0000     -11.385163      -309.8060
   8   2.0000     -11.337913      -308.5203
   9   2.0000     -11.313536      -307.8570
  10   2.0000     -11.306810      -307.6739
  11   2.0000     -11.304896      -307.6219
  12   2.0000     -11.261276      -306.4349
  13   2.0000     -11.260552      -306.4152
  14   2.0000     -11.259382      -306.3834
  15   2.0000     -11.253514      -306.2237
  16   2.0000     -11.243357      -305.9473
  17   2.0000     -11.239461      -305.8413
  18   2.0000     -11.236081      -305.7493
  19   2.0000     -11.235842      -305.7428
  20   2.0000      -8.895079      -242.0474
  21   2.0000      -6.576652      -178.9598
  22   2.0000      -6.574651      -178.9053
  23   2.0000      -6.574060      -178.8893
  24   2.0000      -1.452405       -39.5219
  25   2.0000      -1.416643       -38.5488
  26   2.0000      -1.360293       -37.0155
  27   2.0000      -1.341351       -36.5000
  28   2.0000      -1.238802       -33.7095
  29   2.0000      -1.157814       -31.5057
  30   2.0000      -1.123914       -30.5833
  31   2.0000      -1.046093       -28.4656
  32   2.0000      -1.038355       -28.2551
  33   2.0000      -1.015295       -27.6276
  34   2.0000      -1.002223       -27.2719
  35   2.0000      -0.987940       -26.8832
  36   2.0000      -0.923981       -25.1428
  37   2.0000      -0.885679       -24.1005
  38   2.0000      -0.849963       -23.1287
  39   2.0000      -0.840317       -22.8662
  40   2.0000      -0.833539       -22.6818
  41   2.0000      -0.830269       -22.5928
  42   2.0000      -0.760286       -20.6884
  43   2.0000      -0.737008       -20.0550
  44   2.0000      -0.729792       -19.8587
  45   2.0000      -0.694629       -18.9018
  46   2.0000      -0.686340       -18.6763
  47   2.0000      -0.683859       -18.6087
  48   2.0000      -0.675615       -18.3844
  49   2.0000      -0.657770       -17.8988
  50   2.0000      -0.654123       -17.7996
  51   2.0000      -0.642349       -17.4792
  52   2.0000      -0.634716       -17.2715
  53   2.0000      -0.611463       -16.6388
  54   2.0000      -0.606870       -16.5138
  55   2.0000      -0.603197       -16.4138
  56   2.0000      -0.600297       -16.3349
  57   2.0000      -0.578934       -15.7536
  58   2.0000      -0.575966       -15.6728
  59   2.0000      -0.574590       -15.6354
  60   2.0000      -0.561644       -15.2831
  61   2.0000      -0.552687       -15.0394
  62   2.0000      -0.549053       -14.9405
  63   2.0000      -0.521802       -14.1989
  64   2.0000      -0.517388       -14.0788
  65   2.0000      -0.512107       -13.9351
  66   2.0000      -0.504498       -13.7281
  67   2.0000      -0.497930       -13.5494
  68   2.0000      -0.484704       -13.1895
  69   2.0000      -0.466091       -12.6830
  70   2.0000      -0.459353       -12.4996
  71   2.0000      -0.453318       -12.3354
  72   2.0000      -0.355281        -9.6677
  73   2.0000      -0.349521        -9.5109
  74   2.0000      -0.329133        -8.9562
  75   2.0000      -0.320698        -8.7266
  76   2.0000      -0.319295        -8.6885
  77   0.0000       0.073895         2.0108
  78   0.0000       0.104718         2.8495
  79   0.0000       0.119954         3.2641
  80   0.0000       0.132019         3.5924
  81   0.0000       0.136052         3.7022

MULLIKEN ATOMIC CHARGES
-----------------------
   0 C :   -0.299720
   1 C :    0.041237
   2 O :   -0.371274
   3 C :    0.454244
   4 O :   -0.382847
   5 C :   -0.218759
   6 C :    0.145671
   7 C :   -0.290335
   8 N :   -0.130027
   9 C :    0.205718
  10 S :   -0.440103
  11 N :   -0.214459
  12 C :    0.058943
  13 C :    0.019873
  14 C :   -0.188923
  15 C :   -0.131719
  16 C :   -0.278110
  17 C :    0.313034
  18 O :   -0.357492
  19 C :   -0.249786
  20 H :    0.094672
  21 H :    0.113404
  22 H :    0.101463
  23 H :    0.097490
  24 H :    0.114828
  25 H :    0.130552
  26 H :    0.108886
  27 H :    0.124756
  28 H :    0.198525
  29 H :    0.200132
  30 H :    0.159366
  31 H :    0.168226
  32 H :    0.162820
  33 H :    0.130969
  34 H :    0.240801
  35 H :    0.167943
Sum of atomic charges:   -0.0000000

LOEWDIN ATOMIC CHARGES
----------------------
   0 C :    0.104429
   1 C :   -0.014384
   2 O :    0.293063
   3 C :   -0.426103
   4 O :    0.127773
   5 C :   -0.096865
   6 C :   -0.070550
   7 C :    0.127743
   8 N :    0.405373
   9 C :   -0.457227
  10 S :   -0.036135
  11 N :    0.395756
  12 C :   -0.048944
  13 C :   -0.043277
  14 C :    0.022603
  15 C :    0.042230
  16 C :   -0.000909
  17 C :   -0.193166
  18 O :    0.393881
  19 C :    0.027460
  20 H :   -0.030812
  21 H :   -0.022719
  22 H :   -0.026938
  23 H :   -0.025689
  24 H :   -0.025211
  25 H :   -0.006800
  26 H :   -0.018861
  27 H :   -0.012707
  28 H :   -0.058098
  29 H :   -0.063693
  30 H :   -0.006469
  31 H :   -0.022368
  32 H :   -0.019674
  33 H :   -0.035323
  34 H :   -0.153871
  35 H :   -0.023519

  Mayer bond orders larger than 0.100000
B(  0-C ,  1-C ) :   0.9706 B(  0-C , 20-H ) :   0.9767 B(  0-C , 21-H ) :   0.9780
B(  0-C , 22-H ) :   0.9748 B(  1-C ,  2-O ) :   0.8922 B(  1-C , 23-H ) :   0.9674
B(  1-C , 24-H ) :   0.9838 B(  2-O ,  3-C ) :   1.0797 B(  3-C ,  4-O ) :   2.0709
B(  3-C ,  5-C ) :   0.9862 B(  5-C ,  6-C ) :   1.6858 B(  5-C , 12-C ) :   0.9436
B(  6-C ,  7-C ) :   0.9503 B(  6-C ,  8-N ) :   1.1323 B(  7-C , 25-H ) :   0.9673
B(  7-C , 26-H ) :   0.9888 B(  7-C , 27-H ) :   0.9650 B(  8-N ,  9-C ) :   1.1874
B(  8-N , 28-H ) :   0.9477 B(  9-C , 10-S ) :   1.6125 B(  9-C , 11-N ) :   1.2992
B( 11-N , 12-C ) :   0.9810 B( 11-N , 29-H ) :   0.9485 B( 12-C , 13-C ) :   0.9681
B( 12-C , 30-H ) :   0.9934 B( 13-C , 14-C ) :   1.3830 B( 13-C , 19-C ) :   1.3593
B( 14-C , 15-C ) :   1.3955 B( 14-C , 31-H ) :   0.9606 B( 15-C , 16-C ) :   1.3608
B( 15-C , 32-H ) :   0.9705 B( 16-C , 17-C ) :   1.3312 B( 16-C , 33-H ) :   0.9850
B( 17-C , 18-O ) :   1.1069 B( 17-C , 19-C ) :   1.3671 B( 18-O , 34-H ) :   0.9798
B( 19-C , 35-H ) :   0.9589

MP2 TOTAL ENERGY:    -1274.324677735 Eh
FINAL SINGLE POINT ENERGY     -1274.324677735387

DIPOLE MOMENT
-------------
                                X             Y             Z
Electronic contribution:     10.60338       6.98235       8.36049
Nuclear contribution   :    -11.98139      -8.29376      -8.91351
                        -----------------------------------------
Total Dipole Moment    :     -1.37800      -1.31141      -0.55301
                        -----------------------------------------
Magnitude (a.u.)       :      1.98104
Magnitude (Debye)      :      5.03540

Rotational constants in cm-1:     0.010710     0.009187     0.006337
Rotational constants in MHz :   321.076237   275.433476   189.970026

                             ****ORCA TERMINATED NORMALLY****
TOTAL RUN TIME: 0 days 1 hours 51 minutes 26 seconds 635 msec
