                         Program Version 4.2.0 -  RELEASE  -
|  1> ! ri-mp2 cc-pvtz cc-pvtz/c TightSCF NoKeepInts
|  2>
|  3> %scf
|  4>   MaxCore 4096
|  5> end
|  6> *xyz  0  1
|  7>     C       13.7373444   15.8503157   14.7033919
|  8>     C       14.8284922   16.3256555   15.6762755
|  9>     O       16.0874843   16.2317953   14.9814704
| 10>     C       17.2604680   16.6683111   15.5398335
| 11>     O       18.3273803   16.1589430   15.2516235
| 12>     C       17.1443396   17.7287547   16.5851873
| 13>     C       16.6962129   18.9642095   16.2529339
| 14>     C       16.0636718   19.3862560   14.9408631
| 15>     N       16.8732026   20.0448470   17.1187403
| 16>     C       17.7006931   20.0255864   18.2107600
| 17>     S       17.9572539   21.3738082   19.1330123
| 18>     N       18.3255507   18.8333668   18.4846668
| 19>     C       18.0510485   17.5528482   17.8021473
| 20>     C       17.5937050   16.4238465   18.7129476
| 21>     C       18.1305982   15.1330102   18.5610446
| 22>     C       17.6969216   14.0784945   19.3816643
| 23>     C       16.7155211   14.3167308   20.3591985
| 24>     C       16.1735320   15.6009014   20.5071514
| 25>     O       15.2181911   15.8313373   21.4424754
| 26>     C       16.6059664   16.6487400   19.6877662
| 27>     H       12.7516434   15.8803415   15.1834926
| 28>     H       13.9309509   14.8191851   14.3814481
| 29>     H       13.7068551   16.4896965   13.8123683
| 30>     H       14.6011998   17.3498914   15.9906472
| 31>     H       14.8419272   15.6835899   16.5677544
| 32>     H       14.9723772   19.4485082   15.0277704
| 33>     H       16.2973075   18.6953292   14.1214886
| 34>     H       16.4299147   20.3708056   14.6225885
| 35>     H       16.4523451   20.9359167   16.9067443
| 36>     H       18.9284547   18.8446299   19.2979990
| 37>     H       19.0503984   17.3301216   17.3987476
| 38>     H       18.8807274   14.9455675   17.7950370
| 39>     H       18.1187790   13.0827546   19.2548288
| 40>     H       16.3770203   13.5044632   20.9940387
| 41>     H       15.0875697   15.0064048   21.9342440
| 42>     H       16.1719519   17.6350364   19.8156487
| 43> *
| 44>
| 45>                          ****END OF INPUT****

CARTESIAN COORDINATES (ANGSTROEM)
---------------------------------
  C     13.737344   15.850316   14.703392
  C     14.828492   16.325655   15.676275
  O     16.087484   16.231795   14.981470
  C     17.260468   16.668311   15.539834
  O     18.327380   16.158943   15.251624
  C     17.144340   17.728755   16.585187
  C     16.696213   18.964209   16.252934
  C     16.063672   19.386256   14.940863
  N     16.873203   20.044847   17.118740
  C     17.700693   20.025586   18.210760
  S     17.957254   21.373808   19.133012
  N     18.325551   18.833367   18.484667
  C     18.051049   17.552848   17.802147
  C     17.593705   16.423846   18.712948
  C     18.130598   15.133010   18.561045
  C     17.696922   14.078494   19.381664
  C     16.715521   14.316731   20.359198
  C     16.173532   15.600901   20.507151
  O     15.218191   15.831337   21.442475
  C     16.605966   16.648740   19.687766
  H     12.751643   15.880342   15.183493
  H     13.930951   14.819185   14.381448
  H     13.706855   16.489697   13.812368
  H     14.601200   17.349891   15.990647
  H     14.841927   15.683590   16.567754
  H     14.972377   19.448508   15.027770
  H     16.297307   18.695329   14.121489
  H     16.429915   20.370806   14.622589
  H     16.452345   20.935917   16.906744
  H     18.928455   18.844630   19.297999
  H     19.050398   17.330122   17.398748
  H     18.880727   14.945567   17.795037
  H     18.118779   13.082755   19.254829
  H     16.377020   13.504463   20.994039
  H     15.087570   15.006405   21.934244
  H     16.171952   17.635036   19.815649

 Total Charge           Charge          ....    0
 Multiplicity           Mult            ....    1
 Number of Electrons    NEL             ....  154
 Basis Dimension        Dim             ....  828

ORBITAL ENERGIES
----------------

  NO   OCC          E(Eh)            E(eV)
   0   2.0000     -91.889797     -2500.4485
   1   2.0000     -20.603467      -560.6489
   2   2.0000     -20.599157      -560.5315
   3   2.0000     -20.551659      -559.2391
   4   2.0000     -15.628029      -425.2603
   5   2.0000     -15.609436      -424.7543
   6   2.0000     -11.398553      -310.1704
   7   2.0000     -11.385722      -309.8213
   8   2.0000     -11.334097      -308.4165
   9   2.0000     -11.316404      -307.9350
  10   2.0000     -11.309766      -307.7544
  11   2.0000     -11.306368      -307.6619
  12   2.0000     -11.267450      -306.6029
  13   2.0000     -11.264151      -306.5131
  14   2.0000     -11.263323      -306.4906
  15   2.0000     -11.256727      -306.3111
  16   2.0000     -11.245566      -306.0074
  17   2.0000     -11.241629      -305.9003
  18   2.0000     -11.239012      -305.8291
  19   2.0000     -11.236658      -305.7650
  20   2.0000      -8.894903      -242.0426
  21   2.0000      -6.576484      -178.9552
  22   2.0000      -6.574472      -178.9005
  23   2.0000      -6.573890      -178.8846
  24   2.0000      -1.450521       -39.4707
  25   2.0000      -1.418860       -38.6091
  26   2.0000      -1.363453       -37.1014
  27   2.0000      -1.340925       -36.4884
  28   2.0000      -1.239216       -33.7208
  29   2.0000      -1.160816       -31.5874
  30   2.0000      -1.126242       -30.6466
  31   2.0000      -1.048265       -28.5248
  32   2.0000      -1.042787       -28.3757
  33   2.0000      -1.018592       -27.7173
  34   2.0000      -1.005681       -27.3660
  35   2.0000      -0.989546       -26.9269
  36   2.0000      -0.926260       -25.2048
  37   2.0000      -0.881844       -23.9962
  38   2.0000      -0.855794       -23.2873
  39   2.0000      -0.842744       -22.9322
  40   2.0000      -0.837672       -22.7942
  41   2.0000      -0.835670       -22.7397
  42   2.0000      -0.759242       -20.6600
  43   2.0000      -0.739898       -20.1336
  44   2.0000      -0.732415       -19.9300
  45   2.0000      -0.696530       -18.9535
  46   2.0000      -0.689042       -18.7498
  47   2.0000      -0.683352       -18.5950
  48   2.0000      -0.674130       -18.3440
  49   2.0000      -0.664835       -18.0911
  50   2.0000      -0.656425       -17.8622
  51   2.0000      -0.648501       -17.6466
  52   2.0000      -0.639168       -17.3926
  53   2.0000      -0.613049       -16.6819
  54   2.0000      -0.606900       -16.5146
  55   2.0000      -0.602850       -16.4044
  56   2.0000      -0.599609       -16.3162
  57   2.0000      -0.584591       -15.9075
  58   2.0000      -0.577285       -15.7087
  59   2.0000      -0.567909       -15.4536
  60   2.0000      -0.561388       -15.2761
  61   2.0000      -0.560293       -15.2464
  62   2.0000      -0.549503       -14.9527
  63   2.0000      -0.528683       -14.3862
  64   2.0000      -0.523569       -14.2470
  65   2.0000      -0.515036       -14.0148
  66   2.0000      -0.505738       -13.7618
  67   2.0000      -0.501281       -13.6405
  68   2.0000      -0.488719       -13.2987
  69   2.0000      -0.468631       -12.7521
  70   2.0000      -0.459775       -12.5111
  71   2.0000      -0.451828       -12.2949
  72   2.0000      -0.356399        -9.6981
  73   2.0000      -0.351349        -9.5607
  74   2.0000      -0.329261        -8.9596
  75   2.0000      -0.324079        -8.8186
  76   2.0000      -0.319638        -8.6978
  77   0.0000       0.083721         2.2782
  78   0.0000       0.104639         2.8474
  79   0.0000       0.114531         3.1165
  80   0.0000       0.128763         3.5038
  81   0.0000       0.130337         3.5467

MULLIKEN ATOMIC CHARGES
-----------------------
   0 C :   -0.259152
   1 C :    0.027043
   2 O :   -0.315572
   3 C :    0.416722
   4 O :   -0.380814
   5 C :   -0.216244
   6 C :    0.147019
   7 C :   -0.326409
   8 N :   -0.137898
   9 C :    0.209144
  10 S :   -0.442517
  11 N :   -0.221540
  12 C :    0.057648
  13 C :    0.027366
  14 C :   -0.222023
  15 C :   -0.127317
  16 C :   -0.277998
  17 C :    0.314682
  18 O :   -0.356105
  19 C :   -0.251744
  20 H :    0.090446
  21 H :    0.107359
  22 H :    0.094894
  23 H :    0.087108
  24 H :    0.115572
  25 H :    0.121969
  26 H :    0.137450
  27 H :    0.129833
  28 H :    0.197658
  29 H :    0.202277
  30 H :    0.166452
  31 H :    0.175412
  32 H :    0.164482
  33 H :    0.131559
  34 H :    0.241245
  35 H :    0.171995
Sum of atomic charges:    0.0000000

LOEWDIN ATOMIC CHARGES
----------------------
   0 C :    0.111073
   1 C :   -0.023881
   2 O :    0.305237
   3 C :   -0.415721
   4 O :    0.121997
   5 C :   -0.085993
   6 C :   -0.089636
   7 C :    0.126422
   8 N :    0.402691
   9 C :   -0.456471
  10 S :   -0.037977
  11 N :    0.396028
  12 C :   -0.049727
  13 C :   -0.043962
  14 C :    0.019425
  15 C :    0.044329
  16 C :   -0.000316
  17 C :   -0.191561
  18 O :    0.394849
  19 C :    0.027281
  20 H :   -0.024267
  21 H :   -0.022515
  22 H :   -0.027409
  23 H :   -0.039024
  24 H :   -0.027585
  25 H :   -0.017625
  26 H :   -0.007466
  27 H :   -0.011358
  28 H :   -0.057267
  29 H :   -0.063647
  30 H :   -0.004362
  31 H :   -0.021471
  32 H :   -0.018696
  33 H :   -0.034891
  34 H :   -0.153231
  35 H :   -0.023274

  Mayer bond orders larger than 0.100000
B(  0-C ,  1-C ) :   0.9793 B(  0-C , 20-H ) :   0.9762 B(  0-C , 21-H ) :   0.9779
B(  0-C , 22-H ) :   0.9772 B(  1-C ,  2-O ) :   0.9041 B(  1-C , 23-H ) :   0.9657
B(  1-C , 24-H ) :   0.9753 B(  2-O ,  3-C ) :   1.1759 B(  3-C ,  4-O ) :   2.1016
B(  3-C ,  5-C ) :   0.9235 B(  5-C ,  6-C ) :   1.7181 B(  5-C , 12-C ) :   0.9429
B(  6-C ,  7-C ) :   0.9352 B(  6-C ,  8-N ) :   1.1098 B(  7-C , 25-H ) :   0.9659
B(  7-C , 26-H ) :   0.9734 B(  7-C , 27-H ) :   0.9784 B(  8-N ,  9-C ) :   1.1953
B(  8-N , 28-H ) :   0.9507 B(  9-C , 10-S ) :   1.6105 B(  9-C , 11-N ) :   1.2920
B( 11-N , 12-C ) :   0.9837 B( 11-N , 29-H ) :   0.9476 B( 12-C , 13-C ) :   0.9677
B( 12-C , 30-H ) :   0.9896 B( 13-C , 14-C ) :   1.3839 B( 13-C , 19-C ) :   1.3555
B( 14-C , 15-C ) :   1.3936 B( 14-C , 31-H ) :   0.9598 B( 15-C , 16-C ) :   1.3617
B( 15-C , 32-H ) :   0.9697 B( 16-C , 17-C ) :   1.3309 B( 16-C , 33-H ) :   0.9850
B( 17-C , 18-O ) :   1.1086 B( 17-C , 19-C ) :   1.3666 B( 18-O , 34-H ) :   0.9794
B( 19-C , 35-H ) :   0.9567

MP2 TOTAL ENERGY:    -1274.331410382 Eh
FINAL SINGLE POINT ENERGY     -1274.331410381917

DIPOLE MOMENT
-------------
                                X             Y             Z
Electronic contribution:     11.14645       7.09857       9.47119
Nuclear contribution   :    -12.78365      -8.29835      -9.80355
                        -----------------------------------------
Total Dipole Moment    :     -1.63720      -1.19979      -0.33236
                        -----------------------------------------
Magnitude (a.u.)       :      2.05679
Magnitude (Debye)      :      5.22795

Rotational constants in cm-1:     0.010293     0.009210     0.006154
Rotational constants in MHz :   308.572260   276.110973   184.482569

                             ****ORCA TERMINATED NORMALLY****
TOTAL RUN TIME: 0 days 1 hours 39 minutes 57 seconds 324 msec
