                         Program Version 4.2.0 -  RELEASE  -
|  1> ! ri-mp2 cc-pvtz cc-pvtz/c TightSCF NoKeepInts
|  2>
|  3> %scf
|  4>   MaxCore 4096
|  5> end
|  6> *xyz  0  1
|  7>     C       14.7697551   14.9093401   14.1996780
|  8>     C       15.2640085   15.0449653   15.6553012
|  9>     O       16.3203350   16.0208960   15.7558898
| 10>     C       16.0649829   17.3608294   15.6482049
| 11>     O       15.2442654   17.8165164   14.8719277
| 12>     C       16.8054906   18.1677131   16.6819209
| 13>     C       16.8828886   19.5201838   16.5847059
| 14>     C       16.0892754   20.4198322   15.6596348
| 15>     N       17.7746844   20.2490095   17.3750152
| 16>     C       18.7551598   19.6924165   18.1507130
| 17>     S       19.8398960   20.6174664   18.9893688
| 18>     N       18.8059384   18.3219205   18.1801395
| 19>     C       17.8228766   17.4155376   17.5574239
| 20>     C       17.1927224   16.4576053   18.5603781
| 21>     C       17.5334311   15.0923439   18.5578743
| 22>     C       16.9477194   14.2091468   19.4804152
| 23>     C       16.0170973   14.6963893   20.4142730
| 24>     C       15.6803292   16.0572036   20.4217544
| 25>     O       14.7830796   16.5303500   21.3228168
| 26>     C       16.2642065   16.9334576   19.5015709
| 27>     H       14.1689046   15.7742886   13.8948011
| 28>     H       14.1405188   14.0175497   14.0939266
| 29>     H       15.6168121   14.8134634   13.5092875
| 30>     H       14.4287076   15.3146539   16.3154752
| 31>     H       15.6528665   14.0734252   15.9861426
| 32>     H       15.0125155   20.2465930   15.7834661
| 33>     H       16.3360890   20.2108775   14.6108781
| 34>     H       16.2705514   21.4866132   15.8358827
| 35>     H       17.7623064   21.2559572   17.3449384
| 36>     H       19.5203818   17.9402200   18.7870033
| 37>     H       18.4728667   16.8712900   16.8575392
| 38>     H       18.2496069   14.7145008   17.8328889
| 39>     H       17.2161808   13.1541207   19.4710252
| 40>     H       15.5629648   14.0186292   21.1297012
| 41>     H       14.5212977   15.7901591   21.8907264
| 42>     H       15.9962874   17.9845351   19.5253114
| 43> *
| 44>
| 45>                          ****END OF INPUT****

CARTESIAN COORDINATES (ANGSTROEM)
---------------------------------
  C     14.769755   14.909340   14.199678
  C     15.264008   15.044965   15.655301
  O     16.320335   16.020896   15.755890
  C     16.064983   17.360829   15.648205
  O     15.244265   17.816516   14.871928
  C     16.805491   18.167713   16.681921
  C     16.882889   19.520184   16.584706
  C     16.089275   20.419832   15.659635
  N     17.774684   20.249009   17.375015
  C     18.755160   19.692417   18.150713
  S     19.839896   20.617466   18.989369
  N     18.805938   18.321921   18.180139
  C     17.822877   17.415538   17.557424
  C     17.192722   16.457605   18.560378
  C     17.533431   15.092344   18.557874
  C     16.947719   14.209147   19.480415
  C     16.017097   14.696389   20.414273
  C     15.680329   16.057204   20.421754
  O     14.783080   16.530350   21.322817
  C     16.264207   16.933458   19.501571
  H     14.168905   15.774289   13.894801
  H     14.140519   14.017550   14.093927
  H     15.616812   14.813463   13.509287
  H     14.428708   15.314654   16.315475
  H     15.652866   14.073425   15.986143
  H     15.012515   20.246593   15.783466
  H     16.336089   20.210877   14.610878
  H     16.270551   21.486613   15.835883
  H     17.762306   21.255957   17.344938
  H     19.520382   17.940220   18.787003
  H     18.472867   16.871290   16.857539
  H     18.249607   14.714501   17.832889
  H     17.216181   13.154121   19.471025
  H     15.562965   14.018629   21.129701
  H     14.521298   15.790159   21.890726
  H     15.996287   17.984535   19.525311

 Total Charge           Charge          ....    0
 Multiplicity           Mult            ....    1
 Number of Electrons    NEL             ....  154
 Basis Dimension        Dim             ....  828

ORBITAL ENERGIES
----------------

  NO   OCC          E(Eh)            E(eV)
   0   2.0000     -91.889213     -2500.4326
   1   2.0000     -20.597889      -560.4971
   2   2.0000     -20.592712      -560.3562
   3   2.0000     -20.543810      -559.0255
   4   2.0000     -15.629646      -425.3043
   5   2.0000     -15.607202      -424.6936
   6   2.0000     -11.395404      -310.0847
   7   2.0000     -11.383814      -309.7693
   8   2.0000     -11.337675      -308.5138
   9   2.0000     -11.315207      -307.9024
  10   2.0000     -11.307655      -307.6969
  11   2.0000     -11.299362      -307.4713
  12   2.0000     -11.262044      -306.4558
  13   2.0000     -11.258345      -306.3551
  14   2.0000     -11.256634      -306.3086
  15   2.0000     -11.252178      -306.1873
  16   2.0000     -11.244892      -305.9891
  17   2.0000     -11.240168      -305.8605
  18   2.0000     -11.239884      -305.8528
  19   2.0000     -11.218092      -305.2598
  20   2.0000      -8.894280      -242.0257
  21   2.0000      -6.575852      -178.9380
  22   2.0000      -6.573855      -178.8837
  23   2.0000      -6.573263      -178.8676
  24   2.0000      -1.447438       -39.3868
  25   2.0000      -1.417550       -38.5735
  26   2.0000      -1.354987       -36.8711
  27   2.0000      -1.340713       -36.4826
  28   2.0000      -1.238558       -33.7029
  29   2.0000      -1.158694       -31.5297
  30   2.0000      -1.121125       -30.5074
  31   2.0000      -1.043566       -28.3969
  32   2.0000      -1.033747       -28.1297
  33   2.0000      -1.016348       -27.6562
  34   2.0000      -0.995919       -27.1003
  35   2.0000      -0.984381       -26.7864
  36   2.0000      -0.922338       -25.0981
  37   2.0000      -0.889924       -24.2161
  38   2.0000      -0.847381       -23.0584
  39   2.0000      -0.839154       -22.8345
  40   2.0000      -0.835435       -22.7333
  41   2.0000      -0.821386       -22.3510
  42   2.0000      -0.753560       -20.5054
  43   2.0000      -0.733619       -19.9628
  44   2.0000      -0.720798       -19.6139
  45   2.0000      -0.696507       -18.9529
  46   2.0000      -0.689113       -18.7517
  47   2.0000      -0.679830       -18.4991
  48   2.0000      -0.670186       -18.2367
  49   2.0000      -0.652706       -17.7610
  50   2.0000      -0.648014       -17.6334
  51   2.0000      -0.646166       -17.5831
  52   2.0000      -0.634402       -17.2629
  53   2.0000      -0.608279       -16.5521
  54   2.0000      -0.602571       -16.3968
  55   2.0000      -0.600149       -16.3309
  56   2.0000      -0.595892       -16.2151
  57   2.0000      -0.582128       -15.8405
  58   2.0000      -0.575360       -15.6563
  59   2.0000      -0.570085       -15.5128
  60   2.0000      -0.563628       -15.3371
  61   2.0000      -0.540635       -14.7114
  62   2.0000      -0.535115       -14.5612
  63   2.0000      -0.525069       -14.2879
  64   2.0000      -0.518044       -14.0967
  65   2.0000      -0.512931       -13.9576
  66   2.0000      -0.500614       -13.6224
  67   2.0000      -0.497773       -13.5451
  68   2.0000      -0.485630       -13.2147
  69   2.0000      -0.463823       -12.6213
  70   2.0000      -0.455736       -12.4012
  71   2.0000      -0.441032       -12.0011
  72   2.0000      -0.353199        -9.6110
  73   2.0000      -0.350894        -9.5483
  74   2.0000      -0.328447        -8.9375
  75   2.0000      -0.322566        -8.7775
  76   2.0000      -0.318466        -8.6659
  77   0.0000       0.074558         2.0288
  78   0.0000       0.103511         2.8167
  79   0.0000       0.124885         3.3983
  80   0.0000       0.132085         3.5942
  81   0.0000       0.136384         3.7112

MULLIKEN ATOMIC CHARGES
-----------------------
   0 C :   -0.283232
   1 C :    0.044084
   2 O :   -0.365180
   3 C :    0.443040
   4 O :   -0.428519
   5 C :   -0.229761
   6 C :    0.177044
   7 C :   -0.267538
   8 N :   -0.125650
   9 C :    0.211224
  10 S :   -0.441456
  11 N :   -0.216405
  12 C :    0.069712
  13 C :    0.036253
  14 C :   -0.184229
  15 C :   -0.130673
  16 C :   -0.277837
  17 C :    0.316289
  18 O :   -0.356449
  19 C :   -0.249998
  20 H :    0.122525
  21 H :    0.090857
  22 H :    0.092461
  23 H :    0.090198
  24 H :    0.102327
  25 H :    0.133384
  26 H :    0.129048
  27 H :    0.094896
  28 H :    0.199519
  29 H :    0.200583
  30 H :    0.152148
  31 H :    0.153722
  32 H :    0.162071
  33 H :    0.131037
  34 H :    0.240848
  35 H :    0.163656
Sum of atomic charges:   -0.0000000

LOEWDIN ATOMIC CHARGES
----------------------
   0 C :    0.104599
   1 C :   -0.015223
   2 O :    0.297859
   3 C :   -0.414248
   4 O :    0.108886
   5 C :   -0.096888
   6 C :   -0.055599
   7 C :    0.131117
   8 N :    0.407301
   9 C :   -0.456453
  10 S :   -0.036146
  11 N :    0.394453
  12 C :   -0.054678
  13 C :   -0.039049
  14 C :    0.017582
  15 C :    0.038737
  16 C :   -0.001126
  17 C :   -0.189952
  18 O :    0.395251
  19 C :    0.032417
  20 H :   -0.027249
  21 H :   -0.030478
  22 H :   -0.027493
  23 H :   -0.029471
  24 H :   -0.024836
  25 H :   -0.004465
  26 H :   -0.004901
  27 H :   -0.023593
  28 H :   -0.057154
  29 H :   -0.064475
  30 H :   -0.013144
  31 H :   -0.028730
  32 H :   -0.021147
  33 H :   -0.035282
  34 H :   -0.153717
  35 H :   -0.022706

  Mayer bond orders larger than 0.100000
B(  0-C ,  1-C ) :   0.9798 B(  0-C , 20-H ) :   0.9717 B(  0-C , 21-H ) :   0.9777
B(  0-C , 22-H ) :   0.9753 B(  1-C ,  2-O ) :   0.8955 B(  1-C , 23-H ) :   0.9732
B(  1-C , 24-H ) :   0.9820 B(  2-O ,  3-C ) :   1.1176 B(  3-C ,  4-O ) :   1.9719
B(  3-C ,  5-C ) :   1.0786 B(  5-C ,  6-C ) :   1.6316 B(  5-C , 12-C ) :   0.9546
B(  6-C ,  7-C ) :   0.9659 B(  6-C ,  8-N ) :   1.1546 B(  7-C , 25-H ) :   0.9607
B(  7-C , 26-H ) :   0.9589 B(  7-C , 27-H ) :   0.9908 B(  8-N ,  9-C ) :   1.1865
B(  8-N , 28-H ) :   0.9463 B(  9-C , 10-S ) :   1.6062 B(  9-C , 11-N ) :   1.3098
B( 11-N , 12-C ) :   0.9661 B( 11-N , 29-H ) :   0.9484 B( 12-C , 13-C ) :   0.9613
B( 12-C , 30-H ) :   1.0010 B( 13-C , 14-C ) :   1.3541 B( 13-C , 19-C ) :   1.3804
B( 14-C , 15-C ) :   1.3916 B( 14-C , 31-H ) :   0.9716 B( 15-C , 16-C ) :   1.3599
B( 15-C , 32-H ) :   0.9704 B( 16-C , 17-C ) :   1.3335 B( 16-C , 33-H ) :   0.9847
B( 17-C , 18-O ) :   1.1051 B( 17-C , 19-C ) :   1.3646 B( 18-O , 34-H ) :   0.9796
B( 19-C , 35-H ) :   0.9596

MP2 TOTAL ENERGY:    -1274.334844043 Eh
FINAL SINGLE POINT ENERGY     -1274.334844042731

DIPOLE MOMENT
-------------
                                X             Y             Z
Electronic contribution:      9.70896       9.76699       9.85890
Nuclear contribution   :    -10.78478     -11.41779     -10.05368
                        -----------------------------------------
Total Dipole Moment    :     -1.07581      -1.65080      -0.19478
                        -----------------------------------------
Magnitude (a.u.)       :      1.98001
Magnitude (Debye)      :      5.03280

Rotational constants in cm-1:     0.011164     0.008661     0.005834
Rotational constants in MHz :   334.680446   259.649967   174.912910

                             ****ORCA TERMINATED NORMALLY****
TOTAL RUN TIME: 0 days 1 hours 40 minutes 25 seconds 483 msec
