                         Program Version 4.2.0 -  RELEASE  -
|  1> ! ri-mp2 cc-pvtz cc-pvtz/c TightSCF NoKeepInts
|  2>
|  3> %scf
|  4>   MaxCore 4096
|  5> end
|  6> *xyz  0  1
|  7>     C       15.6015821   13.9720635   14.9581007
|  8>     C       15.0048609   15.3893628   14.9684139
|  9>     O       15.8718766   16.2121549   15.7647723
| 10>     C       15.7487659   17.5715411   15.7028403
| 11>     O       14.9726374   18.1162131   14.9356312
| 12>     C       16.6509165   18.2800847   16.6781606
| 13>     C       16.8651187   19.6176292   16.5811504
| 14>     C       16.0930297   20.6107356   15.7371248
| 15>     N       17.8951873   20.2355704   17.2939597
| 16>     C       18.8741736   19.5660260   17.9767034
| 17>     S       20.1224135   20.3575971   18.7190480
| 18>     N       18.7788218   18.1976891   17.9950428
| 19>     C       17.6519626   17.4109257   17.4589314
| 20>     C       17.0131265   16.5125055   18.5100328
| 21>     C       17.1598515   15.1146627   18.4432654
| 22>     C       16.5714798   14.2882109   19.4153615
| 23>     C       15.8343284   14.8650558   20.4639031
| 24>     C       15.6909204   16.2578152   20.5346214
| 25>     O       14.9810060   16.8171877   21.5466754
| 26>     C       16.2775239   17.0776601   19.5654564
| 27>     H       15.6549257   13.5694657   15.9773645
| 28>     H       16.6131695   13.9807517   14.5337480
| 29>     H       14.9811514   13.2984046   14.3546271
| 30>     H       14.9549480   15.7654697   13.9372033
| 31>     H       13.9905105   15.3815628   15.3889596
| 32>     H       15.0156305   20.5241827   15.9281609
| 33>     H       16.2532799   20.4177445   14.6687445
| 34>     H       16.3750555   21.6520569   15.9323145
| 35>     H       17.9891139   21.2383536   17.2699229
| 36>     H       19.4970963   17.7327322   18.5357134
| 37>     H       18.1771445   16.8096517   16.7033308
| 38>     H       17.7243430   14.6681253   17.6291305
| 39>     H       16.6868084   13.2075552   19.3541393
| 40>     H       15.3780657   14.2311800   21.2170418
| 41>     H       14.6744341   16.0982639   22.1193088
| 42>     H       16.1617399   18.1538084   19.6390946
| 43> *
| 44>
| 45>                          ****END OF INPUT****

CARTESIAN COORDINATES (ANGSTROEM)
---------------------------------
  C     15.601582   13.972063   14.958101
  C     15.004861   15.389363   14.968414
  O     15.871877   16.212155   15.764772
  C     15.748766   17.571541   15.702840
  O     14.972637   18.116213   14.935631
  C     16.650917   18.280085   16.678161
  C     16.865119   19.617629   16.581150
  C     16.093030   20.610736   15.737125
  N     17.895187   20.235570   17.293960
  C     18.874174   19.566026   17.976703
  S     20.122413   20.357597   18.719048
  N     18.778822   18.197689   17.995043
  C     17.651963   17.410926   17.458931
  C     17.013126   16.512505   18.510033
  C     17.159851   15.114663   18.443265
  C     16.571480   14.288211   19.415361
  C     15.834328   14.865056   20.463903
  C     15.690920   16.257815   20.534621
  O     14.981006   16.817188   21.546675
  C     16.277524   17.077660   19.565456
  H     15.654926   13.569466   15.977365
  H     16.613170   13.980752   14.533748
  H     14.981151   13.298405   14.354627
  H     14.954948   15.765470   13.937203
  H     13.990510   15.381563   15.388960
  H     15.015631   20.524183   15.928161
  H     16.253280   20.417744   14.668744
  H     16.375055   21.652057   15.932315
  H     17.989114   21.238354   17.269923
  H     19.497096   17.732732   18.535713
  H     18.177145   16.809652   16.703331
  H     17.724343   14.668125   17.629130
  H     16.686808   13.207555   19.354139
  H     15.378066   14.231180   21.217042
  H     14.674434   16.098264   22.119309
  H     16.161740   18.153808   19.639095

 Total Charge           Charge          ....    0
 Multiplicity           Mult            ....    1
 Number of Electrons    NEL             ....  154
 Basis Dimension        Dim             ....  828

ORBITAL ENERGIES
----------------

  NO   OCC          E(Eh)            E(eV)
   0   2.0000     -91.888718     -2500.4191
   1   2.0000     -20.602425      -560.6205
   2   2.0000     -20.595797      -560.4401
   3   2.0000     -20.541079      -558.9512
   4   2.0000     -15.628986      -425.2863
   5   2.0000     -15.606918      -424.6858
   6   2.0000     -11.394406      -310.0575
   7   2.0000     -11.383363      -309.7570
   8   2.0000     -11.337153      -308.4996
   9   2.0000     -11.312916      -307.8401
  10   2.0000     -11.307523      -307.6934
  11   2.0000     -11.296281      -307.3874
  12   2.0000     -11.260099      -306.4029
  13   2.0000     -11.259339      -306.3822
  14   2.0000     -11.254442      -306.2489
  15   2.0000     -11.251379      -306.1656
  16   2.0000     -11.242993      -305.9374
  17   2.0000     -11.238392      -305.8122
  18   2.0000     -11.238117      -305.8047
  19   2.0000     -11.231801      -305.6328
  20   2.0000      -8.893790      -242.0123
  21   2.0000      -6.575364      -178.9247
  22   2.0000      -6.573365      -178.8704
  23   2.0000      -6.572775      -178.8543
  24   2.0000      -1.452846       -39.5339
  25   2.0000      -1.415467       -38.5168
  26   2.0000      -1.354557       -36.8594
  27   2.0000      -1.340220       -36.4692
  28   2.0000      -1.238130       -33.6912
  29   2.0000      -1.157016       -31.4840
  30   2.0000      -1.120993       -30.5038
  31   2.0000      -1.043471       -28.3943
  32   2.0000      -1.040534       -28.3144
  33   2.0000      -1.014454       -27.6047
  34   2.0000      -0.996336       -27.1117
  35   2.0000      -0.984634       -26.7933
  36   2.0000      -0.921535       -25.0762
  37   2.0000      -0.888751       -24.1841
  38   2.0000      -0.846021       -23.0214
  39   2.0000      -0.837324       -22.7848
  40   2.0000      -0.833546       -22.6820
  41   2.0000      -0.816971       -22.2309
  42   2.0000      -0.766072       -20.8459
  43   2.0000      -0.732822       -19.9411
  44   2.0000      -0.719861       -19.5884
  45   2.0000      -0.694760       -18.9054
  46   2.0000      -0.685204       -18.6454
  47   2.0000      -0.680610       -18.5204
  48   2.0000      -0.678540       -18.4640
  49   2.0000      -0.665252       -18.1024
  50   2.0000      -0.646333       -17.5876
  51   2.0000      -0.641771       -17.4635
  52   2.0000      -0.634441       -17.2640
  53   2.0000      -0.606251       -16.4969
  54   2.0000      -0.600536       -16.3414
  55   2.0000      -0.598457       -16.2849
  56   2.0000      -0.590616       -16.0715
  57   2.0000      -0.577001       -15.7010
  58   2.0000      -0.570763       -15.5312
  59   2.0000      -0.569414       -15.4945
  60   2.0000      -0.561633       -15.2828
  61   2.0000      -0.552012       -15.0210
  62   2.0000      -0.541197       -14.7267
  63   2.0000      -0.523618       -14.2484
  64   2.0000      -0.520030       -14.1507
  65   2.0000      -0.512875       -13.9560
  66   2.0000      -0.505878       -13.7656
  67   2.0000      -0.497567       -13.5395
  68   2.0000      -0.483875       -13.1669
  69   2.0000      -0.463535       -12.6134
  70   2.0000      -0.459889       -12.5142
  71   2.0000      -0.447536       -12.1781
  72   2.0000      -0.352906        -9.6030
  73   2.0000      -0.349276        -9.5043
  74   2.0000      -0.327852        -8.9213
  75   2.0000      -0.320263        -8.7148
  76   2.0000      -0.317880        -8.6500
  77   0.0000       0.077964         2.1215
  78   0.0000       0.104556         2.8451
  79   0.0000       0.124630         3.3914
  80   0.0000       0.133093         3.6216
  81   0.0000       0.136456         3.7132

MULLIKEN ATOMIC CHARGES
-----------------------
   0 C :   -0.281382
   1 C :    0.044421
   2 O :   -0.333601
   3 C :    0.426351
   4 O :   -0.435451
   5 C :   -0.215585
   6 C :    0.173006
   7 C :   -0.269190
   8 N :   -0.126579
   9 C :    0.210036
  10 S :   -0.442186
  11 N :   -0.214437
  12 C :    0.051748
  13 C :    0.047277
  14 C :   -0.179266
  15 C :   -0.133915
  16 C :   -0.275948
  17 C :    0.316279
  18 O :   -0.357048
  19 C :   -0.248182
  20 H :    0.096542
  21 H :    0.095592
  22 H :    0.102277
  23 H :    0.102660
  24 H :    0.089903
  25 H :    0.133630
  26 H :    0.128942
  27 H :    0.094422
  28 H :    0.199839
  29 H :    0.200432
  30 H :    0.152033
  31 H :    0.154431
  32 H :    0.160437
  33 H :    0.129685
  34 H :    0.240435
  35 H :    0.162392
Sum of atomic charges:    0.0000000

LOEWDIN ATOMIC CHARGES
----------------------
   0 C :    0.106022
   1 C :   -0.016241
   2 O :    0.311678
   3 C :   -0.413878
   4 O :    0.094428
   5 C :   -0.094823
   6 C :   -0.056706
   7 C :    0.131025
   8 N :    0.407076
   9 C :   -0.456719
  10 S :   -0.036745
  11 N :    0.394695
  12 C :   -0.054993
  13 C :   -0.039521
  14 C :    0.017509
  15 C :    0.038479
  16 C :   -0.000165
  17 C :   -0.189550
  18 O :    0.394931
  19 C :    0.033737
  20 H :   -0.028778
  21 H :   -0.027826
  22 H :   -0.023968
  23 H :   -0.027888
  24 H :   -0.028797
  25 H :   -0.004127
  26 H :   -0.005208
  27 H :   -0.023687
  28 H :   -0.057147
  29 H :   -0.064317
  30 H :   -0.014411
  31 H :   -0.029923
  32 H :   -0.021819
  33 H :   -0.035461
  34 H :   -0.154115
  35 H :   -0.022768

  Mayer bond orders larger than 0.100000
B(  0-C ,  1-C ) :   0.9707 B(  0-C , 20-H ) :   0.9763 B(  0-C , 21-H ) :   0.9766
B(  0-C , 22-H ) :   0.9793 B(  1-C ,  2-O ) :   0.9057 B(  1-C , 23-H ) :   0.9785
B(  1-C , 24-H ) :   0.9767 B(  2-O ,  3-C ) :   1.1823 B(  3-C ,  4-O ) :   1.9613
B(  3-C ,  5-C ) :   1.0708 B(  5-C ,  6-C ) :   1.6452 B(  5-C , 12-C ) :   0.9546
B(  6-C ,  7-C ) :   0.9655 B(  6-C ,  8-N ) :   1.1526 B(  7-C , 25-H ) :   0.9615
B(  7-C , 26-H ) :   0.9587 B(  7-C , 27-H ) :   0.9904 B(  8-N ,  9-C ) :   1.1880
B(  8-N , 28-H ) :   0.9463 B(  9-C , 10-S ) :   1.6059 B(  9-C , 11-N ) :   1.3089
B( 11-N , 12-C ) :   0.9689 B( 11-N , 29-H ) :   0.9483 B( 12-C , 13-C ) :   0.9649
B( 12-C , 30-H ) :   1.0014 B( 13-C , 14-C ) :   1.3594 B( 13-C , 19-C ) :   1.3803
B( 14-C , 15-C ) :   1.3924 B( 14-C , 31-H ) :   0.9698 B( 15-C , 16-C ) :   1.3615
B( 15-C , 32-H ) :   0.9705 B( 16-C , 17-C ) :   1.3340 B( 16-C , 33-H ) :   0.9851
B( 17-C , 18-O ) :   1.1039 B( 17-C , 19-C ) :   1.3651 B( 18-O , 34-H ) :   0.9800
B( 19-C , 35-H ) :   0.9596

MP2 TOTAL ENERGY:    -1274.345363263 Eh
FINAL SINGLE POINT ENERGY     -1274.345363263056

DIPOLE MOMENT
-------------
                                X             Y             Z
Electronic contribution:      8.04139      11.06627       8.89703
Nuclear contribution   :     -9.19121     -12.68716      -9.31663
                        -----------------------------------------
Total Dipole Moment    :     -1.14982      -1.62090      -0.41960
                        -----------------------------------------
Magnitude (a.u.)       :      2.03112
Magnitude (Debye)      :      5.16270

Rotational constants in cm-1:     0.011043     0.008468     0.005904
Rotational constants in MHz :   331.051298   253.877229   176.984556

                             ****ORCA TERMINATED NORMALLY****
TOTAL RUN TIME: 0 days 1 hours 35 minutes 27 seconds 650 msec
