                         Program Version 4.2.0 -  RELEASE  -
|  1> ! ri-mp2 cc-pvtz cc-pvtz/c TightSCF NoKeepInts
|  2>
|  3> %scf
|  4>   MaxCore 4096
|  5> end
|  6> *xyz  0  1
|  7>     C       14.5342552   16.5136308   16.2200395
|  8>     C       15.3849165   15.3295148   15.7093301
|  9>     O       16.7320819   15.6211764   15.2422069
| 10>     C       17.5134778   16.7488228   15.3345890
| 11>     O       18.4677645   16.9021962   14.5956336
| 12>     C       17.1703858   17.7651188   16.3646510
| 13>     C       16.9150758   19.0278896   15.9556419
| 14>     C       16.5841345   19.4403400   14.5377208
| 15>     N       16.9972778   20.1055394   16.8387596
| 16>     C       17.5754419   20.0324397   18.0791963
| 17>     S       17.7541439   21.3659086   19.0407844
| 18>     N       18.0266785   18.7958456   18.4739084
| 19>     C       17.7886206   17.5314502   17.7482067
| 20>     C       17.1627882   16.4178905   18.5779870
| 21>     C       17.5911821   15.0885882   18.4070972
| 22>     C       17.0197649   14.0503616   19.1613179
| 23>     C       16.0142076   14.3440489   20.0979346
| 24>     C       15.5901248   15.6679128   20.2763827
| 25>     O       14.6171929   15.9540951   21.1772489
| 26>     C       16.1606165   16.6997112   19.5240457
| 27>     H       14.8730583   16.8903578   17.1875826
| 28>     H       13.4976071   16.1836861   16.3601349
| 29>     H       14.5178836   17.3336884   15.4932520
| 30>     H       15.4507016   14.5893650   16.5175685
| 31>     H       14.8422628   14.8448363   14.8873687
| 32>     H       16.0046910   18.6672706   14.0186654
| 33>     H       17.5074697   19.5946753   13.9635463
| 34>     H       16.0004952   20.3678933   14.4992306
| 35>     H       16.7193346   21.0265178   16.5387867
| 36>     H       18.4521316   18.7720808   19.3923282
| 37>     H       18.8311872   17.2533660   17.5325133
| 38>     H       18.3663997   14.8580928   17.6795706
| 39>     H       17.3577462   13.0249606   19.0193954
| 40>     H       15.5701771   13.5452677   20.6831483
| 41>     H       14.3824185   15.1284838   21.6273664
| 42>     H       15.8133042   17.7169765   19.6748596
| 43> *
| 44>
| 45>                          ****END OF INPUT****

CARTESIAN COORDINATES (ANGSTROEM)
---------------------------------
  C     14.534255   16.513631   16.220039
  C     15.384916   15.329515   15.709330
  O     16.732082   15.621176   15.242207
  C     17.513478   16.748823   15.334589
  O     18.467764   16.902196   14.595634
  C     17.170386   17.765119   16.364651
  C     16.915076   19.027890   15.955642
  C     16.584135   19.440340   14.537721
  N     16.997278   20.105539   16.838760
  C     17.575442   20.032440   18.079196
  S     17.754144   21.365909   19.040784
  N     18.026678   18.795846   18.473908
  C     17.788621   17.531450   17.748207
  C     17.162788   16.417890   18.577987
  C     17.591182   15.088588   18.407097
  C     17.019765   14.050362   19.161318
  C     16.014208   14.344049   20.097935
  C     15.590125   15.667913   20.276383
  O     14.617193   15.954095   21.177249
  C     16.160616   16.699711   19.524046
  H     14.873058   16.890358   17.187583
  H     13.497607   16.183686   16.360135
  H     14.517884   17.333688   15.493252
  H     15.450702   14.589365   16.517568
  H     14.842263   14.844836   14.887369
  H     16.004691   18.667271   14.018665
  H     17.507470   19.594675   13.963546
  H     16.000495   20.367893   14.499231
  H     16.719335   21.026518   16.538787
  H     18.452132   18.772081   19.392328
  H     18.831187   17.253366   17.532513
  H     18.366400   14.858093   17.679571
  H     17.357746   13.024961   19.019395
  H     15.570177   13.545268   20.683148
  H     14.382418   15.128484   21.627366
  H     15.813304   17.716977   19.674860

 Total Charge           Charge          ....    0
 Multiplicity           Mult            ....    1
 Number of Electrons    NEL             ....  154
 Basis Dimension        Dim             ....  828

ORBITAL ENERGIES
----------------

  NO   OCC          E(Eh)            E(eV)
   0   2.0000     -91.889177     -2500.4316
   1   2.0000     -20.604232      -560.6697
   2   2.0000     -20.596442      -560.4577
   3   2.0000     -20.551094      -559.2237
   4   2.0000     -15.624792      -425.1722
   5   2.0000     -15.610764      -424.7905
   6   2.0000     -11.399283      -310.1903
   7   2.0000     -11.384964      -309.8006
   8   2.0000     -11.323561      -308.1298
   9   2.0000     -11.322693      -308.1061
  10   2.0000     -11.316541      -307.9387
  11   2.0000     -11.308529      -307.7207
  12   2.0000     -11.271607      -306.7160
  13   2.0000     -11.263949      -306.5076
  14   2.0000     -11.258358      -306.3555
  15   2.0000     -11.255586      -306.2801
  16   2.0000     -11.251925      -306.1804
  17   2.0000     -11.247460      -306.0589
  18   2.0000     -11.247042      -306.0476
  19   2.0000     -11.234676      -305.7111
  20   2.0000      -8.894265      -242.0253
  21   2.0000      -6.575845      -178.9379
  22   2.0000      -6.573838      -178.8832
  23   2.0000      -6.573255      -178.8674
  24   2.0000      -1.441493       -39.2250
  25   2.0000      -1.423982       -38.7485
  26   2.0000      -1.356285       -36.9064
  27   2.0000      -1.338167       -36.4134
  28   2.0000      -1.238589       -33.7037
  29   2.0000      -1.166230       -31.7347
  30   2.0000      -1.125352       -30.6224
  31   2.0000      -1.050937       -28.5975
  32   2.0000      -1.038151       -28.2495
  33   2.0000      -1.024839       -27.8873
  34   2.0000      -1.004366       -27.3302
  35   2.0000      -0.990000       -26.9393
  36   2.0000      -0.926881       -25.2217
  37   2.0000      -0.902425       -24.5562
  38   2.0000      -0.851164       -23.1613
  39   2.0000      -0.844659       -22.9843
  40   2.0000      -0.841558       -22.9000
  41   2.0000      -0.827219       -22.5098
  42   2.0000      -0.748186       -20.3592
  43   2.0000      -0.738663       -20.1000
  44   2.0000      -0.724131       -19.7046
  45   2.0000      -0.702903       -19.1270
  46   2.0000      -0.688897       -18.7458
  47   2.0000      -0.676587       -18.4109
  48   2.0000      -0.675755       -18.3882
  49   2.0000      -0.661651       -18.0044
  50   2.0000      -0.658749       -17.9255
  51   2.0000      -0.650812       -17.7095
  52   2.0000      -0.637953       -17.3596
  53   2.0000      -0.616073       -16.7642
  54   2.0000      -0.610322       -16.6077
  55   2.0000      -0.605292       -16.4708
  56   2.0000      -0.604839       -16.4585
  57   2.0000      -0.584196       -15.8968
  58   2.0000      -0.578519       -15.7423
  59   2.0000      -0.575498       -15.6601
  60   2.0000      -0.565635       -15.3917
  61   2.0000      -0.558196       -15.1893
  62   2.0000      -0.541640       -14.7388
  63   2.0000      -0.532813       -14.4986
  64   2.0000      -0.522597       -14.2206
  65   2.0000      -0.513886       -13.9835
  66   2.0000      -0.504944       -13.7402
  67   2.0000      -0.499718       -13.5980
  68   2.0000      -0.492500       -13.4016
  69   2.0000      -0.464342       -12.6354
  70   2.0000      -0.454375       -12.3642
  71   2.0000      -0.448194       -12.1960
  72   2.0000      -0.358330        -9.7507
  73   2.0000      -0.348071        -9.4715
  74   2.0000      -0.330495        -8.9932
  75   2.0000      -0.328397        -8.9361
  76   2.0000      -0.318193        -8.6585
  77   0.0000       0.087724         2.3871
  78   0.0000       0.099332         2.7030
  79   0.0000       0.120514         3.2794
  80   0.0000       0.125758         3.4220
  81   0.0000       0.127534         3.4704

MULLIKEN ATOMIC CHARGES
-----------------------
   0 C :   -0.323523
   1 C :    0.038305
   2 O :   -0.331496
   3 C :    0.414652
   4 O :   -0.377046
   5 C :   -0.221217
   6 C :    0.150122
   7 C :   -0.296952
   8 N :   -0.139880
   9 C :    0.217043
  10 S :   -0.443097
  11 N :   -0.239085
  12 C :    0.069249
  13 C :    0.036242
  14 C :   -0.250061
  15 C :   -0.133135
  16 C :   -0.275228
  17 C :    0.323338
  18 O :   -0.353068
  19 C :   -0.251472
  20 H :    0.119320
  21 H :    0.121695
  22 H :    0.097534
  23 H :    0.102823
  24 H :    0.122331
  25 H :    0.110328
  26 H :    0.149776
  27 H :    0.101400
  28 H :    0.196910
  29 H :    0.205828
  30 H :    0.166998
  31 H :    0.163367
  32 H :    0.168632
  33 H :    0.134943
  34 H :    0.241703
  35 H :    0.182719
Sum of atomic charges:   -0.0000000

LOEWDIN ATOMIC CHARGES
----------------------
   0 C :    0.102342
   1 C :   -0.010872
   2 O :    0.292750
   3 C :   -0.421131
   4 O :    0.126925
   5 C :   -0.087773
   6 C :   -0.089432
   7 C :    0.127779
   8 N :    0.404351
   9 C :   -0.453826
  10 S :   -0.038286
  11 N :    0.396044
  12 C :   -0.052710
  13 C :   -0.041992
  14 C :    0.020290
  15 C :    0.043589
  16 C :   -0.000279
  17 C :   -0.190586
  18 O :    0.397370
  19 C :    0.029700
  20 H :   -0.033232
  21 H :   -0.020854
  22 H :   -0.032035
  23 H :   -0.028036
  24 H :   -0.023063
  25 H :   -0.013267
  26 H :   -0.003136
  27 H :   -0.019515
  28 H :   -0.058708
  29 H :   -0.064851
  30 H :   -0.006662
  31 H :   -0.024184
  32 H :   -0.018165
  33 H :   -0.033820
  34 H :   -0.152369
  35 H :   -0.022358

  Mayer bond orders larger than 0.100000
B(  0-C ,  1-C ) :   0.9620 B(  0-C , 20-H ) :   0.9677 B(  0-C , 21-H ) :   0.9762
B(  0-C , 22-H ) :   0.9734 B(  1-C ,  2-O ) :   0.9039 B(  1-C , 23-H ) :   0.9725
B(  1-C , 24-H ) :   0.9799 B(  2-O ,  3-C ) :   1.1796 B(  3-C ,  4-O ) :   2.1171
B(  3-C ,  5-C ) :   0.9175 B(  5-C ,  6-C ) :   1.7135 B(  5-C , 12-C ) :   0.9404
B(  6-C ,  7-C ) :   0.9434 B(  6-C ,  8-N ) :   1.1182 B(  7-C , 25-H ) :   0.9794
B(  7-C , 26-H ) :   0.9588 B(  7-C , 27-H ) :   0.9830 B(  8-N ,  9-C ) :   1.2056
B(  8-N , 28-H ) :   0.9500 B(  9-C , 10-S ) :   1.6070 B(  9-C , 11-N ) :   1.2834
B( 11-N , 12-C ) :   0.9681 B( 11-N , 29-H ) :   0.9447 B( 12-C , 13-C ) :   0.9616
B( 12-C , 30-H ) :   0.9994 B( 13-C , 14-C ) :   1.3639 B( 13-C , 19-C ) :   1.3367
B( 14-C , 15-C ) :   1.4005 B( 14-C , 31-H ) :   0.9715 B( 15-C , 16-C ) :   1.3548
B( 15-C , 32-H ) :   0.9688 B( 16-C , 17-C ) :   1.3323 B( 16-C , 33-H ) :   0.9838
B( 17-C , 18-O ) :   1.1114 B( 17-C , 19-C ) :   1.3623 B( 18-O , 34-H ) :   0.9787
B( 19-C , 35-H ) :   0.9556

MP2 TOTAL ENERGY:    -1274.313793922 Eh
FINAL SINGLE POINT ENERGY     -1274.313793922458

DIPOLE MOMENT
-------------
                                X             Y             Z
Electronic contribution:      8.57025       6.90256       6.54320
Nuclear contribution   :    -10.19865      -8.67885      -6.58799
                        -----------------------------------------
Total Dipole Moment    :     -1.62840      -1.77629      -0.04479
                        -----------------------------------------
Magnitude (a.u.)       :      2.41017
Magnitude (Debye)      :      6.12616

Rotational constants in cm-1:     0.012299     0.009152     0.006316
Rotational constants in MHz :   368.722003   274.369569   189.358139

                             ****ORCA TERMINATED NORMALLY****
TOTAL RUN TIME: 0 days 2 hours 3 minutes 47 seconds 123 msec
