                         Program Version 4.2.0 -  RELEASE  -
|  1> ! ri-mp2 cc-pvtz cc-pvtz/c TightSCF NoKeepInts
|  2>
|  3> %scf
|  4>   MaxCore 4096
|  5> end
|  6> *xyz  0  1
|  7>     C       14.6747071   15.2483520   16.2879385
|  8>     C       15.8373578   14.8761623   15.3462522
|  9>     O       16.9711956   15.7415174   15.5580969
| 10>     C       16.8530870   17.0517422   15.1993702
| 11>     O       16.4973300   17.3569850   14.0746084
| 12>     C       17.0245627   18.0102663   16.3495474
| 13>     C       16.9273923   19.3496319   16.1396611
| 14>     C       16.3313504   20.0518999   14.9365956
| 15>     N       17.3977200   20.2649431   17.0838385
| 16>     C       18.1865389   19.9357188   18.1517470
| 17>     S       18.8143265   21.0819453   19.1653369
| 18>     N       18.4515868   18.6012489   18.3228410
| 19>     C       17.8298539   17.5017447   17.5602538
| 20>     C       17.1113081   16.5130262   18.4673599
| 21>     C       17.5831059   15.1952132   18.6120828
| 22>     C       16.9354823   14.2968375   19.4769965
| 23>     C       15.8127344   14.7224745   20.2079683
| 24>     C       15.3465921   16.0376507   20.0718413
| 25>     O       14.2632622   16.4511248   20.7760177
| 26>     C       15.9917299   16.9287337   19.2083507
| 27>     H       14.9458161   15.0625872   17.3318620
| 28>     H       13.7941778   14.6356182   16.0604437
| 29>     H       14.3878647   16.3014293   16.1793770
| 30>     H       16.1330622   13.8366464   15.5372122
| 31>     H       15.5045885   14.9427499   14.3012236
| 32>     H       16.9897578   19.9495187   14.0643472
| 33>     H       16.1635406   21.1223635   15.1038552
| 34>     H       15.3625519   19.6106430   14.6699300
| 35>     H       17.2354698   21.2502388   16.9499644
| 36>     H       19.0155898   18.3854271   19.1352596
| 37>     H       18.7345150   17.0455683   17.1336654
| 38>     H       18.4511634   14.8657156   18.0469895
| 39>     H       17.3051817   13.2780648   19.5803363
| 40>     H       15.3104144   14.0326486   20.8782390
| 41>     H       13.9878213   15.7175515   21.3461623
| 42>     H       15.6242612   17.9460106   19.1224278
| 43> *
| 44>
| 45>                          ****END OF INPUT****

CARTESIAN COORDINATES (ANGSTROEM)
---------------------------------
  C     14.674707   15.248352   16.287938
  C     15.837358   14.876162   15.346252
  O     16.971196   15.741517   15.558097
  C     16.853087   17.051742   15.199370
  O     16.497330   17.356985   14.074608
  C     17.024563   18.010266   16.349547
  C     16.927392   19.349632   16.139661
  C     16.331350   20.051900   14.936596
  N     17.397720   20.264943   17.083838
  C     18.186539   19.935719   18.151747
  S     18.814326   21.081945   19.165337
  N     18.451587   18.601249   18.322841
  C     17.829854   17.501745   17.560254
  C     17.111308   16.513026   18.467360
  C     17.583106   15.195213   18.612083
  C     16.935482   14.296838   19.476996
  C     15.812734   14.722475   20.207968
  C     15.346592   16.037651   20.071841
  O     14.263262   16.451125   20.776018
  C     15.991730   16.928734   19.208351
  H     14.945816   15.062587   17.331862
  H     13.794178   14.635618   16.060444
  H     14.387865   16.301429   16.179377
  H     16.133062   13.836646   15.537212
  H     15.504588   14.942750   14.301224
  H     16.989758   19.949519   14.064347
  H     16.163541   21.122363   15.103855
  H     15.362552   19.610643   14.669930
  H     17.235470   21.250239   16.949964
  H     19.015590   18.385427   19.135260
  H     18.734515   17.045568   17.133665
  H     18.451163   14.865716   18.046989
  H     17.305182   13.278065   19.580336
  H     15.310414   14.032649   20.878239
  H     13.987821   15.717551   21.346162
  H     15.624261   17.946011   19.122428

 Total Charge           Charge          ....    0
 Multiplicity           Mult            ....    1
 Number of Electrons    NEL             ....  154
 Basis Dimension        Dim             ....  828

ORBITAL ENERGIES
----------------

  NO   OCC          E(Eh)            E(eV)
   0   2.0000     -91.890745     -2500.4743
   1   2.0000     -20.599265      -560.5345
   2   2.0000     -20.586188      -560.1786
   3   2.0000     -20.544987      -559.0575
   4   2.0000     -15.631088      -425.3435
   5   2.0000     -15.608543      -424.7301
   6   2.0000     -11.393037      -310.0203
   7   2.0000     -11.384913      -309.7992
   8   2.0000     -11.339680      -308.5684
   9   2.0000     -11.316702      -307.9431
  10   2.0000     -11.310291      -307.7687
  11   2.0000     -11.296765      -307.4006
  12   2.0000     -11.263272      -306.4892
  13   2.0000     -11.259827      -306.3955
  14   2.0000     -11.258202      -306.3513
  15   2.0000     -11.253174      -306.2144
  16   2.0000     -11.247031      -306.0473
  17   2.0000     -11.241601      -305.8995
  18   2.0000     -11.241257      -305.8902
  19   2.0000     -11.222879      -305.3901
  20   2.0000      -8.895789      -242.0667
  21   2.0000      -6.577355      -178.9789
  22   2.0000      -6.575364      -178.9247
  23   2.0000      -6.574766      -178.9085
  24   2.0000      -1.448249       -39.4089
  25   2.0000      -1.419024       -38.6136
  26   2.0000      -1.351965       -36.7888
  27   2.0000      -1.342654       -36.5355
  28   2.0000      -1.240479       -33.7552
  29   2.0000      -1.160223       -31.5713
  30   2.0000      -1.122359       -30.5409
  31   2.0000      -1.045026       -28.4366
  32   2.0000      -1.032089       -28.0846
  33   2.0000      -1.017897       -27.6984
  34   2.0000      -0.999169       -27.1888
  35   2.0000      -0.986947       -26.8562
  36   2.0000      -0.924003       -25.1434
  37   2.0000      -0.893184       -24.3048
  38   2.0000      -0.848330       -23.0842
  39   2.0000      -0.840945       -22.8833
  40   2.0000      -0.837074       -22.7779
  41   2.0000      -0.816082       -22.2067
  42   2.0000      -0.753462       -20.5027
  43   2.0000      -0.735942       -20.0260
  44   2.0000      -0.723201       -19.6793
  45   2.0000      -0.697878       -18.9902
  46   2.0000      -0.690037       -18.7769
  47   2.0000      -0.675564       -18.3830
  48   2.0000      -0.671239       -18.2653
  49   2.0000      -0.666334       -18.1319
  50   2.0000      -0.647576       -17.6214
  51   2.0000      -0.643726       -17.5167
  52   2.0000      -0.636892       -17.3307
  53   2.0000      -0.609923       -16.5969
  54   2.0000      -0.608293       -16.5525
  55   2.0000      -0.601278       -16.3616
  56   2.0000      -0.600415       -16.3381
  57   2.0000      -0.579206       -15.7610
  58   2.0000      -0.570760       -15.5312
  59   2.0000      -0.566637       -15.4190
  60   2.0000      -0.555671       -15.1206
  61   2.0000      -0.545822       -14.8526
  62   2.0000      -0.541451       -14.7336
  63   2.0000      -0.526063       -14.3149
  64   2.0000      -0.525463       -14.2986
  65   2.0000      -0.514744       -14.0069
  66   2.0000      -0.503151       -13.6914
  67   2.0000      -0.500735       -13.6257
  68   2.0000      -0.477154       -12.9840
  69   2.0000      -0.464865       -12.6496
  70   2.0000      -0.451900       -12.2968
  71   2.0000      -0.446151       -12.1404
  72   2.0000      -0.354775        -9.6539
  73   2.0000      -0.352363        -9.5883
  74   2.0000      -0.329792        -8.9741
  75   2.0000      -0.324664        -8.8346
  76   2.0000      -0.320251        -8.7145
  77   0.0000       0.071343         1.9413
  78   0.0000       0.102164         2.7800
  79   0.0000       0.122247         3.3265
  80   0.0000       0.130150         3.5416
  81   0.0000       0.134170         3.6510

MULLIKEN ATOMIC CHARGES
-----------------------
   0 C :   -0.315576
   1 C :    0.027849
   2 O :   -0.376604
   3 C :    0.450284
   4 O :   -0.412610
   5 C :   -0.227330
   6 C :    0.165107
   7 C :   -0.265799
   8 N :   -0.125134
   9 C :    0.207052
  10 S :   -0.437901
  11 N :   -0.210996
  12 C :    0.047022
  13 C :    0.010408
  14 C :   -0.176966
  15 C :   -0.133781
  16 C :   -0.273408
  17 C :    0.301900
  18 O :   -0.359016
  19 C :   -0.218380
  20 H :    0.110557
  21 H :    0.114269
  22 H :    0.099335
  23 H :    0.111117
  24 H :    0.120063
  25 H :    0.133619
  26 H :    0.094144
  27 H :    0.128802
  28 H :    0.200214
  29 H :    0.199980
  30 H :    0.153650
  31 H :    0.158172
  32 H :    0.162484
  33 H :    0.132266
  34 H :    0.240919
  35 H :    0.164290
Sum of atomic charges:   -0.0000000

LOEWDIN ATOMIC CHARGES
----------------------
   0 C :    0.106497
   1 C :   -0.018271
   2 O :    0.293322
   3 C :   -0.421732
   4 O :    0.109529
   5 C :   -0.101320
   6 C :   -0.053578
   7 C :    0.130936
   8 N :    0.408038
   9 C :   -0.458476
  10 S :   -0.033532
  11 N :    0.395655
  12 C :   -0.053644
  13 C :   -0.041615
  14 C :    0.018935
  15 C :    0.038732
  16 C :   -0.001578
  17 C :   -0.192190
  18 O :    0.396273
  19 C :    0.034550
  20 H :   -0.026848
  21 H :   -0.025211
  22 H :   -0.029014
  23 H :   -0.023591
  24 H :   -0.028182
  25 H :   -0.004148
  26 H :   -0.023398
  27 H :   -0.005402
  28 H :   -0.056684
  29 H :   -0.063564
  30 H :   -0.011872
  31 H :   -0.027265
  32 H :   -0.020503
  33 H :   -0.034861
  34 H :   -0.153403
  35 H :   -0.022584

  Mayer bond orders larger than 0.100000
B(  0-C ,  1-C ) :   0.9561 B(  0-C , 20-H ) :   0.9713 B(  0-C , 21-H ) :   0.9781
B(  0-C , 22-H ) :   0.9739 B(  1-C ,  2-O ) :   0.8913 B(  1-C , 23-H ) :   0.9839
B(  1-C , 24-H ) :   0.9829 B(  2-O ,  3-C ) :   1.1112 B(  3-C ,  4-O ) :   2.0138
B(  3-C ,  5-C ) :   1.0641 B(  5-C ,  6-C ) :   1.6292 B(  5-C , 12-C ) :   0.9599
B(  6-C ,  7-C ) :   0.9680 B(  6-C ,  8-N ) :   1.1528 B(  7-C , 25-H ) :   0.9559
B(  7-C , 26-H ) :   0.9893 B(  7-C , 27-H ) :   0.9640 B(  8-N ,  9-C ) :   1.1849
B(  8-N , 28-H ) :   0.9467 B(  9-C , 10-S ) :   1.6129 B(  9-C , 11-N ) :   1.3057
B( 11-N , 12-C ) :   0.9714 B( 11-N , 29-H ) :   0.9487 B( 12-C , 13-C ) :   0.9562
B( 12-C , 30-H ) :   1.0040 B( 13-C , 14-C ) :   1.3601 B( 13-C , 19-C ) :   1.3761
B( 14-C , 15-C ) :   1.3912 B( 14-C , 31-H ) :   0.9688 B( 15-C , 16-C ) :   1.3556
B( 15-C , 32-H ) :   0.9710 B( 16-C , 17-C ) :   1.3345 B( 16-C , 33-H ) :   0.9848
B( 17-C , 18-O ) :   1.1068 B( 17-C , 19-C ) :   1.3653 B( 18-O , 34-H ) :   0.9794
B( 19-C , 35-H ) :   0.9597

MP2 TOTAL ENERGY:    -1274.331501463 Eh
FINAL SINGLE POINT ENERGY     -1274.331501462957

DIPOLE MOMENT
-------------
                                X             Y             Z
Electronic contribution:      8.85769       9.62265       6.01395
Nuclear contribution   :     -9.86444     -11.30803      -6.06329
                        -----------------------------------------
Total Dipole Moment    :     -1.00675      -1.68538      -0.04934
                        -----------------------------------------
Magnitude (a.u.)       :      1.96380
Magnitude (Debye)      :      4.99157

Rotational constants in cm-1:     0.012170     0.009006     0.006173
Rotational constants in MHz :   364.857991   270.000148   185.075026

                             ****ORCA TERMINATED NORMALLY****
TOTAL RUN TIME: 0 days 2 hours 0 minutes 51 seconds 112 msec
