                         Program Version 4.2.0 -  RELEASE  -
|  1> ! ri-mp2 cc-pvtz cc-pvtz/c TightSCF NoKeepInts
|  2>
|  3> %scf
|  4>   MaxCore 4096
|  5> end
|  6> *xyz  0  1
|  7>     C       14.3980086   16.0627808   15.3278265
|  8>     C       15.5130525   15.2534408   16.0252370
|  9>     O       16.8208324   15.6264512   15.5300038
| 10>     C       17.1408905   16.9245891   15.2505025
| 11>     O       17.4200464   17.2578414   14.1133389
| 12>     C       17.0906033   17.8707192   16.4171459
| 13>     C       16.8982854   19.1922036   16.1770389
| 14>     C       16.3222950   19.8076220   14.9185870
| 15>     N       17.2195075   20.1586445   17.1315441
| 16>     C       17.9705768   19.9130534   18.2486911
| 17>     S       18.4282900   21.1210075   19.2811808
| 18>     N       18.3466563   18.6096264   18.4548093
| 19>     C       17.8695282   17.4492765   17.6770669
| 20>     C       17.2326834   16.3841225   18.5545283
| 21>     C       17.7619790   15.0811699   18.5997109
| 22>     C       17.1702868   14.0999430   19.4127674
| 23>     C       16.0463545   14.4266831   20.1911033
| 24>     C       15.5239680   15.7269465   20.1552458
| 25>     O       14.4377184   16.0444495   20.9030137
| 26>     C       16.1126477   16.7010594   19.3426195
| 27>     H       14.4056526   17.1126743   15.6439780
| 28>     H       13.4149789   15.6474963   15.5813355
| 29>     H       14.5117766   16.0217599   14.2366924
| 30>     H       15.4314380   15.4071699   17.1041949
| 31>     H       15.3579016   14.1830820   15.8381114
| 32>     H       15.5638859   19.1552174   14.4685928
| 33>     H       17.1112443   19.9530251   14.1689654
| 34>     H       15.8462665   20.7778710   15.1035951
| 35>     H       16.9862222   21.1248467   16.9658177
| 36>     H       18.8879584   18.4560653   19.2965504
| 37>     H       18.8354624   17.0868514   17.2965179
| 38>     H       18.6277619   14.8253708   17.9936661
| 39>     H       17.5833448   13.0926893   19.4383489
| 40>     H       15.5871138   13.6716625   20.8210746
| 41>     H       14.2137599   15.2685664   21.4391318
| 42>     H       15.6980217   17.7040215   19.3294656
| 43> *
| 44>
| 45>                          ****END OF INPUT****

CARTESIAN COORDINATES (ANGSTROEM)
---------------------------------
  C     14.398009   16.062781   15.327826
  C     15.513053   15.253441   16.025237
  O     16.820832   15.626451   15.530004
  C     17.140891   16.924589   15.250502
  O     17.420046   17.257841   14.113339
  C     17.090603   17.870719   16.417146
  C     16.898285   19.192204   16.177039
  C     16.322295   19.807622   14.918587
  N     17.219507   20.158645   17.131544
  C     17.970577   19.913053   18.248691
  S     18.428290   21.121007   19.281181
  N     18.346656   18.609626   18.454809
  C     17.869528   17.449276   17.677067
  C     17.232683   16.384123   18.554528
  C     17.761979   15.081170   18.599711
  C     17.170287   14.099943   19.412767
  C     16.046354   14.426683   20.191103
  C     15.523968   15.726946   20.155246
  O     14.437718   16.044449   20.903014
  C     16.112648   16.701059   19.342620
  H     14.405653   17.112674   15.643978
  H     13.414979   15.647496   15.581335
  H     14.511777   16.021760   14.236692
  H     15.431438   15.407170   17.104195
  H     15.357902   14.183082   15.838111
  H     15.563886   19.155217   14.468593
  H     17.111244   19.953025   14.168965
  H     15.846267   20.777871   15.103595
  H     16.986222   21.124847   16.965818
  H     18.887958   18.456065   19.296550
  H     18.835462   17.086851   17.296518
  H     18.627762   14.825371   17.993666
  H     17.583345   13.092689   19.438349
  H     15.587114   13.671663   20.821075
  H     14.213760   15.268566   21.439132
  H     15.698022   17.704021   19.329466

 Total Charge           Charge          ....    0
 Multiplicity           Mult            ....    1
 Number of Electrons    NEL             ....  154
 Basis Dimension        Dim             ....  828

ORBITAL ENERGIES
----------------

  NO   OCC          E(Eh)            E(eV)
   0   2.0000     -91.891038     -2500.4823
   1   2.0000     -20.603291      -560.6441
   2   2.0000     -20.585076      -560.1484
   3   2.0000     -20.550835      -559.2166
   4   2.0000     -15.629453      -425.2990
   5   2.0000     -15.610305      -424.7780
   6   2.0000     -11.393510      -310.0332
   7   2.0000     -11.385663      -309.8197
   8   2.0000     -11.334946      -308.4396
   9   2.0000     -11.321434      -308.0719
  10   2.0000     -11.314812      -307.8917
  11   2.0000     -11.298835      -307.4569
  12   2.0000     -11.267493      -306.6041
  13   2.0000     -11.262268      -306.4619
  14   2.0000     -11.257759      -306.3392
  15   2.0000     -11.254855      -306.2602
  16   2.0000     -11.251451      -306.1675
  17   2.0000     -11.246193      -306.0245
  18   2.0000     -11.245390      -306.0026
  19   2.0000     -11.231638      -305.6284
  20   2.0000      -8.896093      -242.0750
  21   2.0000      -6.577660      -178.9872
  22   2.0000      -6.575666      -178.9330
  23   2.0000      -6.575070      -178.9168
  24   2.0000      -1.443851       -39.2892
  25   2.0000      -1.423078       -38.7239
  26   2.0000      -1.354810       -36.8662
  27   2.0000      -1.342130       -36.5212
  28   2.0000      -1.241073       -33.7713
  29   2.0000      -1.164500       -31.6877
  30   2.0000      -1.123538       -30.5730
  31   2.0000      -1.048976       -28.5441
  32   2.0000      -1.032945       -28.1079
  33   2.0000      -1.022446       -27.8222
  34   2.0000      -1.002397       -27.2766
  35   2.0000      -0.988796       -26.9065
  36   2.0000      -0.926315       -25.2063
  37   2.0000      -0.895023       -24.3548
  38   2.0000      -0.850355       -23.1393
  39   2.0000      -0.843928       -22.9645
  40   2.0000      -0.841417       -22.8961
  41   2.0000      -0.827982       -22.5305
  42   2.0000      -0.750525       -20.4228
  43   2.0000      -0.738254       -20.0889
  44   2.0000      -0.716846       -19.5064
  45   2.0000      -0.701353       -19.0848
  46   2.0000      -0.689533       -18.7631
  47   2.0000      -0.680256       -18.5107
  48   2.0000      -0.674420       -18.3519
  49   2.0000      -0.664997       -18.0955
  50   2.0000      -0.652177       -17.7466
  51   2.0000      -0.647601       -17.6221
  52   2.0000      -0.636631       -17.3236
  53   2.0000      -0.623305       -16.9610
  54   2.0000      -0.612488       -16.6666
  55   2.0000      -0.606005       -16.4902
  56   2.0000      -0.602661       -16.3992
  57   2.0000      -0.582103       -15.8398
  58   2.0000      -0.575865       -15.6701
  59   2.0000      -0.566937       -15.4271
  60   2.0000      -0.551868       -15.0171
  61   2.0000      -0.547368       -14.8946
  62   2.0000      -0.542861       -14.7720
  63   2.0000      -0.533658       -14.5216
  64   2.0000      -0.528641       -14.3850
  65   2.0000      -0.517131       -14.0718
  66   2.0000      -0.504413       -13.7258
  67   2.0000      -0.496799       -13.5186
  68   2.0000      -0.479834       -13.0569
  69   2.0000      -0.469261       -12.7692
  70   2.0000      -0.452983       -12.3263
  71   2.0000      -0.448915       -12.2156
  72   2.0000      -0.357021        -9.7150
  73   2.0000      -0.353639        -9.6230
  74   2.0000      -0.330904        -9.0044
  75   2.0000      -0.328449        -8.9375
  76   2.0000      -0.320786        -8.7290
  77   0.0000       0.076319         2.0768
  78   0.0000       0.097771         2.6605
  79   0.0000       0.121665         3.3107
  80   0.0000       0.127131         3.4594
  81   0.0000       0.130289         3.5453

MULLIKEN ATOMIC CHARGES
-----------------------
   0 C :   -0.315776
   1 C :    0.038022
   2 O :   -0.360368
   3 C :    0.442273
   4 O :   -0.374130
   5 C :   -0.254690
   6 C :    0.171898
   7 C :   -0.277617
   8 N :   -0.129007
   9 C :    0.208492
  10 S :   -0.438177
  11 N :   -0.207932
  12 C :    0.035680
  13 C :   -0.008320
  14 C :   -0.166757
  15 C :   -0.133181
  16 C :   -0.271229
  17 C :    0.301644
  18 O :   -0.356185
  19 C :   -0.224029
  20 H :    0.093325
  21 H :    0.110127
  22 H :    0.117657
  23 H :    0.101208
  24 H :    0.119191
  25 H :    0.120092
  26 H :    0.143168
  27 H :    0.096433
  28 H :    0.199191
  29 H :    0.199744
  30 H :    0.153300
  31 H :    0.156190
  32 H :    0.164891
  33 H :    0.134762
  34 H :    0.241574
  35 H :    0.168536
Sum of atomic charges:   -0.0000000

LOEWDIN ATOMIC CHARGES
----------------------
   0 C :    0.103959
   1 C :   -0.014337
   2 O :    0.290621
   3 C :   -0.427067
   4 O :    0.128805
   5 C :   -0.101290
   6 C :   -0.065448
   7 C :    0.129217
   8 N :    0.407113
   9 C :   -0.457377
  10 S :   -0.033815
  11 N :    0.395731
  12 C :   -0.054055
  13 C :   -0.045745
  14 C :    0.021485
  15 C :    0.043327
  16 C :    0.001060
  17 C :   -0.192752
  18 O :    0.396627
  19 C :    0.031060
  20 H :   -0.033980
  21 H :   -0.023025
  22 H :   -0.022655
  23 H :   -0.036789
  24 H :   -0.021748
  25 H :   -0.009642
  26 H :   -0.003850
  27 H :   -0.021924
  28 H :   -0.056501
  29 H :   -0.063469
  30 H :   -0.010918
  31 H :   -0.026130
  32 H :   -0.018784
  33 H :   -0.033673
  34 H :   -0.152484
  35 H :   -0.021547

  Mayer bond orders larger than 0.100000
B(  0-C ,  1-C ) :   0.9686 B(  0-C , 20-H ) :   0.9736 B(  0-C , 21-H ) :   0.9773
B(  0-C , 22-H ) :   0.9735 B(  1-C ,  2-O ) :   0.8938 B(  1-C , 23-H ) :   0.9632
B(  1-C , 24-H ) :   0.9819 B(  2-O ,  3-C ) :   1.1271 B(  3-C ,  4-O ) :   2.0937
B(  3-C ,  5-C ) :   0.9870 B(  5-C ,  6-C ) :   1.6493 B(  5-C , 12-C ) :   0.9689
B(  6-C ,  7-C ) :   0.9565 B(  6-C ,  8-N ) :   1.1449 B(  7-C , 25-H ) :   0.9724
B(  7-C , 26-H ) :   0.9550 B(  7-C , 27-H ) :   0.9854 B(  8-N ,  9-C ) :   1.1910
B(  8-N , 28-H ) :   0.9485 B(  9-C , 10-S ) :   1.6145 B(  9-C , 11-N ) :   1.2950
B( 11-N , 12-C ) :   0.9808 B( 11-N , 29-H ) :   0.9479 B( 12-C , 13-C ) :   0.9570
B( 12-C , 30-H ) :   1.0056 B( 13-C , 14-C ) :   1.3692 B( 13-C , 19-C ) :   1.3658
B( 14-C , 15-C ) :   1.3929 B( 14-C , 31-H ) :   0.9685 B( 15-C , 16-C ) :   1.3612
B( 15-C , 32-H ) :   0.9694 B( 16-C , 17-C ) :   1.3310 B( 16-C , 33-H ) :   0.9834
B( 17-C , 18-O ) :   1.1093 B( 17-C , 19-C ) :   1.3639 B( 18-O , 34-H ) :   0.9788
B( 19-C , 35-H ) :   0.9600

MP2 TOTAL ENERGY:    -1274.321661097 Eh
FINAL SINGLE POINT ENERGY     -1274.321661096549

DIPOLE MOMENT
-------------
                                X             Y             Z
Electronic contribution:      9.57939       7.32066       7.52500
Nuclear contribution   :    -10.93599      -8.95717      -7.30559
                        -----------------------------------------
Total Dipole Moment    :     -1.35660      -1.63651       0.21942
                        -----------------------------------------
Magnitude (a.u.)       :      2.13697
Magnitude (Debye)      :      5.43175

Rotational constants in cm-1:     0.011804     0.009172     0.006237
Rotational constants in MHz :   353.884183   274.973461   186.979426

                             ****ORCA TERMINATED NORMALLY****
TOTAL RUN TIME: 0 days 1 hours 47 minutes 40 seconds 169 msec
