                         Program Version 4.2.0 -  RELEASE  -
|  1> ! ri-mp2 cc-pvtz cc-pvtz/c TightSCF NoKeepInts
|  2>
|  3> %scf
|  4>   MaxCore 4096
|  5> end
|  6> *xyz  0  1
|  7>     C       14.4306215   15.3191964   16.1795218
|  8>     C       15.0004169   16.3813544   15.2236012
|  9>     O       16.3584541   16.0003947   14.9195035
| 10>     C       17.4794741   16.5455007   15.4952575
| 11>     O       18.5775016   16.0481788   15.3293781
| 12>     C       17.2712225   17.6809693   16.4396662
| 13>     C       16.9802074   18.9109978   15.9528830
| 14>     C       16.5784777   19.2544042   14.5320613
| 15>     N       17.1058916   20.0463477   16.7550183
| 16>     C       17.7519299   20.0623909   17.9635674
| 17>     S       17.9693136   21.4623845   18.8161854
| 18>     N       18.2315245   18.8577919   18.4181037
| 19>     C       17.9649185   17.5462604   17.7933977
| 20>     C       17.2916908   16.5233129   18.6947875
| 21>     C       17.7321360   15.1877797   18.6964002
| 22>     C       17.0962886   14.2277381   19.5010227
| 23>     C       16.0088644   14.6063489   20.3070065
| 24>     C       15.5639271   15.9355467   20.3015542
| 25>     O       14.5065481   16.3008944   21.0689917
| 26>     C       16.1979706   16.8892835   19.4986949
| 27>     H       14.9837757   15.3112717   17.1270461
| 28>     H       14.5004064   14.3192597   15.7330283
| 29>     H       13.3762609   15.5239088   16.4012503
| 30>     H       14.4107024   16.3687492   14.2977960
| 31>     H       14.9052791   17.3774356   15.6674391
| 32>     H       16.8313274   18.4596022   13.8194382
| 33>     H       17.0977738   20.1561220   14.1824808
| 34>     H       15.4999803   19.4397763   14.4604161
| 35>     H       16.7949431   20.9428139   16.4148698
| 36>     H       18.7022629   18.8962447   19.3136390
| 37>     H       18.9938268   17.2276505   17.5677376
| 38>     H       18.5643948   14.8916150   18.0606869
| 39>     H       17.4443608   13.1960813   19.4935086
| 40>     H       15.5137959   13.8672091   20.9282473
| 41>     H       14.2358403   15.5234226   21.5804731
| 42>     H       15.8346900   17.9117613   19.5033396
| 43> *
| 44>
| 45>                          ****END OF INPUT****

CARTESIAN COORDINATES (ANGSTROEM)
---------------------------------
  C     14.430622   15.319196   16.179522
  C     15.000417   16.381354   15.223601
  O     16.358454   16.000395   14.919503
  C     17.479474   16.545501   15.495257
  O     18.577502   16.048179   15.329378
  C     17.271223   17.680969   16.439666
  C     16.980207   18.910998   15.952883
  C     16.578478   19.254404   14.532061
  N     17.105892   20.046348   16.755018
  C     17.751930   20.062391   17.963567
  S     17.969314   21.462384   18.816185
  N     18.231524   18.857792   18.418104
  C     17.964918   17.546260   17.793398
  C     17.291691   16.523313   18.694788
  C     17.732136   15.187780   18.696400
  C     17.096289   14.227738   19.501023
  C     16.008864   14.606349   20.307006
  C     15.563927   15.935547   20.301554
  O     14.506548   16.300894   21.068992
  C     16.197971   16.889284   19.498695
  H     14.983776   15.311272   17.127046
  H     14.500406   14.319260   15.733028
  H     13.376261   15.523909   16.401250
  H     14.410702   16.368749   14.297796
  H     14.905279   17.377436   15.667439
  H     16.831327   18.459602   13.819438
  H     17.097774   20.156122   14.182481
  H     15.499980   19.439776   14.460416
  H     16.794943   20.942814   16.414870
  H     18.702263   18.896245   19.313639
  H     18.993827   17.227650   17.567738
  H     18.564395   14.891615   18.060687
  H     17.444361   13.196081   19.493509
  H     15.513796   13.867209   20.928247
  H     14.235840   15.523423   21.580473
  H     15.834690   17.911761   19.503340

 Total Charge           Charge          ....    0
 Multiplicity           Mult            ....    1
 Number of Electrons    NEL             ....  154
 Basis Dimension        Dim             ....  828

ORBITAL ENERGIES
----------------

  NO   OCC          E(Eh)            E(eV)
   0   2.0000     -91.889888     -2500.4510
   1   2.0000     -20.604715      -560.6828
   2   2.0000     -20.600582      -560.5703
   3   2.0000     -20.550189      -559.1991
   4   2.0000     -15.627566      -425.2477
   5   2.0000     -15.610139      -424.7735
   6   2.0000     -11.400246      -310.2165
   7   2.0000     -11.386017      -309.8293
   8   2.0000     -11.332374      -308.3696
   9   2.0000     -11.318280      -307.9861
  10   2.0000     -11.311430      -307.7996
  11   2.0000     -11.305974      -307.6512
  12   2.0000     -11.268337      -306.6270
  13   2.0000     -11.265945      -306.5619
  14   2.0000     -11.263715      -306.5013
  15   2.0000     -11.258768      -306.3667
  16   2.0000     -11.247353      -306.0560
  17   2.0000     -11.243184      -305.9426
  18   2.0000     -11.241020      -305.8837
  19   2.0000     -11.228769      -305.5503
  20   2.0000      -8.894994      -242.0451
  21   2.0000      -6.576576      -178.9577
  22   2.0000      -6.574562      -178.9029
  23   2.0000      -6.573981      -178.8871
  24   2.0000      -1.448616       -39.4188
  25   2.0000      -1.420309       -38.6486
  26   2.0000      -1.362374       -37.0721
  27   2.0000      -1.340814       -36.4854
  28   2.0000      -1.239493       -33.7283
  29   2.0000      -1.162724       -31.6393
  30   2.0000      -1.127426       -30.6788
  31   2.0000      -1.049753       -28.5652
  32   2.0000      -1.038594       -28.2616
  33   2.0000      -1.020405       -27.7666
  34   2.0000      -1.006793       -27.3962
  35   2.0000      -0.990407       -26.9503
  36   2.0000      -0.927357       -25.2347
  37   2.0000      -0.888669       -24.1819
  38   2.0000      -0.854757       -23.2591
  39   2.0000      -0.842561       -22.9272
  40   2.0000      -0.838119       -22.8064
  41   2.0000      -0.835585       -22.7374
  42   2.0000      -0.754029       -20.5182
  43   2.0000      -0.740984       -20.1632
  44   2.0000      -0.732624       -19.9357
  45   2.0000      -0.698289       -19.0014
  46   2.0000      -0.690749       -18.7962
  47   2.0000      -0.682859       -18.5815
  48   2.0000      -0.675475       -18.3806
  49   2.0000      -0.663326       -18.0500
  50   2.0000      -0.653984       -17.7958
  51   2.0000      -0.642388       -17.4803
  52   2.0000      -0.637158       -17.3379
  53   2.0000      -0.617155       -16.7936
  54   2.0000      -0.612246       -16.6601
  55   2.0000      -0.608266       -16.5518
  56   2.0000      -0.603565       -16.4239
  57   2.0000      -0.586016       -15.9463
  58   2.0000      -0.578591       -15.7443
  59   2.0000      -0.568634       -15.4733
  60   2.0000      -0.562267       -15.3001
  61   2.0000      -0.555695       -15.1212
  62   2.0000      -0.544799       -14.8247
  63   2.0000      -0.534634       -14.5481
  64   2.0000      -0.520910       -14.1747
  65   2.0000      -0.512699       -13.9512
  66   2.0000      -0.507083       -13.7984
  67   2.0000      -0.502276       -13.6676
  68   2.0000      -0.487627       -13.2690
  69   2.0000      -0.470033       -12.7903
  70   2.0000      -0.453234       -12.3331
  71   2.0000      -0.451270       -12.2797
  72   2.0000      -0.356514        -9.7012
  73   2.0000      -0.353094        -9.6082
  74   2.0000      -0.329457        -8.9650
  75   2.0000      -0.326084        -8.8732
  76   2.0000      -0.319781        -8.7017
  77   0.0000       0.086965         2.3664
  78   0.0000       0.103188         2.8079
  79   0.0000       0.115021         3.1299
  80   0.0000       0.128502         3.4967
  81   0.0000       0.128666         3.5012

MULLIKEN ATOMIC CHARGES
-----------------------
   0 C :   -0.271315
   1 C :    0.026302
   2 O :   -0.316570
   3 C :    0.414207
   4 O :   -0.384136
   5 C :   -0.207906
   6 C :    0.139867
   7 C :   -0.325498
   8 N :   -0.138543
   9 C :    0.210348
  10 S :   -0.442677
  11 N :   -0.223990
  12 C :    0.058434
  13 C :    0.000756
  14 C :   -0.209818
  15 C :   -0.131712
  16 C :   -0.272150
  17 C :    0.308352
  18 O :   -0.357027
  19 C :   -0.232025
  20 H :    0.110650
  21 H :    0.106460
  22 H :    0.089927
  23 H :    0.113117
  24 H :    0.091244
  25 H :    0.131787
  26 H :    0.131584
  27 H :    0.123680
  28 H :    0.197740
  29 H :    0.202776
  30 H :    0.168651
  31 H :    0.175391
  32 H :    0.164320
  33 H :    0.132690
  34 H :    0.241453
  35 H :    0.173631
Sum of atomic charges:   -0.0000000

LOEWDIN ATOMIC CHARGES
----------------------
   0 C :    0.107482
   1 C :   -0.021628
   2 O :    0.310052
   3 C :   -0.417175
   4 O :    0.118966
   5 C :   -0.084715
   6 C :   -0.095121
   7 C :    0.126381
   8 N :    0.402246
   9 C :   -0.455889
  10 S :   -0.038221
  11 N :    0.396175
  12 C :   -0.049726
  13 C :   -0.045432
  14 C :    0.019053
  15 C :    0.045294
  16 C :    0.000061
  17 C :   -0.191111
  18 O :    0.395964
  19 C :    0.027321
  20 H :   -0.024594
  21 H :   -0.023777
  22 H :   -0.026836
  23 H :   -0.026169
  24 H :   -0.039609
  25 H :   -0.006745
  26 H :   -0.010388
  27 H :   -0.016861
  28 H :   -0.057413
  29 H :   -0.063742
  30 H :   -0.003798
  31 H :   -0.021376
  32 H :   -0.018205
  33 H :   -0.034450
  34 H :   -0.152930
  35 H :   -0.023086

  Mayer bond orders larger than 0.100000
B(  0-C ,  1-C ) :   0.9796 B(  0-C , 20-H ) :   0.9686 B(  0-C , 21-H ) :   0.9791
B(  0-C , 22-H ) :   0.9757 B(  1-C ,  2-O ) :   0.8982 B(  1-C , 23-H ) :   0.9805
B(  1-C , 24-H ) :   0.9601 B(  2-O ,  3-C ) :   1.1828 B(  3-C ,  4-O ) :   2.0993
B(  3-C ,  5-C ) :   0.9174 B(  5-C ,  6-C ) :   1.7233 B(  5-C , 12-C ) :   0.9380
B(  6-C ,  7-C ) :   0.9375 B(  6-C ,  8-N ) :   1.1064 B(  7-C , 25-H ) :   0.9754
B(  7-C , 26-H ) :   0.9768 B(  7-C , 27-H ) :   0.9656 B(  8-N ,  9-C ) :   1.1976
B(  8-N , 28-H ) :   0.9509 B(  9-C , 10-S ) :   1.6103 B(  9-C , 11-N ) :   1.2898
B( 11-N , 12-C ) :   0.9831 B( 11-N , 29-H ) :   0.9473 B( 12-C , 13-C ) :   0.9676
B( 12-C , 30-H ) :   0.9894 B( 13-C , 14-C ) :   1.3889 B( 13-C , 19-C ) :   1.3562
B( 14-C , 15-C ) :   1.3933 B( 14-C , 31-H ) :   0.9595 B( 15-C , 16-C ) :   1.3610
B( 15-C , 32-H ) :   0.9702 B( 16-C , 17-C ) :   1.3313 B( 16-C , 33-H ) :   0.9847
B( 17-C , 18-O ) :   1.1101 B( 17-C , 19-C ) :   1.3658 B( 18-O , 34-H ) :   0.9791
B( 19-C , 35-H ) :   0.9562

MP2 TOTAL ENERGY:    -1274.331369728 Eh
FINAL SINGLE POINT ENERGY     -1274.331369728086

DIPOLE MOMENT
-------------
                                X             Y             Z
Electronic contribution:      9.44279       8.20695       6.77631
Nuclear contribution   :    -11.13386      -9.33551      -7.18199
                        -----------------------------------------
Total Dipole Moment    :     -1.69107      -1.12856      -0.40568
                        -----------------------------------------
Magnitude (a.u.)       :      2.07314
Magnitude (Debye)      :      5.26951

Rotational constants in cm-1:     0.011691     0.009069     0.006406
Rotational constants in MHz :   350.498635   271.888052   192.040756

                             ****ORCA TERMINATED NORMALLY****
TOTAL RUN TIME: 0 days 1 hours 44 minutes 10 seconds 639 msec
