                         Program Version 4.2.0 -  RELEASE  -
|  1> ! ri-mp2 cc-pvtz cc-pvtz/c TightSCF NoKeepInts
|  2>
|  3> %scf
|  4>   MaxCore 4096
|  5> end
|  6> *xyz  0  1
|  7>     C       14.3449987   14.9293995   14.1029980
|  8>     C       14.7473882   15.8482074   15.2683125
|  9>     O       15.9601148   16.5168269   14.8887846
| 10>     C       16.9897878   16.4659524   15.7757228
| 11>     O       17.6105369   15.4354530   15.9678130
| 12>     C       17.1502319   17.6914580   16.6268403
| 13>     C       16.9207053   18.9424152   16.1492342
| 14>     C       16.2791673   19.3279838   14.8309193
| 15>     N       17.3375637   20.0664736   16.8665564
| 16>     C       18.1778840   20.0270555   17.9466526
| 17>     S       18.7175507   21.4062253   18.6826255
| 18>     N       18.5660219   18.7819657   18.3731030
| 19>     C       18.0359665   17.5022270   17.8633501
| 20>     C       17.3882558   16.6428029   18.9408375
| 21>     C       17.7995022   15.3127190   19.1402005
| 22>     C       17.1978985   14.5196011   20.1316119
| 23>     C       16.1767077   15.0615983   20.9308376
| 24>     C       15.7630613   16.3860414   20.7323140
| 25>     O       14.7730682   16.9101131   21.4980575
| 26>     C       16.3629597   17.1726029   19.7436414
| 27>     H       15.1316248   14.1888570   13.9093035
| 28>     H       14.1846644   15.5114312   13.1870191
| 29>     H       13.4181705   14.3918889   14.3372514
| 30>     H       13.9554284   16.5818682   15.4666380
| 31>     H       14.8945084   15.2411839   16.1733897
| 32>     H       16.7763783   18.8240350   13.9922150
| 33>     H       16.3330594   20.4052177   14.6312272
| 34>     H       15.2197822   19.0443964   14.8151012
| 35>     H       17.0819561   20.9882474   16.5501244
| 36>     H       19.1714654   18.7801338   19.1844088
| 37>     H       18.9632381   17.0351248   17.5001560
| 38>     H       18.5787353   14.8881155   18.5112085
| 39>     H       17.5208117   13.4896040   20.2726690
| 40>     H       15.7086689   14.4519356   21.6965575
| 41>     H       14.5175528   16.2343093   22.1438608
| 42>     H       16.0315843   18.1965292   19.6064572
| 43> *
| 44>
| 45>                          ****END OF INPUT****

CARTESIAN COORDINATES (ANGSTROEM)
---------------------------------
  C     14.344999   14.929400   14.102998
  C     14.747388   15.848207   15.268312
  O     15.960115   16.516827   14.888785
  C     16.989788   16.465952   15.775723
  O     17.610537   15.435453   15.967813
  C     17.150232   17.691458   16.626840
  C     16.920705   18.942415   16.149234
  C     16.279167   19.327984   14.830919
  N     17.337564   20.066474   16.866556
  C     18.177884   20.027055   17.946653
  S     18.717551   21.406225   18.682625
  N     18.566022   18.781966   18.373103
  C     18.035967   17.502227   17.863350
  C     17.388256   16.642803   18.940837
  C     17.799502   15.312719   19.140200
  C     17.197899   14.519601   20.131612
  C     16.176708   15.061598   20.930838
  C     15.763061   16.386041   20.732314
  O     14.773068   16.910113   21.498058
  C     16.362960   17.172603   19.743641
  H     15.131625   14.188857   13.909304
  H     14.184664   15.511431   13.187019
  H     13.418171   14.391889   14.337251
  H     13.955428   16.581868   15.466638
  H     14.894508   15.241184   16.173390
  H     16.776378   18.824035   13.992215
  H     16.333059   20.405218   14.631227
  H     15.219782   19.044396   14.815101
  H     17.081956   20.988247   16.550124
  H     19.171465   18.780134   19.184409
  H     18.963238   17.035125   17.500156
  H     18.578735   14.888115   18.511208
  H     17.520812   13.489604   20.272669
  H     15.708669   14.451936   21.696558
  H     14.517553   16.234309   22.143861
  H     16.031584   18.196529   19.606457

 Total Charge           Charge          ....    0
 Multiplicity           Mult            ....    1
 Number of Electrons    NEL             ....  154
 Basis Dimension        Dim             ....  828

ORBITAL ENERGIES
----------------

  NO   OCC          E(Eh)            E(eV)
   0   2.0000     -91.889699     -2500.4458
   1   2.0000     -20.594190      -560.3964
   2   2.0000     -20.587669      -560.2190
   3   2.0000     -20.552181      -559.2533
   4   2.0000     -15.630743      -425.3341
   5   2.0000     -15.607204      -424.6936
   6   2.0000     -11.394043      -310.0477
   7   2.0000     -11.384416      -309.7857
   8   2.0000     -11.340183      -308.5821
   9   2.0000     -11.310368      -307.7708
  10   2.0000     -11.305312      -307.6332
  11   2.0000     -11.304440      -307.6095
  12   2.0000     -11.261681      -306.4459
  13   2.0000     -11.260268      -306.4075
  14   2.0000     -11.257573      -306.3341
  15   2.0000     -11.250337      -306.1372
  16   2.0000     -11.240479      -305.8690
  17   2.0000     -11.236696      -305.7660
  18   2.0000     -11.233231      -305.6717
  19   2.0000     -11.229152      -305.5608
  20   2.0000      -8.894772      -242.0390
  21   2.0000      -6.576345      -178.9514
  22   2.0000      -6.574345      -178.8970
  23   2.0000      -6.573753      -178.8809
  24   2.0000      -1.453498       -39.5517
  25   2.0000      -1.413938       -38.4752
  26   2.0000      -1.359085       -36.9826
  27   2.0000      -1.341612       -36.5071
  28   2.0000      -1.238588       -33.7037
  29   2.0000      -1.154869       -31.4256
  30   2.0000      -1.122472       -30.5440
  31   2.0000      -1.044398       -28.4195
  32   2.0000      -1.035898       -28.1882
  33   2.0000      -1.012453       -27.5503
  34   2.0000      -1.000852       -27.2346
  35   2.0000      -0.985717       -26.8227
  36   2.0000      -0.922603       -25.1053
  37   2.0000      -0.881774       -23.9943
  38   2.0000      -0.850584       -23.1456
  39   2.0000      -0.838961       -22.8293
  40   2.0000      -0.830689       -22.6042
  41   2.0000      -0.829105       -22.5611
  42   2.0000      -0.759403       -20.6644
  43   2.0000      -0.736346       -20.0370
  44   2.0000      -0.728364       -19.8198
  45   2.0000      -0.692494       -18.8437
  46   2.0000      -0.687972       -18.7207
  47   2.0000      -0.680572       -18.5193
  48   2.0000      -0.672100       -18.2888
  49   2.0000      -0.658794       -17.9267
  50   2.0000      -0.647636       -17.6231
  51   2.0000      -0.644067       -17.5259
  52   2.0000      -0.634608       -17.2686
  53   2.0000      -0.611281       -16.6338
  54   2.0000      -0.603924       -16.4336
  55   2.0000      -0.600963       -16.3530
  56   2.0000      -0.597429       -16.2569
  57   2.0000      -0.582646       -15.8546
  58   2.0000      -0.575404       -15.6575
  59   2.0000      -0.564395       -15.3580
  60   2.0000      -0.562780       -15.3140
  61   2.0000      -0.551843       -15.0164
  62   2.0000      -0.538397       -14.6505
  63   2.0000      -0.519234       -14.1291
  64   2.0000      -0.515222       -14.0199
  65   2.0000      -0.511530       -13.9194
  66   2.0000      -0.505126       -13.7452
  67   2.0000      -0.496178       -13.5017
  68   2.0000      -0.481870       -13.1124
  69   2.0000      -0.464310       -12.6345
  70   2.0000      -0.458567       -12.4783
  71   2.0000      -0.453938       -12.3523
  72   2.0000      -0.354939        -9.6584
  73   2.0000      -0.346937        -9.4406
  74   2.0000      -0.328712        -8.9447
  75   2.0000      -0.318935        -8.6787
  76   2.0000      -0.317138        -8.6298
  77   0.0000       0.072219         1.9652
  78   0.0000       0.108433         2.9506
  79   0.0000       0.119413         3.2494
  80   0.0000       0.134016         3.6468
  81   0.0000       0.139065         3.7841

MULLIKEN ATOMIC CHARGES
-----------------------
   0 C :   -0.258251
   1 C :    0.038918
   2 O :   -0.373603
   3 C :    0.447640
   4 O :   -0.391851
   5 C :   -0.207143
   6 C :    0.154099
   7 C :   -0.282166
   8 N :   -0.127581
   9 C :    0.206553
  10 S :   -0.439823
  11 N :   -0.211321
  12 C :    0.045479
  13 C :    0.031392
  14 C :   -0.176749
  15 C :   -0.133635
  16 C :   -0.277857
  17 C :    0.313744
  18 O :   -0.358693
  19 C :   -0.253343
  20 H :    0.108645
  21 H :    0.092189
  22 H :    0.087071
  23 H :    0.093198
  24 H :    0.101158
  25 H :    0.130388
  26 H :    0.104970
  27 H :    0.122471
  28 H :    0.198726
  29 H :    0.199876
  30 H :    0.156704
  31 H :    0.162817
  32 H :    0.161435
  33 H :    0.129337
  34 H :    0.240390
  35 H :    0.164819
Sum of atomic charges:   -0.0000000

LOEWDIN ATOMIC CHARGES
----------------------
   0 C :    0.108398
   1 C :   -0.018562
   2 O :    0.299014
   3 C :   -0.425847
   4 O :    0.122602
   5 C :   -0.097131
   6 C :   -0.064839
   7 C :    0.126360
   8 N :    0.405885
   9 C :   -0.458254
  10 S :   -0.035788
  11 N :    0.396152
  12 C :   -0.048838
  13 C :   -0.041663
  14 C :    0.024103
  15 C :    0.041283
  16 C :   -0.001164
  17 C :   -0.193004
  18 O :    0.393157
  19 C :    0.028385
  20 H :   -0.021048
  21 H :   -0.028274
  22 H :   -0.027329
  23 H :   -0.034363
  24 H :   -0.024700
  25 H :   -0.007010
  26 H :   -0.020187
  27 H :   -0.010657
  28 H :   -0.058250
  29 H :   -0.063262
  30 H :   -0.007414
  31 H :   -0.023255
  32 H :   -0.020433
  33 H :   -0.035812
  34 H :   -0.154372
  35 H :   -0.023882

  Mayer bond orders larger than 0.100000
B(  0-C ,  1-C ) :   0.9825 B(  0-C , 20-H ) :   0.9765 B(  0-C , 21-H ) :   0.9789
B(  0-C , 22-H ) :   0.9757 B(  1-C ,  2-O ) :   0.8859 B(  1-C , 23-H ) :   0.9769
B(  1-C , 24-H ) :   0.9705 B(  2-O ,  3-C ) :   1.0760 B(  3-C ,  4-O ) :   2.0425
B(  3-C ,  5-C ) :   1.0283 B(  5-C ,  6-C ) :   1.6579 B(  5-C , 12-C ) :   0.9501
B(  6-C ,  7-C ) :   0.9521 B(  6-C ,  8-N ) :   1.1389 B(  7-C , 25-H ) :   0.9652
B(  7-C , 26-H ) :   0.9896 B(  7-C , 27-H ) :   0.9664 B(  8-N ,  9-C ) :   1.1835
B(  8-N , 28-H ) :   0.9470 B(  9-C , 10-S ) :   1.6118 B(  9-C , 11-N ) :   1.3041
B( 11-N , 12-C ) :   0.9787 B( 11-N , 29-H ) :   0.9485 B( 12-C , 13-C ) :   0.9721
B( 12-C , 30-H ) :   0.9950 B( 13-C , 14-C ) :   1.3787 B( 13-C , 19-C ) :   1.3629
B( 14-C , 15-C ) :   1.3968 B( 14-C , 31-H ) :   0.9623 B( 15-C , 16-C ) :   1.3593
B( 15-C , 32-H ) :   0.9707 B( 16-C , 17-C ) :   1.3327 B( 16-C , 33-H ) :   0.9856
B( 17-C , 18-O ) :   1.1046 B( 17-C , 19-C ) :   1.3674 B( 18-O , 34-H ) :   0.9802
B( 19-C , 35-H ) :   0.9599

MP2 TOTAL ENERGY:    -1274.326202607 Eh
FINAL SINGLE POINT ENERGY     -1274.326202606786

DIPOLE MOMENT
-------------
                                X             Y             Z
Electronic contribution:     10.53858       9.97084      10.49817
Nuclear contribution   :    -12.07681     -11.11304     -11.11551
                        -----------------------------------------
Total Dipole Moment    :     -1.53822      -1.14220      -0.61733
                        -----------------------------------------
Magnitude (a.u.)       :      2.01292
Magnitude (Debye)      :      5.11644

Rotational constants in cm-1:     0.009932     0.009245     0.005733
Rotational constants in MHz :   297.748009   277.170821   171.857515

                             ****ORCA TERMINATED NORMALLY****
TOTAL RUN TIME: 0 days 1 hours 35 minutes 21 seconds 452 msec
