                         Program Version 4.2.0 -  RELEASE  -
|  1> ! ri-mp2 cc-pvtz cc-pvtz/c TightSCF NoKeepInts
|  2>
|  3> %scf
|  4>   MaxCore 4096
|  5> end
|  6> *xyz  0  1
|  7>     C       13.9365250   16.7433486   15.3410587
|  8>     C       15.1049732   15.7955408   15.6641344
|  9>     O       16.2550199   16.1509494   14.8687337
| 10>     C       17.3891468   16.6089853   15.4803756
| 11>     O       18.4798048   16.1137317   15.2655841
| 12>     C       17.1745246   17.6715684   16.5052350
| 13>     C       16.7159683   18.8928381   16.1379346
| 14>     C       16.1870514   19.3144797   14.7811900
| 15>     N       16.8075404   19.9798180   17.0089127
| 16>     C       17.5517035   19.9830021   18.1594546
| 17>     S       17.7095621   21.3395202   19.0917996
| 18>     N       18.1830152   18.8071187   18.4838571
| 19>     C       17.9950527   17.5201956   17.7848980
| 20>     C       17.5010512   16.3796094   18.6612857
| 21>     C       18.0858158   15.1049607   18.5572577
| 22>     C       17.6160156   14.0381856   19.3412934
| 23>     C       16.5500064   14.2476619   20.2330626
| 24>     C       15.9606665   15.5155286   20.3327267
| 25>     O       14.9237364   15.7177313   21.1837723
| 26>     C       16.4290859   16.5753838   19.5494583
| 27>     H       14.0867994   17.7252888   15.8014870
| 28>     H       12.9978619   16.3340744   15.7343907
| 29>     H       13.8247876   16.8710925   14.2569601
| 30>     H       15.3247698   15.8056959   16.7406660
| 31>     H       14.8071391   14.7720704   15.4011078
| 32>     H       16.1944006   18.5055962   14.0426764
| 33>     H       16.8017461   20.1216366   14.3625555
| 34>     H       15.1566513   19.6824304   14.8543445
| 35>     H       16.3866349   20.8611013   16.7596363
| 36>     H       18.7236634   18.8352746   19.3393825
| 37>     H       19.0266381   17.3243742   17.4554999
| 38>     H       18.9023052   14.9396352   17.8567700
| 39>     H       18.0762308   13.0552920   19.2530605
| 40>     H       16.1837104   13.4259413   20.8397777
| 41>     H       14.7806335   14.8918275   21.6704574
| 42>     H       15.9567620   17.5485111   19.6372030
| 43> *
| 44>
| 45>                          ****END OF INPUT****

CARTESIAN COORDINATES (ANGSTROEM)
---------------------------------
  C     13.936525   16.743349   15.341059
  C     15.104973   15.795541   15.664134
  O     16.255020   16.150949   14.868734
  C     17.389147   16.608985   15.480376
  O     18.479805   16.113732   15.265584
  C     17.174525   17.671568   16.505235
  C     16.715968   18.892838   16.137935
  C     16.187051   19.314480   14.781190
  N     16.807540   19.979818   17.008913
  C     17.551703   19.983002   18.159455
  S     17.709562   21.339520   19.091800
  N     18.183015   18.807119   18.483857
  C     17.995053   17.520196   17.784898
  C     17.501051   16.379609   18.661286
  C     18.085816   15.104961   18.557258
  C     17.616016   14.038186   19.341293
  C     16.550006   14.247662   20.233063
  C     15.960666   15.515529   20.332727
  O     14.923736   15.717731   21.183772
  C     16.429086   16.575384   19.549458
  H     14.086799   17.725289   15.801487
  H     12.997862   16.334074   15.734391
  H     13.824788   16.871092   14.256960
  H     15.324770   15.805696   16.740666
  H     14.807139   14.772070   15.401108
  H     16.194401   18.505596   14.042676
  H     16.801746   20.121637   14.362555
  H     15.156651   19.682430   14.854344
  H     16.386635   20.861101   16.759636
  H     18.723663   18.835275   19.339382
  H     19.026638   17.324374   17.455500
  H     18.902305   14.939635   17.856770
  H     18.076231   13.055292   19.253061
  H     16.183710   13.425941   20.839778
  H     14.780634   14.891827   21.670457
  H     15.956762   17.548511   19.637203

 Total Charge           Charge          ....    0
 Multiplicity           Mult            ....    1
 Number of Electrons    NEL             ....  154
 Basis Dimension        Dim             ....  828

ORBITAL ENERGIES
----------------

  NO   OCC          E(Eh)            E(eV)
   0   2.0000     -91.889719     -2500.4464
   1   2.0000     -20.601041      -560.5828
   2   2.0000     -20.595847      -560.4415
   3   2.0000     -20.554778      -559.3239
   4   2.0000     -15.627257      -425.2393
   5   2.0000     -15.609632      -424.7597
   6   2.0000     -11.397714      -310.1476
   7   2.0000     -11.385720      -309.8212
   8   2.0000     -11.333755      -308.4072
   9   2.0000     -11.318723      -307.9981
  10   2.0000     -11.310309      -307.7692
  11   2.0000     -11.305624      -307.6417
  12   2.0000     -11.266018      -306.5639
  13   2.0000     -11.262856      -306.4779
  14   2.0000     -11.262790      -306.4761
  15   2.0000     -11.259036      -306.3739
  16   2.0000     -11.247776      -306.0675
  17   2.0000     -11.243686      -305.9562
  18   2.0000     -11.241209      -305.8888
  19   2.0000     -11.235995      -305.7470
  20   2.0000      -8.894823      -242.0404
  21   2.0000      -6.576404      -178.9530
  22   2.0000      -6.574392      -178.8983
  23   2.0000      -6.573809      -178.8824
  24   2.0000      -1.450034       -39.4574
  25   2.0000      -1.420772       -38.6612
  26   2.0000      -1.362951       -37.0878
  27   2.0000      -1.340767       -36.4841
  28   2.0000      -1.239390       -33.7255
  29   2.0000      -1.162763       -31.6404
  30   2.0000      -1.126016       -30.6404
  31   2.0000      -1.048894       -28.5418
  32   2.0000      -1.039917       -28.2976
  33   2.0000      -1.020369       -27.7657
  34   2.0000      -1.005514       -27.3614
  35   2.0000      -0.989660       -26.9300
  36   2.0000      -0.926632       -25.2149
  37   2.0000      -0.888248       -24.1704
  38   2.0000      -0.852681       -23.2026
  39   2.0000      -0.842798       -22.9337
  40   2.0000      -0.838528       -22.8175
  41   2.0000      -0.835724       -22.7412
  42   2.0000      -0.759064       -20.6552
  43   2.0000      -0.737689       -20.0735
  44   2.0000      -0.731711       -19.9109
  45   2.0000      -0.698551       -19.0085
  46   2.0000      -0.689876       -18.7725
  47   2.0000      -0.683988       -18.6123
  48   2.0000      -0.675138       -18.3714
  49   2.0000      -0.663950       -18.0670
  50   2.0000      -0.652864       -17.7653
  51   2.0000      -0.639870       -17.4117
  52   2.0000      -0.633622       -17.2417
  53   2.0000      -0.621145       -16.9022
  54   2.0000      -0.611386       -16.6366
  55   2.0000      -0.607052       -16.5187
  56   2.0000      -0.604335       -16.4448
  57   2.0000      -0.583406       -15.8753
  58   2.0000      -0.578910       -15.7529
  59   2.0000      -0.576235       -15.6801
  60   2.0000      -0.563710       -15.3393
  61   2.0000      -0.557299       -15.1649
  62   2.0000      -0.543804       -14.7977
  63   2.0000      -0.530968       -14.4484
  64   2.0000      -0.523121       -14.2348
  65   2.0000      -0.514853       -14.0099
  66   2.0000      -0.502430       -13.6718
  67   2.0000      -0.497397       -13.5349
  68   2.0000      -0.490262       -13.3407
  69   2.0000      -0.469263       -12.7693
  70   2.0000      -0.459154       -12.4942
  71   2.0000      -0.452256       -12.3065
  72   2.0000      -0.356883        -9.7113
  73   2.0000      -0.353343        -9.6150
  74   2.0000      -0.329302        -8.9608
  75   2.0000      -0.326229        -8.8772
  76   2.0000      -0.320189        -8.7128
  77   0.0000       0.085205         2.3186
  78   0.0000       0.101903         2.7729
  79   0.0000       0.118961         3.2371
  80   0.0000       0.127191         3.4610
  81   0.0000       0.129086         3.5126

MULLIKEN ATOMIC CHARGES
-----------------------
   0 C :   -0.300227
   1 C :    0.022552
   2 O :   -0.340192
   3 C :    0.435867
   4 O :   -0.372946
   5 C :   -0.214479
   6 C :    0.129334
   7 C :   -0.336894
   8 N :   -0.135688
   9 C :    0.207189
  10 S :   -0.442594
  11 N :   -0.221375
  12 C :    0.068340
  13 C :    0.002102
  14 C :   -0.209778
  15 C :   -0.130780
  16 C :   -0.275317
  17 C :    0.313525
  18 O :   -0.355455
  19 C :   -0.242257
  20 H :    0.090130
  21 H :    0.114805
  22 H :    0.106487
  23 H :    0.108113
  24 H :    0.123086
  25 H :    0.135412
  26 H :    0.144525
  27 H :    0.120253
  28 H :    0.197782
  29 H :    0.201623
  30 H :    0.166031
  31 H :    0.176820
  32 H :    0.164978
  33 H :    0.133069
  34 H :    0.241470
  35 H :    0.174488
Sum of atomic charges:   -0.0000000

LOEWDIN ATOMIC CHARGES
----------------------
   0 C :    0.105211
   1 C :   -0.016018
   2 O :    0.297249
   3 C :   -0.418721
   4 O :    0.126972
   5 C :   -0.087979
   6 C :   -0.087910
   7 C :    0.124307
   8 N :    0.403805
   9 C :   -0.456193
  10 S :   -0.037999
  11 N :    0.395723
  12 C :   -0.050113
  13 C :   -0.045512
  14 C :    0.018870
  15 C :    0.044791
  16 C :    0.000253
  17 C :   -0.191948
  18 O :    0.395558
  19 C :    0.026836
  20 H :   -0.033439
  21 H :   -0.022720
  22 H :   -0.024864
  23 H :   -0.029243
  24 H :   -0.023361
  25 H :   -0.011150
  26 H :   -0.010180
  27 H :   -0.018031
  28 H :   -0.056097
  29 H :   -0.063957
  30 H :   -0.004413
  31 H :   -0.021297
  32 H :   -0.018320
  33 H :   -0.034478
  34 H :   -0.152882
  35 H :   -0.022753

  Mayer bond orders larger than 0.100000
B(  0-C ,  1-C ) :   0.9677 B(  0-C , 20-H ) :   0.9763 B(  0-C , 21-H ) :   0.9783
B(  0-C , 22-H ) :   0.9746 B(  1-C ,  2-O ) :   0.8991 B(  1-C , 23-H ) :   0.9614
B(  1-C , 24-H ) :   0.9847 B(  2-O ,  3-C ) :   1.1400 B(  3-C ,  4-O ) :   2.1076
B(  3-C ,  5-C ) :   0.9191 B(  5-C ,  6-C ) :   1.7153 B(  5-C , 12-C ) :   0.9411
B(  6-C ,  7-C ) :   0.9513 B(  6-C ,  8-N ) :   1.1088 B(  7-C , 25-H ) :   0.9737
B(  7-C , 26-H ) :   0.9683 B(  7-C , 27-H ) :   0.9659 B(  8-N ,  9-C ) :   1.1967
B(  8-N , 28-H ) :   0.9504 B(  9-C , 10-S ) :   1.6112 B(  9-C , 11-N ) :   1.2912
B( 11-N , 12-C ) :   0.9853 B( 11-N , 29-H ) :   0.9478 B( 12-C , 13-C ) :   0.9652
B( 12-C , 30-H ) :   0.9915 B( 13-C , 14-C ) :   1.3862 B( 13-C , 19-C ) :   1.3520
B( 14-C , 15-C ) :   1.3954 B( 14-C , 31-H ) :   0.9588 B( 15-C , 16-C ) :   1.3624
B( 15-C , 32-H ) :   0.9698 B( 16-C , 17-C ) :   1.3309 B( 16-C , 33-H ) :   0.9842
B( 17-C , 18-O ) :   1.1104 B( 17-C , 19-C ) :   1.3641 B( 18-O , 34-H ) :   0.9791
B( 19-C , 35-H ) :   0.9567

MP2 TOTAL ENERGY:    -1274.329102189 Eh
FINAL SINGLE POINT ENERGY     -1274.329102189386

DIPOLE MOMENT
-------------
                                X             Y             Z
Electronic contribution:     10.09067       5.78091       8.05139
Nuclear contribution   :    -11.55612      -7.18833      -8.32566
                        -----------------------------------------
Total Dipole Moment    :     -1.46545      -1.40742      -0.27428
                        -----------------------------------------
Magnitude (a.u.)       :      2.05026
Magnitude (Debye)      :      5.21136

Rotational constants in cm-1:     0.011167     0.009092     0.006493
Rotational constants in MHz :   334.766822   272.567657   194.645236

                             ****ORCA TERMINATED NORMALLY****
TOTAL RUN TIME: 0 days 2 hours 12 minutes 51 seconds 435 msec
