                         Program Version 4.2.0 -  RELEASE  -
|  1> ! ri-mp2 cc-pvtz cc-pvtz/c TightSCF NoKeepInts
|  2>
|  3> %scf
|  4>   MaxCore 4096
|  5> end
|  6> *xyz  0  1
|  7>     C       14.1805128   15.0086408   14.8857258
|  8>     C       14.8862817   16.2562066   15.4413262
|  9>     O       16.1915327   16.3111879   14.8373670
| 10>     C       17.2716381   16.4565547   15.6576234
| 11>     O       18.1485516   15.6140850   15.7120544
| 12>     C       17.2477077   17.6679274   16.5380691
| 13>     C       16.9585933   18.8973624   16.0422914
| 14>     C       16.4488772   19.2333513   14.6545889
| 15>     N       17.2074482   20.0457921   16.7971267
| 16>     C       17.9535875   20.0664673   17.9455874
| 17>     S       18.3023569   21.4782785   18.7326386
| 18>     N       18.4153563   18.8548670   18.3969695
| 19>     C       18.0430691   17.5398144   17.8385705
| 20>     C       17.3843156   16.6007840   18.8388215
| 21>     C       17.8237953   15.2706799   18.9622964
| 22>     C       17.2055802   14.3955781   19.8709237
| 23>     C       16.1374161   14.8542131   20.6608857
| 24>     C       15.6937629   16.1778362   20.5354443
| 25>     O       14.6563837   16.6208038   21.2893341
| 26>     C       16.3101181   17.0463915   19.6288482
| 27>     H       14.7492046   14.1028477   15.1322924
| 28>     H       14.0868400   15.0702568   13.7942817
| 29>     H       13.1753238   14.9100530   15.3132192
| 30>     H       14.3073002   17.1552853   15.1974828
| 31>     H       14.9557359   16.1687446   16.5351387
| 32>     H       16.9119467   18.5946576   13.8915922
| 33>     H       16.6796048   20.2674788   14.3693297
| 34>     H       15.3624519   19.1077703   14.5892771
| 35>     H       16.9022930   20.9456945   16.4613956
| 36>     H       18.9551405   18.8966418   19.2524970
| 37>     H       19.0341719   17.1593161   17.5494945
| 38>     H       18.6406286   14.9109195   18.3398717
| 39>     H       17.5524855   13.3670512   19.9555491
| 40>     H       15.6563754   14.1808228   21.3626132
| 41>     H       14.3984921   15.8983266   21.8816842
| 42>     H       15.9521198   18.0673114   19.5457883
| 43> *
| 44>
| 45>                          ****END OF INPUT****

CARTESIAN COORDINATES (ANGSTROEM)
---------------------------------
  C     14.180513   15.008641   14.885726
  C     14.886282   16.256207   15.441326
  O     16.191533   16.311188   14.837367
  C     17.271638   16.456555   15.657623
  O     18.148552   15.614085   15.712054
  C     17.247708   17.667927   16.538069
  C     16.958593   18.897362   16.042291
  C     16.448877   19.233351   14.654589
  N     17.207448   20.045792   16.797127
  C     17.953588   20.066467   17.945587
  S     18.302357   21.478278   18.732639
  N     18.415356   18.854867   18.396970
  C     18.043069   17.539814   17.838570
  C     17.384316   16.600784   18.838822
  C     17.823795   15.270680   18.962296
  C     17.205580   14.395578   19.870924
  C     16.137416   14.854213   20.660886
  C     15.693763   16.177836   20.535444
  O     14.656384   16.620804   21.289334
  C     16.310118   17.046391   19.628848
  H     14.749205   14.102848   15.132292
  H     14.086840   15.070257   13.794282
  H     13.175324   14.910053   15.313219
  H     14.307300   17.155285   15.197483
  H     14.955736   16.168745   16.535139
  H     16.911947   18.594658   13.891592
  H     16.679605   20.267479   14.369330
  H     15.362452   19.107770   14.589277
  H     16.902293   20.945694   16.461396
  H     18.955140   18.896642   19.252497
  H     19.034172   17.159316   17.549495
  H     18.640629   14.910920   18.339872
  H     17.552485   13.367051   19.955549
  H     15.656375   14.180823   21.362613
  H     14.398492   15.898327   21.881684
  H     15.952120   18.067311   19.545788

 Total Charge           Charge          ....    0
 Multiplicity           Mult            ....    1
 Number of Electrons    NEL             ....  154
 Basis Dimension        Dim             ....  828

ORBITAL ENERGIES
----------------

  NO   OCC          E(Eh)            E(eV)
   0   2.0000     -91.890176     -2500.4588
   1   2.0000     -20.597586      -560.4888
   2   2.0000     -20.594754      -560.4118
   3   2.0000     -20.553382      -559.2860
   4   2.0000     -15.629900      -425.3112
   5   2.0000     -15.608619      -424.7321
   6   2.0000     -11.395881      -310.0977
   7   2.0000     -11.385487      -309.8149
   8   2.0000     -11.338081      -308.5249
   9   2.0000     -11.314386      -307.8801
  10   2.0000     -11.307432      -307.6909
  11   2.0000     -11.307215      -307.6850
  12   2.0000     -11.264465      -306.5217
  13   2.0000     -11.261654      -306.4452
  14   2.0000     -11.261600      -306.4437
  15   2.0000     -11.254315      -306.2455
  16   2.0000     -11.243932      -305.9630
  17   2.0000     -11.240191      -305.8611
  18   2.0000     -11.236697      -305.7661
  19   2.0000     -11.231863      -305.6345
  20   2.0000      -8.895266      -242.0525
  21   2.0000      -6.576842      -178.9650
  22   2.0000      -6.574836      -178.9104
  23   2.0000      -6.574248      -178.8944
  24   2.0000      -1.452198       -39.5163
  25   2.0000      -1.417334       -38.5676
  26   2.0000      -1.362774       -37.0830
  27   2.0000      -1.341692       -36.5093
  28   2.0000      -1.239262       -33.7220
  29   2.0000      -1.158676       -31.5292
  30   2.0000      -1.124509       -30.5995
  31   2.0000      -1.046701       -28.4822
  32   2.0000      -1.038510       -28.2593
  33   2.0000      -1.016384       -27.6572
  34   2.0000      -1.003951       -27.3189
  35   2.0000      -0.988209       -26.8905
  36   2.0000      -0.924971       -25.1697
  37   2.0000      -0.880712       -23.9654
  38   2.0000      -0.854882       -23.2625
  39   2.0000      -0.842386       -22.9225
  40   2.0000      -0.835673       -22.7398
  41   2.0000      -0.833821       -22.6894
  42   2.0000      -0.757290       -20.6069
  43   2.0000      -0.737960       -20.0809
  44   2.0000      -0.730915       -19.8892
  45   2.0000      -0.695341       -18.9212
  46   2.0000      -0.688039       -18.7225
  47   2.0000      -0.681560       -18.5462
  48   2.0000      -0.675585       -18.3836
  49   2.0000      -0.664126       -18.0718
  50   2.0000      -0.655007       -17.8236
  51   2.0000      -0.646997       -17.6057
  52   2.0000      -0.639160       -17.3924
  53   2.0000      -0.610406       -16.6100
  54   2.0000      -0.604515       -16.4497
  55   2.0000      -0.601186       -16.3591
  56   2.0000      -0.596343       -16.2273
  57   2.0000      -0.582330       -15.8460
  58   2.0000      -0.577612       -15.7176
  59   2.0000      -0.569158       -15.4876
  60   2.0000      -0.563387       -15.3305
  61   2.0000      -0.558554       -15.1990
  62   2.0000      -0.546595       -14.8736
  63   2.0000      -0.523527       -14.2459
  64   2.0000      -0.516492       -14.0545
  65   2.0000      -0.513710       -13.9787
  66   2.0000      -0.501544       -13.6477
  67   2.0000      -0.499086       -13.5808
  68   2.0000      -0.488937       -13.3047
  69   2.0000      -0.470855       -12.8126
  70   2.0000      -0.458676       -12.4812
  71   2.0000      -0.452283       -12.3073
  72   2.0000      -0.356291        -9.6952
  73   2.0000      -0.350090        -9.5264
  74   2.0000      -0.329419        -8.9639
  75   2.0000      -0.321704        -8.7540
  76   2.0000      -0.319726        -8.7002
  77   0.0000       0.076583         2.0839
  78   0.0000       0.105086         2.8595
  79   0.0000       0.118503         3.2246
  80   0.0000       0.131664         3.5828
  81   0.0000       0.134873         3.6701

MULLIKEN ATOMIC CHARGES
-----------------------
   0 C :   -0.250882
   1 C :    0.022058
   2 O :   -0.343895
   3 C :    0.442752
   4 O :   -0.378569
   5 C :   -0.233786
   6 C :    0.156403
   7 C :   -0.307878
   8 N :   -0.132774
   9 C :    0.206754
  10 S :   -0.440627
  11 N :   -0.216208
  12 C :    0.060066
  13 C :    0.023705
  14 C :   -0.200247
  15 C :   -0.129921
  16 C :   -0.277333
  17 C :    0.313934
  18 O :   -0.357221
  19 C :   -0.252743
  20 H :    0.107280
  21 H :    0.097130
  22 H :    0.088423
  23 H :    0.088489
  24 H :    0.102946
  25 H :    0.138049
  26 H :    0.114978
  27 H :    0.121044
  28 H :    0.198344
  29 H :    0.200742
  30 H :    0.161546
  31 H :    0.171974
  32 H :    0.163341
  33 H :    0.131035
  34 H :    0.241001
  35 H :    0.170090
Sum of atomic charges:   -0.0000000

LOEWDIN ATOMIC CHARGES
----------------------
   0 C :    0.110105
   1 C :   -0.022409
   2 O :    0.302056
   3 C :   -0.423086
   4 O :    0.126230
   5 C :   -0.094050
   6 C :   -0.075157
   7 C :    0.128206
   8 N :    0.404334
   9 C :   -0.457635
  10 S :   -0.036479
  11 N :    0.395939
  12 C :   -0.049411
  13 C :   -0.043844
  14 C :    0.022054
  15 C :    0.043201
  16 C :   -0.000523
  17 C :   -0.193039
  18 O :    0.394054
  19 C :    0.026996
  20 H :   -0.021137
  21 H :   -0.025938
  22 H :   -0.026549
  23 H :   -0.036755
  24 H :   -0.027813
  25 H :   -0.006324
  26 H :   -0.016251
  27 H :   -0.016219
  28 H :   -0.057889
  29 H :   -0.063490
  30 H :   -0.005760
  31 H :   -0.021788
  32 H :   -0.019340
  33 H :   -0.035183
  34 H :   -0.153579
  35 H :   -0.023529

  Mayer bond orders larger than 0.100000
B(  0-C ,  1-C ) :   0.9850 B(  0-C , 20-H ) :   0.9768 B(  0-C , 21-H ) :   0.9784
B(  0-C , 22-H ) :   0.9759 B(  1-C ,  2-O ) :   0.8951 B(  1-C , 23-H ) :   0.9750
B(  1-C , 24-H ) :   0.9668 B(  2-O ,  3-C ) :   1.1305 B(  3-C ,  4-O ) :   2.0818
B(  3-C ,  5-C ) :   0.9640 B(  5-C ,  6-C ) :   1.6929 B(  5-C , 12-C ) :   0.9439
B(  6-C ,  7-C ) :   0.9410 B(  6-C ,  8-N ) :   1.1250 B(  7-C , 25-H ) :   0.9671
B(  7-C , 26-H ) :   0.9862 B(  7-C , 27-H ) :   0.9677 B(  8-N ,  9-C ) :   1.1894
B(  8-N , 28-H ) :   0.9488 B(  9-C , 10-S ) :   1.6120 B(  9-C , 11-N ) :   1.2969
B( 11-N , 12-C ) :   0.9845 B( 11-N , 29-H ) :   0.9485 B( 12-C , 13-C ) :   0.9685
B( 12-C , 30-H ) :   0.9919 B( 13-C , 14-C ) :   1.3851 B( 13-C , 19-C ) :   1.3564
B( 14-C , 15-C ) :   1.3945 B( 14-C , 31-H ) :   0.9595 B( 15-C , 16-C ) :   1.3609
B( 15-C , 32-H ) :   0.9703 B( 16-C , 17-C ) :   1.3317 B( 16-C , 33-H ) :   0.9849
B( 17-C , 18-O ) :   1.1075 B( 17-C , 19-C ) :   1.3654 B( 18-O , 34-H ) :   0.9797
B( 19-C , 35-H ) :   0.9579

MP2 TOTAL ENERGY:    -1274.328998537 Eh
FINAL SINGLE POINT ENERGY     -1274.328998537089

DIPOLE MOMENT
-------------
                                X             Y             Z
Electronic contribution:     10.39771       9.21973       8.84364
Nuclear contribution   :    -11.98555     -10.30658      -9.27011
                        -----------------------------------------
Total Dipole Moment    :     -1.58784      -1.08684      -0.42647
                        -----------------------------------------
Magnitude (a.u.)       :      1.97087
Magnitude (Debye)      :      5.00956

Rotational constants in cm-1:     0.010533     0.009201     0.006079
Rotational constants in MHz :   315.774864   275.851692   182.232055

                             ****ORCA TERMINATED NORMALLY****
TOTAL RUN TIME: 0 days 1 hours 39 minutes 55 seconds 852 msec
