                         Program Version 4.2.0 -  RELEASE  -
|  1> ! ri-mp2 cc-pvtz cc-pvtz/c TightSCF NoKeepInts
|  2>
|  3> %scf
|  4>   MaxCore 4096
|  5> end
|  6> *xyz  0  1
|  7>     C       14.6335066   15.6483856   16.3714990
|  8>     C       15.6688164   15.0381909   15.4064358
|  9>     O       16.9843843   15.6126772   15.5603796
| 10>     C       17.1683077   16.9089778   15.1847767
| 11>     O       17.2214339   17.1997885   14.0034479
| 12>     C       17.0989261   17.9012170   16.3142147
| 13>     C       16.9282527   19.2197927   16.0369865
| 14>     C       16.3935953   19.8214721   14.7536468
| 15>     N       17.2298683   20.2033856   16.9807773
| 16>     C       17.9434763   19.9767811   18.1257151
| 17>     S       18.3847898   21.2043724   19.1421485
| 18>     N       18.2965844   18.6748097   18.3741350
| 19>     C       17.8240251   17.5009044   17.6136167
| 20>     C       17.1315277   16.4785322   18.5041585
| 21>     C       17.5816616   15.1462522   18.5555854
| 22>     C       16.9617493   14.2154079   19.4061379
| 23>     C       15.8911102   14.6228459   20.2205808
| 24>     C       15.4490872   15.9525182   20.1813151
| 25>     O       14.4158555   16.3486383   20.9660345
| 26>     C       16.0651251   16.8758403   19.3303538
| 27>     H       14.8508655   15.3586341   17.4036879
| 28>     H       13.6322388   15.2701535   16.1325795
| 29>     H       14.5998453   16.7417092   16.3036883
| 30>     H       15.7256220   13.9571614   15.5877842
| 31>     H       15.3295176   15.1807472   14.3711975
| 32>     H       17.1827935   19.8654376   13.9918017
| 33>     H       16.0003204   20.8356355   14.8912353
| 34>     H       15.5781101   19.2116912   14.3449147
| 35>     H       17.0087451   21.1673812   16.7883789
| 36>     H       18.8066971   18.5345257   19.2373453
| 37>     H       18.7967951   17.1096412   17.2829755
| 38>     H       18.4098594   14.8298013   17.9264699
| 39>     H       17.3133640   13.1854043   19.4340034
| 40>     H       15.4107532   13.9076289   20.8802727
| 41>     H       14.1560258   15.5912557   21.5119179
| 42>     H       15.7133636   17.9024019   19.3178019
| 43> *
| 44>
| 45>                          ****END OF INPUT****

CARTESIAN COORDINATES (ANGSTROEM)
---------------------------------
  C     14.633507   15.648386   16.371499
  C     15.668816   15.038191   15.406436
  O     16.984384   15.612677   15.560380
  C     17.168308   16.908978   15.184777
  O     17.221434   17.199789   14.003448
  C     17.098926   17.901217   16.314215
  C     16.928253   19.219793   16.036987
  C     16.393595   19.821472   14.753647
  N     17.229868   20.203386   16.980777
  C     17.943476   19.976781   18.125715
  S     18.384790   21.204372   19.142149
  N     18.296584   18.674810   18.374135
  C     17.824025   17.500904   17.613617
  C     17.131528   16.478532   18.504158
  C     17.581662   15.146252   18.555585
  C     16.961749   14.215408   19.406138
  C     15.891110   14.622846   20.220581
  C     15.449087   15.952518   20.181315
  O     14.415855   16.348638   20.966034
  C     16.065125   16.875840   19.330354
  H     14.850865   15.358634   17.403688
  H     13.632239   15.270153   16.132579
  H     14.599845   16.741709   16.303688
  H     15.725622   13.957161   15.587784
  H     15.329518   15.180747   14.371197
  H     17.182793   19.865438   13.991802
  H     16.000320   20.835635   14.891235
  H     15.578110   19.211691   14.344915
  H     17.008745   21.167381   16.788379
  H     18.806697   18.534526   19.237345
  H     18.796795   17.109641   17.282975
  H     18.409859   14.829801   17.926470
  H     17.313364   13.185404   19.434003
  H     15.410753   13.907629   20.880273
  H     14.156026   15.591256   21.511918
  H     15.713364   17.902402   19.317802

 Total Charge           Charge          ....    0
 Multiplicity           Mult            ....    1
 Number of Electrons    NEL             ....  154
 Basis Dimension        Dim             ....  828

ORBITAL ENERGIES
----------------

  NO   OCC          E(Eh)            E(eV)
   0   2.0000     -91.891174     -2500.4860
   1   2.0000     -20.599247      -560.5340
   2   2.0000     -20.581799      -560.0592
   3   2.0000     -20.551615      -559.2379
   4   2.0000     -15.630528      -425.3283
   5   2.0000     -15.609381      -424.7529
   6   2.0000     -11.393370      -310.0294
   7   2.0000     -11.385396      -309.8124
   8   2.0000     -11.337639      -308.5128
   9   2.0000     -11.316530      -307.9384
  10   2.0000     -11.312727      -307.8349
  11   2.0000     -11.300574      -307.5042
  12   2.0000     -11.263764      -306.5026
  13   2.0000     -11.259242      -306.3795
  14   2.0000     -11.258016      -306.3462
  15   2.0000     -11.254467      -306.2496
  16   2.0000     -11.247289      -306.0543
  17   2.0000     -11.241845      -305.9062
  18   2.0000     -11.241244      -305.8898
  19   2.0000     -11.224127      -305.4240
  20   2.0000      -8.896217      -242.0784
  21   2.0000      -6.577782      -178.9905
  22   2.0000      -6.575791      -178.9364
  23   2.0000      -6.575192      -178.9201
  24   2.0000      -1.448331       -39.4111
  25   2.0000      -1.419068       -38.6148
  26   2.0000      -1.354119       -36.8475
  27   2.0000      -1.342639       -36.5351
  28   2.0000      -1.240846       -33.7651
  29   2.0000      -1.160299       -31.5733
  30   2.0000      -1.122824       -30.5536
  31   2.0000      -1.045562       -28.4512
  32   2.0000      -1.032583       -28.0980
  33   2.0000      -1.018081       -27.7034
  34   2.0000      -1.001287       -27.2464
  35   2.0000      -0.988036       -26.8858
  36   2.0000      -0.924688       -25.1620
  37   2.0000      -0.893137       -24.3035
  38   2.0000      -0.848818       -23.0975
  39   2.0000      -0.841452       -22.8971
  40   2.0000      -0.837195       -22.7812
  41   2.0000      -0.819425       -22.2977
  42   2.0000      -0.753843       -20.5131
  43   2.0000      -0.736157       -20.0318
  44   2.0000      -0.724726       -19.7208
  45   2.0000      -0.697610       -18.9829
  46   2.0000      -0.690320       -18.7846
  47   2.0000      -0.674899       -18.3649
  48   2.0000      -0.672045       -18.2873
  49   2.0000      -0.668390       -18.1878
  50   2.0000      -0.648435       -17.6448
  51   2.0000      -0.646636       -17.5959
  52   2.0000      -0.636597       -17.3227
  53   2.0000      -0.610601       -16.6153
  54   2.0000      -0.607564       -16.5326
  55   2.0000      -0.601687       -16.3727
  56   2.0000      -0.599012       -16.2999
  57   2.0000      -0.579075       -15.7574
  58   2.0000      -0.573883       -15.6161
  59   2.0000      -0.566215       -15.4075
  60   2.0000      -0.563712       -15.3394
  61   2.0000      -0.550387       -14.9768
  62   2.0000      -0.541845       -14.7443
  63   2.0000      -0.525354       -14.2956
  64   2.0000      -0.521300       -14.1853
  65   2.0000      -0.514506       -14.0004
  66   2.0000      -0.503498       -13.7009
  67   2.0000      -0.501849       -13.6560
  68   2.0000      -0.476882       -12.9766
  69   2.0000      -0.464191       -12.6313
  70   2.0000      -0.453568       -12.3422
  71   2.0000      -0.449291       -12.2258
  72   2.0000      -0.356125        -9.6906
  73   2.0000      -0.350069        -9.5259
  74   2.0000      -0.330099        -8.9825
  75   2.0000      -0.324515        -8.8305
  76   2.0000      -0.320770        -8.7286
  77   0.0000       0.071706         1.9512
  78   0.0000       0.102257         2.7826
  79   0.0000       0.120323         3.2742
  80   0.0000       0.129260         3.5173
  81   0.0000       0.130987         3.5643

MULLIKEN ATOMIC CHARGES
-----------------------
   0 C :   -0.321137
   1 C :    0.038535
   2 O :   -0.378289
   3 C :    0.467645
   4 O :   -0.389022
   5 C :   -0.239688
   6 C :    0.160105
   7 C :   -0.271362
   8 N :   -0.126863
   9 C :    0.206371
  10 S :   -0.436684
  11 N :   -0.212122
  12 C :    0.032614
  13 C :    0.015354
  14 C :   -0.181270
  15 C :   -0.136445
  16 C :   -0.271896
  17 C :    0.301362
  18 O :   -0.358819
  19 C :   -0.220435
  20 H :    0.115270
  21 H :    0.117831
  22 H :    0.097653
  23 H :    0.112482
  24 H :    0.108777
  25 H :    0.138705
  26 H :    0.094868
  27 H :    0.121543
  28 H :    0.199846
  29 H :    0.200172
  30 H :    0.152012
  31 H :    0.158441
  32 H :    0.163527
  33 H :    0.132779
  34 H :    0.240806
  35 H :    0.167334
Sum of atomic charges:   -0.0000000

LOEWDIN ATOMIC CHARGES
----------------------
   0 C :    0.106174
   1 C :   -0.018342
   2 O :    0.289099
   3 C :   -0.423519
   4 O :    0.124985
   5 C :   -0.100465
   6 C :   -0.060011
   7 C :    0.129384
   8 N :    0.407823
   9 C :   -0.458838
  10 S :   -0.032920
  11 N :    0.396097
  12 C :   -0.052709
  13 C :   -0.042642
  14 C :    0.021091
  15 C :    0.038968
  16 C :   -0.001479
  17 C :   -0.193769
  18 O :    0.396150
  19 C :    0.033581
  20 H :   -0.026593
  21 H :   -0.024820
  22 H :   -0.033557
  23 H :   -0.021079
  24 H :   -0.029082
  25 H :   -0.004292
  26 H :   -0.022633
  27 H :   -0.007597
  28 H :   -0.056625
  29 H :   -0.063280
  30 H :   -0.011713
  31 H :   -0.026733
  32 H :   -0.020129
  33 H :   -0.034695
  34 H :   -0.153431
  35 H :   -0.022400

  Mayer bond orders larger than 0.100000
B(  0-C ,  1-C ) :   0.9586 B(  0-C , 20-H ) :   0.9715 B(  0-C , 21-H ) :   0.9778
B(  0-C , 22-H ) :   0.9707 B(  1-C ,  2-O ) :   0.8895 B(  1-C , 23-H ) :   0.9840
B(  1-C , 24-H ) :   0.9835 B(  2-O ,  3-C ) :   1.1067 B(  3-C ,  4-O ) :   2.0595
B(  3-C ,  5-C ) :   1.0240 B(  5-C ,  6-C ) :   1.6405 B(  5-C , 12-C ) :   0.9642
B(  6-C ,  7-C ) :   0.9633 B(  6-C ,  8-N ) :   1.1455 B(  7-C , 25-H ) :   0.9556
B(  7-C , 26-H ) :   0.9865 B(  7-C , 27-H ) :   0.9696 B(  8-N ,  9-C ) :   1.1869
B(  8-N , 28-H ) :   0.9477 B(  9-C , 10-S ) :   1.6158 B(  9-C , 11-N ) :   1.2982
B( 11-N , 12-C ) :   0.9783 B( 11-N , 29-H ) :   0.9479 B( 12-C , 13-C ) :   0.9545
B( 12-C , 30-H ) :   1.0044 B( 13-C , 14-C ) :   1.3687 B( 13-C , 19-C ) :   1.3637
B( 14-C , 15-C ) :   1.3951 B( 14-C , 31-H ) :   0.9666 B( 15-C , 16-C ) :   1.3548
B( 15-C , 32-H ) :   0.9702 B( 16-C , 17-C ) :   1.3345 B( 16-C , 33-H ) :   0.9845
B( 17-C , 18-O ) :   1.1074 B( 17-C , 19-C ) :   1.3662 B( 18-O , 34-H ) :   0.9795
B( 19-C , 35-H ) :   0.9601

MP2 TOTAL ENERGY:    -1274.320692295 Eh
FINAL SINGLE POINT ENERGY     -1274.320692295486

DIPOLE MOMENT
-------------
                                X             Y             Z
Electronic contribution:      9.00377       8.71360       6.05301
Nuclear contribution   :    -10.19512     -10.36265      -6.10974
                        -----------------------------------------
Total Dipole Moment    :     -1.19136      -1.64905      -0.05672
                        -----------------------------------------
Magnitude (a.u.)       :      2.03517
Magnitude (Debye)      :      5.17299

Rotational constants in cm-1:     0.012038     0.009256     0.006185
Rotational constants in MHz :   360.888773   277.496524   185.423046

                             ****ORCA TERMINATED NORMALLY****
TOTAL RUN TIME: 0 days 2 hours 0 minutes 19 seconds 976 msec
