                         Program Version 4.2.0 -  RELEASE  -
|  1> ! ri-mp2 cc-pvtz cc-pvtz/c TightSCF NoKeepInts
|  2>
|  3> %scf
|  4>   MaxCore 4096
|  5> end
|  6> *xyz  0  1
|  7>     C       14.5788751   14.9676326   15.9524614
|  8>     C       15.9153010   14.8297976   15.1924576
|  9>     O       16.8173874   15.8787057   15.5925764
| 10>     C       16.4844137   17.1873068   15.3814351
| 11>     O       15.8010374   17.5312517   14.4318542
| 12>     C       16.9839433   18.0991720   16.4691783
| 13>     C       17.0022445   19.4454164   16.2951140
| 14>     C       16.3386190   20.2332587   15.1846157
| 15>     N       17.6949556   20.2757244   17.1792048
| 16>     C       18.5440895   19.8297873   18.1556476
| 17>     S       19.4045719   20.8707549   19.1104786
| 18>     N       18.6614072   18.4693392   18.2888917
| 19>     C       17.8622745   17.4656170   17.5608589
| 20>     C       17.1069248   16.5279195   18.4937455
| 21>     C       17.5034258   15.1852836   18.6349492
| 22>     C       16.7995977   14.3195797   19.4889844
| 23>     C       15.6929755   14.8017254   20.2090040
| 24>     C       15.2995334   16.1403775   20.0734729
| 25>     O       14.2311543   16.6081456   20.7666510
| 26>     C       16.0017597   16.9993571   19.2223826
| 27>     H       14.7503928   14.9981187   17.0358132
| 28>     H       13.9276358   14.1126794   15.7349116
| 29>     H       14.0433452   15.8790181   15.6589447
| 30>     H       16.3661327   13.8562955   15.4235510
| 31>     H       15.7349998   14.8747554   14.1097621
| 32>     H       16.7844020   19.9837057   14.2133015
| 33>     H       16.4211307   21.3183299   15.3178903
| 34>     H       15.2695527   19.9915200   15.1260927
| 35>     H       17.6344313   21.2762831   17.0780956
| 36>     H       19.2705760   18.1708748   19.0400407
| 37>     H       18.6584048   16.9256591   17.0288497
| 38>     H       18.3546327   14.8103218   18.0728780
| 39>     H       17.1116358   13.2815736   19.5904247
| 40>     H       15.1462696   14.1371120   20.8698808
| 41>     H       13.9029860   15.8841892   21.3208206
| 42>     H       15.6859810   18.0334108   19.1327790
| 43> *
| 44>
| 45>                          ****END OF INPUT****

CARTESIAN COORDINATES (ANGSTROEM)
---------------------------------
  C     14.578875   14.967633   15.952461
  C     15.915301   14.829798   15.192458
  O     16.817387   15.878706   15.592576
  C     16.484414   17.187307   15.381435
  O     15.801037   17.531252   14.431854
  C     16.983943   18.099172   16.469178
  C     17.002244   19.445416   16.295114
  C     16.338619   20.233259   15.184616
  N     17.694956   20.275724   17.179205
  C     18.544089   19.829787   18.155648
  S     19.404572   20.870755   19.110479
  N     18.661407   18.469339   18.288892
  C     17.862274   17.465617   17.560859
  C     17.106925   16.527919   18.493745
  C     17.503426   15.185284   18.634949
  C     16.799598   14.319580   19.488984
  C     15.692975   14.801725   20.209004
  C     15.299533   16.140377   20.073473
  O     14.231154   16.608146   20.766651
  C     16.001760   16.999357   19.222383
  H     14.750393   14.998119   17.035813
  H     13.927636   14.112679   15.734912
  H     14.043345   15.879018   15.658945
  H     16.366133   13.856295   15.423551
  H     15.735000   14.874755   14.109762
  H     16.784402   19.983706   14.213302
  H     16.421131   21.318330   15.317890
  H     15.269553   19.991520   15.126093
  H     17.634431   21.276283   17.078096
  H     19.270576   18.170875   19.040041
  H     18.658405   16.925659   17.028850
  H     18.354633   14.810322   18.072878
  H     17.111636   13.281574   19.590425
  H     15.146270   14.137112   20.869881
  H     13.902986   15.884189   21.320821
  H     15.685981   18.033411   19.132779

 Total Charge           Charge          ....    0
 Multiplicity           Mult            ....    1
 Number of Electrons    NEL             ....  154
 Basis Dimension        Dim             ....  828

ORBITAL ENERGIES
----------------

  NO   OCC          E(Eh)            E(eV)
   0   2.0000     -91.889446     -2500.4389
   1   2.0000     -20.598425      -560.5116
   2   2.0000     -20.594495      -560.4047
   3   2.0000     -20.541471      -558.9618
   4   2.0000     -15.629896      -425.3111
   5   2.0000     -15.607615      -424.7048
   6   2.0000     -11.394090      -310.0489
   7   2.0000     -11.384170      -309.7790
   8   2.0000     -11.337927      -308.5207
   9   2.0000     -11.315931      -307.9221
  10   2.0000     -11.308114      -307.7094
  11   2.0000     -11.296931      -307.4051
  12   2.0000     -11.262512      -306.4685
  13   2.0000     -11.258939      -306.3713
  14   2.0000     -11.257306      -306.3269
  15   2.0000     -11.252144      -306.1864
  16   2.0000     -11.245821      -306.0144
  17   2.0000     -11.240851      -305.8791
  18   2.0000     -11.240508      -305.8698
  19   2.0000     -11.222077      -305.3682
  20   2.0000      -8.894510      -242.0319
  21   2.0000      -6.576080      -178.9442
  22   2.0000      -6.574084      -178.8899
  23   2.0000      -6.573492      -178.8738
  24   2.0000      -1.448794       -39.4237
  25   2.0000      -1.418146       -38.5897
  26   2.0000      -1.352578       -36.8055
  27   2.0000      -1.340895       -36.4876
  28   2.0000      -1.238832       -33.7103
  29   2.0000      -1.159562       -31.5533
  30   2.0000      -1.121857       -30.5273
  31   2.0000      -1.044223       -28.4147
  32   2.0000      -1.033429       -28.1210
  33   2.0000      -1.017056       -27.6755
  34   2.0000      -0.996794       -27.1242
  35   2.0000      -0.985430       -26.8149
  36   2.0000      -0.922812       -25.1110
  37   2.0000      -0.895024       -24.3548
  38   2.0000      -0.847247       -23.0548
  39   2.0000      -0.839666       -22.8485
  40   2.0000      -0.836068       -22.7506
  41   2.0000      -0.815377       -22.1875
  42   2.0000      -0.751976       -20.4623
  43   2.0000      -0.735074       -20.0024
  44   2.0000      -0.722770       -19.6676
  45   2.0000      -0.697215       -18.9722
  46   2.0000      -0.689636       -18.7659
  47   2.0000      -0.677161       -18.4265
  48   2.0000      -0.671690       -18.2776
  49   2.0000      -0.661479       -17.9998
  50   2.0000      -0.647633       -17.6230
  51   2.0000      -0.639951       -17.4139
  52   2.0000      -0.635006       -17.2794
  53   2.0000      -0.612790       -16.6749
  54   2.0000      -0.608592       -16.5606
  55   2.0000      -0.601711       -16.3734
  56   2.0000      -0.600511       -16.3407
  57   2.0000      -0.578816       -15.7504
  58   2.0000      -0.570352       -15.5201
  59   2.0000      -0.566371       -15.4117
  60   2.0000      -0.554253       -15.0820
  61   2.0000      -0.545662       -14.8482
  62   2.0000      -0.533175       -14.5084
  63   2.0000      -0.530622       -14.4389
  64   2.0000      -0.525483       -14.2991
  65   2.0000      -0.513725       -13.9792
  66   2.0000      -0.501276       -13.6404
  67   2.0000      -0.498875       -13.5751
  68   2.0000      -0.480578       -13.0772
  69   2.0000      -0.464559       -12.6413
  70   2.0000      -0.454020       -12.3545
  71   2.0000      -0.444973       -12.1083
  72   2.0000      -0.353852        -9.6288
  73   2.0000      -0.351616        -9.5680
  74   2.0000      -0.328737        -8.9454
  75   2.0000      -0.323423        -8.8008
  76   2.0000      -0.318741        -8.6734
  77   0.0000       0.075310         2.0493
  78   0.0000       0.103079         2.8049
  79   0.0000       0.124325         3.3831
  80   0.0000       0.131450         3.5769
  81   0.0000       0.136258         3.7078

MULLIKEN ATOMIC CHARGES
-----------------------
   0 C :   -0.316532
   1 C :    0.022118
   2 O :   -0.366599
   3 C :    0.451250
   4 O :   -0.434649
   5 C :   -0.237489
   6 C :    0.175473
   7 C :   -0.267430
   8 N :   -0.126063
   9 C :    0.210859
  10 S :   -0.440986
  11 N :   -0.216275
  12 C :    0.069475
  13 C :    0.019053
  14 C :   -0.177762
  15 C :   -0.134502
  16 C :   -0.275082
  17 C :    0.309221
  18 O :   -0.358006
  19 C :   -0.231632
  20 H :    0.111655
  21 H :    0.102193
  22 H :    0.113462
  23 H :    0.112358
  24 H :    0.120046
  25 H :    0.129848
  26 H :    0.094861
  27 H :    0.133770
  28 H :    0.199740
  29 H :    0.200471
  30 H :    0.153451
  31 H :    0.155721
  32 H :    0.161413
  33 H :    0.131595
  34 H :    0.240831
  35 H :    0.164144
Sum of atomic charges:   -0.0000000

LOEWDIN ATOMIC CHARGES
----------------------
   0 C :    0.105278
   1 C :   -0.018020
   2 O :    0.302114
   3 C :   -0.416339
   4 O :    0.098327
   5 C :   -0.096373
   6 C :   -0.055901
   7 C :    0.131649
   8 N :    0.407377
   9 C :   -0.456141
  10 S :   -0.035855
  11 N :    0.394605
  12 C :   -0.053958
  13 C :   -0.040493
  14 C :    0.017109
  15 C :    0.038813
  16 C :   -0.001320
  17 C :   -0.190828
  18 O :    0.395955
  19 C :    0.033157
  20 H :   -0.025627
  21 H :   -0.026650
  22 H :   -0.026321
  23 H :   -0.025002
  24 H :   -0.028092
  25 H :   -0.004608
  26 H :   -0.023557
  27 H :   -0.004360
  28 H :   -0.057045
  29 H :   -0.064458
  30 H :   -0.012904
  31 H :   -0.028391
  32 H :   -0.020922
  33 H :   -0.035041
  34 H :   -0.153591
  35 H :   -0.022587

  Mayer bond orders larger than 0.100000
B(  0-C ,  1-C ) :   0.9568 B(  0-C , 20-H ) :   0.9693 B(  0-C , 21-H ) :   0.9783
B(  0-C , 22-H ) :   0.9749 B(  1-C ,  2-O ) :   0.8930 B(  1-C , 23-H ) :   0.9835
B(  1-C , 24-H ) :   0.9833 B(  2-O ,  3-C ) :   1.1395 B(  3-C ,  4-O ) :   1.9702
B(  3-C ,  5-C ) :   1.0676 B(  5-C ,  6-C ) :   1.6352 B(  5-C , 12-C ) :   0.9537
B(  6-C ,  7-C ) :   0.9647 B(  6-C ,  8-N ) :   1.1567 B(  7-C , 25-H ) :   0.9589
B(  7-C , 26-H ) :   0.9903 B(  7-C , 27-H ) :   0.9612 B(  8-N ,  9-C ) :   1.1864
B(  8-N , 28-H ) :   0.9463 B(  9-C , 10-S ) :   1.6069 B(  9-C , 11-N ) :   1.3092
B( 11-N , 12-C ) :   0.9688 B( 11-N , 29-H ) :   0.9485 B( 12-C , 13-C ) :   0.9603
B( 12-C , 30-H ) :   1.0005 B( 13-C , 14-C ) :   1.3557 B( 13-C , 19-C ) :   1.3831
B( 14-C , 15-C ) :   1.3920 B( 14-C , 31-H ) :   0.9707 B( 15-C , 16-C ) :   1.3570
B( 15-C , 32-H ) :   0.9712 B( 16-C , 17-C ) :   1.3339 B( 16-C , 33-H ) :   0.9849
B( 17-C , 18-O ) :   1.1061 B( 17-C , 19-C ) :   1.3644 B( 18-O , 34-H ) :   0.9796
B( 19-C , 35-H ) :   0.9588

MP2 TOTAL ENERGY:    -1274.342023646 Eh
FINAL SINGLE POINT ENERGY     -1274.342023646089

DIPOLE MOMENT
-------------
                                X             Y             Z
Electronic contribution:      9.25938      10.08891       6.87739
Nuclear contribution   :    -10.19597     -11.83678      -7.11759
                        -----------------------------------------
Total Dipole Moment    :     -0.93659      -1.74787      -0.24020
                        -----------------------------------------
Magnitude (a.u.)       :      1.99748
Magnitude (Debye)      :      5.07720

Rotational constants in cm-1:     0.012287     0.008621     0.006123
Rotational constants in MHz :   368.341046   258.460715   183.568448

                             ****ORCA TERMINATED NORMALLY****
TOTAL RUN TIME: 0 days 2 hours 0 minutes 12 seconds 802 msec
