                         Program Version 4.2.0 -  RELEASE  -
|  1> ! ri-mp2 cc-pvtz cc-pvtz/c TightSCF NoKeepInts
|  2>
|  3> %scf
|  4>   MaxCore 4096
|  5> end
|  6> *xyz  0  1
|  7>     C       14.4892023   16.4747405   16.2363985
|  8>     C       15.0784937   16.0572486   14.8700696
|  9>     O       16.5130231   15.8340878   14.8523222
| 10>     C       17.5451356   16.4590543   15.5165114
| 11>     O       18.6794547   16.0291356   15.4177839
| 12>     C       17.2324303   17.5655516   16.4645955
| 13>     C       16.8708481   18.7744111   15.9707868
| 14>     C       16.4806220   19.0949693   14.5418553
| 15>     N       16.9005503   19.9153770   16.7745590
| 16>     C       17.5288555   19.9796031   17.9903537
| 17>     S       17.6369400   21.3931964   18.8415189
| 18>     N       18.0885563   18.8132979   18.4516755
| 19>     C       17.9141056   17.4843583   17.8312813
| 20>     C       17.3107969   16.4217363   18.7370678
| 21>     C       17.8141336   15.1088119   18.7136375
| 22>     C       17.2496404   14.1131673   19.5281499
| 23>     C       16.1706778   14.4329597   20.3701448
| 24>     C       15.6632787   15.7394207   20.3905794
| 25>     O       14.6146017   16.0480675   21.1941043
| 26>     C       16.2268998   16.7288841   19.5785588
| 27>     H       14.9559887   15.9111895   17.0539249
| 28>     H       13.4159606   16.2492836   16.2579129
| 29>     H       14.5864049   17.5470518   16.4305007
| 30>     H       14.5924135   15.1256571   14.5518474
| 31>     H       14.8151718   16.8185847   14.1255916
| 32>     H       16.8560936   18.3514146   13.8282062
| 33>     H       16.8968128   20.0597718   14.2243677
| 34>     H       15.3908255   19.1499019   14.4348767
| 35>     H       16.5301442   20.7867101   16.4290937
| 36>     H       18.5468805   18.8859440   19.3514448
| 37>     H       18.9654741   17.2371812   17.6206033
| 38>     H       18.6414667   14.8584263   18.0522557
| 39>     H       17.6465285   13.0996762   19.5009789
| 40>     H       15.7306772   13.6662320   20.9992661
| 41>     H       14.3927840   15.2524130   21.7010060
| 42>     H       15.8151269   17.7324832   19.6041694
| 43> *
| 44>
| 45>                          ****END OF INPUT****

CARTESIAN COORDINATES (ANGSTROEM)
---------------------------------
  C     14.489202   16.474740   16.236398
  C     15.078494   16.057249   14.870070
  O     16.513023   15.834088   14.852322
  C     17.545136   16.459054   15.516511
  O     18.679455   16.029136   15.417784
  C     17.232430   17.565552   16.464596
  C     16.870848   18.774411   15.970787
  C     16.480622   19.094969   14.541855
  N     16.900550   19.915377   16.774559
  C     17.528855   19.979603   17.990354
  S     17.636940   21.393196   18.841519
  N     18.088556   18.813298   18.451676
  C     17.914106   17.484358   17.831281
  C     17.310797   16.421736   18.737068
  C     17.814134   15.108812   18.713638
  C     17.249640   14.113167   19.528150
  C     16.170678   14.432960   20.370145
  C     15.663279   15.739421   20.390579
  O     14.614602   16.048067   21.194104
  C     16.226900   16.728884   19.578559
  H     14.955989   15.911189   17.053925
  H     13.415961   16.249284   16.257913
  H     14.586405   17.547052   16.430501
  H     14.592413   15.125657   14.551847
  H     14.815172   16.818585   14.125592
  H     16.856094   18.351415   13.828206
  H     16.896813   20.059772   14.224368
  H     15.390826   19.149902   14.434877
  H     16.530144   20.786710   16.429094
  H     18.546881   18.885944   19.351445
  H     18.965474   17.237181   17.620603
  H     18.641467   14.858426   18.052256
  H     17.646528   13.099676   19.500979
  H     15.730677   13.666232   20.999266
  H     14.392784   15.252413   21.701006
  H     15.815127   17.732483   19.604169

 Total Charge           Charge          ....    0
 Multiplicity           Mult            ....    1
 Number of Electrons    NEL             ....  154
 Basis Dimension        Dim             ....  828

ORBITAL ENERGIES
----------------

  NO   OCC          E(Eh)            E(eV)
   0   2.0000     -91.889407     -2500.4379
   1   2.0000     -20.600433      -560.5663
   2   2.0000     -20.599296      -560.5353
   3   2.0000     -20.547998      -559.1395
   4   2.0000     -15.627205      -425.2379
   5   2.0000     -15.609351      -424.7520
   6   2.0000     -11.401299      -310.2451
   7   2.0000     -11.385305      -309.8099
   8   2.0000     -11.330518      -308.3191
   9   2.0000     -11.316666      -307.9421
  10   2.0000     -11.313718      -307.8619
  11   2.0000     -11.310225      -307.7669
  12   2.0000     -11.268681      -306.6364
  13   2.0000     -11.264450      -306.5213
  14   2.0000     -11.262742      -306.4748
  15   2.0000     -11.257249      -306.3253
  16   2.0000     -11.245764      -306.0128
  17   2.0000     -11.241420      -305.8946
  18   2.0000     -11.239211      -305.8345
  19   2.0000     -11.235383      -305.7303
  20   2.0000      -8.894515      -242.0321
  21   2.0000      -6.576098      -178.9447
  22   2.0000      -6.574084      -178.8899
  23   2.0000      -6.573504      -178.8741
  24   2.0000      -1.443000       -39.2660
  25   2.0000      -1.419028       -38.6137
  26   2.0000      -1.357232       -36.9322
  27   2.0000      -1.340399       -36.4741
  28   2.0000      -1.238899       -33.7122
  29   2.0000      -1.161048       -31.5937
  30   2.0000      -1.126369       -30.6501
  31   2.0000      -1.048464       -28.5301
  32   2.0000      -1.040919       -28.3248
  33   2.0000      -1.019088       -27.7308
  34   2.0000      -1.006720       -27.3942
  35   2.0000      -0.990493       -26.9527
  36   2.0000      -0.927070       -25.2269
  37   2.0000      -0.901687       -24.5362
  38   2.0000      -0.853269       -23.2186
  39   2.0000      -0.841435       -22.8966
  40   2.0000      -0.836401       -22.7596
  41   2.0000      -0.828618       -22.5479
  42   2.0000      -0.745914       -20.2974
  43   2.0000      -0.736832       -20.0502
  44   2.0000      -0.732067       -19.9206
  45   2.0000      -0.696338       -18.9483
  46   2.0000      -0.688061       -18.7231
  47   2.0000      -0.677951       -18.4480
  48   2.0000      -0.673741       -18.3334
  49   2.0000      -0.663102       -18.0439
  50   2.0000      -0.658026       -17.9058
  51   2.0000      -0.650900       -17.7119
  52   2.0000      -0.639772       -17.4091
  53   2.0000      -0.615021       -16.7356
  54   2.0000      -0.608743       -16.5647
  55   2.0000      -0.605901       -16.4874
  56   2.0000      -0.602746       -16.4015
  57   2.0000      -0.590634       -16.0720
  58   2.0000      -0.578001       -15.7282
  59   2.0000      -0.574841       -15.6422
  60   2.0000      -0.563856       -15.3433
  61   2.0000      -0.557952       -15.1826
  62   2.0000      -0.543937       -14.8013
  63   2.0000      -0.530472       -14.4349
  64   2.0000      -0.520708       -14.1692
  65   2.0000      -0.513476       -13.9724
  66   2.0000      -0.502609       -13.6767
  67   2.0000      -0.501255       -13.6398
  68   2.0000      -0.486161       -13.2291
  69   2.0000      -0.465247       -12.6600
  70   2.0000      -0.453816       -12.3490
  71   2.0000      -0.451551       -12.2873
  72   2.0000      -0.354807        -9.6548
  73   2.0000      -0.349984        -9.5235
  74   2.0000      -0.328964        -8.9516
  75   2.0000      -0.324623        -8.8335
  76   2.0000      -0.319073        -8.6824
  77   0.0000       0.087131         2.3709
  78   0.0000       0.105782         2.8785
  79   0.0000       0.114122         3.1054
  80   0.0000       0.127591         3.4719
  81   0.0000       0.130241         3.5440

MULLIKEN ATOMIC CHARGES
-----------------------
   0 C :   -0.331609
   1 C :    0.040664
   2 O :   -0.329390
   3 C :    0.430935
   4 O :   -0.383932
   5 C :   -0.208569
   6 C :    0.140265
   7 C :   -0.339877
   8 N :   -0.143047
   9 C :    0.209134
  10 S :   -0.443786
  11 N :   -0.226827
  12 C :    0.072068
  13 C :    0.013797
  14 C :   -0.219499
  15 C :   -0.130474
  16 C :   -0.277050
  17 C :    0.320759
  18 O :   -0.356540
  19 C :   -0.259386
  20 H :    0.127392
  21 H :    0.118111
  22 H :    0.108225
  23 H :    0.131056
  24 H :    0.083793
  25 H :    0.134540
  26 H :    0.133256
  27 H :    0.122591
  28 H :    0.198289
  29 H :    0.204083
  30 H :    0.170110
  31 H :    0.177623
  32 H :    0.164478
  33 H :    0.132272
  34 H :    0.241245
  35 H :    0.175299
Sum of atomic charges:   -0.0000000

LOEWDIN ATOMIC CHARGES
----------------------
   0 C :    0.101966
   1 C :   -0.013623
   2 O :    0.294841
   3 C :   -0.416818
   4 O :    0.118990
   5 C :   -0.079531
   6 C :   -0.093129
   7 C :    0.125945
   8 N :    0.402521
   9 C :   -0.456676
  10 S :   -0.038958
  11 N :    0.396753
  12 C :   -0.048225
  13 C :   -0.044262
  14 C :    0.019211
  15 C :    0.045140
  16 C :   -0.000412
  17 C :   -0.191781
  18 O :    0.395556
  19 C :    0.028501
  20 H :   -0.021295
  21 H :   -0.023403
  22 H :   -0.034918
  23 H :   -0.017656
  24 H :   -0.036757
  25 H :   -0.007109
  26 H :   -0.010345
  27 H :   -0.018312
  28 H :   -0.057915
  29 H :   -0.063631
  30 H :   -0.003445
  31 H :   -0.021096
  32 H :   -0.018379
  33 H :   -0.034808
  34 H :   -0.153287
  35 H :   -0.023653

  Mayer bond orders larger than 0.100000
B(  0-C ,  1-C ) :   0.9519 B(  0-C , 20-H ) :   0.9663 B(  0-C , 21-H ) :   0.9786
B(  0-C , 22-H ) :   0.9751 B(  1-C ,  2-O ) :   0.9088 B(  1-C , 23-H ) :   0.9801
B(  1-C , 24-H ) :   0.9739 B(  2-O ,  3-C ) :   1.1750 B(  3-C ,  4-O ) :   2.0864
B(  3-C ,  5-C ) :   0.9250 B(  5-C ,  6-C ) :   1.7287 B(  5-C , 12-C ) :   0.9348
B(  6-C ,  7-C ) :   0.9380 B(  6-C ,  8-N ) :   1.0922 B(  7-C , 25-H ) :   0.9757
B(  7-C , 26-H ) :   0.9779 B(  7-C , 27-H ) :   0.9649 B(  8-N ,  9-C ) :   1.1993
B(  8-N , 28-H ) :   0.9505 B(  9-C , 10-S ) :   1.6081 B(  9-C , 11-N ) :   1.2908
B( 11-N , 12-C ) :   0.9775 B( 11-N , 29-H ) :   0.9469 B( 12-C , 13-C ) :   0.9668
B( 12-C , 30-H ) :   0.9882 B( 13-C , 14-C ) :   1.3865 B( 13-C , 19-C ) :   1.3499
B( 14-C , 15-C ) :   1.3970 B( 14-C , 31-H ) :   0.9586 B( 15-C , 16-C ) :   1.3610
B( 15-C , 32-H ) :   0.9698 B( 16-C , 17-C ) :   1.3312 B( 16-C , 33-H ) :   0.9846
B( 17-C , 18-O ) :   1.1096 B( 17-C , 19-C ) :   1.3629 B( 18-O , 34-H ) :   0.9794
B( 19-C , 35-H ) :   0.9568

MP2 TOTAL ENERGY:    -1274.320516639 Eh
FINAL SINGLE POINT ENERGY     -1274.320516639300

DIPOLE MOMENT
-------------
                                X             Y             Z
Electronic contribution:      8.98317       5.94305       7.25255
Nuclear contribution   :    -10.68296      -7.17779      -7.82147
                        -----------------------------------------
Total Dipole Moment    :     -1.69979      -1.23474      -0.56892
                        -----------------------------------------
Magnitude (a.u.)       :      2.17659
Magnitude (Debye)      :      5.53245

Rotational constants in cm-1:     0.011445     0.009246     0.006499
Rotational constants in MHz :   343.106791   277.184737   194.840929

                             ****ORCA TERMINATED NORMALLY****
TOTAL RUN TIME: 0 days 2 hours 2 minutes 36 seconds 959 msec
