                         Program Version 4.2.0 -  RELEASE  -
|  1> ! ri-mp2 cc-pvtz cc-pvtz/c TightSCF NoKeepInts
|  2>
|  3> %scf
|  4>   MaxCore 4096
|  5> end
|  6> *xyz  0  1
|  7>     C       14.8792216   14.2806586   15.0123304
|  8>     C       15.1399977   15.4297128   15.9997849
|  9>     O       16.3095871   16.1302674   15.5416607
| 10>     C       16.2090349   17.4818729   15.4079459
| 11>     O       15.5520185   17.9644841   14.5034568
| 12>     C       16.8455428   18.2535285   16.5347587
| 13>     C       16.9156855   19.6096351   16.4852390
| 14>     C       16.1658116   20.5346120   15.5485606
| 15>     N       17.7475481   20.3213548   17.3525162
| 16>     C       18.6974455   19.7507809   18.1549922
| 17>     S       19.7255206   20.6586387   19.0792249
| 18>     N       18.7697231   18.3814170   18.1340444
| 19>     C       17.8245351   17.4857784   17.4416711
| 20>     C       17.1797240   16.4851864   18.3899992
| 21>     C       17.6497745   15.1605035   18.4557216
| 22>     C       17.0540796   14.2353411   19.3294494
| 23>     C       15.9846313   14.6401946   20.1467504
| 24>     C       15.5217707   15.9621085   20.0898685
| 25>     O       14.4898461   16.3558736   20.8774270
| 26>     C       16.1150046   16.8802782   19.2177665
| 27>     H       13.9928524   13.7084764   15.3116067
| 28>     H       15.7365407   13.5970604   14.9792087
| 29>     H       14.7100085   14.6738021   14.0017207
| 30>     H       14.2638305   16.0928884   16.0235646
| 31>     H       15.2970934   15.0279352   17.0080725
| 32>     H       15.0937423   20.2996634   15.5474336
| 33>     H       16.5276562   20.4179289   14.5188491
| 34>     H       16.2656308   21.5927939   15.8174980
| 35>     H       17.7234625   21.3286182   17.3552157
| 36>     H       19.4624627   17.9879620   18.7584469
| 37>     H       18.5147401   16.9749260   16.7549540
| 38>     H       18.4741809   14.8454531   17.8210982
| 39>     H       17.4218513   13.2113250   19.3720678
| 40>     H       15.5222543   13.9292240   20.8238643
| 41>     H       14.2548525   15.6082526   21.4478151
| 42>     H       15.7493378   17.9014634   19.1934157
| 43> *
| 44>
| 45>                          ****END OF INPUT****

CARTESIAN COORDINATES (ANGSTROEM)
---------------------------------
  C     14.879222   14.280659   15.012330
  C     15.139998   15.429713   15.999785
  O     16.309587   16.130267   15.541661
  C     16.209035   17.481873   15.407946
  O     15.552019   17.964484   14.503457
  C     16.845543   18.253529   16.534759
  C     16.915685   19.609635   16.485239
  C     16.165812   20.534612   15.548561
  N     17.747548   20.321355   17.352516
  C     18.697446   19.750781   18.154992
  S     19.725521   20.658639   19.079225
  N     18.769723   18.381417   18.134044
  C     17.824535   17.485778   17.441671
  C     17.179724   16.485186   18.389999
  C     17.649774   15.160503   18.455722
  C     17.054080   14.235341   19.329449
  C     15.984631   14.640195   20.146750
  C     15.521771   15.962108   20.089869
  O     14.489846   16.355874   20.877427
  C     16.115005   16.880278   19.217766
  H     13.992852   13.708476   15.311607
  H     15.736541   13.597060   14.979209
  H     14.710008   14.673802   14.001721
  H     14.263830   16.092888   16.023565
  H     15.297093   15.027935   17.008073
  H     15.093742   20.299663   15.547434
  H     16.527656   20.417929   14.518849
  H     16.265631   21.592794   15.817498
  H     17.723462   21.328618   17.355216
  H     19.462463   17.987962   18.758447
  H     18.514740   16.974926   16.754954
  H     18.474181   14.845453   17.821098
  H     17.421851   13.211325   19.372068
  H     15.522254   13.929224   20.823864
  H     14.254853   15.608253   21.447815
  H     15.749338   17.901463   19.193416

 Total Charge           Charge          ....    0
 Multiplicity           Mult            ....    1
 Number of Electrons    NEL             ....  154
 Basis Dimension        Dim             ....  828

ORBITAL ENERGIES
----------------

  NO   OCC          E(Eh)            E(eV)
   0   2.0000     -91.890909     -2500.4788
   1   2.0000     -20.602436      -560.6208
   2   2.0000     -20.582367      -560.0747
   3   2.0000     -20.545576      -559.0735
   4   2.0000     -15.631399      -425.3520
   5   2.0000     -15.609024      -424.7431
   6   2.0000     -11.391877      -309.9887
   7   2.0000     -11.385354      -309.8112
   8   2.0000     -11.339784      -308.5712
   9   2.0000     -11.320417      -308.0442
  10   2.0000     -11.310554      -307.7758
  11   2.0000     -11.294066      -307.3272
  12   2.0000     -11.266139      -306.5672
  13   2.0000     -11.261667      -306.4455
  14   2.0000     -11.259009      -306.3732
  15   2.0000     -11.253254      -306.2166
  16   2.0000     -11.249999      -306.1280
  17   2.0000     -11.244620      -305.9817
  18   2.0000     -11.244357      -305.9745
  19   2.0000     -11.222071      -305.3681
  20   2.0000      -8.895963      -242.0715
  21   2.0000      -6.577530      -178.9837
  22   2.0000      -6.575536      -178.9294
  23   2.0000      -6.574940      -178.9132
  24   2.0000      -1.447903       -39.3995
  25   2.0000      -1.422128       -38.6981
  26   2.0000      -1.352781       -36.8110
  27   2.0000      -1.342759       -36.5383
  28   2.0000      -1.240797       -33.7638
  29   2.0000      -1.163305       -31.6551
  30   2.0000      -1.122897       -30.5556
  31   2.0000      -1.047261       -28.4974
  32   2.0000      -1.033027       -28.1101
  33   2.0000      -1.021234       -27.7892
  34   2.0000      -0.998657       -27.1748
  35   2.0000      -0.986740       -26.8506
  36   2.0000      -0.925140       -25.1743
  37   2.0000      -0.878022       -23.8922
  38   2.0000      -0.849674       -23.1208
  39   2.0000      -0.842823       -22.9344
  40   2.0000      -0.839638       -22.8477
  41   2.0000      -0.828853       -22.5542
  42   2.0000      -0.761310       -20.7163
  43   2.0000      -0.738080       -20.0842
  44   2.0000      -0.724199       -19.7064
  45   2.0000      -0.701147       -19.0792
  46   2.0000      -0.690734       -18.7958
  47   2.0000      -0.677702       -18.4412
  48   2.0000      -0.672865       -18.3096
  49   2.0000      -0.654195       -17.8016
  50   2.0000      -0.649522       -17.6744
  51   2.0000      -0.642765       -17.4905
  52   2.0000      -0.636172       -17.3111
  53   2.0000      -0.612669       -16.6716
  54   2.0000      -0.610774       -16.6200
  55   2.0000      -0.603723       -16.4281
  56   2.0000      -0.601041       -16.3552
  57   2.0000      -0.582054       -15.8385
  58   2.0000      -0.572091       -15.5674
  59   2.0000      -0.567055       -15.4303
  60   2.0000      -0.564032       -15.3481
  61   2.0000      -0.542337       -14.7578
  62   2.0000      -0.536056       -14.5868
  63   2.0000      -0.529339       -14.4041
  64   2.0000      -0.516691       -14.0599
  65   2.0000      -0.510126       -13.8812
  66   2.0000      -0.503605       -13.7038
  67   2.0000      -0.496652       -13.5146
  68   2.0000      -0.489103       -13.3092
  69   2.0000      -0.464887       -12.6502
  70   2.0000      -0.454642       -12.3714
  71   2.0000      -0.445307       -12.1174
  72   2.0000      -0.356796        -9.7089
  73   2.0000      -0.354216        -9.6387
  74   2.0000      -0.330978        -9.0064
  75   2.0000      -0.327327        -8.9070
  76   2.0000      -0.320591        -8.7237
  77   0.0000       0.071413         1.9432
  78   0.0000       0.099245         2.7006
  79   0.0000       0.122343         3.3291
  80   0.0000       0.129084         3.5126
  81   0.0000       0.130582         3.5533

MULLIKEN ATOMIC CHARGES
-----------------------
   0 C :   -0.259461
   1 C :    0.024950
   2 O :   -0.378762
   3 C :    0.475067
   4 O :   -0.407637
   5 C :   -0.291463
   6 C :    0.186051
   7 C :   -0.265265
   8 N :   -0.127176
   9 C :    0.212805
  10 S :   -0.439519
  11 N :   -0.217574
  12 C :    0.073966
  13 C :   -0.015033
  14 C :   -0.162675
  15 C :   -0.135854
  16 C :   -0.272647
  17 C :    0.305893
  18 O :   -0.356032
  19 C :   -0.216750
  20 H :    0.084993
  21 H :    0.091524
  22 H :    0.107109
  23 H :    0.094042
  24 H :    0.119014
  25 H :    0.130990
  26 H :    0.132490
  27 H :    0.094412
  28 H :    0.199649
  29 H :    0.201133
  30 H :    0.151665
  31 H :    0.154269
  32 H :    0.163449
  33 H :    0.133923
  34 H :    0.241862
  35 H :    0.166593
Sum of atomic charges:   -0.0000000

LOEWDIN ATOMIC CHARGES
----------------------
   0 C :    0.107448
   1 C :   -0.018401
   2 O :    0.296722
   3 C :   -0.425342
   4 O :    0.113196
   5 C :   -0.102146
   6 C :   -0.053475
   7 C :    0.131478
   8 N :    0.407922
   9 C :   -0.456434
  10 S :   -0.034290
  11 N :    0.394406
  12 C :   -0.054750
  13 C :   -0.039801
  14 C :    0.016296
  15 C :    0.040886
  16 C :   -0.000756
  17 C :   -0.190667
  18 O :    0.396484
  19 C :    0.033063
  20 H :   -0.028599
  21 H :   -0.028535
  22 H :   -0.022802
  23 H :   -0.029640
  24 H :   -0.030306
  25 H :   -0.004715
  26 H :   -0.003925
  27 H :   -0.023426
  28 H :   -0.056659
  29 H :   -0.064474
  30 H :   -0.011954
  31 H :   -0.027711
  32 H :   -0.019513
  33 H :   -0.034098
  34 H :   -0.152549
  35 H :   -0.022931

  Mayer bond orders larger than 0.100000
B(  0-C ,  1-C ) :   0.9871 B(  0-C , 20-H ) :   0.9769 B(  0-C , 21-H ) :   0.9793
B(  0-C , 22-H ) :   0.9784 B(  1-C ,  2-O ) :   0.8763 B(  1-C , 23-H ) :   0.9719
B(  1-C , 24-H ) :   0.9681 B(  2-O ,  3-C ) :   1.0978 B(  3-C ,  4-O ) :   2.0210
B(  3-C ,  5-C ) :   1.0741 B(  5-C ,  6-C ) :   1.6211 B(  5-C , 12-C ) :   0.9498
B(  6-C ,  7-C ) :   0.9678 B(  6-C ,  8-N ) :   1.1599 B(  7-C , 25-H ) :   0.9626
B(  7-C , 26-H ) :   0.9565 B(  7-C , 27-H ) :   0.9894 B(  8-N ,  9-C ) :   1.1851
B(  8-N , 28-H ) :   0.9462 B(  9-C , 10-S ) :   1.6062 B(  9-C , 11-N ) :   1.3108
B( 11-N , 12-C ) :   0.9608 B( 11-N , 29-H ) :   0.9484 B( 12-C , 13-C ) :   0.9670
B( 12-C , 30-H ) :   1.0025 B( 13-C , 14-C ) :   1.3509 B( 13-C , 19-C ) :   1.3773
B( 14-C , 15-C ) :   1.3972 B( 14-C , 31-H ) :   0.9724 B( 15-C , 16-C ) :   1.3572
B( 15-C , 32-H ) :   0.9705 B( 16-C , 17-C ) :   1.3311 B( 16-C , 33-H ) :   0.9841
B( 17-C , 18-O ) :   1.1078 B( 17-C , 19-C ) :   1.3669 B( 18-O , 34-H ) :   0.9786
B( 19-C , 35-H ) :   0.9587

MP2 TOTAL ENERGY:    -1274.328458285 Eh
FINAL SINGLE POINT ENERGY     -1274.328458285203

DIPOLE MOMENT
-------------
                                X             Y             Z
Electronic contribution:      9.46397      10.68779       7.37461
Nuclear contribution   :    -10.53529     -12.19561      -7.14016
                        -----------------------------------------
Total Dipole Moment    :     -1.07131      -1.50782       0.23446
                        -----------------------------------------
Magnitude (a.u.)       :      1.86446
Magnitude (Debye)      :      4.73908

Rotational constants in cm-1:     0.012197     0.008420     0.005978
Rotational constants in MHz :   365.668068   252.413288   179.212832

                             ****ORCA TERMINATED NORMALLY****
TOTAL RUN TIME: 0 days 1 hours 44 minutes 21 seconds 921 msec
