                         Program Version 4.2.0 -  RELEASE  -
|  1> ! ri-mp2 cc-pvtz cc-pvtz/c TightSCF NoKeepInts
|  2>
|  3> %scf
|  4>   MaxCore 4096
|  5> end
|  6> *xyz  0  1
|  7>     C       14.2992173   15.3910658   13.5111315
|  8>     C       14.8681346   15.3580246   14.9394706
|  9>     O       15.8227172   16.4276747   15.0439926
| 10>     C       16.8238230   16.3257505   15.9642529
| 11>     O       17.3437766   15.2577782   16.2411600
| 12>     C       17.1012075   17.5862494   16.7335306
| 13>     C       16.9523101   18.8239481   16.1909838
| 14>     C       16.2930778   19.1923161   14.8761279
| 15>     N       17.4771574   19.9502895   16.8299454
| 16>     C       18.3473884   19.9072607   17.8855312
| 17>     S       19.0165364   21.2795334   18.5215982
| 18>     N       18.6529802   18.6621536   18.3732955
| 19>     C       18.0093175   17.4013665   17.9560942
| 20>     C       17.3386874   16.6606815   19.1055809
| 21>     C       17.6791708   15.3271842   19.3956137
| 22>     C       17.0608230   14.6464804   20.4578238
| 23>     C       16.0947255   15.3055352   21.2373715
| 24>     C       15.7521659   16.6338474   20.9491422
| 25>     O       14.8166539   17.2711713   21.6974393
| 26>     C       16.3689237   17.3084323   19.8906051
| 27>     H       13.8038806   16.3496336   13.3131632
| 28>     H       13.5645928   14.5887210   13.3712036
| 29>     H       15.1002234   15.2550279   12.7736703
| 30>     H       14.0695731   15.4811790   15.6827308
| 31>     H       15.3474571   14.3824598   15.1006648
| 32>     H       16.7472332   18.6402918   14.0435673
| 33>     H       16.3823293   20.2593822   14.6386358
| 34>     H       15.2228792   18.9515687   14.8978732
| 35>     H       17.2802047   20.8698234   16.4686223
| 36>     H       19.2805760   18.6592236   19.1674727
| 37>     H       18.8863902   16.8441229   17.5958051
| 38>     H       18.4154371   14.8123290   18.7827960
| 39>     H       17.3279036   13.6125394   20.6687670
| 40>     H       15.6138446   14.7830878   22.0575814
| 41>     H       14.5320813   16.6565229   22.3902822
| 42>     H       16.0935998   18.3373436   19.6844732
| 43> *
| 44>
| 45>                          ****END OF INPUT****

CARTESIAN COORDINATES (ANGSTROEM)
---------------------------------
  C     14.299217   15.391066   13.511131
  C     14.868135   15.358025   14.939471
  O     15.822717   16.427675   15.043993
  C     16.823823   16.325751   15.964253
  O     17.343777   15.257778   16.241160
  C     17.101207   17.586249   16.733531
  C     16.952310   18.823948   16.190984
  C     16.293078   19.192316   14.876128
  N     17.477157   19.950290   16.829945
  C     18.347388   19.907261   17.885531
  S     19.016536   21.279533   18.521598
  N     18.652980   18.662154   18.373295
  C     18.009318   17.401367   17.956094
  C     17.338687   16.660681   19.105581
  C     17.679171   15.327184   19.395614
  C     17.060823   14.646480   20.457824
  C     16.094725   15.305535   21.237371
  C     15.752166   16.633847   20.949142
  O     14.816654   17.271171   21.697439
  C     16.368924   17.308432   19.890605
  H     13.803881   16.349634   13.313163
  H     13.564593   14.588721   13.371204
  H     15.100223   15.255028   12.773670
  H     14.069573   15.481179   15.682731
  H     15.347457   14.382460   15.100665
  H     16.747233   18.640292   14.043567
  H     16.382329   20.259382   14.638636
  H     15.222879   18.951569   14.897873
  H     17.280205   20.869823   16.468622
  H     19.280576   18.659224   19.167473
  H     18.886390   16.844123   17.595805
  H     18.415437   14.812329   18.782796
  H     17.327904   13.612539   20.668767
  H     15.613845   14.783088   22.057581
  H     14.532081   16.656523   22.390282
  H     16.093600   18.337344   19.684473

 Total Charge           Charge          ....    0
 Multiplicity           Mult            ....    1
 Number of Electrons    NEL             ....  154
 Basis Dimension        Dim             ....  828

ORBITAL ENERGIES
----------------

  NO   OCC          E(Eh)            E(eV)
   0   2.0000     -91.888242     -2500.4062
   1   2.0000     -20.598137      -560.5038
   2   2.0000     -20.592044      -560.3380
   3   2.0000     -20.547276      -559.1198
   4   2.0000     -15.628929      -425.2848
   5   2.0000     -15.605801      -424.6554
   6   2.0000     -11.394980      -310.0732
   7   2.0000     -11.382800      -309.7417
   8   2.0000     -11.338446      -308.5348
   9   2.0000     -11.308018      -307.7068
  10   2.0000     -11.304223      -307.6035
  11   2.0000     -11.299574      -307.4770
  12   2.0000     -11.260361      -306.4100
  13   2.0000     -11.259410      -306.3841
  14   2.0000     -11.255241      -306.2707
  15   2.0000     -11.248043      -306.0748
  16   2.0000     -11.238257      -305.8085
  17   2.0000     -11.234398      -305.7035
  18   2.0000     -11.233493      -305.6789
  19   2.0000     -11.231093      -305.6136
  20   2.0000      -8.893324      -241.9996
  21   2.0000      -6.574900      -178.9121
  22   2.0000      -6.572898      -178.8576
  23   2.0000      -6.572309      -178.8416
  24   2.0000      -1.453896       -39.5625
  25   2.0000      -1.411788       -38.4167
  26   2.0000      -1.357612       -36.9425
  27   2.0000      -1.340101       -36.4660
  28   2.0000      -1.237180       -33.6654
  29   2.0000      -1.152600       -31.3638
  30   2.0000      -1.120979       -30.5034
  31   2.0000      -1.044576       -28.4244
  32   2.0000      -1.036693       -28.2099
  33   2.0000      -1.010146       -27.4875
  34   2.0000      -0.998919       -27.1820
  35   2.0000      -0.984024       -26.7767
  36   2.0000      -0.920791       -25.0560
  37   2.0000      -0.886135       -24.1130
  38   2.0000      -0.847462       -23.0606
  39   2.0000      -0.835373       -22.7317
  40   2.0000      -0.828266       -22.5383
  41   2.0000      -0.821444       -22.3526
  42   2.0000      -0.761449       -20.7201
  43   2.0000      -0.736223       -20.0336
  44   2.0000      -0.726390       -19.7661
  45   2.0000      -0.690095       -18.7784
  46   2.0000      -0.685833       -18.6625
  47   2.0000      -0.680205       -18.5093
  48   2.0000      -0.674113       -18.3435
  49   2.0000      -0.653152       -17.7732
  50   2.0000      -0.651680       -17.7331
  51   2.0000      -0.639751       -17.4085
  52   2.0000      -0.630828       -17.1657
  53   2.0000      -0.615271       -16.7424
  54   2.0000      -0.603376       -16.4187
  55   2.0000      -0.598750       -16.2928
  56   2.0000      -0.595336       -16.1999
  57   2.0000      -0.578130       -15.7317
  58   2.0000      -0.573343       -15.6015
  59   2.0000      -0.562442       -15.3048
  60   2.0000      -0.561518       -15.2797
  61   2.0000      -0.547069       -14.8865
  62   2.0000      -0.538338       -14.6489
  63   2.0000      -0.528881       -14.3916
  64   2.0000      -0.516219       -14.0470
  65   2.0000      -0.509201       -13.8561
  66   2.0000      -0.501845       -13.6559
  67   2.0000      -0.494179       -13.4473
  68   2.0000      -0.481058       -13.0903
  69   2.0000      -0.462797       -12.5933
  70   2.0000      -0.462661       -12.5897
  71   2.0000      -0.450937       -12.2706
  72   2.0000      -0.353306        -9.6140
  73   2.0000      -0.344739        -9.3808
  74   2.0000      -0.327295        -8.9061
  75   2.0000      -0.317419        -8.6374
  76   2.0000      -0.314668        -8.5625
  77   0.0000       0.075159         2.0452
  78   0.0000       0.111081         3.0227
  79   0.0000       0.120787         3.2868
  80   0.0000       0.135311         3.6820
  81   0.0000       0.138203         3.7607

MULLIKEN ATOMIC CHARGES
-----------------------
   0 C :   -0.267200
   1 C :    0.028847
   2 O :   -0.354301
   3 C :    0.442670
   4 O :   -0.413825
   5 C :   -0.183314
   6 C :    0.152831
   7 C :   -0.282706
   8 N :   -0.128348
   9 C :    0.207607
  10 S :   -0.441979
  11 N :   -0.210571
  12 C :    0.039973
  13 C :    0.032842
  14 C :   -0.168521
  15 C :   -0.134213
  16 C :   -0.277271
  17 C :    0.313761
  18 O :   -0.359116
  19 C :   -0.251897
  20 H :    0.090606
  21 H :    0.093695
  22 H :    0.100086
  23 H :    0.091756
  24 H :    0.116190
  25 H :    0.126513
  26 H :    0.102925
  27 H :    0.127298
  28 H :    0.198856
  29 H :    0.199922
  30 H :    0.155686
  31 H :    0.159281
  32 H :    0.160101
  33 H :    0.128284
  34 H :    0.239987
  35 H :    0.163546
Sum of atomic charges:   -0.0000000

LOEWDIN ATOMIC CHARGES
----------------------
   0 C :    0.106654
   1 C :   -0.015357
   2 O :    0.303008
   3 C :   -0.415767
   4 O :    0.110042
   5 C :   -0.093402
   6 C :   -0.064419
   7 C :    0.125351
   8 N :    0.405584
   9 C :   -0.458529
  10 S :   -0.037338
  11 N :    0.396350
  12 C :   -0.048344
  13 C :   -0.040670
  14 C :    0.024931
  15 C :    0.041056
  16 C :   -0.001235
  17 C :   -0.192698
  18 O :    0.393000
  19 C :    0.029305
  20 H :   -0.030238
  21 H :   -0.024355
  22 H :   -0.024789
  23 H :   -0.032015
  24 H :   -0.026553
  25 H :   -0.008805
  26 H :   -0.021033
  27 H :   -0.010092
  28 H :   -0.058634
  29 H :   -0.063172
  30 H :   -0.008059
  31 H :   -0.023878
  32 H :   -0.020986
  33 H :   -0.036156
  34 H :   -0.154825
  35 H :   -0.023933

  Mayer bond orders larger than 0.100000
B(  0-C ,  1-C ) :   0.9755 B(  0-C , 20-H ) :   0.9796 B(  0-C , 21-H ) :   0.9766
B(  0-C , 22-H ) :   0.9775 B(  1-C ,  2-O ) :   0.8985 B(  1-C , 23-H ) :   0.9743
B(  1-C , 24-H ) :   0.9752 B(  2-O ,  3-C ) :   1.1110 B(  3-C ,  4-O ) :   2.0076
B(  3-C ,  5-C ) :   1.0383 B(  5-C ,  6-C ) :   1.6569 B(  5-C , 12-C ) :   0.9478
B(  6-C ,  7-C ) :   0.9546 B(  6-C ,  8-N ) :   1.1365 B(  7-C , 25-H ) :   0.9652
B(  7-C , 26-H ) :   0.9912 B(  7-C , 27-H ) :   0.9637 B(  8-N ,  9-C ) :   1.1848
B(  8-N , 28-H ) :   0.9469 B(  9-C , 10-S ) :   1.6087 B(  9-C , 11-N ) :   1.3061
B( 11-N , 12-C ) :   0.9764 B( 11-N , 29-H ) :   0.9485 B( 12-C , 13-C ) :   0.9727
B( 12-C , 30-H ) :   0.9968 B( 13-C , 14-C ) :   1.3774 B( 13-C , 19-C ) :   1.3648
B( 14-C , 15-C ) :   1.3975 B( 14-C , 31-H ) :   0.9636 B( 15-C , 16-C ) :   1.3588
B( 15-C , 32-H ) :   0.9711 B( 16-C , 17-C ) :   1.3332 B( 16-C , 33-H ) :   0.9860
B( 17-C , 18-O ) :   1.1036 B( 17-C , 19-C ) :   1.3677 B( 18-O , 34-H ) :   0.9806
B( 19-C , 35-H ) :   0.9602

MP2 TOTAL ENERGY:    -1274.335480429 Eh
FINAL SINGLE POINT ENERGY     -1274.335480429448

DIPOLE MOMENT
-------------
                                X             Y             Z
Electronic contribution:     10.52957       9.34518      12.21441
Nuclear contribution   :    -12.07556     -10.62721     -13.07671
                        -----------------------------------------
Total Dipole Moment    :     -1.54599      -1.28204      -0.86230
                        -----------------------------------------
Magnitude (a.u.)       :      2.18569
Magnitude (Debye)      :      5.55559

Rotational constants in cm-1:     0.009805     0.008893     0.005500
Rotational constants in MHz :   293.944726   266.612943   164.877857

                             ****ORCA TERMINATED NORMALLY****
TOTAL RUN TIME: 0 days 1 hours 37 minutes 18 seconds 105 msec
