                         Program Version 4.2.0 -  RELEASE  -
|  1> ! ri-mp2 cc-pvtz cc-pvtz/c TightSCF NoKeepInts
|  2>
|  3> %scf
|  4>   MaxCore 4096
|  5> end
|  6> *xyz  0  1
|  7>     C       14.4109765   15.2587286   15.2238137
|  8>     C       15.7799807   14.9008153   15.8419909
|  9>     O       16.8174249   15.8814117   15.5868402
| 10>     C       16.5536675   17.2046270   15.3620352
| 11>     O       15.9910521   17.5809885   14.3489244
| 12>     C       16.9898488   18.0975387   16.4947707
| 13>     C       16.9653260   19.4492503   16.3590780
| 14>     C       16.2794702   20.2511804   15.2720055
| 15>     N       17.6192260   20.2780244   17.2736197
| 16>     C       18.4836839   19.8364613   18.2378400
| 17>     S       19.3041695   20.8796936   19.2248016
| 18>     N       18.6532159   18.4785756   18.3288135
| 19>     C       17.8861365   17.4683618   17.5765460
| 20>     C       17.1832651   16.4765609   18.4930356
| 21>     C       17.7495832   15.2126461   18.7418373
| 22>     C       17.0998317   14.2931602   19.5824174
| 23>     C       15.8773431   14.6427242   20.1814914
| 24>     C       15.3163200   15.9048796   19.9422452
| 25>     O       14.1367826   16.2452690   20.5194240
| 26>     C       15.9645225   16.8175125   19.1042281
| 27>     H       14.0055379   16.1813412   15.6577049
| 28>     H       13.6882879   14.4558545   15.4124672
| 29>     H       14.4945800   15.3872481   14.1370285
| 30>     H       15.6417062   14.7958073   16.9251518
| 31>     H       16.1090147   13.9255141   15.4612310
| 32>     H       15.2358915   19.9320561   15.1551410
| 33>     H       16.7785464   20.0984476   14.3064070
| 34>     H       16.2687975   21.3287801   15.4735554
| 35>     H       17.5236610   21.2782533   17.1996758
| 36>     H       19.2749138   18.1818409   19.0703103
| 37>     H       18.7013201   16.9747426   17.0282401
| 38>     H       18.6933443   14.9404415   18.2762224
| 39>     H       17.5441202   13.3166720   19.7687904
| 40>     H       15.3724702   13.9363190   20.8325040
| 41>     H       13.8740435   15.5158733   21.1010571
| 42>     H       15.5189381   17.7923990   18.9367547
| 43> *
| 44>
| 45>                          ****END OF INPUT****

CARTESIAN COORDINATES (ANGSTROEM)
---------------------------------
  C     14.410976   15.258729   15.223814
  C     15.779981   14.900815   15.841991
  O     16.817425   15.881412   15.586840
  C     16.553667   17.204627   15.362035
  O     15.991052   17.580989   14.348924
  C     16.989849   18.097539   16.494771
  C     16.965326   19.449250   16.359078
  C     16.279470   20.251180   15.272006
  N     17.619226   20.278024   17.273620
  C     18.483684   19.836461   18.237840
  S     19.304170   20.879694   19.224802
  N     18.653216   18.478576   18.328813
  C     17.886136   17.468362   17.576546
  C     17.183265   16.476561   18.493036
  C     17.749583   15.212646   18.741837
  C     17.099832   14.293160   19.582417
  C     15.877343   14.642724   20.181491
  C     15.316320   15.904880   19.942245
  O     14.136783   16.245269   20.519424
  C     15.964522   16.817512   19.104228
  H     14.005538   16.181341   15.657705
  H     13.688288   14.455854   15.412467
  H     14.494580   15.387248   14.137028
  H     15.641706   14.795807   16.925152
  H     16.109015   13.925514   15.461231
  H     15.235891   19.932056   15.155141
  H     16.778546   20.098448   14.306407
  H     16.268798   21.328780   15.473555
  H     17.523661   21.278253   17.199676
  H     19.274914   18.181841   19.070310
  H     18.701320   16.974743   17.028240
  H     18.693344   14.940441   18.276222
  H     17.544120   13.316672   19.768790
  H     15.372470   13.936319   20.832504
  H     13.874043   15.515873   21.101057
  H     15.518938   17.792399   18.936755

 Total Charge           Charge          ....    0
 Multiplicity           Mult            ....    1
 Number of Electrons    NEL             ....  154
 Basis Dimension        Dim             ....  828

ORBITAL ENERGIES
----------------

  NO   OCC          E(Eh)            E(eV)
   0   2.0000     -91.889876     -2500.4507
   1   2.0000     -20.602066      -560.6107
   2   2.0000     -20.582767      -560.0856
   3   2.0000     -20.543454      -559.0158
   4   2.0000     -15.630253      -425.3208
   5   2.0000     -15.607999      -424.7152
   6   2.0000     -11.393249      -310.0261
   7   2.0000     -11.384382      -309.7848
   8   2.0000     -11.338315      -308.5312
   9   2.0000     -11.319955      -308.0316
  10   2.0000     -11.309117      -307.7367
  11   2.0000     -11.297716      -307.4265
  12   2.0000     -11.265624      -306.5532
  13   2.0000     -11.261061      -306.4290
  14   2.0000     -11.258113      -306.3488
  15   2.0000     -11.252370      -306.1925
  16   2.0000     -11.249322      -306.1096
  17   2.0000     -11.244070      -305.9667
  18   2.0000     -11.243617      -305.9544
  19   2.0000     -11.222704      -305.3853
  20   2.0000      -8.894941      -242.0436
  21   2.0000      -6.576511      -178.9560
  22   2.0000      -6.574515      -178.9016
  23   2.0000      -6.573922      -178.8855
  24   2.0000      -1.440866       -39.2080
  25   2.0000      -1.421753       -38.6879
  26   2.0000      -1.350114       -36.7385
  27   2.0000      -1.341563       -36.5058
  28   2.0000      -1.239656       -33.7327
  29   2.0000      -1.162592       -31.6357
  30   2.0000      -1.121739       -30.5241
  31   2.0000      -1.046404       -28.4741
  32   2.0000      -1.031125       -28.0583
  33   2.0000      -1.020636       -27.7729
  34   2.0000      -0.998073       -27.1589
  35   2.0000      -0.985852       -26.8264
  36   2.0000      -0.924133       -25.1469
  37   2.0000      -0.892334       -24.2816
  38   2.0000      -0.848833       -23.0979
  39   2.0000      -0.842370       -22.9221
  40   2.0000      -0.838955       -22.8291
  41   2.0000      -0.821787       -22.3619
  42   2.0000      -0.746102       -20.3025
  43   2.0000      -0.735942       -20.0260
  44   2.0000      -0.716356       -19.4930
  45   2.0000      -0.700059       -19.0496
  46   2.0000      -0.688595       -18.7376
  47   2.0000      -0.676242       -18.4015
  48   2.0000      -0.668110       -18.1802
  49   2.0000      -0.663766       -18.0620
  50   2.0000      -0.649854       -17.6834
  51   2.0000      -0.644656       -17.5420
  52   2.0000      -0.637202       -17.3391
  53   2.0000      -0.615839       -16.7578
  54   2.0000      -0.612062       -16.6551
  55   2.0000      -0.604089       -16.4381
  56   2.0000      -0.602268       -16.3885
  57   2.0000      -0.581292       -15.8178
  58   2.0000      -0.570955       -15.5365
  59   2.0000      -0.567287       -15.4367
  60   2.0000      -0.551852       -15.0166
  61   2.0000      -0.541376       -14.7316
  62   2.0000      -0.535412       -14.5693
  63   2.0000      -0.528693       -14.3865
  64   2.0000      -0.523753       -14.2520
  65   2.0000      -0.514718       -14.0062
  66   2.0000      -0.502571       -13.6757
  67   2.0000      -0.492218       -13.3939
  68   2.0000      -0.485692       -13.2163
  69   2.0000      -0.463314       -12.6074
  70   2.0000      -0.452566       -12.3150
  71   2.0000      -0.440968       -11.9994
  72   2.0000      -0.356320        -9.6960
  73   2.0000      -0.352835        -9.6011
  74   2.0000      -0.330207        -8.9854
  75   2.0000      -0.326525        -8.8852
  76   2.0000      -0.319476        -8.6934
  77   0.0000       0.072793         1.9808
  78   0.0000       0.099597         2.7102
  79   0.0000       0.122712         3.3392
  80   0.0000       0.129536         3.5249
  81   0.0000       0.131291         3.5726

MULLIKEN ATOMIC CHARGES
-----------------------
   0 C :   -0.292600
   1 C :    0.037058
   2 O :   -0.385667
   3 C :    0.469051
   4 O :   -0.409939
   5 C :   -0.278816
   6 C :    0.184955
   7 C :   -0.266087
   8 N :   -0.127388
   9 C :    0.214003
  10 S :   -0.441424
  11 N :   -0.218838
  12 C :    0.078990
  13 C :   -0.003171
  14 C :   -0.170417
  15 C :   -0.131655
  16 C :   -0.274654
  17 C :    0.308907
  18 O :   -0.356360
  19 C :   -0.227059
  20 H :    0.095066
  21 H :    0.100720
  22 H :    0.119334
  23 H :    0.100399
  24 H :    0.107043
  25 H :    0.130594
  26 H :    0.132385
  27 H :    0.094389
  28 H :    0.199423
  29 H :    0.200941
  30 H :    0.151358
  31 H :    0.154830
  32 H :    0.163136
  33 H :    0.133429
  34 H :    0.241830
  35 H :    0.166233
Sum of atomic charges:   -0.0000000

LOEWDIN ATOMIC CHARGES
----------------------
   0 C :    0.104678
   1 C :   -0.013569
   2 O :    0.285671
   3 C :   -0.418280
   4 O :    0.115658
   5 C :   -0.101337
   6 C :   -0.054561
   7 C :    0.131046
   8 N :    0.407667
   9 C :   -0.456019
  10 S :   -0.035812
  11 N :    0.394286
  12 C :   -0.054679
  13 C :   -0.038865
  14 C :    0.016753
  15 C :    0.041265
  16 C :   -0.001151
  17 C :   -0.190912
  18 O :    0.396393
  19 C :    0.031510
  20 H :   -0.029076
  21 H :   -0.026102
  22 H :   -0.023156
  23 H :   -0.031735
  24 H :   -0.025039
  25 H :   -0.005125
  26 H :   -0.004094
  27 H :   -0.023620
  28 H :   -0.056899
  29 H :   -0.064860
  30 H :   -0.012136
  31 H :   -0.027852
  32 H :   -0.019715
  33 H :   -0.034329
  34 H :   -0.152719
  35 H :   -0.023285

  Mayer bond orders larger than 0.100000
B(  0-C ,  1-C ) :   0.9777 B(  0-C , 20-H ) :   0.9745 B(  0-C , 21-H ) :   0.9739
B(  0-C , 22-H ) :   0.9729 B(  1-C ,  2-O ) :   0.8975 B(  1-C , 23-H ) :   0.9680
B(  1-C , 24-H ) :   0.9806 B(  2-O ,  3-C ) :   1.0931 B(  3-C ,  4-O ) :   2.0127
B(  3-C ,  5-C ) :   1.0660 B(  5-C ,  6-C ) :   1.6248 B(  5-C , 12-C ) :   0.9534
B(  6-C ,  7-C ) :   0.9669 B(  6-C ,  8-N ) :   1.1595 B(  7-C , 25-H ) :   0.9630
B(  7-C , 26-H ) :   0.9568 B(  7-C , 27-H ) :   0.9894 B(  8-N ,  9-C ) :   1.1858
B(  8-N , 28-H ) :   0.9465 B(  9-C , 10-S ) :   1.6037 B(  9-C , 11-N ) :   1.3116
B( 11-N , 12-C ) :   0.9601 B( 11-N , 29-H ) :   0.9485 B( 12-C , 13-C ) :   0.9650
B( 12-C , 30-H ) :   1.0007 B( 13-C , 14-C ) :   1.3517 B( 13-C , 19-C ) :   1.3764
B( 14-C , 15-C ) :   1.3964 B( 14-C , 31-H ) :   0.9722 B( 15-C , 16-C ) :   1.3576
B( 15-C , 32-H ) :   0.9704 B( 16-C , 17-C ) :   1.3318 B( 16-C , 33-H ) :   0.9844
B( 17-C , 18-O ) :   1.1074 B( 17-C , 19-C ) :   1.3654 B( 18-O , 34-H ) :   0.9787
B( 19-C , 35-H ) :   0.9592

MP2 TOTAL ENERGY:    -1274.327413454 Eh
FINAL SINGLE POINT ENERGY     -1274.327413453861

DIPOLE MOMENT
-------------
                                X             Y             Z
Electronic contribution:      9.58286       9.33725       7.31935
Nuclear contribution   :    -10.60698     -11.02459      -7.20565
                        -----------------------------------------
Total Dipole Moment    :     -1.02411      -1.68733       0.11370
                        -----------------------------------------
Magnitude (a.u.)       :      1.97708
Magnitude (Debye)      :      5.02533

Rotational constants in cm-1:     0.012221     0.008645     0.006121
Rotational constants in MHz :   366.364196   259.166807   183.513402

                             ****ORCA TERMINATED NORMALLY****
TOTAL RUN TIME: 0 days 1 hours 42 minutes 44 seconds 642 msec
