                         Program Version 4.2.0 -  RELEASE  -
|  1> ! ri-mp2 cc-pvtz cc-pvtz/c TightSCF NoKeepInts
|  2>
|  3> %scf
|  4>   MaxCore 4096
|  5> end
|  6> *xyz  0  1
|  7>     C       14.8307914   14.5667727   14.7908862
|  8>     C       14.6160574   16.0912838   14.8895471
|  9>     O       15.8566474   16.8195505   14.7712116
| 10>     C       16.8646551   16.6313124   15.6726614
| 11>     O       17.4425930   15.5658774   15.7999974
| 12>     C       17.1052947   17.7954869   16.5903182
| 13>     C       16.9489995   19.0860885   16.1940098
| 14>     C       16.3224969   19.5959248   14.9110047
| 15>     N       17.4368605   20.1358098   16.9765191
| 16>     C       18.2775909   19.9792741   18.0454016
| 17>     S       18.9024165   21.2753332   18.8609302
| 18>     N       18.5913362   18.6892495   18.3910176
| 19>     C       17.9836981   17.4779843   17.8063806
| 20>     C       17.2906058   16.5936144   18.8345216
| 21>     C       17.6260608   15.2327978   18.9519024
| 22>     C       16.9829574   14.4170907   19.8978874
| 23>     C       15.9964247   14.9673054   20.7341636
| 24>     C       15.6583352   16.3225964   20.6174119
| 25>     O       14.7021069   16.8551570   21.4194118
| 26>     C       16.2995190   17.1317227   19.6739089
| 27>     H       15.4749393   14.3188966   13.9378121
| 28>     H       13.8711897   14.0536122   14.6557223
| 29>     H       15.2933828   14.1700814   15.7032468
| 30>     H       13.9449935   16.4068926   14.0803687
| 31>     H       14.1272349   16.3310378   15.8432813
| 32>     H       16.7916234   19.1293642   14.0353832
| 33>     H       16.4280296   20.6807703   14.7879389
| 34>     H       15.2502886   19.3664234   14.8835198
| 35>     H       17.2355520   21.0891307   16.7203243
| 36>     H       19.1981937   18.6003717   19.1963006
| 37>     H       18.8799269   16.9800199   17.4080703
| 38>     H       18.3781163   14.8032825   18.2939057
| 39>     H       17.2470789   13.3639018   19.9753466
| 40>     H       15.4964402   14.3404860   21.4650000
| 41>     H       14.4080461   16.1564130   22.0229367
| 42>     H       16.0265169   18.1790837   19.5997495
| 43> *
| 44>
| 45>                          ****END OF INPUT****

CARTESIAN COORDINATES (ANGSTROEM)
---------------------------------
  C     14.830791   14.566773   14.790886
  C     14.616057   16.091284   14.889547
  O     15.856647   16.819550   14.771212
  C     16.864655   16.631312   15.672661
  O     17.442593   15.565877   15.799997
  C     17.105295   17.795487   16.590318
  C     16.948999   19.086088   16.194010
  C     16.322497   19.595925   14.911005
  N     17.436861   20.135810   16.976519
  C     18.277591   19.979274   18.045402
  S     18.902416   21.275333   18.860930
  N     18.591336   18.689249   18.391018
  C     17.983698   17.477984   17.806381
  C     17.290606   16.593614   18.834522
  C     17.626061   15.232798   18.951902
  C     16.982957   14.417091   19.897887
  C     15.996425   14.967305   20.734164
  C     15.658335   16.322596   20.617412
  O     14.702107   16.855157   21.419412
  C     16.299519   17.131723   19.673909
  H     15.474939   14.318897   13.937812
  H     13.871190   14.053612   14.655722
  H     15.293383   14.170081   15.703247
  H     13.944994   16.406893   14.080369
  H     14.127235   16.331038   15.843281
  H     16.791623   19.129364   14.035383
  H     16.428030   20.680770   14.787939
  H     15.250289   19.366423   14.883520
  H     17.235552   21.089131   16.720324
  H     19.198194   18.600372   19.196301
  H     18.879927   16.980020   17.408070
  H     18.378116   14.803282   18.293906
  H     17.247079   13.363902   19.975347
  H     15.496440   14.340486   21.465000
  H     14.408046   16.156413   22.022937
  H     16.026517   18.179084   19.599749

 Total Charge           Charge          ....    0
 Multiplicity           Mult            ....    1
 Number of Electrons    NEL             ....  154
 Basis Dimension        Dim             ....  828

ORBITAL ENERGIES
----------------

  NO   OCC          E(Eh)            E(eV)
   0   2.0000     -91.888880     -2500.4236
   1   2.0000     -20.593900      -560.3885
   2   2.0000     -20.589274      -560.2626
   3   2.0000     -20.551163      -559.2256
   4   2.0000     -15.629584      -425.3026
   5   2.0000     -15.606500      -424.6745
   6   2.0000     -11.395820      -310.0960
   7   2.0000     -11.383511      -309.7611
   8   2.0000     -11.338902      -308.5472
   9   2.0000     -11.310095      -307.7633
  10   2.0000     -11.306455      -307.6643
  11   2.0000     -11.304650      -307.6152
  12   2.0000     -11.259890      -306.3972
  13   2.0000     -11.259797      -306.3947
  14   2.0000     -11.257205      -306.3241
  15   2.0000     -11.250151      -306.1322
  16   2.0000     -11.240205      -305.8615
  17   2.0000     -11.236359      -305.7569
  18   2.0000     -11.232995      -305.6653
  19   2.0000     -11.222366      -305.3761
  20   2.0000      -8.893960      -242.0170
  21   2.0000      -6.575535      -178.9294
  22   2.0000      -6.573534      -178.8749
  23   2.0000      -6.572944      -178.8589
  24   2.0000      -1.448959       -39.4282
  25   2.0000      -1.413650       -38.4674
  26   2.0000      -1.358356       -36.9628
  27   2.0000      -1.340675       -36.4816
  28   2.0000      -1.237793       -33.6821
  29   2.0000      -1.154394       -31.4127
  30   2.0000      -1.121364       -30.5139
  31   2.0000      -1.043147       -28.3855
  32   2.0000      -1.032664       -28.1002
  33   2.0000      -1.012014       -27.5383
  34   2.0000      -0.999669       -27.2024
  35   2.0000      -0.984466       -26.7887
  36   2.0000      -0.922065       -25.0907
  37   2.0000      -0.889966       -24.2172
  38   2.0000      -0.849575       -23.1181
  39   2.0000      -0.837594       -22.7921
  40   2.0000      -0.830273       -22.5929
  41   2.0000      -0.824479       -22.4352
  42   2.0000      -0.747335       -20.3360
  43   2.0000      -0.730600       -19.8806
  44   2.0000      -0.727643       -19.8002
  45   2.0000      -0.692070       -18.8322
  46   2.0000      -0.685367       -18.6498
  47   2.0000      -0.680512       -18.5177
  48   2.0000      -0.672335       -18.2952
  49   2.0000      -0.666787       -18.1442
  50   2.0000      -0.646777       -17.5997
  51   2.0000      -0.643948       -17.5227
  52   2.0000      -0.634607       -17.2685
  53   2.0000      -0.606603       -16.5065
  54   2.0000      -0.602678       -16.3997
  55   2.0000      -0.600084       -16.3291
  56   2.0000      -0.597297       -16.2533
  57   2.0000      -0.576493       -15.6872
  58   2.0000      -0.573566       -15.6075
  59   2.0000      -0.572120       -15.5682
  60   2.0000      -0.559406       -15.2222
  61   2.0000      -0.549405       -14.9501
  62   2.0000      -0.537601       -14.6289
  63   2.0000      -0.524016       -14.2592
  64   2.0000      -0.517785       -14.0896
  65   2.0000      -0.511030       -13.9058
  66   2.0000      -0.498133       -13.5549
  67   2.0000      -0.493946       -13.4409
  68   2.0000      -0.479480       -13.0473
  69   2.0000      -0.463569       -12.6144
  70   2.0000      -0.458462       -12.4754
  71   2.0000      -0.447803       -12.1853
  72   2.0000      -0.353825        -9.6281
  73   2.0000      -0.346561        -9.4304
  74   2.0000      -0.327955        -8.9241
  75   2.0000      -0.318110        -8.6562
  76   2.0000      -0.316822        -8.6212
  77   0.0000       0.072824         1.9816
  78   0.0000       0.108197         2.9442
  79   0.0000       0.121008         3.2928
  80   0.0000       0.134308         3.6547
  81   0.0000       0.138441         3.7672

MULLIKEN ATOMIC CHARGES
-----------------------
   0 C :   -0.274420
   1 C :    0.035615
   2 O :   -0.379311
   3 C :    0.454758
   4 O :   -0.399196
   5 C :   -0.192829
   6 C :    0.156431
   7 C :   -0.281161
   8 N :   -0.128023
   9 C :    0.206605
  10 S :   -0.441218
  11 N :   -0.211657
  12 C :    0.043352
  13 C :    0.033253
  14 C :   -0.178743
  15 C :   -0.133603
  16 C :   -0.277641
  17 C :    0.314005
  18 O :   -0.358641
  19 C :   -0.254694
  20 H :    0.104415
  21 H :    0.092123
  22 H :    0.110691
  23 H :    0.102285
  24 H :    0.086477
  25 H :    0.129456
  26 H :    0.103385
  27 H :    0.123277
  28 H :    0.198951
  29 H :    0.199827
  30 H :    0.157181
  31 H :    0.163128
  32 H :    0.161404
  33 H :    0.129171
  34 H :    0.240313
  35 H :    0.165031
Sum of atomic charges:   -0.0000000

LOEWDIN ATOMIC CHARGES
----------------------
   0 C :    0.106082
   1 C :   -0.019369
   2 O :    0.290046
   3 C :   -0.415045
   4 O :    0.126184
   5 C :   -0.096594
   6 C :   -0.064452
   7 C :    0.125649
   8 N :    0.405717
   9 C :   -0.458435
  10 S :   -0.036821
  11 N :    0.396214
  12 C :   -0.048756
  13 C :   -0.041380
  14 C :    0.023647
  15 C :    0.040778
  16 C :   -0.001182
  17 C :   -0.192874
  18 O :    0.393215
  19 C :    0.028662
  20 H :   -0.022742
  21 H :   -0.029313
  22 H :   -0.026488
  23 H :   -0.023374
  24 H :   -0.033038
  25 H :   -0.007359
  26 H :   -0.020817
  27 H :   -0.010299
  28 H :   -0.058435
  29 H :   -0.063347
  30 H :   -0.007842
  31 H :   -0.023497
  32 H :   -0.020608
  33 H :   -0.035887
  34 H :   -0.154482
  35 H :   -0.023759

  Mayer bond orders larger than 0.100000
B(  0-C ,  1-C ) :   0.9821 B(  0-C , 20-H ) :   0.9744 B(  0-C , 21-H ) :   0.9742
B(  0-C , 22-H ) :   0.9720 B(  1-C ,  2-O ) :   0.9073 B(  1-C , 23-H ) :   0.9811
B(  1-C , 24-H ) :   0.9739 B(  2-O ,  3-C ) :   1.0559 B(  3-C ,  4-O ) :   2.0228
B(  3-C ,  5-C ) :   1.0331 B(  5-C ,  6-C ) :   1.6644 B(  5-C , 12-C ) :   0.9512
B(  6-C ,  7-C ) :   0.9528 B(  6-C ,  8-N ) :   1.1376 B(  7-C , 25-H ) :   0.9647
B(  7-C , 26-H ) :   0.9903 B(  7-C , 27-H ) :   0.9659 B(  8-N ,  9-C ) :   1.1849
B(  8-N , 28-H ) :   0.9469 B(  9-C , 10-S ) :   1.6100 B(  9-C , 11-N ) :   1.3049
B( 11-N , 12-C ) :   0.9770 B( 11-N , 29-H ) :   0.9486 B( 12-C , 13-C ) :   0.9697
B( 12-C , 30-H ) :   0.9961 B( 13-C , 14-C ) :   1.3776 B( 13-C , 19-C ) :   1.3636
B( 14-C , 15-C ) :   1.3960 B( 14-C , 31-H ) :   0.9625 B( 15-C , 16-C ) :   1.3594
B( 15-C , 32-H ) :   0.9707 B( 16-C , 17-C ) :   1.3330 B( 16-C , 33-H ) :   0.9857
B( 17-C , 18-O ) :   1.1045 B( 17-C , 19-C ) :   1.3667 B( 18-O , 34-H ) :   0.9803
B( 19-C , 35-H ) :   0.9599

MP2 TOTAL ENERGY:    -1274.326268159 Eh
FINAL SINGLE POINT ENERGY     -1274.326268158755

DIPOLE MOMENT
-------------
                                X             Y             Z
Electronic contribution:      9.76179      10.35125       9.53611
Nuclear contribution   :    -11.37153     -11.46981     -10.29810
                        -----------------------------------------
Total Dipole Moment    :     -1.60974      -1.11856      -0.76199
                        -----------------------------------------
Magnitude (a.u.)       :      2.10311
Magnitude (Debye)      :      5.34567

Rotational constants in cm-1:     0.010451     0.009166     0.005806
Rotational constants in MHz :   313.324022   274.785602   174.069739

                             ****ORCA TERMINATED NORMALLY****
TOTAL RUN TIME: 0 days 1 hours 53 minutes 10 seconds 981 msec
