                         Program Version 4.2.0 -  RELEASE  -
|  1> ! ri-mp2 cc-pvtz cc-pvtz/c TightSCF NoKeepInts
|  2>
|  3> %scf
|  4>   MaxCore 4096
|  5> end
|  6> *xyz  0  1
|  7>     C       14.0852964   15.1294505   15.0290522
|  8>     C       14.9518149   16.3165935   15.4793347
|  9>     O       16.2670855   16.1139570   14.9275253
| 10>     C       17.3840653   16.4401040   15.6481940
| 11>     O       18.3839977   15.7469779   15.6176032
| 12>     C       17.2698965   17.6439470   16.5287300
| 13>     C       16.9560525   18.8572726   16.0105876
| 14>     C       16.4960335   19.1672359   14.5995995
| 15>     N       17.1349624   20.0206858   16.7615037
| 16>     C       17.8443635   20.0792036   17.9320510
| 17>     S       18.1160628   21.5098664   18.7152847
| 18>     N       18.3387751   18.8897502   18.4080078
| 19>     C       18.0313490   17.5571047   17.8514233
| 20>     C       17.3857073   16.5917952   18.8341914
| 21>     C       17.8399253   15.2639650   18.9241230
| 22>     C       17.2332401   14.3604615   19.8124469
| 23>     C       16.1612454   14.7879980   20.6146023
| 24>     C       15.7021816   16.1090616   20.5214478
| 25>     O       14.6605368   16.5217294   21.2865084
| 26>     C       16.3071004   17.0061678   19.6351265
| 27>     H       14.5124029   14.1833851   15.3854649
| 28>     H       14.0230944   15.0887497   13.9343626
| 29>     H       13.0680345   15.2192275   15.4291002
| 30>     H       14.5152673   17.2592987   15.1294972
| 31>     H       14.9824341   16.3240516   16.5780499
| 32>     H       16.7821506   18.3860468   13.8848694
| 33>     H       16.9493863   20.0956074   14.2289539
| 34>     H       15.4076430   19.2891608   14.5540646
| 35>     H       16.8102241   20.9058465   16.4050884
| 36>     H       18.8542237   18.9591765   19.2766931
| 37>     H       19.0443775   17.2144148   17.5921093
| 38>     H       18.6604057   14.9287938   18.2925243
| 39>     H       17.5920803   13.3342469   19.8723924
| 40>     H       15.6890451   14.0925974   21.3007353
| 41>     H       14.4107181   15.7820204   21.8608130
| 42>     H       15.9358203   18.0240486   19.5759383
| 43> *
| 44>
| 45>                          ****END OF INPUT****

CARTESIAN COORDINATES (ANGSTROEM)
---------------------------------
  C     14.085296   15.129451   15.029052
  C     14.951815   16.316593   15.479335
  O     16.267086   16.113957   14.927525
  C     17.384065   16.440104   15.648194
  O     18.383998   15.746978   15.617603
  C     17.269896   17.643947   16.528730
  C     16.956052   18.857273   16.010588
  C     16.496033   19.167236   14.599600
  N     17.134962   20.020686   16.761504
  C     17.844364   20.079204   17.932051
  S     18.116063   21.509866   18.715285
  N     18.338775   18.889750   18.408008
  C     18.031349   17.557105   17.851423
  C     17.385707   16.591795   18.834191
  C     17.839925   15.263965   18.924123
  C     17.233240   14.360461   19.812447
  C     16.161245   14.787998   20.614602
  C     15.702182   16.109062   20.521448
  O     14.660537   16.521729   21.286508
  C     16.307100   17.006168   19.635126
  H     14.512403   14.183385   15.385465
  H     14.023094   15.088750   13.934363
  H     13.068034   15.219228   15.429100
  H     14.515267   17.259299   15.129497
  H     14.982434   16.324052   16.578050
  H     16.782151   18.386047   13.884869
  H     16.949386   20.095607   14.228954
  H     15.407643   19.289161   14.554065
  H     16.810224   20.905846   16.405088
  H     18.854224   18.959177   19.276693
  H     19.044377   17.214415   17.592109
  H     18.660406   14.928794   18.292524
  H     17.592080   13.334247   19.872392
  H     15.689045   14.092597   21.300735
  H     14.410718   15.782020   21.860813
  H     15.935820   18.024049   19.575938

 Total Charge           Charge          ....    0
 Multiplicity           Mult            ....    1
 Number of Electrons    NEL             ....  154
 Basis Dimension        Dim             ....  828

ORBITAL ENERGIES
----------------

  NO   OCC          E(Eh)            E(eV)
   0   2.0000     -91.889921     -2500.4519
   1   2.0000     -20.601515      -560.5957
   2   2.0000     -20.598966      -560.5264
   3   2.0000     -20.551491      -559.2345
   4   2.0000     -15.628474      -425.2724
   5   2.0000     -15.609216      -424.7484
   6   2.0000     -11.397823      -310.1505
   7   2.0000     -11.385674      -309.8199
   8   2.0000     -11.335733      -308.4610
   9   2.0000     -11.316134      -307.9277
  10   2.0000     -11.309091      -307.7360
  11   2.0000     -11.306802      -307.6737
  12   2.0000     -11.266104      -306.5663
  13   2.0000     -11.263637      -306.4991
  14   2.0000     -11.263604      -306.4982
  15   2.0000     -11.256220      -306.2973
  16   2.0000     -11.245353      -306.0016
  17   2.0000     -11.241597      -305.8994
  18   2.0000     -11.238470      -305.8143
  19   2.0000     -11.233556      -305.6806
  20   2.0000      -8.895026      -242.0460
  21   2.0000      -6.576606      -178.9586
  22   2.0000      -6.574595      -178.9038
  23   2.0000      -6.574011      -178.8879
  24   2.0000      -1.451041       -39.4848
  25   2.0000      -1.418696       -38.6047
  26   2.0000      -1.363218       -37.0950
  27   2.0000      -1.341285       -36.4982
  28   2.0000      -1.239380       -33.7252
  29   2.0000      -1.160427       -31.5768
  30   2.0000      -1.125585       -30.6287
  31   2.0000      -1.047858       -28.5137
  32   2.0000      -1.040576       -28.3155
  33   2.0000      -1.018216       -27.7071
  34   2.0000      -1.005476       -27.3604
  35   2.0000      -0.989039       -26.9131
  36   2.0000      -0.926040       -25.1988
  37   2.0000      -0.881120       -23.9765
  38   2.0000      -0.856038       -23.2940
  39   2.0000      -0.842693       -22.9308
  40   2.0000      -0.837327       -22.7848
  41   2.0000      -0.835432       -22.7333
  42   2.0000      -0.757519       -20.6131
  43   2.0000      -0.739473       -20.1221
  44   2.0000      -0.731866       -19.9151
  45   2.0000      -0.696607       -18.9556
  46   2.0000      -0.688816       -18.7436
  47   2.0000      -0.682898       -18.5826
  48   2.0000      -0.675321       -18.3764
  49   2.0000      -0.663261       -18.0482
  50   2.0000      -0.658439       -17.9170
  51   2.0000      -0.647834       -17.6285
  52   2.0000      -0.639512       -17.4020
  53   2.0000      -0.612122       -16.6567
  54   2.0000      -0.606365       -16.5000
  55   2.0000      -0.602491       -16.3946
  56   2.0000      -0.595963       -16.2170
  57   2.0000      -0.582570       -15.8525
  58   2.0000      -0.577170       -15.7056
  59   2.0000      -0.569785       -15.5046
  60   2.0000      -0.563074       -15.3220
  61   2.0000      -0.560025       -15.2391
  62   2.0000      -0.550612       -14.9829
  63   2.0000      -0.526186       -14.3183
  64   2.0000      -0.517996       -14.0954
  65   2.0000      -0.514684       -14.0053
  66   2.0000      -0.503456       -13.6997
  67   2.0000      -0.500949       -13.6315
  68   2.0000      -0.489554       -13.3214
  69   2.0000      -0.471916       -12.8415
  70   2.0000      -0.457703       -12.4547
  71   2.0000      -0.451983       -12.2991
  72   2.0000      -0.356676        -9.7057
  73   2.0000      -0.351288        -9.5590
  74   2.0000      -0.329349        -8.9620
  75   2.0000      -0.323614        -8.8060
  76   2.0000      -0.319882        -8.7044
  77   0.0000       0.081388         2.2147
  78   0.0000       0.104028         2.8307
  79   0.0000       0.117004         3.1838
  80   0.0000       0.130698         3.5565
  81   0.0000       0.131402         3.5756

MULLIKEN ATOMIC CHARGES
-----------------------
   0 C :   -0.252272
   1 C :    0.021987
   2 O :   -0.320453
   3 C :    0.424835
   4 O :   -0.379545
   5 C :   -0.227619
   6 C :    0.159597
   7 C :   -0.332819
   8 N :   -0.138225
   9 C :    0.207667
  10 S :   -0.442135
  11 N :   -0.219628
  12 C :    0.063066
  13 C :    0.024193
  14 C :   -0.213664
  15 C :   -0.128340
  16 C :   -0.276899
  17 C :    0.314741
  18 O :   -0.356409
  19 C :   -0.253787
  20 H :    0.106180
  21 H :    0.098702
  22 H :    0.088866
  23 H :    0.084462
  24 H :    0.106824
  25 H :    0.140422
  26 H :    0.126916
  27 H :    0.123458
  28 H :    0.198184
  29 H :    0.201679
  30 H :    0.165155
  31 H :    0.175402
  32 H :    0.164242
  33 H :    0.131532
  34 H :    0.241240
  35 H :    0.172445
Sum of atomic charges:   -0.0000000

LOEWDIN ATOMIC CHARGES
----------------------
   0 C :    0.110937
   1 C :   -0.023906
   2 O :    0.305133
   3 C :   -0.417704
   4 O :    0.122024
   5 C :   -0.088425
   6 C :   -0.083869
   7 C :    0.126168
   8 N :    0.403266
   9 C :   -0.457158
  10 S :   -0.037624
  11 N :    0.395924
  12 C :   -0.049417
  13 C :   -0.044374
  14 C :    0.020660
  15 C :    0.044250
  16 C :   -0.000110
  17 C :   -0.192248
  18 O :    0.394639
  19 C :    0.026781
  20 H :   -0.021745
  21 H :   -0.025996
  22 H :   -0.025604
  23 H :   -0.037131
  24 H :   -0.029079
  25 H :   -0.007576
  26 H :   -0.012368
  27 H :   -0.018521
  28 H :   -0.057065
  29 H :   -0.063559
  30 H :   -0.004632
  31 H :   -0.021299
  32 H :   -0.018829
  33 H :   -0.034923
  34 H :   -0.153267
  35 H :   -0.023353

  Mayer bond orders larger than 0.100000
B(  0-C ,  1-C ) :   0.9837 B(  0-C , 20-H ) :   0.9774 B(  0-C , 21-H ) :   0.9786
B(  0-C , 22-H ) :   0.9765 B(  1-C ,  2-O ) :   0.9028 B(  1-C , 23-H ) :   0.9722
B(  1-C , 24-H ) :   0.9650 B(  2-O ,  3-C ) :   1.1691 B(  3-C ,  4-O ) :   2.0910
B(  3-C ,  5-C ) :   0.9359 B(  5-C ,  6-C ) :   1.7038 B(  5-C , 12-C ) :   0.9410
B(  6-C ,  7-C ) :   0.9362 B(  6-C ,  8-N ) :   1.1153 B(  7-C , 25-H ) :   0.9714
B(  7-C , 26-H ) :   0.9789 B(  7-C , 27-H ) :   0.9670 B(  8-N ,  9-C ) :   1.1944
B(  8-N , 28-H ) :   0.9506 B(  9-C , 10-S ) :   1.6108 B(  9-C , 11-N ) :   1.2931
B( 11-N , 12-C ) :   0.9850 B( 11-N , 29-H ) :   0.9480 B( 12-C , 13-C ) :   0.9674
B( 12-C , 30-H ) :   0.9904 B( 13-C , 14-C ) :   1.3860 B( 13-C , 19-C ) :   1.3536
B( 14-C , 15-C ) :   1.3937 B( 14-C , 31-H ) :   0.9590 B( 15-C , 16-C ) :   1.3615
B( 15-C , 32-H ) :   0.9700 B( 16-C , 17-C ) :   1.3315 B( 16-C , 33-H ) :   0.9848
B( 17-C , 18-O ) :   1.1086 B( 17-C , 19-C ) :   1.3647 B( 18-O , 34-H ) :   0.9794
B( 19-C , 35-H ) :   0.9570

MP2 TOTAL ENERGY:    -1274.331842459 Eh
FINAL SINGLE POINT ENERGY     -1274.331842459458

DIPOLE MOMENT
-------------
                                X             Y             Z
Electronic contribution:     10.32646       8.77050       8.68067
Nuclear contribution   :    -11.95810      -9.88350      -9.05371
                        -----------------------------------------
Total Dipole Moment    :     -1.63164      -1.11300      -0.37304
                        -----------------------------------------
Magnitude (a.u.)       :      2.01002
Magnitude (Debye)      :      5.10906

Rotational constants in cm-1:     0.010630     0.009144     0.006164
Rotational constants in MHz :   318.670932   274.115656   184.786016

                             ****ORCA TERMINATED NORMALLY****
TOTAL RUN TIME: 0 days 1 hours 39 minutes 25 seconds 994 msec
