                         Program Version 4.2.0 -  RELEASE  -
|  1> ! ri-mp2 cc-pvtz cc-pvtz/c TightSCF NoKeepInts
|  2>
|  3> %scf
|  4>   MaxCore 4096
|  5> end
|  6> *xyz  0  1
|  7>     C       14.6080386   15.0649191   16.0721326
|  8>     C       15.9021555   14.8273577   15.2651540
|  9>     O       16.8747503   15.8464684   15.5677961
| 10>     C       16.5796860   17.1561774   15.3171318
| 11>     O       15.9579305   17.4885005   14.3224252
| 12>     C       16.9980402   18.0778932   16.4315277
| 13>     C       16.9916589   19.4243187   16.2541887
| 14>     C       16.3517791   20.1961980   15.1186109
| 15>     N       17.6297491   20.2732365   17.1614087
| 16>     C       18.4626849   19.8510270   18.1617356
| 17>     S       19.2674635   20.9149336   19.1395253
| 18>     N       18.6140371   18.4944514   18.2977693
| 19>     C       17.8559285   17.4701481   17.5546613
| 20>     C       17.1029659   16.5195066   18.4756895
| 21>     C       17.5180646   15.1829953   18.6216567
| 22>     C       16.8218050   14.3088415   19.4733388
| 23>     C       15.7049951   14.7767093   20.1871346
| 24>     C       15.2937751   16.1096517   20.0477666
| 25>     O       14.2156478   16.5636355   20.7348991
| 26>     C       15.9880784   16.9768926   19.1984841
| 27>     H       14.8209966   15.1040549   17.1468997
| 28>     H       13.8971335   14.2484319   15.8978875
| 29>     H       14.1189455   16.0020313   15.7784931
| 30>     H       16.3153652   13.8437994   15.5225599
| 31>     H       15.6741664   14.8300019   14.1905264
| 32>     H       16.8539505   19.9738657   14.1683899
| 33>     H       16.3841557   21.2823327   15.2643155
| 34>     H       15.2971816   19.9137008   15.0058323
| 35>     H       17.5459002   21.2717653   17.0568873
| 36>     H       19.2111741   18.2124763   19.0648268
| 37>     H       18.6807869   16.9485319   17.0487175
| 38>     H       18.3784643   14.8196306   18.0659066
| 39>     H       17.1481337   13.2755826   19.5784759
| 40>     H       15.1644031   14.1055777   20.8464839
| 41>     H       13.8973572   15.8375114   21.2920385
| 42>     H       15.6596512   18.0068437   19.1067223
| 43> *
| 44>
| 45>                          ****END OF INPUT****

CARTESIAN COORDINATES (ANGSTROEM)
---------------------------------
  C     14.608039   15.064919   16.072133
  C     15.902155   14.827358   15.265154
  O     16.874750   15.846468   15.567796
  C     16.579686   17.156177   15.317132
  O     15.957930   17.488501   14.322425
  C     16.998040   18.077893   16.431528
  C     16.991659   19.424319   16.254189
  C     16.351779   20.196198   15.118611
  N     17.629749   20.273236   17.161409
  C     18.462685   19.851027   18.161736
  S     19.267463   20.914934   19.139525
  N     18.614037   18.494451   18.297769
  C     17.855929   17.470148   17.554661
  C     17.102966   16.519507   18.475690
  C     17.518065   15.182995   18.621657
  C     16.821805   14.308841   19.473339
  C     15.704995   14.776709   20.187135
  C     15.293775   16.109652   20.047767
  O     14.215648   16.563636   20.734899
  C     15.988078   16.976893   19.198484
  H     14.820997   15.104055   17.146900
  H     13.897133   14.248432   15.897887
  H     14.118945   16.002031   15.778493
  H     16.315365   13.843799   15.522560
  H     15.674166   14.830002   14.190526
  H     16.853950   19.973866   14.168390
  H     16.384156   21.282333   15.264316
  H     15.297182   19.913701   15.005832
  H     17.545900   21.271765   17.056887
  H     19.211174   18.212476   19.064827
  H     18.680787   16.948532   17.048717
  H     18.378464   14.819631   18.065907
  H     17.148134   13.275583   19.578476
  H     15.164403   14.105578   20.846484
  H     13.897357   15.837511   21.292039
  H     15.659651   18.006844   19.106722

 Total Charge           Charge          ....    0
 Multiplicity           Mult            ....    1
 Number of Electrons    NEL             ....  154
 Basis Dimension        Dim             ....  828

ORBITAL ENERGIES
----------------

  NO   OCC          E(Eh)            E(eV)
   0   2.0000     -91.889887     -2500.4510
   1   2.0000     -20.598955      -560.5261
   2   2.0000     -20.591702      -560.3287
   3   2.0000     -20.541907      -558.9737
   4   2.0000     -15.630377      -425.3242
   5   2.0000     -15.607931      -424.7134
   6   2.0000     -11.393581      -310.0351
   7   2.0000     -11.384453      -309.7867
   8   2.0000     -11.338640      -308.5401
   9   2.0000     -11.316511      -307.9379
  10   2.0000     -11.308665      -307.7244
  11   2.0000     -11.296716      -307.3993
  12   2.0000     -11.263015      -306.4822
  13   2.0000     -11.259202      -306.3785
  14   2.0000     -11.257961      -306.3447
  15   2.0000     -11.252414      -306.1938
  16   2.0000     -11.246496      -306.0327
  17   2.0000     -11.241374      -305.8933
  18   2.0000     -11.241070      -305.8851
  19   2.0000     -11.222143      -305.3700
  20   2.0000      -8.894945      -242.0438
  21   2.0000      -6.576514      -178.9560
  22   2.0000      -6.574519      -178.9018
  23   2.0000      -6.573925      -178.8856
  24   2.0000      -1.448270       -39.4094
  25   2.0000      -1.418691       -38.6046
  26   2.0000      -1.351954       -36.7885
  27   2.0000      -1.341491       -36.5038
  28   2.0000      -1.239378       -33.7252
  29   2.0000      -1.160080       -31.5674
  30   2.0000      -1.122085       -30.5335
  31   2.0000      -1.044661       -28.4267
  32   2.0000      -1.032712       -28.1015
  33   2.0000      -1.017653       -27.6918
  34   2.0000      -0.997442       -27.1418
  35   2.0000      -0.985964       -26.8294
  36   2.0000      -0.923264       -25.1233
  37   2.0000      -0.894778       -24.3482
  38   2.0000      -0.847651       -23.0658
  39   2.0000      -0.840284       -22.8653
  40   2.0000      -0.836670       -22.7669
  41   2.0000      -0.815361       -22.1871
  42   2.0000      -0.751603       -20.4522
  43   2.0000      -0.735544       -20.0152
  44   2.0000      -0.722867       -19.6702
  45   2.0000      -0.697684       -18.9849
  46   2.0000      -0.689906       -18.7733
  47   2.0000      -0.676395       -18.4056
  48   2.0000      -0.671713       -18.2782
  49   2.0000      -0.662717       -18.0334
  50   2.0000      -0.647700       -17.6248
  51   2.0000      -0.640641       -17.4327
  52   2.0000      -0.635857       -17.3026
  53   2.0000      -0.612559       -16.6686
  54   2.0000      -0.609174       -16.5765
  55   2.0000      -0.602034       -16.3822
  56   2.0000      -0.600899       -16.3513
  57   2.0000      -0.579217       -15.7613
  58   2.0000      -0.570352       -15.5201
  59   2.0000      -0.566463       -15.4142
  60   2.0000      -0.552321       -15.0294
  61   2.0000      -0.546151       -14.8615
  62   2.0000      -0.533749       -14.5241
  63   2.0000      -0.531424       -14.4608
  64   2.0000      -0.525836       -14.3087
  65   2.0000      -0.514114       -13.9898
  66   2.0000      -0.501793       -13.6545
  67   2.0000      -0.499433       -13.5903
  68   2.0000      -0.479289       -13.0421
  69   2.0000      -0.464941       -12.6517
  70   2.0000      -0.453346       -12.3362
  71   2.0000      -0.444737       -12.1019
  72   2.0000      -0.354048        -9.6341
  73   2.0000      -0.352367        -9.5884
  74   2.0000      -0.329147        -8.9566
  75   2.0000      -0.324180        -8.8214
  76   2.0000      -0.319254        -8.6873
  77   0.0000       0.073913         2.0113
  78   0.0000       0.102524         2.7898
  79   0.0000       0.123845         3.3700
  80   0.0000       0.130909         3.5622
  81   0.0000       0.135599         3.6898

MULLIKEN ATOMIC CHARGES
-----------------------
   0 C :   -0.318005
   1 C :    0.022477
   2 O :   -0.371298
   3 C :    0.449681
   4 O :   -0.429752
   5 C :   -0.233577
   6 C :    0.173761
   7 C :   -0.266717
   8 N :   -0.125897
   9 C :    0.209799
  10 S :   -0.440060
  11 N :   -0.215180
  12 C :    0.064603
  13 C :    0.009590
  14 C :   -0.174054
  15 C :   -0.135451
  16 C :   -0.272594
  17 C :    0.305735
  18 O :   -0.358824
  19 C :   -0.225095
  20 H :    0.111563
  21 H :    0.105523
  22 H :    0.110497
  23 H :    0.112603
  24 H :    0.121787
  25 H :    0.130664
  26 H :    0.094727
  27 H :    0.133127
  28 H :    0.199987
  29 H :    0.200453
  30 H :    0.153979
  31 H :    0.156989
  32 H :    0.161857
  33 H :    0.131954
  34 H :    0.240879
  35 H :    0.164270
Sum of atomic charges:   -0.0000000

LOEWDIN ATOMIC CHARGES
----------------------
   0 C :    0.105933
   1 C :   -0.018047
   2 O :    0.298960
   3 C :   -0.418340
   4 O :    0.100590
   5 C :   -0.097655
   6 C :   -0.054684
   7 C :    0.131644
   8 N :    0.407618
   9 C :   -0.456774
  10 S :   -0.035129
  11 N :    0.394861
  12 C :   -0.053978
  13 C :   -0.041074
  14 C :    0.017742
  15 C :    0.038960
  16 C :   -0.001259
  17 C :   -0.191320
  18 O :    0.396193
  19 C :    0.033333
  20 H :   -0.026206
  21 H :   -0.025977
  22 H :   -0.026717
  23 H :   -0.024811
  24 H :   -0.028119
  25 H :   -0.004400
  26 H :   -0.023548
  27 H :   -0.004494
  28 H :   -0.056935
  29 H :   -0.064231
  30 H :   -0.012479
  31 H :   -0.027978
  32 H :   -0.020739
  33 H :   -0.034926
  34 H :   -0.153462
  35 H :   -0.022549

  Mayer bond orders larger than 0.100000
B(  0-C ,  1-C ) :   0.9561 B(  0-C , 20-H ) :   0.9690 B(  0-C , 21-H ) :   0.9784
B(  0-C , 22-H ) :   0.9748 B(  1-C ,  2-O ) :   0.8922 B(  1-C , 23-H ) :   0.9830
B(  1-C , 24-H ) :   0.9836 B(  2-O ,  3-C ) :   1.1299 B(  3-C ,  4-O ) :   1.9803
B(  3-C ,  5-C ) :   1.0681 B(  5-C ,  6-C ) :   1.6311 B(  5-C , 12-C ) :   0.9542
B(  6-C ,  7-C ) :   0.9656 B(  6-C ,  8-N ) :   1.1559 B(  7-C , 25-H ) :   0.9581
B(  7-C , 26-H ) :   0.9902 B(  7-C , 27-H ) :   0.9616 B(  8-N ,  9-C ) :   1.1859
B(  8-N , 28-H ) :   0.9463 B(  9-C , 10-S ) :   1.6085 B(  9-C , 11-N ) :   1.3087
B( 11-N , 12-C ) :   0.9681 B( 11-N , 29-H ) :   0.9486 B( 12-C , 13-C ) :   0.9589
B( 12-C , 30-H ) :   1.0016 B( 13-C , 14-C ) :   1.3573 B( 13-C , 19-C ) :   1.3831
B( 14-C , 15-C ) :   1.3909 B( 14-C , 31-H ) :   0.9700 B( 15-C , 16-C ) :   1.3567
B( 15-C , 32-H ) :   0.9711 B( 16-C , 17-C ) :   1.3342 B( 16-C , 33-H ) :   0.9848
B( 17-C , 18-O ) :   1.1062 B( 17-C , 19-C ) :   1.3644 B( 18-O , 34-H ) :   0.9795
B( 19-C , 35-H ) :   0.9589

MP2 TOTAL ENERGY:    -1274.339526020 Eh
FINAL SINGLE POINT ENERGY     -1274.339526019507

DIPOLE MOMENT
-------------
                                X             Y             Z
Electronic contribution:      9.15254       9.92155       6.53269
Nuclear contribution   :    -10.09968     -11.64905      -6.69338
                        -----------------------------------------
Total Dipole Moment    :     -0.94713      -1.72750      -0.16069
                        -----------------------------------------
Magnitude (a.u.)       :      1.97665
Magnitude (Debye)      :      5.02424

Rotational constants in cm-1:     0.012320     0.008720     0.006155
Rotational constants in MHz :   369.348109   261.415727   184.526748

                             ****ORCA TERMINATED NORMALLY****
TOTAL RUN TIME: 0 days 2 hours 8 minutes 51 seconds 33 msec
