                         Program Version 4.2.0 -  RELEASE  -
|  1> ! ri-mp2 cc-pvtz cc-pvtz/c TightSCF NoKeepInts
|  2>
|  3> %scf
|  4>   MaxCore 4096
|  5> end
|  6> *xyz  0  1
|  7>     C       13.7087203   15.7596441   14.2114817
|  8>     C       15.2132602   15.4799371   14.3644793
|  9>     O       15.8142526   16.6652352   14.9140408
| 10>     C       16.8297754   16.5429591   15.8170814
| 11>     O       17.4786361   15.5154453   15.9267443
| 12>     C       17.0185928   17.7238774   16.7287845
| 13>     C       16.6896289   18.9947444   16.3729159
| 14>     C       15.8864337   19.4520349   15.1707434
| 15>     N       17.1310860   20.0836732   17.1292526
| 16>     C       18.0755799   20.0104754   18.1169231
| 17>     S       18.6309405   21.3599269   18.8954685
| 18>     N       18.5538466   18.7592041   18.4110041
| 19>     C       18.0286909   17.4945444   17.8611150
| 20>     C       17.5324996   16.5363423   18.9360937
| 21>     C       18.0518156   15.2326288   19.0307886
| 22>     C       17.5949013   14.3518037   20.0254807
| 23>     C       16.6114430   14.7790825   20.9341247
| 24>     C       16.0910840   16.0773044   20.8408400
| 25>     O       15.1387504   16.4911325   21.7144480
| 26>     C       16.5476027   16.9515219   19.8492546
| 27>     H       13.2581827   15.9946037   15.1839527
| 28>     H       13.1951066   14.8828767   13.7985045
| 29>     H       13.5392154   16.6071098   13.5357861
| 30>     H       15.3405784   14.6221380   15.0397141
| 31>     H       15.6684100   15.2323487   13.3966449
| 32>     H       16.3515671   19.1097515   14.2378110
| 33>     H       15.8005844   20.5434606   15.1046985
| 34>     H       14.8668162   19.0484800   15.2095203
| 35>     H       16.8054602   21.0114868   16.9103386
| 36>     H       19.2329718   18.7293976   19.1609782
| 37>     H       18.9348178   17.1001076   17.3785985
| 38>     H       18.8012712   14.8968509   18.3179702
| 39>     H       17.9991184   13.3428918   20.0846014
| 40>     H       16.2546624   14.1015616   21.7026061
| 41>     H       14.9747602   15.7616897   22.3306914
| 42>     H       16.1359368   17.9537275   19.7945186
| 43> *
| 44>
| 45>                          ****END OF INPUT****

CARTESIAN COORDINATES (ANGSTROEM)
---------------------------------
  C     13.708720   15.759644   14.211482
  C     15.213260   15.479937   14.364479
  O     15.814253   16.665235   14.914041
  C     16.829775   16.542959   15.817081
  O     17.478636   15.515445   15.926744
  C     17.018593   17.723877   16.728784
  C     16.689629   18.994744   16.372916
  C     15.886434   19.452035   15.170743
  N     17.131086   20.083673   17.129253
  C     18.075580   20.010475   18.116923
  S     18.630941   21.359927   18.895468
  N     18.553847   18.759204   18.411004
  C     18.028691   17.494544   17.861115
  C     17.532500   16.536342   18.936094
  C     18.051816   15.232629   19.030789
  C     17.594901   14.351804   20.025481
  C     16.611443   14.779082   20.934125
  C     16.091084   16.077304   20.840840
  O     15.138750   16.491132   21.714448
  C     16.547603   16.951522   19.849255
  H     13.258183   15.994604   15.183953
  H     13.195107   14.882877   13.798504
  H     13.539215   16.607110   13.535786
  H     15.340578   14.622138   15.039714
  H     15.668410   15.232349   13.396645
  H     16.351567   19.109751   14.237811
  H     15.800584   20.543461   15.104698
  H     14.866816   19.048480   15.209520
  H     16.805460   21.011487   16.910339
  H     19.232972   18.729398   19.160978
  H     18.934818   17.100108   17.378598
  H     18.801271   14.896851   18.317970
  H     17.999118   13.342892   20.084601
  H     16.254662   14.101562   21.702606
  H     14.974760   15.761690   22.330691
  H     16.135937   17.953727   19.794519

 Total Charge           Charge          ....    0
 Multiplicity           Mult            ....    1
 Number of Electrons    NEL             ....  154
 Basis Dimension        Dim             ....  828

ORBITAL ENERGIES
----------------

  NO   OCC          E(Eh)            E(eV)
   0   2.0000     -91.887874     -2500.3962
   1   2.0000     -20.603249      -560.6429
   2   2.0000     -20.591470      -560.3224
   3   2.0000     -20.544968      -559.0570
   4   2.0000     -15.628493      -425.2729
   5   2.0000     -15.605498      -424.6472
   6   2.0000     -11.395315      -310.0823
   7   2.0000     -11.382368      -309.7300
   8   2.0000     -11.338295      -308.5307
   9   2.0000     -11.307384      -307.6896
  10   2.0000     -11.304021      -307.5981
  11   2.0000     -11.299697      -307.4804
  12   2.0000     -11.261138      -306.4311
  13   2.0000     -11.259011      -306.3733
  14   2.0000     -11.254608      -306.2535
  15   2.0000     -11.247413      -306.0577
  16   2.0000     -11.237667      -305.7925
  17   2.0000     -11.234508      -305.7065
  18   2.0000     -11.233812      -305.6876
  19   2.0000     -11.230515      -305.5978
  20   2.0000      -8.892959      -241.9897
  21   2.0000      -6.574537      -178.9022
  22   2.0000      -6.572533      -178.8477
  23   2.0000      -6.571946      -178.8317
  24   2.0000      -1.454781       -39.5866
  25   2.0000      -1.411216       -38.4011
  26   2.0000      -1.357036       -36.9268
  27   2.0000      -1.339814       -36.4582
  28   2.0000      -1.236940       -33.6588
  29   2.0000      -1.152024       -31.3482
  30   2.0000      -1.120566       -30.4921
  31   2.0000      -1.044931       -28.4340
  32   2.0000      -1.036754       -28.2115
  33   2.0000      -1.009573       -27.4719
  34   2.0000      -0.998744       -27.1772
  35   2.0000      -0.983758       -26.7694
  36   2.0000      -0.920463       -25.0471
  37   2.0000      -0.889204       -24.1965
  38   2.0000      -0.846980       -23.0475
  39   2.0000      -0.834493       -22.7077
  40   2.0000      -0.827663       -22.5219
  41   2.0000      -0.817461       -22.2442
  42   2.0000      -0.762535       -20.7496
  43   2.0000      -0.736133       -20.0312
  44   2.0000      -0.725826       -19.7507
  45   2.0000      -0.690829       -18.7984
  46   2.0000      -0.684787       -18.6340
  47   2.0000      -0.679778       -18.4977
  48   2.0000      -0.674823       -18.3629
  49   2.0000      -0.660701       -17.9786
  50   2.0000      -0.648998       -17.6601
  51   2.0000      -0.642440       -17.4817
  52   2.0000      -0.633353       -17.2344
  53   2.0000      -0.603407       -16.4195
  54   2.0000      -0.598560       -16.2876
  55   2.0000      -0.594992       -16.1906
  56   2.0000      -0.592517       -16.1232
  57   2.0000      -0.581783       -15.8311
  58   2.0000      -0.572855       -15.5882
  59   2.0000      -0.564399       -15.3581
  60   2.0000      -0.561011       -15.2659
  61   2.0000      -0.557531       -15.1712
  62   2.0000      -0.541249       -14.7281
  63   2.0000      -0.523141       -14.2354
  64   2.0000      -0.515576       -14.0295
  65   2.0000      -0.509455       -13.8630
  66   2.0000      -0.501175       -13.6377
  67   2.0000      -0.493932       -13.4406
  68   2.0000      -0.480796       -13.0831
  69   2.0000      -0.466378       -12.6908
  70   2.0000      -0.457865       -12.4591
  71   2.0000      -0.454514       -12.3679
  72   2.0000      -0.353032        -9.6065
  73   2.0000      -0.344231        -9.3670
  74   2.0000      -0.326948        -8.8967
  75   2.0000      -0.317019        -8.6265
  76   2.0000      -0.313959        -8.5432
  77   0.0000       0.077339         2.1045
  78   0.0000       0.111921         3.0455
  79   0.0000       0.120191         3.2706
  80   0.0000       0.135950         3.6994
  81   0.0000       0.138883         3.7792

MULLIKEN ATOMIC CHARGES
-----------------------
   0 C :   -0.270731
   1 C :    0.032915
   2 O :   -0.338165
   3 C :    0.417518
   4 O :   -0.421345
   5 C :   -0.176934
   6 C :    0.162365
   7 C :   -0.281888
   8 N :   -0.128770
   9 C :    0.207448
  10 S :   -0.442679
  11 N :   -0.210570
  12 C :    0.042578
  13 C :    0.032030
  14 C :   -0.165439
  15 C :   -0.134718
  16 C :   -0.277142
  17 C :    0.314168
  18 O :   -0.359265
  19 C :   -0.251669
  20 H :    0.098645
  21 H :    0.100236
  22 H :    0.091671
  23 H :    0.102658
  24 H :    0.096465
  25 H :    0.125711
  26 H :    0.103016
  27 H :    0.128993
  28 H :    0.198819
  29 H :    0.199949
  30 H :    0.155029
  31 H :    0.158270
  32 H :    0.159832
  33 H :    0.128087
  34 H :    0.239892
  35 H :    0.163019
Sum of atomic charges:   -0.0000000

LOEWDIN ATOMIC CHARGES
----------------------
   0 C :    0.105205
   1 C :   -0.014438
   2 O :    0.307300
   3 C :   -0.416248
   4 O :    0.104102
   5 C :   -0.092143
   6 C :   -0.064143
   7 C :    0.124869
   8 N :    0.405439
   9 C :   -0.458740
  10 S :   -0.037808
  11 N :    0.396543
  12 C :   -0.048286
  13 C :   -0.040422
  14 C :    0.025265
  15 C :    0.040918
  16 C :   -0.001247
  17 C :   -0.192637
  18 O :    0.392943
  19 C :    0.029547
  20 H :   -0.025996
  21 H :   -0.023568
  22 H :   -0.029846
  23 H :   -0.025412
  24 H :   -0.030342
  25 H :   -0.009388
  26 H :   -0.021293
  27 H :   -0.009706
  28 H :   -0.058802
  29 H :   -0.063056
  30 H :   -0.008336
  31 H :   -0.024010
  32 H :   -0.021112
  33 H :   -0.036233
  34 H :   -0.154938
  35 H :   -0.023982

  Mayer bond orders larger than 0.100000
B(  0-C ,  1-C ) :   0.9720 B(  0-C , 20-H ) :   0.9762 B(  0-C , 21-H ) :   0.9783
B(  0-C , 22-H ) :   0.9787 B(  1-C ,  2-O ) :   0.9018 B(  1-C , 23-H ) :   0.9733
B(  1-C , 24-H ) :   0.9819 B(  2-O ,  3-C ) :   1.1540 B(  3-C ,  4-O ) :   1.9873
B(  3-C ,  5-C ) :   1.0450 B(  5-C ,  6-C ) :   1.6550 B(  5-C , 12-C ) :   0.9496
B(  6-C ,  7-C ) :   0.9540 B(  6-C ,  8-N ) :   1.1361 B(  7-C , 25-H ) :   0.9651
B(  7-C , 26-H ) :   0.9911 B(  7-C , 27-H ) :   0.9638 B(  8-N ,  9-C ) :   1.1852
B(  8-N , 28-H ) :   0.9468 B(  9-C , 10-S ) :   1.6077 B(  9-C , 11-N ) :   1.3070
B( 11-N , 12-C ) :   0.9764 B( 11-N , 29-H ) :   0.9485 B( 12-C , 13-C ) :   0.9736
B( 12-C , 30-H ) :   0.9971 B( 13-C , 14-C ) :   1.3758 B( 13-C , 19-C ) :   1.3661
B( 14-C , 15-C ) :   1.3975 B( 14-C , 31-H ) :   0.9640 B( 15-C , 16-C ) :   1.3584
B( 15-C , 32-H ) :   0.9712 B( 16-C , 17-C ) :   1.3335 B( 16-C , 33-H ) :   0.9860
B( 17-C , 18-O ) :   1.1031 B( 17-C , 19-C ) :   1.3675 B( 18-O , 34-H ) :   0.9807
B( 19-C , 35-H ) :   0.9604

MP2 TOTAL ENERGY:    -1274.340608147 Eh
FINAL SINGLE POINT ENERGY     -1274.340608147213

DIPOLE MOMENT
-------------
                                X             Y             Z
Electronic contribution:     11.06715       8.64870      11.52593
Nuclear contribution   :    -12.47408      -9.99591     -12.59777
                        -----------------------------------------
Total Dipole Moment    :     -1.40693      -1.34721      -1.07184
                        -----------------------------------------
Magnitude (a.u.)       :      2.22335
Magnitude (Debye)      :      5.65130

Rotational constants in cm-1:     0.009668     0.009030     0.005598
Rotational constants in MHz :   289.852099   270.712772   167.832452

                             ****ORCA TERMINATED NORMALLY****
TOTAL RUN TIME: 0 days 1 hours 37 minutes 59 seconds 799 msec
