                         Program Version 4.2.0 -  RELEASE  -
|  1> ! ri-mp2 cc-pvtz cc-pvtz/c TightSCF NoKeepInts
|  2>
|  3> %scf
|  4>   MaxCore 4096
|  5> end
|  6> *xyz  0  1
|  7>     C       13.7845468   16.5380340   14.9660730
|  8>     C       14.9494146   15.9320407   15.7684469
|  9>     O       16.1614532   16.0525729   14.9922278
| 10>     C       17.3201635   16.5530931   15.5267195
| 11>     O       18.4053937   16.0774605   15.2495779
| 12>     C       17.1654528   17.6450581   16.5314460
| 13>     C       16.7167233   18.8653127   16.1517177
| 14>     C       16.1441667   19.2595692   14.8062855
| 15>     N       16.8640783   19.9720758   16.9894952
| 16>     C       17.6530660   19.9885963   18.1097142
| 17>     S       17.8739651   21.3644060   19.0000005
| 18>     N       18.2731209   18.8081826   18.4395788
| 19>     C       18.0330804   17.5085760   17.7810298
| 20>     C       17.5529718   16.3988690   18.7035359
| 21>     C       18.1058736   15.1097418   18.6036148
| 22>     C       17.6497008   14.0714191   19.4326330
| 23>     C       16.6293786   14.3241560   20.3656849
| 24>     C       16.0714687   15.6064688   20.4614095
| 25>     O       15.0784454   15.8504814   21.3529343
| 26>     C       16.5262752   16.6380546   19.6335912
| 27>     H       12.8300954   16.3273141   15.4639228
| 28>     H       13.7445814   16.1062270   13.9579831
| 29>     H       13.8823718   17.6238483   14.8756232
| 30>     H       15.0168946   16.4267623   16.7457313
| 31>     H       14.7502957   14.8681834   15.9533133
| 32>     H       16.1061334   18.4284226   14.0932972
| 33>     H       16.7606992   20.0389275   14.3401667
| 34>     H       15.1271942   19.6561155   14.9107250
| 35>     H       16.4517324   20.8555983   16.7338254
| 36>     H       18.8480320   18.8463649   19.2720921
| 37>     H       19.0468190   17.2842292   17.4161928
| 38>     H       18.8866357   14.9109232   17.8718212
| 39>     H       18.0847749   13.0769278   19.3470182
| 40>     H       16.2736085   13.5244620   21.0070768
| 41>     H       14.9391482   15.0383957   21.8634066
| 42>     H       16.0792442   17.6231294   19.7200881
| 43> *
| 44>
| 45>                          ****END OF INPUT****

CARTESIAN COORDINATES (ANGSTROEM)
---------------------------------
  C     13.784547   16.538034   14.966073
  C     14.949415   15.932041   15.768447
  O     16.161453   16.052573   14.992228
  C     17.320163   16.553093   15.526720
  O     18.405394   16.077461   15.249578
  C     17.165453   17.645058   16.531446
  C     16.716723   18.865313   16.151718
  C     16.144167   19.259569   14.806285
  N     16.864078   19.972076   16.989495
  C     17.653066   19.988596   18.109714
  S     17.873965   21.364406   19.000000
  N     18.273121   18.808183   18.439579
  C     18.033080   17.508576   17.781030
  C     17.552972   16.398869   18.703536
  C     18.105874   15.109742   18.603615
  C     17.649701   14.071419   19.432633
  C     16.629379   14.324156   20.365685
  C     16.071469   15.606469   20.461409
  O     15.078445   15.850481   21.352934
  C     16.526275   16.638055   19.633591
  H     12.830095   16.327314   15.463923
  H     13.744581   16.106227   13.957983
  H     13.882372   17.623848   14.875623
  H     15.016895   16.426762   16.745731
  H     14.750296   14.868183   15.953313
  H     16.106133   18.428423   14.093297
  H     16.760699   20.038927   14.340167
  H     15.127194   19.656115   14.910725
  H     16.451732   20.855598   16.733825
  H     18.848032   18.846365   19.272092
  H     19.046819   17.284229   17.416193
  H     18.886636   14.910923   17.871821
  H     18.084775   13.076928   19.347018
  H     16.273609   13.524462   21.007077
  H     14.939148   15.038396   21.863407
  H     16.079244   17.623129   19.720088

 Total Charge           Charge          ....    0
 Multiplicity           Mult            ....    1
 Number of Electrons    NEL             ....  154
 Basis Dimension        Dim             ....  828

ORBITAL ENERGIES
----------------

  NO   OCC          E(Eh)            E(eV)
   0   2.0000     -91.889516     -2500.4408
   1   2.0000     -20.600922      -560.5796
   2   2.0000     -20.600637      -560.5718
   3   2.0000     -20.552870      -559.2720
   4   2.0000     -15.626873      -425.2288
   5   2.0000     -15.609645      -424.7600
   6   2.0000     -11.398905      -310.1800
   7   2.0000     -11.385595      -309.8178
   8   2.0000     -11.332629      -308.3765
   9   2.0000     -11.318184      -307.9834
  10   2.0000     -11.310643      -307.7782
  11   2.0000     -11.305501      -307.6383
  12   2.0000     -11.265786      -306.5576
  13   2.0000     -11.264445      -306.5211
  14   2.0000     -11.263716      -306.5013
  15   2.0000     -11.258529      -306.3601
  16   2.0000     -11.247160      -306.0508
  17   2.0000     -11.243261      -305.9447
  18   2.0000     -11.240837      -305.8787
  19   2.0000     -11.237194      -305.7796
  20   2.0000      -8.894625      -242.0351
  21   2.0000      -6.576208      -178.9477
  22   2.0000      -6.574194      -178.8929
  23   2.0000      -6.573613      -178.8771
  24   2.0000      -1.449313       -39.4378
  25   2.0000      -1.420347       -38.6496
  26   2.0000      -1.362731       -37.0818
  27   2.0000      -1.340550       -36.4782
  28   2.0000      -1.239263       -33.7220
  29   2.0000      -1.162373       -31.6298
  30   2.0000      -1.126361       -30.6498
  31   2.0000      -1.048899       -28.5420
  32   2.0000      -1.041636       -28.3443
  33   2.0000      -1.020055       -27.7571
  34   2.0000      -1.005990       -27.3744
  35   2.0000      -0.989595       -26.9283
  36   2.0000      -0.926633       -25.2150
  37   2.0000      -0.887187       -24.1416
  38   2.0000      -0.853526       -23.2256
  39   2.0000      -0.842775       -22.9331
  40   2.0000      -0.838368       -22.8132
  41   2.0000      -0.836684       -22.7673
  42   2.0000      -0.759074       -20.6555
  43   2.0000      -0.738016       -20.0824
  44   2.0000      -0.732582       -19.9346
  45   2.0000      -0.698096       -18.9962
  46   2.0000      -0.689805       -18.7706
  47   2.0000      -0.683554       -18.6004
  48   2.0000      -0.674845       -18.3635
  49   2.0000      -0.664979       -18.0950
  50   2.0000      -0.652435       -17.7537
  51   2.0000      -0.639424       -17.3996
  52   2.0000      -0.636335       -17.3156
  53   2.0000      -0.620750       -16.8915
  54   2.0000      -0.611287       -16.6340
  55   2.0000      -0.606885       -16.5142
  56   2.0000      -0.603897       -16.4329
  57   2.0000      -0.584416       -15.9028
  58   2.0000      -0.577809       -15.7230
  59   2.0000      -0.572413       -15.5762
  60   2.0000      -0.563568       -15.3355
  61   2.0000      -0.558357       -15.1937
  62   2.0000      -0.542580       -14.7643
  63   2.0000      -0.535548       -14.5730
  64   2.0000      -0.523551       -14.2465
  65   2.0000      -0.515592       -14.0300
  66   2.0000      -0.502181       -13.6650
  67   2.0000      -0.500690       -13.6245
  68   2.0000      -0.489435       -13.3182
  69   2.0000      -0.469099       -12.7648
  70   2.0000      -0.459243       -12.4966
  71   2.0000      -0.451650       -12.2900
  72   2.0000      -0.356436        -9.6991
  73   2.0000      -0.352786        -9.5998
  74   2.0000      -0.329116        -8.9557
  75   2.0000      -0.325710        -8.8630
  76   2.0000      -0.319831        -8.7030
  77   0.0000       0.086470         2.3530
  78   0.0000       0.102449         2.7878
  79   0.0000       0.118081         3.2131
  80   0.0000       0.127584         3.4717
  81   0.0000       0.129464         3.5229

MULLIKEN ATOMIC CHARGES
-----------------------
   0 C :   -0.281952
   1 C :    0.021877
   2 O :   -0.331471
   3 C :    0.426724
   4 O :   -0.375806
   5 C :   -0.235905
   6 C :    0.174121
   7 C :   -0.354900
   8 N :   -0.138030
   9 C :    0.207920
  10 S :   -0.443305
  11 N :   -0.221977
  12 C :    0.067187
  13 C :    0.024175
  14 C :   -0.222825
  15 C :   -0.127786
  16 C :   -0.276269
  17 C :    0.315292
  18 O :   -0.355544
  19 C :   -0.255288
  20 H :    0.103797
  21 H :    0.108567
  22 H :    0.089950
  23 H :    0.102471
  24 H :    0.120434
  25 H :    0.135545
  26 H :    0.148255
  27 H :    0.119766
  28 H :    0.197708
  29 H :    0.201892
  30 H :    0.166684
  31 H :    0.175510
  32 H :    0.164974
  33 H :    0.132077
  34 H :    0.241515
  35 H :    0.174616
Sum of atomic charges:   -0.0000000

LOEWDIN ATOMIC CHARGES
----------------------
   0 C :    0.106979
   1 C :   -0.015192
   2 O :    0.301551
   3 C :   -0.416039
   4 O :    0.123954
   5 C :   -0.085340
   6 C :   -0.090533
   7 C :    0.123592
   8 N :    0.403198
   9 C :   -0.456157
  10 S :   -0.038531
  11 N :    0.395837
  12 C :   -0.050071
  13 C :   -0.044398
  14 C :    0.019211
  15 C :    0.045113
  16 C :    0.000301
  17 C :   -0.191418
  18 O :    0.395265
  19 C :    0.027041
  20 H :   -0.022964
  21 H :   -0.023307
  22 H :   -0.033208
  23 H :   -0.035864
  24 H :   -0.025390
  25 H :   -0.010954
  26 H :   -0.009031
  27 H :   -0.018797
  28 H :   -0.056510
  29 H :   -0.063864
  30 H :   -0.004012
  31 H :   -0.021362
  32 H :   -0.018400
  33 H :   -0.034622
  34 H :   -0.152924
  35 H :   -0.023153

  Mayer bond orders larger than 0.100000
B(  0-C ,  1-C ) :   0.9748 B(  0-C , 20-H ) :   0.9772 B(  0-C , 21-H ) :   0.9761
B(  0-C , 22-H ) :   0.9778 B(  1-C ,  2-O ) :   0.9049 B(  1-C , 23-H ) :   0.9561
B(  1-C , 24-H ) :   0.9823 B(  2-O ,  3-C ) :   1.1591 B(  3-C ,  4-O ) :   2.1048
B(  3-C ,  5-C ) :   0.9177 B(  5-C ,  6-C ) :   1.7142 B(  5-C , 12-C ) :   0.9413
B(  6-C ,  7-C ) :   0.9415 B(  6-C ,  8-N ) :   1.1085 B(  7-C , 25-H ) :   0.9761
B(  7-C , 26-H ) :   0.9668 B(  7-C , 27-H ) :   0.9686 B(  8-N ,  9-C ) :   1.1983
B(  8-N , 28-H ) :   0.9507 B(  9-C , 10-S ) :   1.6101 B(  9-C , 11-N ) :   1.2906
B( 11-N , 12-C ) :   0.9871 B( 11-N , 29-H ) :   0.9477 B( 12-C , 13-C ) :   0.9666
B( 12-C , 30-H ) :   0.9907 B( 13-C , 14-C ) :   1.3857 B( 13-C , 19-C ) :   1.3517
B( 14-C , 15-C ) :   1.3935 B( 14-C , 31-H ) :   0.9598 B( 15-C , 16-C ) :   1.3626
B( 15-C , 32-H ) :   0.9696 B( 16-C , 17-C ) :   1.3306 B( 16-C , 33-H ) :   0.9847
B( 17-C , 18-O ) :   1.1098 B( 17-C , 19-C ) :   1.3636 B( 18-O , 34-H ) :   0.9791
B( 19-C , 35-H ) :   0.9566

MP2 TOTAL ENERGY:    -1274.330199504 Eh
FINAL SINGLE POINT ENERGY     -1274.330199504494

DIPOLE MOMENT
-------------
                                X             Y             Z
Electronic contribution:     10.77618       5.97239       8.71175
Nuclear contribution   :    -12.34750      -7.30998      -8.92713
                        -----------------------------------------
Total Dipole Moment    :     -1.57133      -1.33759      -0.21538
                        -----------------------------------------
Magnitude (a.u.)       :      2.07476
Magnitude (Debye)      :      5.27361

Rotational constants in cm-1:     0.010748     0.009111     0.006351
Rotational constants in MHz :   322.231096   273.132801   190.406254

                             ****ORCA TERMINATED NORMALLY****
TOTAL RUN TIME: 0 days 1 hours 51 minutes 23 seconds 667 msec
