                         Program Version 4.2.0 -  RELEASE  -
|  1> ! ri-mp2 cc-pvtz cc-pvtz/c TightSCF NoKeepInts
|  2>
|  3> %scf
|  4>   MaxCore 4096
|  5> end
|  6> *xyz  0  1
|  7>     C       14.3972067   15.3563384   15.5387104
|  8>     C       15.8387738   14.8740690   15.8159040
|  9>     O       16.8614244   15.8684802   15.5522125
| 10>     C       16.5815070   17.1883520   15.3303136
| 11>     O       16.0090639   17.5535487   14.3186470
| 12>     C       17.0082100   18.0882333   16.4605618
| 13>     C       16.9837357   19.4389955   16.3175070
| 14>     C       16.3121154   20.2334690   15.2162569
| 15>     N       17.6251498   20.2730997   17.2359852
| 16>     C       18.4742096   19.8368764   18.2162608
| 17>     S       19.2793091   20.8856299   19.2100515
| 18>     N       18.6420161   18.4794740   18.3179997
| 19>     C       17.8890091   17.4646854   17.5577352
| 20>     C       17.1738509   16.4745399   18.4669461
| 21>     C       17.7788499   15.2467879   18.7935597
| 22>     C       17.1197563   14.3257128   19.6251025
| 23>     C       15.8478750   14.6368873   20.1359261
| 24>     C       15.2476022   15.8634131   19.8194575
| 25>     O       14.0199682   16.1666085   20.3106412
| 26>     C       15.9059395   16.7784259   18.9921379
| 27>     H       14.1429419   16.2284466   16.1541375
| 28>     H       13.6811312   14.5606915   15.7768143
| 29>     H       14.2649921   15.6171395   14.4809300
| 30>     H       15.8999149   14.5662389   16.8668896
| 31>     H       16.0431549   13.9839059   15.2072772
| 32>     H       15.2670435   19.9207305   15.0953716
| 33>     H       16.8169779   20.0657820   14.2561710
| 34>     H       16.3084380   21.3134144   15.4050922
| 35>     H       17.5303940   21.2728767   17.1552377
| 36>     H       19.2509652   18.1872988   19.0717262
| 37>     H       18.7123772   16.9692135   17.0234791
| 38>     H       18.7607541   15.0036856   18.3956852
| 39>     H       17.5944531   13.3773441   19.8719434
| 40>     H       15.3350894   13.9287594   20.7788246
| 41>     H       13.7545411   15.4452012   20.9010002
| 42>     H       15.4282588   17.7256447   18.7655038
| 43> *
| 44>
| 45>                          ****END OF INPUT****

CARTESIAN COORDINATES (ANGSTROEM)
---------------------------------
  C     14.397207   15.356338   15.538710
  C     15.838774   14.874069   15.815904
  O     16.861424   15.868480   15.552212
  C     16.581507   17.188352   15.330314
  O     16.009064   17.553549   14.318647
  C     17.008210   18.088233   16.460562
  C     16.983736   19.438995   16.317507
  C     16.312115   20.233469   15.216257
  N     17.625150   20.273100   17.235985
  C     18.474210   19.836876   18.216261
  S     19.279309   20.885630   19.210051
  N     18.642016   18.479474   18.318000
  C     17.889009   17.464685   17.557735
  C     17.173851   16.474540   18.466946
  C     17.778850   15.246788   18.793560
  C     17.119756   14.325713   19.625103
  C     15.847875   14.636887   20.135926
  C     15.247602   15.863413   19.819457
  O     14.019968   16.166608   20.310641
  C     15.905939   16.778426   18.992138
  H     14.142942   16.228447   16.154138
  H     13.681131   14.560692   15.776814
  H     14.264992   15.617139   14.480930
  H     15.899915   14.566239   16.866890
  H     16.043155   13.983906   15.207277
  H     15.267043   19.920731   15.095372
  H     16.816978   20.065782   14.256171
  H     16.308438   21.313414   15.405092
  H     17.530394   21.272877   17.155238
  H     19.250965   18.187299   19.071726
  H     18.712377   16.969213   17.023479
  H     18.760754   15.003686   18.395685
  H     17.594453   13.377344   19.871943
  H     15.335089   13.928759   20.778825
  H     13.754541   15.445201   20.901000
  H     15.428259   17.725645   18.765504

 Total Charge           Charge          ....    0
 Multiplicity           Mult            ....    1
 Number of Electrons    NEL             ....  154
 Basis Dimension        Dim             ....  828

ORBITAL ENERGIES
----------------

  NO   OCC          E(Eh)            E(eV)
   0   2.0000     -91.889923     -2500.4519
   1   2.0000     -20.602725      -560.6287
   2   2.0000     -20.581804      -560.0593
   3   2.0000     -20.543073      -559.0054
   4   2.0000     -15.630314      -425.3225
   5   2.0000     -15.608090      -424.7177
   6   2.0000     -11.392762      -310.0128
   7   2.0000     -11.384497      -309.7879
   8   2.0000     -11.338379      -308.5330
   9   2.0000     -11.320496      -308.0464
  10   2.0000     -11.309258      -307.7406
  11   2.0000     -11.297441      -307.4190
  12   2.0000     -11.266364      -306.5734
  13   2.0000     -11.261736      -306.4474
  14   2.0000     -11.258068      -306.3476
  15   2.0000     -11.252372      -306.1926
  16   2.0000     -11.249795      -306.1225
  17   2.0000     -11.244418      -305.9762
  18   2.0000     -11.244246      -305.9715
  19   2.0000     -11.224367      -305.4305
  20   2.0000      -8.894987      -242.0449
  21   2.0000      -6.576558      -178.9572
  22   2.0000      -6.574561      -178.9029
  23   2.0000      -6.573969      -178.8868
  24   2.0000      -1.440448       -39.1966
  25   2.0000      -1.422387       -38.7051
  26   2.0000      -1.349241       -36.7147
  27   2.0000      -1.341577       -36.5062
  28   2.0000      -1.239731       -33.7348
  29   2.0000      -1.163128       -31.6503
  30   2.0000      -1.121924       -30.5291
  31   2.0000      -1.046799       -28.4849
  32   2.0000      -1.030911       -28.0525
  33   2.0000      -1.021258       -27.7898
  34   2.0000      -0.998493       -27.1704
  35   2.0000      -0.986150       -26.8345
  36   2.0000      -0.924375       -25.1535
  37   2.0000      -0.894018       -24.3275
  38   2.0000      -0.849053       -23.1039
  39   2.0000      -0.842802       -22.9338
  40   2.0000      -0.839275       -22.8378
  41   2.0000      -0.820712       -22.3327
  42   2.0000      -0.745075       -20.2745
  43   2.0000      -0.736277       -20.0351
  44   2.0000      -0.717044       -19.5118
  45   2.0000      -0.700711       -19.0673
  46   2.0000      -0.688932       -18.7468
  47   2.0000      -0.675456       -18.3801
  48   2.0000      -0.669725       -18.2242
  49   2.0000      -0.661242       -17.9933
  50   2.0000      -0.650539       -17.7021
  51   2.0000      -0.643940       -17.5225
  52   2.0000      -0.637372       -17.3438
  53   2.0000      -0.620829       -16.8936
  54   2.0000      -0.612796       -16.6750
  55   2.0000      -0.604707       -16.4549
  56   2.0000      -0.602597       -16.3975
  57   2.0000      -0.581948       -15.8356
  58   2.0000      -0.570959       -15.5366
  59   2.0000      -0.567237       -15.4353
  60   2.0000      -0.548246       -14.9185
  61   2.0000      -0.541690       -14.7401
  62   2.0000      -0.535430       -14.5698
  63   2.0000      -0.529570       -14.4103
  64   2.0000      -0.523847       -14.2546
  65   2.0000      -0.514864       -14.0102
  66   2.0000      -0.503070       -13.6892
  67   2.0000      -0.491173       -13.3655
  68   2.0000      -0.487315       -13.2605
  69   2.0000      -0.463244       -12.6055
  70   2.0000      -0.453803       -12.3486
  71   2.0000      -0.440440       -11.9850
  72   2.0000      -0.356844        -9.7102
  73   2.0000      -0.352862        -9.6019
  74   2.0000      -0.330661        -8.9977
  75   2.0000      -0.326779        -8.8921
  76   2.0000      -0.319651        -8.6981
  77   0.0000       0.073178         1.9913
  78   0.0000       0.099156         2.6982
  79   0.0000       0.121841         3.3155
  80   0.0000       0.129037         3.5113
  81   0.0000       0.130129         3.5410

MULLIKEN ATOMIC CHARGES
-----------------------
   0 C :   -0.308283
   1 C :    0.035287
   2 O :   -0.388831
   3 C :    0.482907
   4 O :   -0.413856
   5 C :   -0.291815
   6 C :    0.184844
   7 C :   -0.267365
   8 N :   -0.127221
   9 C :    0.215829
  10 S :   -0.441797
  11 N :   -0.221037
  12 C :    0.082459
  13 C :    0.007360
  14 C :   -0.175432
  15 C :   -0.133409
  16 C :   -0.272894
  17 C :    0.309021
  18 O :   -0.356527
  19 C :   -0.232680
  20 H :    0.096359
  21 H :    0.104310
  22 H :    0.124579
  23 H :    0.104524
  24 H :    0.112741
  25 H :    0.131116
  26 H :    0.132335
  27 H :    0.094571
  28 H :    0.199130
  29 H :    0.200919
  30 H :    0.150812
  31 H :    0.153192
  32 H :    0.163440
  33 H :    0.133744
  34 H :    0.242151
  35 H :    0.169515
Sum of atomic charges:   -0.0000000

LOEWDIN ATOMIC CHARGES
----------------------
   0 C :    0.104912
   1 C :   -0.011595
   2 O :    0.285402
   3 C :   -0.420113
   4 O :    0.113931
   5 C :   -0.101519
   6 C :   -0.054768
   7 C :    0.131222
   8 N :    0.407742
   9 C :   -0.455443
  10 S :   -0.035979
  11 N :    0.394049
  12 C :   -0.054426
  13 C :   -0.037532
  14 C :    0.015592
  15 C :    0.041479
  16 C :   -0.001184
  17 C :   -0.190442
  18 O :    0.396468
  19 C :    0.032792
  20 H :   -0.029751
  21 H :   -0.024430
  22 H :   -0.023798
  23 H :   -0.030829
  24 H :   -0.026540
  25 H :   -0.005001
  26 H :   -0.004025
  27 H :   -0.023614
  28 H :   -0.056894
  29 H :   -0.065231
  30 H :   -0.012086
  31 H :   -0.028022
  32 H :   -0.019545
  33 H :   -0.034256
  34 H :   -0.152509
  35 H :   -0.024058

  Mayer bond orders larger than 0.100000
B(  0-C ,  1-C ) :   0.9707 B(  0-C , 20-H ) :   0.9737 B(  0-C , 21-H ) :   0.9743
B(  0-C , 22-H ) :   0.9718 B(  1-C ,  2-O ) :   0.8946 B(  1-C , 23-H ) :   0.9700
B(  1-C , 24-H ) :   0.9830 B(  2-O ,  3-C ) :   1.0948 B(  3-C ,  4-O ) :   2.0062
B(  3-C ,  5-C ) :   1.0644 B(  5-C ,  6-C ) :   1.6251 B(  5-C , 12-C ) :   0.9531
B(  6-C ,  7-C ) :   0.9665 B(  6-C ,  8-N ) :   1.1624 B(  7-C , 25-H ) :   0.9628
B(  7-C , 26-H ) :   0.9572 B(  7-C , 27-H ) :   0.9893 B(  8-N ,  9-C ) :   1.1854
B(  8-N , 28-H ) :   0.9466 B(  9-C , 10-S ) :   1.6020 B(  9-C , 11-N ) :   1.3122
B( 11-N , 12-C ) :   0.9585 B( 11-N , 29-H ) :   0.9483 B( 12-C , 13-C ) :   0.9681
B( 12-C , 30-H ) :   0.9998 B( 13-C , 14-C ) :   1.3501 B( 13-C , 19-C ) :   1.3695
B( 14-C , 15-C ) :   1.3985 B( 14-C , 31-H ) :   0.9732 B( 15-C , 16-C ) :   1.3571
B( 15-C , 32-H ) :   0.9702 B( 16-C , 17-C ) :   1.3324 B( 16-C , 33-H ) :   0.9842
B( 17-C , 18-O ) :   1.1068 B( 17-C , 19-C ) :   1.3645 B( 18-O , 34-H ) :   0.9788
B( 19-C , 35-H ) :   0.9585

MP2 TOTAL ENERGY:    -1274.327961583 Eh
FINAL SINGLE POINT ENERGY     -1274.327961583307

DIPOLE MOMENT
-------------
                                X             Y             Z
Electronic contribution:      9.45745       9.14163       6.59336
Nuclear contribution   :    -10.47002     -10.82014      -6.43554
                        -----------------------------------------
Total Dipole Moment    :     -1.01258      -1.67852       0.15782
                        -----------------------------------------
Magnitude (a.u.)       :      1.96663
Magnitude (Debye)      :      4.99878

Rotational constants in cm-1:     0.012543     0.008606     0.006204
Rotational constants in MHz :   376.033909   258.003209   185.981676

                             ****ORCA TERMINATED NORMALLY****
TOTAL RUN TIME: 0 days 1 hours 44 minutes 59 seconds 93 msec
