                         Program Version 4.2.0 -  RELEASE  -
|  1> ! ri-mp2 cc-pvtz cc-pvtz/c TightSCF NoKeepInts
|  2>
|  3> %scf
|  4>   MaxCore 4096
|  5> end
|  6> *xyz  0  1
|  7>     C       15.0839193   14.8124770   14.0164081
|  8>     C       15.0438201   15.1573003   15.5170361
|  9>     O       16.1219665   16.0631975   15.8083178
| 10>     C       15.9065292   17.4110228   15.7368129
| 11>     O       15.0677283   17.8951468   14.9960413
| 12>     C       16.7253015   18.1818272   16.7376041
| 13>     C       16.8409211   19.5318681   16.6477784
| 14>     C       16.0260838   20.4650686   15.7760585
| 15>     N       17.7984972   20.2235256   17.3931944
| 16>     C       18.8030596   19.6274430   18.1063057
| 17>     S       19.9632908   20.5083869   18.8895750
| 18>     N       18.8110384   18.2556953   18.1201661
| 19>     C       17.7645138   17.3879028   17.5475803
| 20>     C       17.1604681   16.4412062   18.5767969
| 21>     C       17.4250263   15.0602321   18.5227433
| 22>     C       16.8658157   14.1889376   19.4726684
| 23>     C       16.0387152   14.7037655   20.4858042
| 24>     C       15.7776531   16.0799069   20.5439803
| 25>     O       14.9805218   16.5796204   21.5216465
| 26>     C       16.3351625   16.9443706   19.5966716
| 27>     H       14.9082834   15.7067307   13.4052145
| 28>     H       14.3090124   14.0763647   13.7710110
| 29>     H       16.0585181   14.3910441   13.7411826
| 30>     H       14.0731427   15.5926529   15.7921217
| 31>     H       15.1808643   14.2356124   16.0970957
| 32>     H       14.9526658   20.3183165   15.9521197
| 33>     H       16.2141666   20.2650609   14.7134836
| 34>     H       16.2444439   21.5240417   15.9573357
| 35>     H       17.8170823   21.2306254   17.3730225
| 36>     H       19.5460007   17.8446223   18.6816728
| 37>     H       18.3561471   16.8300664   16.8077992
| 38>     H       18.0603408   14.6612106   17.7363828
| 39>     H       17.0743119   13.1216324   19.4225640
| 40>     H       15.6052353   14.0351605   21.2222843
| 41>     H       14.7192596   15.8406193   22.0912741
| 42>     H       16.1274925   18.0073380   19.6602459
| 43> *
| 44>
| 45>                          ****END OF INPUT****

CARTESIAN COORDINATES (ANGSTROEM)
---------------------------------
  C     15.083919   14.812477   14.016408
  C     15.043820   15.157300   15.517036
  O     16.121966   16.063198   15.808318
  C     15.906529   17.411023   15.736813
  O     15.067728   17.895147   14.996041
  C     16.725302   18.181827   16.737604
  C     16.840921   19.531868   16.647778
  C     16.026084   20.465069   15.776058
  N     17.798497   20.223526   17.393194
  C     18.803060   19.627443   18.106306
  S     19.963291   20.508387   18.889575
  N     18.811038   18.255695   18.120166
  C     17.764514   17.387903   17.547580
  C     17.160468   16.441206   18.576797
  C     17.425026   15.060232   18.522743
  C     16.865816   14.188938   19.472668
  C     16.038715   14.703765   20.485804
  C     15.777653   16.079907   20.543980
  O     14.980522   16.579620   21.521646
  C     16.335162   16.944371   19.596672
  H     14.908283   15.706731   13.405214
  H     14.309012   14.076365   13.771011
  H     16.058518   14.391044   13.741183
  H     14.073143   15.592653   15.792122
  H     15.180864   14.235612   16.097096
  H     14.952666   20.318316   15.952120
  H     16.214167   20.265061   14.713484
  H     16.244444   21.524042   15.957336
  H     17.817082   21.230625   17.373023
  H     19.546001   17.844622   18.681673
  H     18.356147   16.830066   16.807799
  H     18.060341   14.661211   17.736383
  H     17.074312   13.121632   19.422564
  H     15.605235   14.035160   21.222284
  H     14.719260   15.840619   22.091274
  H     16.127492   18.007338   19.660246

 Total Charge           Charge          ....    0
 Multiplicity           Mult            ....    1
 Number of Electrons    NEL             ....  154
 Basis Dimension        Dim             ....  828

ORBITAL ENERGIES
----------------

  NO   OCC          E(Eh)            E(eV)
   0   2.0000     -91.889284     -2500.4345
   1   2.0000     -20.596954      -560.4716
   2   2.0000     -20.596680      -560.4642
   3   2.0000     -20.543090      -559.0059
   4   2.0000     -15.629757      -425.3073
   5   2.0000     -15.607325      -424.6969
   6   2.0000     -11.395226      -310.0799
   7   2.0000     -11.383918      -309.7722
   8   2.0000     -11.337925      -308.5206
   9   2.0000     -11.314183      -307.8746
  10   2.0000     -11.307839      -307.7019
  11   2.0000     -11.297132      -307.4106
  12   2.0000     -11.261257      -306.4344
  13   2.0000     -11.259016      -306.3734
  14   2.0000     -11.255660      -306.2821
  15   2.0000     -11.252227      -306.1887
  16   2.0000     -11.244003      -305.9649
  17   2.0000     -11.239365      -305.8387
  18   2.0000     -11.239112      -305.8318
  19   2.0000     -11.221240      -305.3455
  20   2.0000      -8.894349      -242.0275
  21   2.0000      -6.575920      -178.9399
  22   2.0000      -6.573923      -178.8855
  23   2.0000      -6.573331      -178.8694
  24   2.0000      -1.450891       -39.4808
  25   2.0000      -1.416615       -38.5481
  26   2.0000      -1.354746       -36.8645
  27   2.0000      -1.340812       -36.4853
  28   2.0000      -1.238628       -33.7048
  29   2.0000      -1.157999       -31.5107
  30   2.0000      -1.121463       -30.5166
  31   2.0000      -1.043209       -28.3871
  32   2.0000      -1.035592       -28.1799
  33   2.0000      -1.015438       -27.6315
  34   2.0000      -0.996058       -27.1041
  35   2.0000      -0.984586       -26.7919
  36   2.0000      -0.922205       -25.0945
  37   2.0000      -0.889390       -24.2015
  38   2.0000      -0.847134       -23.0517
  39   2.0000      -0.838469       -22.8159
  40   2.0000      -0.834616       -22.7111
  41   2.0000      -0.820230       -22.3196
  42   2.0000      -0.758752       -20.6467
  43   2.0000      -0.733651       -19.9637
  44   2.0000      -0.722556       -19.6617
  45   2.0000      -0.695801       -18.9337
  46   2.0000      -0.689017       -18.7491
  47   2.0000      -0.679832       -18.4992
  48   2.0000      -0.671389       -18.2694
  49   2.0000      -0.650882       -17.7114
  50   2.0000      -0.647908       -17.6305
  51   2.0000      -0.643579       -17.5127
  52   2.0000      -0.631354       -17.1800
  53   2.0000      -0.609600       -16.5880
  54   2.0000      -0.606381       -16.5005
  55   2.0000      -0.600232       -16.3331
  56   2.0000      -0.599392       -16.3103
  57   2.0000      -0.579726       -15.7751
  58   2.0000      -0.572931       -15.5902
  59   2.0000      -0.569751       -15.5037
  60   2.0000      -0.563862       -15.3435
  61   2.0000      -0.541032       -14.7222
  62   2.0000      -0.535330       -14.5671
  63   2.0000      -0.524460       -14.2713
  64   2.0000      -0.520437       -14.1618
  65   2.0000      -0.513542       -13.9742
  66   2.0000      -0.500624       -13.6227
  67   2.0000      -0.497300       -13.5322
  68   2.0000      -0.486298       -13.2329
  69   2.0000      -0.463773       -12.6199
  70   2.0000      -0.454498       -12.3675
  71   2.0000      -0.446358       -12.1460
  72   2.0000      -0.353355        -9.6153
  73   2.0000      -0.350189        -9.5291
  74   2.0000      -0.328415        -8.9366
  75   2.0000      -0.321623        -8.7518
  76   2.0000      -0.318484        -8.6664
  77   0.0000       0.075458         2.0533
  78   0.0000       0.104435         2.8418
  79   0.0000       0.125109         3.4044
  80   0.0000       0.132464         3.6045
  81   0.0000       0.136843         3.7237

MULLIKEN ATOMIC CHARGES
-----------------------
   0 C :   -0.279959
   1 C :    0.039035
   2 O :   -0.354329
   3 C :    0.430694
   4 O :   -0.433261
   5 C :   -0.216953
   6 C :    0.175256
   7 C :   -0.268462
   8 N :   -0.125987
   9 C :    0.210063
  10 S :   -0.441106
  11 N :   -0.215521
  12 C :    0.063139
  13 C :    0.041230
  14 C :   -0.182658
  15 C :   -0.133021
  16 C :   -0.276841
  17 C :    0.316590
  18 O :   -0.356737
  19 C :   -0.248890
  20 H :    0.115399
  21 H :    0.090895
  22 H :    0.089908
  23 H :    0.094143
  24 H :    0.107423
  25 H :    0.133864
  26 H :    0.128875
  27 H :    0.094971
  28 H :    0.199845
  29 H :    0.200558
  30 H :    0.153167
  31 H :    0.153157
  32 H :    0.161700
  33 H :    0.130335
  34 H :    0.240640
  35 H :    0.162838
Sum of atomic charges:   -0.0000000

LOEWDIN ATOMIC CHARGES
----------------------
   0 C :    0.104553
   1 C :   -0.016290
   2 O :    0.306833
   3 C :   -0.415176
   4 O :    0.099502
   5 C :   -0.095900
   6 C :   -0.055673
   7 C :    0.131340
   8 N :    0.407323
   9 C :   -0.456552
  10 S :   -0.035896
  11 N :    0.394620
  12 C :   -0.054576
  13 C :   -0.039425
  14 C :    0.017435
  15 C :    0.038423
  16 C :   -0.000908
  17 C :   -0.189717
  18 O :    0.395073
  19 C :    0.032886
  20 H :   -0.024529
  21 H :   -0.028883
  22 H :   -0.030037
  23 H :   -0.028075
  24 H :   -0.026612
  25 H :   -0.004269
  26 H :   -0.004976
  27 H :   -0.023536
  28 H :   -0.057104
  29 H :   -0.064314
  30 H :   -0.013309
  31 H :   -0.028868
  32 H :   -0.021330
  33 H :   -0.035405
  34 H :   -0.153892
  35 H :   -0.022735

  Mayer bond orders larger than 0.100000
B(  0-C ,  1-C ) :   0.9735 B(  0-C , 20-H ) :   0.9749 B(  0-C , 21-H ) :   0.9771
B(  0-C , 22-H ) :   0.9771 B(  1-C ,  2-O ) :   0.8928 B(  1-C , 23-H ) :   0.9742
B(  1-C , 24-H ) :   0.9808 B(  2-O ,  3-C ) :   1.1432 B(  3-C ,  4-O ) :   1.9578
B(  3-C ,  5-C ) :   1.0766 B(  5-C ,  6-C ) :   1.6338 B(  5-C , 12-C ) :   0.9553
B(  6-C ,  7-C ) :   0.9657 B(  6-C ,  8-N ) :   1.1530 B(  7-C , 25-H ) :   0.9609
B(  7-C , 26-H ) :   0.9587 B(  7-C , 27-H ) :   0.9908 B(  8-N ,  9-C ) :   1.1869
B(  8-N , 28-H ) :   0.9462 B(  9-C , 10-S ) :   1.6070 B(  9-C , 11-N ) :   1.3092
B( 11-N , 12-C ) :   0.9672 B( 11-N , 29-H ) :   0.9483 B( 12-C , 13-C ) :   0.9625
B( 12-C , 30-H ) :   1.0012 B( 13-C , 14-C ) :   1.3533 B( 13-C , 19-C ) :   1.3796
B( 14-C , 15-C ) :   1.3923 B( 14-C , 31-H ) :   0.9714 B( 15-C , 16-C ) :   1.3597
B( 15-C , 32-H ) :   0.9705 B( 16-C , 17-C ) :   1.3338 B( 16-C , 33-H ) :   0.9850
B( 17-C , 18-O ) :   1.1045 B( 17-C , 19-C ) :   1.3647 B( 18-O , 34-H ) :   0.9798
B( 19-C , 35-H ) :   0.9597

MP2 TOTAL ENERGY:    -1274.339809736 Eh
FINAL SINGLE POINT ENERGY     -1274.339809735565

DIPOLE MOMENT
-------------
                                X             Y             Z
Electronic contribution:      9.28176       9.69147      10.43043
Nuclear contribution   :    -10.40615     -11.30424     -10.68337
                        -----------------------------------------
Total Dipole Moment    :     -1.12439      -1.61277      -0.25294
                        -----------------------------------------
Magnitude (a.u.)       :      1.98224
Magnitude (Debye)      :      5.03844

Rotational constants in cm-1:     0.010825     0.008707     0.005803
Rotational constants in MHz :   324.534374   261.028981   173.959557

                             ****ORCA TERMINATED NORMALLY****
TOTAL RUN TIME: 0 days 1 hours 41 minutes 36 seconds 900 msec
