                         Program Version 4.2.0 -  RELEASE  -
|  1> ! ri-mp2 cc-pvtz cc-pvtz/c TightSCF NoKeepInts
|  2>
|  3> %scf
|  4>   MaxCore 4096
|  5> end
|  6> *xyz  0  1
|  7>     C       14.5409609   15.3513573   16.1744374
|  8>     C       14.9454935   16.4263388   15.1488223
|  9>     O       16.3039818   16.1659140   14.7366165
| 10>     C       17.3997126   16.5150441   15.4852538
| 11>     O       18.4299302   15.8694681   15.4285566
| 12>     C       17.2370813   17.6626421   16.4299559
| 13>     C       16.9526780   18.9008566   15.9553019
| 14>     C       16.5548489   19.2704052   14.5390691
| 15>     N       17.1058037   20.0291211   16.7632665
| 16>     C       17.7767749   20.0328256   17.9576425
| 17>     S       18.0281857   21.4264795   18.8112710
| 18>     N       18.2530237   18.8213951   18.3950954
| 19>     C       17.9543269   17.5160062   17.7728681
| 20>     C       17.2856696   16.5072516   18.6938649
| 21>     C       17.7224199   15.1706222   18.7132465
| 22>     C       17.0918511   14.2256037   19.5395016
| 23>     C       16.0139672   14.6205232   20.3504295
| 24>     C       15.5734353   15.9509953   20.3285433
| 25>     O       14.5257806   16.3322720   21.1015707
| 26>     C       16.2021725   16.8896899   19.5040823
| 27>     H       15.1440262   15.4276602   17.0867420
| 28>     H       14.6788899   14.3464608   15.7556845
| 29>     H       13.4866920   15.4636064   16.4549550
| 30>     H       14.2865346   16.3402921   14.2750813
| 31>     H       14.8070864   17.4257828   15.5747500
| 32>     H       16.8975203   18.5311057   13.8045353
| 33>     H       17.0002504   20.2268230   14.2362621
| 34>     H       15.4669092   19.3655251   14.4426549
| 35>     H       16.7964491   20.9306501   16.4354136
| 36>     H       18.7421286   18.8498259   19.2811152
| 37>     H       18.9741992   17.1824400   17.5290231
| 38>     H       18.5471048   14.8615595   18.0737851
| 39>     H       17.4367734   13.1928960   19.5447636
| 40>     H       15.5230753   13.8930098   20.9884578
| 41>     H       14.2581237   15.5639110   21.6281868
| 42>     H       15.8431384   17.9136398   19.4971940
| 43> *
| 44>
| 45>                          ****END OF INPUT****

CARTESIAN COORDINATES (ANGSTROEM)
---------------------------------
  C     14.540961   15.351357   16.174437
  C     14.945493   16.426339   15.148822
  O     16.303982   16.165914   14.736617
  C     17.399713   16.515044   15.485254
  O     18.429930   15.869468   15.428557
  C     17.237081   17.662642   16.429956
  C     16.952678   18.900857   15.955302
  C     16.554849   19.270405   14.539069
  N     17.105804   20.029121   16.763267
  C     17.776775   20.032826   17.957642
  S     18.028186   21.426479   18.811271
  N     18.253024   18.821395   18.395095
  C     17.954327   17.516006   17.772868
  C     17.285670   16.507252   18.693865
  C     17.722420   15.170622   18.713247
  C     17.091851   14.225604   19.539502
  C     16.013967   14.620523   20.350430
  C     15.573435   15.950995   20.328543
  O     14.525781   16.332272   21.101571
  C     16.202172   16.889690   19.504082
  H     15.144026   15.427660   17.086742
  H     14.678890   14.346461   15.755684
  H     13.486692   15.463606   16.454955
  H     14.286535   16.340292   14.275081
  H     14.807086   17.425783   15.574750
  H     16.897520   18.531106   13.804535
  H     17.000250   20.226823   14.236262
  H     15.466909   19.365525   14.442655
  H     16.796449   20.930650   16.435414
  H     18.742129   18.849826   19.281115
  H     18.974199   17.182440   17.529023
  H     18.547105   14.861559   18.073785
  H     17.436773   13.192896   19.544764
  H     15.523075   13.893010   20.988458
  H     14.258124   15.563911   21.628187
  H     15.843138   17.913640   19.497194

 Total Charge           Charge          ....    0
 Multiplicity           Mult            ....    1
 Number of Electrons    NEL             ....  154
 Basis Dimension        Dim             ....  828

ORBITAL ENERGIES
----------------

  NO   OCC          E(Eh)            E(eV)
   0   2.0000     -91.890320     -2500.4627
   1   2.0000     -20.601999      -560.6089
   2   2.0000     -20.599599      -560.5436
   3   2.0000     -20.550437      -559.2058
   4   2.0000     -15.628863      -425.2830
   5   2.0000     -15.609770      -424.7634
   6   2.0000     -11.399298      -310.1907
   7   2.0000     -11.386070      -309.8307
   8   2.0000     -11.335672      -308.4593
   9   2.0000     -11.317038      -307.9523
  10   2.0000     -11.309934      -307.7589
  11   2.0000     -11.306792      -307.6734
  12   2.0000     -11.267052      -306.5921
  13   2.0000     -11.264339      -306.5182
  14   2.0000     -11.264286      -306.5168
  15   2.0000     -11.257283      -306.3262
  16   2.0000     -11.246326      -306.0281
  17   2.0000     -11.242131      -305.9139
  18   2.0000     -11.239239      -305.8353
  19   2.0000     -11.228724      -305.5491
  20   2.0000      -8.895419      -242.0567
  21   2.0000      -6.576999      -178.9692
  22   2.0000      -6.574988      -178.9145
  23   2.0000      -6.574404      -178.8986
  24   2.0000      -1.448628       -39.4192
  25   2.0000      -1.419340       -38.6222
  26   2.0000      -1.361754       -37.0552
  27   2.0000      -1.341741       -36.5106
  28   2.0000      -1.239839       -33.7377
  29   2.0000      -1.161385       -31.6029
  30   2.0000      -1.126529       -30.6544
  31   2.0000      -1.048620       -28.5344
  32   2.0000      -1.036933       -28.2164
  33   2.0000      -1.019132       -27.7320
  34   2.0000      -1.006253       -27.3815
  35   2.0000      -0.990172       -26.9439
  36   2.0000      -0.926833       -25.2204
  37   2.0000      -0.891385       -24.2558
  38   2.0000      -0.854564       -23.2539
  39   2.0000      -0.842220       -22.9180
  40   2.0000      -0.836785       -22.7701
  41   2.0000      -0.833827       -22.6896
  42   2.0000      -0.749728       -20.4011
  43   2.0000      -0.740251       -20.1433
  44   2.0000      -0.731967       -19.9178
  45   2.0000      -0.697150       -18.9704
  46   2.0000      -0.689191       -18.7538
  47   2.0000      -0.682535       -18.5727
  48   2.0000      -0.675984       -18.3945
  49   2.0000      -0.661854       -18.0100
  50   2.0000      -0.655478       -17.8365
  51   2.0000      -0.645156       -17.5556
  52   2.0000      -0.637799       -17.3554
  53   2.0000      -0.618807       -16.8386
  54   2.0000      -0.610786       -16.6203
  55   2.0000      -0.607145       -16.5213
  56   2.0000      -0.602688       -16.4000
  57   2.0000      -0.585410       -15.9298
  58   2.0000      -0.577241       -15.7075
  59   2.0000      -0.566999       -15.4288
  60   2.0000      -0.562813       -15.3149
  61   2.0000      -0.551949       -15.0193
  62   2.0000      -0.546757       -14.8780
  63   2.0000      -0.534402       -14.5418
  64   2.0000      -0.520654       -14.1677
  65   2.0000      -0.512543       -13.9470
  66   2.0000      -0.504214       -13.7204
  67   2.0000      -0.501362       -13.6428
  68   2.0000      -0.485753       -13.2180
  69   2.0000      -0.469756       -12.7827
  70   2.0000      -0.456524       -12.4227
  71   2.0000      -0.449694       -12.2368
  72   2.0000      -0.357186        -9.7195
  73   2.0000      -0.352063        -9.5801
  74   2.0000      -0.329756        -8.9731
  75   2.0000      -0.324726        -8.8362
  76   2.0000      -0.320329        -8.7166
  77   0.0000       0.082108         2.2343
  78   0.0000       0.103661         2.8207
  79   0.0000       0.116356         3.1662
  80   0.0000       0.129540         3.5250
  81   0.0000       0.129997         3.5374

MULLIKEN ATOMIC CHARGES
-----------------------
   0 C :   -0.284292
   1 C :    0.024659
   2 O :   -0.330631
   3 C :    0.425536
   4 O :   -0.381785
   5 C :   -0.222734
   6 C :    0.143463
   7 C :   -0.321610
   8 N :   -0.136708
   9 C :    0.208372
  10 S :   -0.441635
  11 N :   -0.221714
  12 C :    0.064176
  13 C :   -0.015140
  14 C :   -0.196949
  15 C :   -0.133773
  16 C :   -0.270298
  17 C :    0.305465
  18 O :   -0.357092
  19 C :   -0.223558
  20 H :    0.113257
  21 H :    0.109594
  22 H :    0.094225
  23 H :    0.118890
  24 H :    0.088366
  25 H :    0.138792
  26 H :    0.126571
  27 H :    0.122344
  28 H :    0.198039
  29 H :    0.202613
  30 H :    0.166792
  31 H :    0.176506
  32 H :    0.163896
  33 H :    0.132632
  34 H :    0.241269
  35 H :    0.172461
Sum of atomic charges:   -0.0000000

LOEWDIN ATOMIC CHARGES
----------------------
   0 C :    0.108517
   1 C :   -0.023334
   2 O :    0.304031
   3 C :   -0.416590
   4 O :    0.120741
   5 C :   -0.087756
   6 C :   -0.087349
   7 C :    0.127040
   8 N :    0.403026
   9 C :   -0.457287
  10 S :   -0.037306
  11 N :    0.396259
  12 C :   -0.049226
  13 C :   -0.046174
  14 C :    0.020131
  15 C :    0.044566
  16 C :    0.000113
  17 C :   -0.191552
  18 O :    0.395514
  19 C :    0.027097
  20 H :   -0.026420
  21 H :   -0.022839
  22 H :   -0.026080
  23 H :   -0.023146
  24 H :   -0.040015
  25 H :   -0.006725
  26 H :   -0.012109
  27 H :   -0.017197
  28 H :   -0.057299
  29 H :   -0.063394
  30 H :   -0.004446
  31 H :   -0.021237
  32 H :   -0.018496
  33 H :   -0.034597
  34 H :   -0.153146
  35 H :   -0.023314

  Mayer bond orders larger than 0.100000
B(  0-C ,  1-C ) :   0.9776 B(  0-C , 20-H ) :   0.9666 B(  0-C , 21-H ) :   0.9778
B(  0-C , 22-H ) :   0.9763 B(  1-C ,  2-O ) :   0.8950 B(  1-C , 23-H ) :   0.9806
B(  1-C , 24-H ) :   0.9642 B(  2-O ,  3-C ) :   1.1598 B(  3-C ,  4-O ) :   2.0916
B(  3-C ,  5-C ) :   0.9291 B(  5-C ,  6-C ) :   1.7181 B(  5-C , 12-C ) :   0.9356
B(  6-C ,  7-C ) :   0.9361 B(  6-C ,  8-N ) :   1.1126 B(  7-C , 25-H ) :   0.9718
B(  7-C , 26-H ) :   0.9805 B(  7-C , 27-H ) :   0.9656 B(  8-N ,  9-C ) :   1.1940
B(  8-N , 28-H ) :   0.9501 B(  9-C , 10-S ) :   1.6113 B(  9-C , 11-N ) :   1.2926
B( 11-N , 12-C ) :   0.9836 B( 11-N , 29-H ) :   0.9476 B( 12-C , 13-C ) :   0.9693
B( 12-C , 30-H ) :   0.9902 B( 13-C , 14-C ) :   1.3912 B( 13-C , 19-C ) :   1.3575
B( 14-C , 15-C ) :   1.3926 B( 14-C , 31-H ) :   0.9581 B( 15-C , 16-C ) :   1.3608
B( 15-C , 32-H ) :   0.9705 B( 16-C , 17-C ) :   1.3322 B( 16-C , 33-H ) :   0.9844
B( 17-C , 18-O ) :   1.1098 B( 17-C , 19-C ) :   1.3658 B( 18-O , 34-H ) :   0.9793
B( 19-C , 35-H ) :   0.9569

MP2 TOTAL ENERGY:    -1274.332350962 Eh
FINAL SINGLE POINT ENERGY     -1274.332350962307

DIPOLE MOMENT
-------------
                                X             Y             Z
Electronic contribution:      9.20826       8.08240       6.65444
Nuclear contribution   :    -10.86381      -9.14188      -7.07957
                        -----------------------------------------
Total Dipole Moment    :     -1.65556      -1.05949      -0.42513
                        -----------------------------------------
Magnitude (a.u.)       :      2.01100
Magnitude (Debye)      :      5.11155

Rotational constants in cm-1:     0.011596     0.009171     0.006393
Rotational constants in MHz :   347.648898   274.945249   191.645599

                             ****ORCA TERMINATED NORMALLY****
TOTAL RUN TIME: 0 days 1 hours 45 minutes 22 seconds 438 msec
