                         Program Version 4.2.0 -  RELEASE  -
|  1> ! ri-mp2 cc-pvtz cc-pvtz/c TightSCF NoKeepInts
|  2>
|  3> %scf
|  4>   MaxCore 4096
|  5> end
|  6> *xyz  0  1
|  7>     C       14.1806147   15.5990763   13.5518333
|  8>     C       15.0875172   15.2468976   14.7428462
|  9>     O       15.8986162   16.3990094   15.0211150
| 10>     C       16.8571414   16.2975742   15.9856087
| 11>     O       17.3641486   15.2284719   16.2829388
| 12>     C       17.1201229   17.5629468   16.7528038
| 13>     C       16.9818738   18.7989465   16.2030581
| 14>     C       16.3442771   19.1649926   14.8768677
| 15>     N       17.4954874   19.9273279   16.8476169
| 16>     C       18.3451468   19.8881196   17.9198919
| 17>     S       19.0032143   21.2625264   18.5629141
| 18>     N       18.6401502   18.6448974   18.4186055
| 19>     C       18.0040838   17.3828241   17.9938914
| 20>     C       17.3113591   16.6477770   19.1338999
| 21>     C       17.6495091   15.3173397   19.4403237
| 22>     C       17.0112160   14.6422788   20.4943151
| 23>     C       16.0274638   15.3039867   21.2491438
| 24>     C       15.6873492   16.6292960   20.9446295
| 25>     O       14.7350995   17.2692283   21.6692345
| 26>     C       16.3240677   17.2982851   19.8944018
| 27>     H       13.5363171   16.4530487   13.7949210
| 28>     H       13.5394940   14.7477894   13.2923552
| 29>     H       14.7819923   15.8568331   12.6711341
| 30>     H       14.4813999   14.9837742   15.6201254
| 31>     H       15.7184399   14.3860379   14.4815692
| 32>     H       15.2770896   18.9100594   14.8762541
| 33>     H       16.8223323   18.6230359   14.0511843
| 34>     H       16.4232452   20.2343494   14.6462165
| 35>     H       17.3058785   20.8455659   16.4791953
| 36>     H       19.2515954   18.6448785   19.2252780
| 37>     H       18.8878038   16.8238419   17.6531647
| 38>     H       18.3995695   14.8003238   18.8464186
| 39>     H       17.2765318   13.6105586   20.7178934
| 40>     H       15.5311046   14.7858862   22.0628499
| 41>     H       14.4354485   16.6572668   22.3580559
| 42>     H       16.0502985   18.3249479   19.6754446
| 43> *
| 44>
| 45>                          ****END OF INPUT****

CARTESIAN COORDINATES (ANGSTROEM)
---------------------------------
  C     14.180615   15.599076   13.551833
  C     15.087517   15.246898   14.742846
  O     15.898616   16.399009   15.021115
  C     16.857141   16.297574   15.985609
  O     17.364149   15.228472   16.282939
  C     17.120123   17.562947   16.752804
  C     16.981874   18.798946   16.203058
  C     16.344277   19.164993   14.876868
  N     17.495487   19.927328   16.847617
  C     18.345147   19.888120   17.919892
  S     19.003214   21.262526   18.562914
  N     18.640150   18.644897   18.418606
  C     18.004084   17.382824   17.993891
  C     17.311359   16.647777   19.133900
  C     17.649509   15.317340   19.440324
  C     17.011216   14.642279   20.494315
  C     16.027464   15.303987   21.249144
  C     15.687349   16.629296   20.944629
  O     14.735100   17.269228   21.669234
  C     16.324068   17.298285   19.894402
  H     13.536317   16.453049   13.794921
  H     13.539494   14.747789   13.292355
  H     14.781992   15.856833   12.671134
  H     14.481400   14.983774   15.620125
  H     15.718440   14.386038   14.481569
  H     15.277090   18.910059   14.876254
  H     16.822332   18.623036   14.051184
  H     16.423245   20.234349   14.646216
  H     17.305878   20.845566   16.479195
  H     19.251595   18.644879   19.225278
  H     18.887804   16.823842   17.653165
  H     18.399569   14.800324   18.846419
  H     17.276532   13.610559   20.717893
  H     15.531105   14.785886   22.062850
  H     14.435448   16.657267   22.358056
  H     16.050299   18.324948   19.675445

 Total Charge           Charge          ....    0
 Multiplicity           Mult            ....    1
 Number of Electrons    NEL             ....  154
 Basis Dimension        Dim             ....  828

ORBITAL ENERGIES
----------------

  NO   OCC          E(Eh)            E(eV)
   0   2.0000     -91.888046     -2500.4009
   1   2.0000     -20.601140      -560.5855
   2   2.0000     -20.591635      -560.3269
   3   2.0000     -20.546189      -559.0902
   4   2.0000     -15.628687      -425.2782
   5   2.0000     -15.605632      -424.6508
   6   2.0000     -11.394658      -310.0644
   7   2.0000     -11.382580      -309.7357
   8   2.0000     -11.338320      -308.5314
   9   2.0000     -11.307576      -307.6948
  10   2.0000     -11.304118      -307.6007
  11   2.0000     -11.299643      -307.4789
  12   2.0000     -11.260662      -306.4182
  13   2.0000     -11.259198      -306.3784
  14   2.0000     -11.254821      -306.2593
  15   2.0000     -11.247600      -306.0628
  16   2.0000     -11.237845      -305.7973
  17   2.0000     -11.235288      -305.7277
  18   2.0000     -11.233987      -305.6923
  19   2.0000     -11.230687      -305.6025
  20   2.0000      -8.893129      -241.9944
  21   2.0000      -6.574706      -178.9069
  22   2.0000      -6.572704      -178.8524
  23   2.0000      -6.572116      -178.8364
  24   2.0000      -1.455229       -39.5988
  25   2.0000      -1.411380       -38.4056
  26   2.0000      -1.357376       -36.9361
  27   2.0000      -1.339926       -36.4612
  28   2.0000      -1.237026       -33.6612
  29   2.0000      -1.152222       -31.3536
  30   2.0000      -1.120806       -30.4987
  31   2.0000      -1.045005       -28.4360
  32   2.0000      -1.036896       -28.2154
  33   2.0000      -1.009752       -27.4768
  34   2.0000      -0.998770       -27.1779
  35   2.0000      -0.983929       -26.7741
  36   2.0000      -0.920551       -25.0495
  37   2.0000      -0.887256       -24.1435
  38   2.0000      -0.847056       -23.0496
  39   2.0000      -0.834801       -22.7161
  40   2.0000      -0.827843       -22.5267
  41   2.0000      -0.819681       -22.3047
  42   2.0000      -0.762028       -20.7358
  43   2.0000      -0.736169       -20.0322
  44   2.0000      -0.726023       -19.7561
  45   2.0000      -0.689794       -18.7702
  46   2.0000      -0.684398       -18.6234
  47   2.0000      -0.681323       -18.5397
  48   2.0000      -0.676058       -18.3965
  49   2.0000      -0.657148       -17.8819
  50   2.0000      -0.650843       -17.7103
  51   2.0000      -0.640761       -17.4360
  52   2.0000      -0.632859       -17.2210
  53   2.0000      -0.605498       -16.4764
  54   2.0000      -0.603138       -16.4122
  55   2.0000      -0.598306       -16.2807
  56   2.0000      -0.594958       -16.1896
  57   2.0000      -0.577301       -15.7092
  58   2.0000      -0.572923       -15.5900
  59   2.0000      -0.563353       -15.3296
  60   2.0000      -0.561927       -15.2908
  61   2.0000      -0.549342       -14.9484
  62   2.0000      -0.543762       -14.7965
  63   2.0000      -0.522980       -14.2310
  64   2.0000      -0.515742       -14.0340
  65   2.0000      -0.509704       -13.8698
  66   2.0000      -0.505031       -13.7426
  67   2.0000      -0.494044       -13.4436
  68   2.0000      -0.481062       -13.0904
  69   2.0000      -0.463532       -12.6133
  70   2.0000      -0.461915       -12.5693
  71   2.0000      -0.451859       -12.2957
  72   2.0000      -0.353142        -9.6095
  73   2.0000      -0.344375        -9.3709
  74   2.0000      -0.327105        -8.9010
  75   2.0000      -0.317207        -8.6316
  76   2.0000      -0.314193        -8.5496
  77   0.0000       0.076312         2.0766
  78   0.0000       0.111641         3.0379
  79   0.0000       0.120609         3.2819
  80   0.0000       0.135563         3.6889
  81   0.0000       0.138209         3.7608

MULLIKEN ATOMIC CHARGES
-----------------------
   0 C :   -0.273500
   1 C :    0.043114
   2 O :   -0.341291
   3 C :    0.420746
   4 O :   -0.416563
   5 C :   -0.174213
   6 C :    0.156678
   7 C :   -0.284344
   8 N :   -0.128837
   9 C :    0.207545
  10 S :   -0.442298
  11 N :   -0.210667
  12 C :    0.041879
  13 C :    0.031938
  14 C :   -0.166627
  15 C :   -0.134369
  16 C :   -0.277242
  17 C :    0.313838
  18 O :   -0.359179
  19 C :   -0.251627
  20 H :    0.092724
  21 H :    0.099080
  22 H :    0.097590
  23 H :    0.087097
  24 H :    0.106109
  25 H :    0.128697
  26 H :    0.126104
  27 H :    0.103560
  28 H :    0.198844
  29 H :    0.199958
  30 H :    0.155302
  31 H :    0.158652
  32 H :    0.159928
  33 H :    0.128163
  34 H :    0.239918
  35 H :    0.163293
Sum of atomic charges:   -0.0000000

LOEWDIN ATOMIC CHARGES
----------------------
   0 C :    0.107379
   1 C :   -0.017806
   2 O :    0.304471
   3 C :   -0.415642
   4 O :    0.107381
   5 C :   -0.092457
   6 C :   -0.064334
   7 C :    0.125303
   8 N :    0.405501
   9 C :   -0.458589
  10 S :   -0.037557
  11 N :    0.396430
  12 C :   -0.048254
  13 C :   -0.040568
  14 C :    0.025195
  15 C :    0.041034
  16 C :   -0.001241
  17 C :   -0.192661
  18 O :    0.392979
  19 C :    0.029467
  20 H :   -0.029213
  21 H :   -0.023037
  22 H :   -0.026429
  23 H :   -0.029443
  24 H :   -0.027478
  25 H :   -0.009972
  26 H :   -0.009280
  27 H :   -0.021114
  28 H :   -0.058716
  29 H :   -0.063115
  30 H :   -0.008186
  31 H :   -0.023952
  32 H :   -0.021044
  33 H :   -0.036201
  34 H :   -0.154898
  35 H :   -0.023954

  Mayer bond orders larger than 0.100000
B(  0-C ,  1-C ) :   0.9719 B(  0-C , 20-H ) :   0.9784 B(  0-C , 21-H ) :   0.9780
B(  0-C , 22-H ) :   0.9772 B(  1-C ,  2-O ) :   0.9078 B(  1-C , 23-H ) :   0.9746
B(  1-C , 24-H ) :   0.9779 B(  2-O ,  3-C ) :   1.1356 B(  3-C ,  4-O ) :   1.9980
B(  3-C ,  5-C ) :   1.0383 B(  5-C ,  6-C ) :   1.6555 B(  5-C , 12-C ) :   0.9498
B(  6-C ,  7-C ) :   0.9542 B(  6-C ,  8-N ) :   1.1342 B(  7-C , 25-H ) :   0.9630
B(  7-C , 26-H ) :   0.9649 B(  7-C , 27-H ) :   0.9919 B(  8-N ,  9-C ) :   1.1851
B(  8-N , 28-H ) :   0.9468 B(  9-C , 10-S ) :   1.6083 B(  9-C , 11-N ) :   1.3065
B( 11-N , 12-C ) :   0.9762 B( 11-N , 29-H ) :   0.9485 B( 12-C , 13-C ) :   0.9735
B( 12-C , 30-H ) :   0.9970 B( 13-C , 14-C ) :   1.3768 B( 13-C , 19-C ) :   1.3654
B( 14-C , 15-C ) :   1.3975 B( 14-C , 31-H ) :   0.9638 B( 15-C , 16-C ) :   1.3586
B( 15-C , 32-H ) :   0.9712 B( 16-C , 17-C ) :   1.3334 B( 16-C , 33-H ) :   0.9860
B( 17-C , 18-O ) :   1.1034 B( 17-C , 19-C ) :   1.3677 B( 18-O , 34-H ) :   0.9807
B( 19-C , 35-H ) :   0.9603

MP2 TOTAL ENERGY:    -1274.339238119 Eh
FINAL SINGLE POINT ENERGY     -1274.339238119278

DIPOLE MOMENT
-------------
                                X             Y             Z
Electronic contribution:     10.49464       8.98421      12.42802
Nuclear contribution   :    -11.98906     -10.28561     -13.40349
                        -----------------------------------------
Total Dipole Moment    :     -1.49442      -1.30140      -0.97547
                        -----------------------------------------
Magnitude (a.u.)       :      2.20873
Magnitude (Debye)      :      5.61414

Rotational constants in cm-1:     0.009792     0.008846     0.005502
Rotational constants in MHz :   293.543303   265.188313   164.957043

                             ****ORCA TERMINATED NORMALLY****
TOTAL RUN TIME: 0 days 1 hours 41 minutes 45 seconds 645 msec
