                         Program Version 4.2.0 -  RELEASE  -
|  1> ! ri-mp2 cc-pvtz cc-pvtz/c TightSCF NoKeepInts
|  2>
|  3> %scf
|  4>   MaxCore 4096
|  5> end
|  6> *xyz  0  1
|  7>     C       14.5629499   15.0119585   15.7896533
|  8>     C       14.8362129   16.4268494   15.2465505
|  9>     O       16.1634829   16.4489873   14.6859911
| 10>     C       17.2320426   16.5328613   15.5317919
| 11>     O       18.0868560   15.6664778   15.5622396
| 12>     C       17.2345512   17.7096451   16.4582425
| 13>     C       16.9718900   18.9641171   16.0141666
| 14>     C       16.4624499   19.3625873   14.6433087
| 15>     N       17.2413647   20.0743223   16.8174863
| 16>     C       17.9744935   20.0290887   17.9737836
| 17>     S       18.3441008   21.3980293   18.8245113
| 18>     N       18.4035106   18.7892323   18.3790060
| 19>     C       18.0146899   17.5074929   17.7577958
| 20>     C       17.3212075   16.5387708   18.7049088
| 21>     C       17.7364777   15.1973575   18.7808261
| 22>     C       17.0805625   14.2936616   19.6332321
| 23>     C       15.9986942   14.7349663   20.4143157
| 24>     C       15.5793882   16.0701233   20.3362205
| 25>     O       14.5285125   16.4966039   21.0808771
| 26>     C       16.2334494   16.9672365   19.4856695
| 27>     H       15.2330236   14.7772233   16.6271291
| 28>     H       14.7160244   14.2598692   15.0053185
| 29>     H       13.5298323   14.9293561   16.1482180
| 30>     H       14.1084338   16.6465459   14.4547189
| 31>     H       14.7095531   17.1730878   16.0417598
| 32>     H       16.9617663   18.7881387   13.8523464
| 33>     H       16.6481040   20.4210391   14.4218108
| 34>     H       15.3833934   19.1909015   14.5566398
| 35>     H       16.9598540   20.9943561   16.5176717
| 36>     H       18.9327547   18.7826916   19.2420524
| 37>     H       19.0008738   17.1193684   17.4622344
| 38>     H       18.5625893   14.8512407   18.1629966
| 39>     H       17.4086993   13.2566382   19.6807918
| 40>     H       15.4882525   14.0395063   21.0723713
| 41>     H       14.2440399   15.7533995   21.6341001
| 42>     H       15.8929187   17.9962684   19.4372632
| 43> *
| 44>
| 45>                          ****END OF INPUT****

CARTESIAN COORDINATES (ANGSTROEM)
---------------------------------
  C     14.562950   15.011958   15.789653
  C     14.836213   16.426849   15.246550
  O     16.163483   16.448987   14.685991
  C     17.232043   16.532861   15.531792
  O     18.086856   15.666478   15.562240
  C     17.234551   17.709645   16.458243
  C     16.971890   18.964117   16.014167
  C     16.462450   19.362587   14.643309
  N     17.241365   20.074322   16.817486
  C     17.974493   20.029089   17.973784
  S     18.344101   21.398029   18.824511
  N     18.403511   18.789232   18.379006
  C     18.014690   17.507493   17.757796
  C     17.321207   16.538771   18.704909
  C     17.736478   15.197357   18.780826
  C     17.080562   14.293662   19.633232
  C     15.998694   14.734966   20.414316
  C     15.579388   16.070123   20.336220
  O     14.528512   16.496604   21.080877
  C     16.233449   16.967236   19.485669
  H     15.233024   14.777223   16.627129
  H     14.716024   14.259869   15.005318
  H     13.529832   14.929356   16.148218
  H     14.108434   16.646546   14.454719
  H     14.709553   17.173088   16.041760
  H     16.961766   18.788139   13.852346
  H     16.648104   20.421039   14.421811
  H     15.383393   19.190901   14.556640
  H     16.959854   20.994356   16.517672
  H     18.932755   18.782692   19.242052
  H     19.000874   17.119368   17.462234
  H     18.562589   14.851241   18.162997
  H     17.408699   13.256638   19.680792
  H     15.488252   14.039506   21.072371
  H     14.244040   15.753400   21.634100
  H     15.892919   17.996268   19.437263

 Total Charge           Charge          ....    0
 Multiplicity           Mult            ....    1
 Number of Electrons    NEL             ....  154
 Basis Dimension        Dim             ....  828

ORBITAL ENERGIES
----------------

  NO   OCC          E(Eh)            E(eV)
   0   2.0000     -91.890472     -2500.4669
   1   2.0000     -20.597899      -560.4973
   2   2.0000     -20.595061      -560.4201
   3   2.0000     -20.552397      -559.2592
   4   2.0000     -15.630404      -425.3249
   5   2.0000     -15.608956      -424.7413
   6   2.0000     -11.395763      -310.0945
   7   2.0000     -11.385809      -309.8236
   8   2.0000     -11.338067      -308.5245
   9   2.0000     -11.314746      -307.8899
  10   2.0000     -11.307624      -307.6961
  11   2.0000     -11.306640      -307.6693
  12   2.0000     -11.264640      -306.5264
  13   2.0000     -11.261816      -306.4496
  14   2.0000     -11.261478      -306.4404
  15   2.0000     -11.254652      -306.2547
  16   2.0000     -11.244329      -305.9737
  17   2.0000     -11.240601      -305.8723
  18   2.0000     -11.236962      -305.7733
  19   2.0000     -11.228368      -305.5394
  20   2.0000      -8.895558      -242.0604
  21   2.0000      -6.577134      -178.9729
  22   2.0000      -6.575129      -178.9184
  23   2.0000      -6.574540      -178.9023
  24   2.0000      -1.451013       -39.4841
  25   2.0000      -1.417649       -38.5762
  26   2.0000      -1.361696       -37.0536
  27   2.0000      -1.341909       -36.5152
  28   2.0000      -1.239485       -33.7281
  29   2.0000      -1.159090       -31.5404
  30   2.0000      -1.124811       -30.6077
  31   2.0000      -1.046747       -28.4834
  32   2.0000      -1.035090       -28.1662
  33   2.0000      -1.016709       -27.6660
  34   2.0000      -1.004196       -27.3256
  35   2.0000      -0.988767       -26.9057
  36   2.0000      -0.925378       -25.1808
  37   2.0000      -0.888728       -24.1835
  38   2.0000      -0.853855       -23.2346
  39   2.0000      -0.841506       -22.8985
  40   2.0000      -0.834828       -22.7168
  41   2.0000      -0.832897       -22.6643
  42   2.0000      -0.748905       -20.3787
  43   2.0000      -0.736949       -20.0534
  44   2.0000      -0.730995       -19.8914
  45   2.0000      -0.695729       -18.9318
  46   2.0000      -0.686982       -18.6937
  47   2.0000      -0.680958       -18.5298
  48   2.0000      -0.678140       -18.4531
  49   2.0000      -0.663956       -18.0672
  50   2.0000      -0.655038       -17.8245
  51   2.0000      -0.646258       -17.5856
  52   2.0000      -0.637682       -17.3522
  53   2.0000      -0.612806       -16.6753
  54   2.0000      -0.607294       -16.5253
  55   2.0000      -0.604069       -16.4376
  56   2.0000      -0.601150       -16.3581
  57   2.0000      -0.581074       -15.8118
  58   2.0000      -0.576298       -15.6819
  59   2.0000      -0.568970       -15.4825
  60   2.0000      -0.559404       -15.2222
  61   2.0000      -0.555814       -15.1245
  62   2.0000      -0.545288       -14.8380
  63   2.0000      -0.528444       -14.3797
  64   2.0000      -0.519366       -14.1327
  65   2.0000      -0.512940       -13.9578
  66   2.0000      -0.500133       -13.6093
  67   2.0000      -0.496959       -13.5229
  68   2.0000      -0.488116       -13.2823
  69   2.0000      -0.468951       -12.7608
  70   2.0000      -0.460705       -12.5364
  71   2.0000      -0.449428       -12.2296
  72   2.0000      -0.356167        -9.6918
  73   2.0000      -0.350578        -9.5397
  74   2.0000      -0.329682        -8.9711
  75   2.0000      -0.322003        -8.7622
  76   2.0000      -0.319792        -8.7020
  77   0.0000       0.075607         2.0574
  78   0.0000       0.103986         2.8296
  79   0.0000       0.118524         3.2252
  80   0.0000       0.130847         3.5605
  81   0.0000       0.135103         3.6763

MULLIKEN ATOMIC CHARGES
-----------------------
   0 C :   -0.268162
   1 C :    0.004828
   2 O :   -0.349644
   3 C :    0.442099
   4 O :   -0.381131
   5 C :   -0.256165
   6 C :    0.178460
   7 C :   -0.300521
   8 N :   -0.131463
   9 C :    0.206436
  10 S :   -0.440077
  11 N :   -0.217152
  12 C :    0.064043
  13 C :    0.021305
  14 C :   -0.204583
  15 C :   -0.128793
  16 C :   -0.277770
  17 C :    0.313177
  18 O :   -0.357339
  19 C :   -0.249858
  20 H :    0.107882
  21 H :    0.106620
  22 H :    0.092119
  23 H :    0.115773
  24 H :    0.099638
  25 H :    0.139282
  26 H :    0.112793
  27 H :    0.120368
  28 H :    0.198201
  29 H :    0.200478
  30 H :    0.161813
  31 H :    0.171221
  32 H :    0.163894
  33 H :    0.131336
  34 H :    0.241100
  35 H :    0.169794
Sum of atomic charges:    0.0000000

LOEWDIN ATOMIC CHARGES
----------------------
   0 C :    0.109530
   1 C :   -0.027879
   2 O :    0.300960
   3 C :   -0.420683
   4 O :    0.125753
   5 C :   -0.094685
   6 C :   -0.075665
   7 C :    0.128570
   8 N :    0.404455
   9 C :   -0.457317
  10 S :   -0.036112
  11 N :    0.396002
  12 C :   -0.049551
  13 C :   -0.043884
  14 C :    0.022421
  15 C :    0.042582
  16 C :   -0.000506
  17 C :   -0.192432
  18 O :    0.394123
  19 C :    0.027260
  20 H :   -0.024077
  21 H :   -0.022126
  22 H :   -0.026605
  23 H :   -0.025063
  24 H :   -0.038013
  25 H :   -0.005530
  26 H :   -0.016925
  27 H :   -0.013636
  28 H :   -0.058141
  29 H :   -0.063521
  30 H :   -0.005805
  31 H :   -0.021892
  32 H :   -0.019288
  33 H :   -0.035069
  34 H :   -0.153538
  35 H :   -0.023715

  Mayer bond orders larger than 0.100000
B(  0-C ,  1-C ) :   0.9847 B(  0-C , 20-H ) :   0.9690 B(  0-C , 21-H ) :   0.9771
B(  0-C , 22-H ) :   0.9762 B(  1-C ,  2-O ) :   0.8965 B(  1-C , 23-H ) :   0.9782
B(  1-C , 24-H ) :   0.9625 B(  2-O ,  3-C ) :   1.1214 B(  3-C ,  4-O ) :   2.0802
B(  3-C ,  5-C ) :   0.9557 B(  5-C ,  6-C ) :   1.6893 B(  5-C , 12-C ) :   0.9453
B(  6-C ,  7-C ) :   0.9403 B(  6-C ,  8-N ) :   1.1299 B(  7-C , 25-H ) :   0.9667
B(  7-C , 26-H ) :   0.9871 B(  7-C , 27-H ) :   0.9661 B(  8-N ,  9-C ) :   1.1882
B(  8-N , 28-H ) :   0.9481 B(  9-C , 10-S ) :   1.6122 B(  9-C , 11-N ) :   1.2972
B( 11-N , 12-C ) :   0.9853 B( 11-N , 29-H ) :   0.9486 B( 12-C , 13-C ) :   0.9660
B( 12-C , 30-H ) :   0.9930 B( 13-C , 14-C ) :   1.3830 B( 13-C , 19-C ) :   1.3584
B( 14-C , 15-C ) :   1.3926 B( 14-C , 31-H ) :   0.9604 B( 15-C , 16-C ) :   1.3608
B( 15-C , 32-H ) :   0.9703 B( 16-C , 17-C ) :   1.3313 B( 16-C , 33-H ) :   0.9850
B( 17-C , 18-O ) :   1.1075 B( 17-C , 19-C ) :   1.3662 B( 18-O , 34-H ) :   0.9796
B( 19-C , 35-H ) :   0.9579

MP2 TOTAL ENERGY:    -1274.331826303 Eh
FINAL SINGLE POINT ENERGY     -1274.331826302882

DIPOLE MOMENT
-------------
                                X             Y             Z
Electronic contribution:      9.68176       8.95497       7.09472
Nuclear contribution   :    -11.29864      -9.96505      -7.54715
                        -----------------------------------------
Total Dipole Moment    :     -1.61688      -1.01008      -0.45243
                        -----------------------------------------
Magnitude (a.u.)       :      1.95940
Magnitude (Debye)      :      4.98040

Rotational constants in cm-1:     0.011439     0.009159     0.006292
Rotational constants in MHz :   342.927991   274.581965   188.633300

                             ****ORCA TERMINATED NORMALLY****
TOTAL RUN TIME: 0 days 1 hours 42 minutes 46 seconds 951 msec
