                         Program Version 4.2.0 -  RELEASE  -
|  1> ! ri-mp2 cc-pvtz cc-pvtz/c TightSCF NoKeepInts
|  2>
|  3> %scf
|  4>   MaxCore 4096
|  5> end
|  6> *xyz  0  1
|  7>     C       14.6567100   15.8967832   16.3590743
|  8>     C       15.0478161   16.2282192   14.9020967
|  9>     O       16.4682330   16.0770121   14.6620388
| 10>     C       17.4852060   16.4716479   15.4968896
| 11>     O       18.5408477   15.8657676   15.5139168
| 12>     C       17.2204350   17.6149322   16.4249264
| 13>     C       16.8757580   18.8339945   15.9393839
| 14>     C       16.5282549   19.2004267   14.5097769
| 15>     N       16.9287271   19.9678478   16.7524759
| 16>     C       17.5612564   20.0155400   17.9662634
| 17>     S       17.6985137   21.4232015   18.8229133
| 18>     N       18.1020211   18.8380111   18.4191635
| 19>     C       17.9004878   17.5155579   17.7942974
| 20>     C       17.2725901   16.4708338   18.7063865
| 21>     C       17.7525192   15.1487840   18.7011724
| 22>     C       17.1646734   14.1716101   19.5214290
| 23>     C       16.0865804   14.5191209   20.3532522
| 24>     C       15.6046264   15.8351824   20.3589987
| 25>     O       14.5577787   16.1714392   21.1537341
| 26>     C       16.1917210   16.8061791   19.5413776
| 27>     H       15.2221226   15.0339442   16.7348919
| 28>     H       13.5902646   15.6465957   16.4138179
| 29>     H       14.8202806   16.7479456   17.0285458
| 30>     H       14.5148578   15.5442944   14.2286703
| 31>     H       14.7115831   17.2420689   14.6610263
| 32>     H       16.8363961   18.4345462   13.7884974
| 33>     H       17.0412095   20.1222223   14.2060487
| 34>     H       15.4511387   19.3683373   14.3933952
| 35>     H       16.5737994   20.8479824   16.4130014
| 36>     H       18.5638507   18.8979178   19.3181344
| 37>     H       18.9463658   17.2450820   17.5851491
| 38>     H       18.5797217   14.8759684   18.0486926
| 39>     H       17.5434456   13.1509559   19.5065655
| 40>     H       15.6285085   13.7667424   20.9867816
| 41>     H       14.3191775   15.3855178   21.6681747
| 42>     H       15.7995221   17.8177875   19.5570397
| 43> *
| 44>
| 45>                          ****END OF INPUT****

CARTESIAN COORDINATES (ANGSTROEM)
---------------------------------
  C     14.656710   15.896783   16.359074
  C     15.047816   16.228219   14.902097
  O     16.468233   16.077012   14.662039
  C     17.485206   16.471648   15.496890
  O     18.540848   15.865768   15.513917
  C     17.220435   17.614932   16.424926
  C     16.875758   18.833994   15.939384
  C     16.528255   19.200427   14.509777
  N     16.928727   19.967848   16.752476
  C     17.561256   20.015540   17.966263
  S     17.698514   21.423202   18.822913
  N     18.102021   18.838011   18.419163
  C     17.900488   17.515558   17.794297
  C     17.272590   16.470834   18.706387
  C     17.752519   15.148784   18.701172
  C     17.164673   14.171610   19.521429
  C     16.086580   14.519121   20.353252
  C     15.604626   15.835182   20.358999
  O     14.557779   16.171439   21.153734
  C     16.191721   16.806179   19.541378
  H     15.222123   15.033944   16.734892
  H     13.590265   15.646596   16.413818
  H     14.820281   16.747946   17.028546
  H     14.514858   15.544294   14.228670
  H     14.711583   17.242069   14.661026
  H     16.836396   18.434546   13.788497
  H     17.041210   20.122222   14.206049
  H     15.451139   19.368337   14.393395
  H     16.573799   20.847982   16.413001
  H     18.563851   18.897918   19.318134
  H     18.946366   17.245082   17.585149
  H     18.579722   14.875968   18.048693
  H     17.543446   13.150956   19.506565
  H     15.628509   13.766742   20.986782
  H     14.319178   15.385518   21.668175
  H     15.799522   17.817787   19.557040

 Total Charge           Charge          ....    0
 Multiplicity           Mult            ....    1
 Number of Electrons    NEL             ....  154
 Basis Dimension        Dim             ....  828

ORBITAL ENERGIES
----------------

  NO   OCC          E(Eh)            E(eV)
   0   2.0000     -91.890029     -2500.4548
   1   2.0000     -20.599471      -560.5401
   2   2.0000     -20.598658      -560.5180
   3   2.0000     -20.550111      -559.1970
   4   2.0000     -15.628194      -425.2648
   5   2.0000     -15.609404      -424.7535
   6   2.0000     -11.400274      -310.2172
   7   2.0000     -11.385695      -309.8205
   8   2.0000     -11.335351      -308.4506
   9   2.0000     -11.315758      -307.9174
  10   2.0000     -11.310372      -307.7709
  11   2.0000     -11.309868      -307.7571
  12   2.0000     -11.266752      -306.5839
  13   2.0000     -11.265785      -306.5576
  14   2.0000     -11.263371      -306.4919
  15   2.0000     -11.256019      -306.2918
  16   2.0000     -11.245026      -305.9927
  17   2.0000     -11.240710      -305.8753
  18   2.0000     -11.237520      -305.7885
  19   2.0000     -11.231653      -305.6288
  20   2.0000      -8.895135      -242.0489
  21   2.0000      -6.576718      -178.9616
  22   2.0000      -6.574704      -178.9068
  23   2.0000      -6.574121      -178.8909
  24   2.0000      -1.445985       -39.3473
  25   2.0000      -1.418406       -38.5968
  26   2.0000      -1.359583       -36.9961
  27   2.0000      -1.341688       -36.5092
  28   2.0000      -1.239767       -33.7358
  29   2.0000      -1.160007       -31.5654
  30   2.0000      -1.125652       -30.6306
  31   2.0000      -1.047497       -28.5039
  32   2.0000      -1.037469       -28.2310
  33   2.0000      -1.018262       -27.7083
  34   2.0000      -1.006571       -27.3902
  35   2.0000      -0.989991       -26.9390
  36   2.0000      -0.926761       -25.2185
  37   2.0000      -0.898992       -24.4628
  38   2.0000      -0.853733       -23.2312
  39   2.0000      -0.841341       -22.8940
  40   2.0000      -0.835503       -22.7352
  41   2.0000      -0.829291       -22.5662
  42   2.0000      -0.745370       -20.2825
  43   2.0000      -0.737543       -20.0696
  44   2.0000      -0.731704       -19.9107
  45   2.0000      -0.695857       -18.9352
  46   2.0000      -0.687671       -18.7125
  47   2.0000      -0.681091       -18.5334
  48   2.0000      -0.674904       -18.3651
  49   2.0000      -0.661475       -17.9997
  50   2.0000      -0.657252       -17.8847
  51   2.0000      -0.649725       -17.6799
  52   2.0000      -0.638501       -17.3745
  53   2.0000      -0.620491       -16.8844
  54   2.0000      -0.611245       -16.6328
  55   2.0000      -0.606178       -16.4950
  56   2.0000      -0.602175       -16.3860
  57   2.0000      -0.587292       -15.9810
  58   2.0000      -0.576400       -15.6846
  59   2.0000      -0.566371       -15.4117
  60   2.0000      -0.564094       -15.3498
  61   2.0000      -0.553566       -15.0633
  62   2.0000      -0.540607       -14.7107
  63   2.0000      -0.535612       -14.5748
  64   2.0000      -0.521957       -14.2032
  65   2.0000      -0.512393       -13.9429
  66   2.0000      -0.501008       -13.6331
  67   2.0000      -0.500156       -13.6099
  68   2.0000      -0.484782       -13.1916
  69   2.0000      -0.468900       -12.7594
  70   2.0000      -0.456263       -12.4155
  71   2.0000      -0.450141       -12.2489
  72   2.0000      -0.357455        -9.7268
  73   2.0000      -0.349281        -9.5044
  74   2.0000      -0.329526        -8.9669
  75   2.0000      -0.323677        -8.8077
  76   2.0000      -0.320194        -8.7129
  77   0.0000       0.082560         2.2466
  78   0.0000       0.104904         2.8546
  79   0.0000       0.115309         3.1377
  80   0.0000       0.128815         3.5052
  81   0.0000       0.130457         3.5499

MULLIKEN ATOMIC CHARGES
-----------------------
   0 C :   -0.328363
   1 C :    0.035983
   2 O :   -0.334470
   3 C :    0.435210
   4 O :   -0.381796
   5 C :   -0.251999
   6 C :    0.180287
   7 C :   -0.341627
   8 N :   -0.140201
   9 C :    0.206560
  10 S :   -0.442557
  11 N :   -0.226768
  12 C :    0.078233
  13 C :    0.022022
  14 C :   -0.228045
  15 C :   -0.129357
  16 C :   -0.277490
  17 C :    0.320914
  18 O :   -0.356575
  19 C :   -0.260986
  20 H :    0.124153
  21 H :    0.114432
  22 H :    0.111585
  23 H :    0.128234
  24 H :    0.081980
  25 H :    0.140292
  26 H :    0.132194
  27 H :    0.123132
  28 H :    0.197986
  29 H :    0.203884
  30 H :    0.167636
  31 H :    0.179710
  32 H :    0.164905
  33 H :    0.131852
  34 H :    0.241135
  35 H :    0.177915
Sum of atomic charges:   -0.0000000

LOEWDIN ATOMIC CHARGES
----------------------
   0 C :    0.104526
   1 C :   -0.016219
   2 O :    0.295081
   3 C :   -0.416270
   4 O :    0.121487
   5 C :   -0.082282
   6 C :   -0.087122
   7 C :    0.123845
   8 N :    0.403057
   9 C :   -0.458308
  10 S :   -0.037989
  11 N :    0.396542
  12 C :   -0.047457
  13 C :   -0.042576
  14 C :    0.020376
  15 C :    0.043421
  16 C :   -0.000684
  17 C :   -0.191703
  18 O :    0.395274
  19 C :    0.028549
  20 H :   -0.020091
  21 H :   -0.024222
  22 H :   -0.034060
  23 H :   -0.019530
  24 H :   -0.038465
  25 H :   -0.008202
  26 H :   -0.010772
  27 H :   -0.019209
  28 H :   -0.056884
  29 H :   -0.063271
  30 H :   -0.003831
  31 H :   -0.021538
  32 H :   -0.018755
  33 H :   -0.034956
  34 H :   -0.153371
  35 H :   -0.024391

  Mayer bond orders larger than 0.100000
B(  0-C ,  1-C ) :   0.9524 B(  0-C , 20-H ) :   0.9687 B(  0-C , 21-H ) :   0.9771
B(  0-C , 22-H ) :   0.9721 B(  1-C ,  2-O ) :   0.9049 B(  1-C , 23-H ) :   0.9823
B(  1-C , 24-H ) :   0.9733 B(  2-O ,  3-C ) :   1.1634 B(  3-C ,  4-O ) :   2.0853
B(  3-C ,  5-C ) :   0.9303 B(  5-C ,  6-C ) :   1.7013 B(  5-C , 12-C ) :   0.9359
B(  6-C ,  7-C ) :   0.9368 B(  6-C ,  8-N ) :   1.1108 B(  7-C , 25-H ) :   0.9732
B(  7-C , 26-H ) :   0.9756 B(  7-C , 27-H ) :   0.9662 B(  8-N ,  9-C ) :   1.1968
B(  8-N , 28-H ) :   0.9511 B(  9-C , 10-S ) :   1.6092 B(  9-C , 11-N ) :   1.2926
B( 11-N , 12-C ) :   0.9789 B( 11-N , 29-H ) :   0.9473 B( 12-C , 13-C ) :   0.9706
B( 12-C , 30-H ) :   0.9895 B( 13-C , 14-C ) :   1.3876 B( 13-C , 19-C ) :   1.3423
B( 14-C , 15-C ) :   1.3951 B( 14-C , 31-H ) :   0.9576 B( 15-C , 16-C ) :   1.3596
B( 15-C , 32-H ) :   0.9699 B( 16-C , 17-C ) :   1.3316 B( 16-C , 33-H ) :   0.9848
B( 17-C , 18-O ) :   1.1088 B( 17-C , 19-C ) :   1.3623 B( 18-O , 34-H ) :   0.9796
B( 19-C , 35-H ) :   0.9563

MP2 TOTAL ENERGY:    -1274.327347956 Eh
FINAL SINGLE POINT ENERGY     -1274.327347956194

DIPOLE MOMENT
-------------
                                X             Y             Z
Electronic contribution:      8.54509       7.01606       6.66021
Nuclear contribution   :    -10.15983      -8.16423      -7.21073
                        -----------------------------------------
Total Dipole Moment    :     -1.61475      -1.14817      -0.55051
                        -----------------------------------------
Magnitude (a.u.)       :      2.05640
Magnitude (Debye)      :      5.22695

Rotational constants in cm-1:     0.011584     0.009304     0.006455
Rotational constants in MHz :   347.268190   278.933941   193.502323

                             ****ORCA TERMINATED NORMALLY****
TOTAL RUN TIME: 0 days 2 hours 16 minutes 0 seconds 220 msec
