                         Program Version 4.2.0 -  RELEASE  -
|  1> ! ri-mp2 cc-pvtz cc-pvtz/c TightSCF NoKeepInts
|  2>
|  3> %scf
|  4>   MaxCore 4096
|  5> end
|  6> *xyz  0  1
|  7>     C       14.3785074   15.1403016   15.5753033
|  8>     C       15.8642459   14.7847870   15.3390905
|  9>     O       16.7623938   15.8808146   15.6277826
| 10>     C       16.4377731   17.1965744   15.4383779
| 11>     O       15.7540356   17.5702324   14.5010945
| 12>     C       17.0017294   18.0903938   16.5098334
| 13>     C       17.0532927   19.4366628   16.3425352
| 14>     C       16.3791127   20.2503257   15.2573200
| 15>     N       17.7944721   20.2415028   17.2107686
| 16>     C       18.6523972   19.7659138   18.1653155
| 17>     S       19.5656040   20.7762960   19.1039306
| 18>     N       18.7312482   18.4020276   18.2914789
| 19>     C       17.8891833   17.4254856   17.5751370
| 20>     C       17.1293330   16.5019072   18.5186252
| 21>     C       17.5117514   15.1555775   18.6635571
| 22>     C       16.8025521   14.3011610   19.5244634
| 23>     C       15.7043959   14.7983058   20.2472141
| 24>     C       15.3248607   16.1405658   20.1077615
| 25>     O       14.2649304   16.6229487   20.8039397
| 26>     C       16.0326700   16.9884219   19.2501885
| 27>     H       14.2414656   15.6142351   16.5556453
| 28>     H       13.7661605   14.2309553   15.5523478
| 29>     H       13.9925918   15.8124192   14.7994281
| 30>     H       16.1392628   13.9261310   15.9650015
| 31>     H       15.9861277   14.4849610   14.2899971
| 32>     H       16.7905598   19.9968612   14.2719478
| 33>     H       16.4935359   21.3318012   15.3959915
| 34>     H       15.3029241   20.0366263   15.2274514
| 35>     H       17.7617978   21.2438569   17.1148339
| 36>     H       19.3479786   18.0823364   19.0275322
| 37>     H       18.6563733   16.8669084   17.0202936
| 38>     H       18.3569354   14.7693322   18.1000168
| 39>     H       17.1041903   13.2604559   19.6297709
| 40>     H       15.1535864   14.1425639   20.9135320
| 41>     H       13.9313199   15.9048694   21.3625005
| 42>     H       15.7277011   18.0254808   19.1579924
| 43> *
| 44>
| 45>                          ****END OF INPUT****

CARTESIAN COORDINATES (ANGSTROEM)
---------------------------------
  C     14.378507   15.140302   15.575303
  C     15.864246   14.784787   15.339090
  O     16.762394   15.880815   15.627783
  C     16.437773   17.196574   15.438378
  O     15.754036   17.570232   14.501095
  C     17.001729   18.090394   16.509833
  C     17.053293   19.436663   16.342535
  C     16.379113   20.250326   15.257320
  N     17.794472   20.241503   17.210769
  C     18.652397   19.765914   18.165315
  S     19.565604   20.776296   19.103931
  N     18.731248   18.402028   18.291479
  C     17.889183   17.425486   17.575137
  C     17.129333   16.501907   18.518625
  C     17.511751   15.155577   18.663557
  C     16.802552   14.301161   19.524463
  C     15.704396   14.798306   20.247214
  C     15.324861   16.140566   20.107761
  O     14.264930   16.622949   20.803940
  C     16.032670   16.988422   19.250188
  H     14.241466   15.614235   16.555645
  H     13.766160   14.230955   15.552348
  H     13.992592   15.812419   14.799428
  H     16.139263   13.926131   15.965001
  H     15.986128   14.484961   14.289997
  H     16.790560   19.996861   14.271948
  H     16.493536   21.331801   15.395991
  H     15.302924   20.036626   15.227451
  H     17.761798   21.243857   17.114834
  H     19.347979   18.082336   19.027532
  H     18.656373   16.866908   17.020294
  H     18.356935   14.769332   18.100017
  H     17.104190   13.260456   19.629771
  H     15.153586   14.142564   20.913532
  H     13.931320   15.904869   21.362500
  H     15.727701   18.025481   19.157992

 Total Charge           Charge          ....    0
 Multiplicity           Mult            ....    1
 Number of Electrons    NEL             ....  154
 Basis Dimension        Dim             ....  828

ORBITAL ENERGIES
----------------

  NO   OCC          E(Eh)            E(eV)
   0   2.0000     -91.888952     -2500.4255
   1   2.0000     -20.598509      -560.5139
   2   2.0000     -20.592188      -560.3419
   3   2.0000     -20.541302      -558.9572
   4   2.0000     -15.629305      -425.2950
   5   2.0000     -15.607116      -424.6912
   6   2.0000     -11.394669      -310.0647
   7   2.0000     -11.383697      -309.7661
   8   2.0000     -11.337114      -308.4986
   9   2.0000     -11.315879      -307.9207
  10   2.0000     -11.307442      -307.6912
  11   2.0000     -11.300054      -307.4901
  12   2.0000     -11.262560      -306.4698
  13   2.0000     -11.258286      -306.3535
  14   2.0000     -11.257391      -306.3292
  15   2.0000     -11.251684      -306.1739
  16   2.0000     -11.245602      -306.0084
  17   2.0000     -11.240690      -305.8747
  18   2.0000     -11.240557      -305.8711
  19   2.0000     -11.223514      -305.4073
  20   2.0000      -8.894022      -242.0186
  21   2.0000      -6.575594      -178.9310
  22   2.0000      -6.573596      -178.8766
  23   2.0000      -6.573006      -178.8606
  24   2.0000      -1.444794       -39.3148
  25   2.0000      -1.418200       -38.5912
  26   2.0000      -1.351873       -36.7863
  27   2.0000      -1.340301       -36.4714
  28   2.0000      -1.238286       -33.6955
  29   2.0000      -1.159339       -31.5472
  30   2.0000      -1.121143       -30.5078
  31   2.0000      -1.043910       -28.4062
  32   2.0000      -1.033907       -28.1340
  33   2.0000      -1.017031       -27.6748
  34   2.0000      -0.996563       -27.1179
  35   2.0000      -0.984863       -26.7995
  36   2.0000      -0.922385       -25.0994
  37   2.0000      -0.897293       -24.4166
  38   2.0000      -0.847056       -23.0496
  39   2.0000      -0.839548       -22.8453
  40   2.0000      -0.836020       -22.7493
  41   2.0000      -0.816919       -22.2295
  42   2.0000      -0.746090       -20.3021
  43   2.0000      -0.734176       -19.9779
  44   2.0000      -0.720999       -19.6194
  45   2.0000      -0.697018       -18.9668
  46   2.0000      -0.688759       -18.7421
  47   2.0000      -0.675690       -18.3865
  48   2.0000      -0.672174       -18.2908
  49   2.0000      -0.658251       -17.9119
  50   2.0000      -0.648861       -17.6564
  51   2.0000      -0.640522       -17.4295
  52   2.0000      -0.634761       -17.2727
  53   2.0000      -0.619492       -16.8572
  54   2.0000      -0.608560       -16.5597
  55   2.0000      -0.601827       -16.3765
  56   2.0000      -0.600240       -16.3334
  57   2.0000      -0.578696       -15.7471
  58   2.0000      -0.570324       -15.5193
  59   2.0000      -0.566118       -15.4049
  60   2.0000      -0.554363       -15.0850
  61   2.0000      -0.543377       -14.7860
  62   2.0000      -0.534903       -14.5554
  63   2.0000      -0.525620       -14.3028
  64   2.0000      -0.522965       -14.2306
  65   2.0000      -0.513657       -13.9773
  66   2.0000      -0.500626       -13.6227
  67   2.0000      -0.497827       -13.5465
  68   2.0000      -0.485352       -13.2071
  69   2.0000      -0.463305       -12.6072
  70   2.0000      -0.454350       -12.3635
  71   2.0000      -0.442460       -12.0400
  72   2.0000      -0.353220        -9.6116
  73   2.0000      -0.351116        -9.5544
  74   2.0000      -0.328351        -8.9349
  75   2.0000      -0.323258        -8.7963
  76   2.0000      -0.318196        -8.6586
  77   0.0000       0.075963         2.0671
  78   0.0000       0.102420         2.7870
  79   0.0000       0.124430         3.3859
  80   0.0000       0.131851         3.5879
  81   0.0000       0.136316         3.7093

MULLIKEN ATOMIC CHARGES
-----------------------
   0 C :   -0.320052
   1 C :    0.042846
   2 O :   -0.370824
   3 C :    0.463059
   4 O :   -0.433418
   5 C :   -0.251221
   6 C :    0.175837
   7 C :   -0.268116
   8 N :   -0.125351
   9 C :    0.212007
  10 S :   -0.442010
  11 N :   -0.216715
  12 C :    0.073717
  13 C :    0.038141
  14 C :   -0.186535
  15 C :   -0.131009
  16 C :   -0.277316
  17 C :    0.318984
  18 O :   -0.357299
  19 C :   -0.255980
  20 H :    0.103650
  21 H :    0.099432
  22 H :    0.126614
  23 H :    0.105534
  24 H :    0.110767
  25 H :    0.129962
  26 H :    0.094705
  27 H :    0.133040
  28 H :    0.199432
  29 H :    0.200387
  30 H :    0.152405
  31 H :    0.155859
  32 H :    0.162659
  33 H :    0.131446
  34 H :    0.240945
  35 H :    0.164420
Sum of atomic charges:   -0.0000000

LOEWDIN ATOMIC CHARGES
----------------------
   0 C :    0.105048
   1 C :   -0.012293
   2 O :    0.296702
   3 C :   -0.415871
   4 O :    0.102470
   5 C :   -0.096813
   6 C :   -0.056512
   7 C :    0.131351
   8 N :    0.407220
   9 C :   -0.455864
  10 S :   -0.036642
  11 N :    0.394389
  12 C :   -0.054295
  13 C :   -0.039279
  14 C :    0.017814
  15 C :    0.038844
  16 C :   -0.001061
  17 C :   -0.190300
  18 O :    0.395540
  19 C :    0.032634
  20 H :   -0.027332
  21 H :   -0.026167
  22 H :   -0.025511
  23 H :   -0.026300
  24 H :   -0.028745
  25 H :   -0.004671
  26 H :   -0.023663
  27 H :   -0.004521
  28 H :   -0.057156
  29 H :   -0.064696
  30 H :   -0.013111
  31 H :   -0.028566
  32 H :   -0.021043
  33 H :   -0.035152
  34 H :   -0.153613
  35 H :   -0.022834

  Mayer bond orders larger than 0.100000
B(  0-C ,  1-C ) :   0.9579 B(  0-C , 20-H ) :   0.9723 B(  0-C , 21-H ) :   0.9770
B(  0-C , 22-H ) :   0.9728 B(  1-C ,  2-O ) :   0.8947 B(  1-C , 23-H ) :   0.9799
B(  1-C , 24-H ) :   0.9857 B(  2-O ,  3-C ) :   1.1375 B(  3-C ,  4-O ) :   1.9725
B(  3-C ,  5-C ) :   1.0608 B(  5-C ,  6-C ) :   1.6360 B(  5-C , 12-C ) :   0.9545
B(  6-C ,  7-C ) :   0.9649 B(  6-C ,  8-N ) :   1.1580 B(  7-C , 25-H ) :   0.9590
B(  7-C , 26-H ) :   0.9900 B(  7-C , 27-H ) :   0.9616 B(  8-N ,  9-C ) :   1.1864
B(  8-N , 28-H ) :   0.9466 B(  9-C , 10-S ) :   1.6053 B(  9-C , 11-N ) :   1.3097
B( 11-N , 12-C ) :   0.9692 B( 11-N , 29-H ) :   0.9486 B( 12-C , 13-C ) :   0.9611
B( 12-C , 30-H ) :   0.9998 B( 13-C , 14-C ) :   1.3529 B( 13-C , 19-C ) :   1.3782
B( 14-C , 15-C ) :   1.3903 B( 14-C , 31-H ) :   0.9707 B( 15-C , 16-C ) :   1.3602
B( 15-C , 32-H ) :   0.9703 B( 16-C , 17-C ) :   1.3334 B( 16-C , 33-H ) :   0.9845
B( 17-C , 18-O ) :   1.1051 B( 17-C , 19-C ) :   1.3626 B( 18-O , 34-H ) :   0.9795
B( 19-C , 35-H ) :   0.9599

MP2 TOTAL ENERGY:    -1274.336593932 Eh
FINAL SINGLE POINT ENERGY     -1274.336593932151

DIPOLE MOMENT
-------------
                                X             Y             Z
Electronic contribution:      9.80750       9.68461       7.47381
Nuclear contribution   :    -10.83643     -11.44268      -7.69710
                        -----------------------------------------
Total Dipole Moment    :     -1.02894      -1.75807      -0.22328
                        -----------------------------------------
Magnitude (a.u.)       :      2.04924
Magnitude (Debye)      :      5.20876

Rotational constants in cm-1:     0.012122     0.008578     0.006089
Rotational constants in MHz :   363.420878   257.156472   182.551086

                             ****ORCA TERMINATED NORMALLY****
TOTAL RUN TIME: 0 days 2 hours 2 minutes 39 seconds 121 msec
