                         Program Version 4.2.0 -  RELEASE  -
|  1> ! ri-mp2 cc-pvtz cc-pvtz/c TightSCF NoKeepInts
|  2>
|  3> %scf
|  4>   MaxCore 4096
|  5> end
|  6> *xyz  0  1
|  7>     C       14.3956856   14.8212546   14.8300464
|  8>     C       15.1389079   15.8842044   13.9912012
|  9>     O       15.6723330   16.9226488   14.8391060
| 10>     C       16.6243816   16.6601766   15.7846765
| 11>     O       17.1710728   15.5737190   15.8811025
| 12>     C       16.9615981   17.8126151   16.6919410
| 13>     C       16.7851728   19.1158905   16.3435183
| 14>     C       16.0293466   19.6758633   15.1540953
| 15>     N       17.3601734   20.1402639   17.1005340
| 16>     C       18.2932511   19.9501168   18.0832588
| 17>     S       19.0111828   21.2199314   18.8628756
| 18>     N       18.6173839   18.6493445   18.3717287
| 19>     C       17.9423246   17.4594776   17.8188034
| 20>     C       17.3383521   16.5640128   18.8928876
| 21>     C       17.6954944   15.2063460   18.9798026
| 22>     C       17.1387596   14.3829403   19.9728003
| 23>     C       16.2183079   14.9224139   20.8877294
| 24>     C       15.8595072   16.2747533   20.8023052
| 25>     O       14.9681549   16.7972325   21.6820267
| 26>     C       16.4150494   17.0916236   19.8123597
| 27>     H       15.0867419   14.2260560   15.4388838
| 28>     H       13.8560685   14.1291511   14.1725099
| 29>     H       13.6656300   15.2951629   15.4977318
| 30>     H       15.9477040   15.4069920   13.4214312
| 31>     H       14.4377364   16.3312226   13.2749546
| 32>     H       16.4572752   19.3092424   14.2127644
| 33>     H       16.0513032   20.7716292   15.1116187
| 34>     H       14.9745507   19.3756119   15.1888358
| 35>     H       17.1480728   21.1014853   16.8865556
| 36>     H       19.2907108   18.5347356   19.1187261
| 37>     H       18.7926716   16.9609050   17.3311671
| 38>     H       18.3953629   14.7851981   18.2619231
| 39>     H       17.4172251   13.3320281   20.0256288
| 40>     H       15.7847004   14.2896988   21.6548796
| 41>     H       14.7169325   16.0894418   22.2940891
| 42>     H       16.1278742   18.1366104   19.7635010
| 43> *
| 44>
| 45>                          ****END OF INPUT****

CARTESIAN COORDINATES (ANGSTROEM)
---------------------------------
  C     14.395686   14.821255   14.830046
  C     15.138908   15.884204   13.991201
  O     15.672333   16.922649   14.839106
  C     16.624382   16.660177   15.784676
  O     17.171073   15.573719   15.881102
  C     16.961598   17.812615   16.691941
  C     16.785173   19.115890   16.343518
  C     16.029347   19.675863   15.154095
  N     17.360173   20.140264   17.100534
  C     18.293251   19.950117   18.083259
  S     19.011183   21.219931   18.862876
  N     18.617384   18.649344   18.371729
  C     17.942325   17.459478   17.818803
  C     17.338352   16.564013   18.892888
  C     17.695494   15.206346   18.979803
  C     17.138760   14.382940   19.972800
  C     16.218308   14.922414   20.887729
  C     15.859507   16.274753   20.802305
  O     14.968155   16.797232   21.682027
  C     16.415049   17.091624   19.812360
  H     15.086742   14.226056   15.438884
  H     13.856068   14.129151   14.172510
  H     13.665630   15.295163   15.497732
  H     15.947704   15.406992   13.421431
  H     14.437736   16.331223   13.274955
  H     16.457275   19.309242   14.212764
  H     16.051303   20.771629   15.111619
  H     14.974551   19.375612   15.188836
  H     17.148073   21.101485   16.886556
  H     19.290711   18.534736   19.118726
  H     18.792672   16.960905   17.331167
  H     18.395363   14.785198   18.261923
  H     17.417225   13.332028   20.025629
  H     15.784700   14.289699   21.654880
  H     14.716933   16.089442   22.294089
  H     16.127874   18.136610   19.763501

 Total Charge           Charge          ....    0
 Multiplicity           Mult            ....    1
 Number of Electrons    NEL             ....  154
 Basis Dimension        Dim             ....  828

ORBITAL ENERGIES
----------------

  NO   OCC          E(Eh)            E(eV)
   0   2.0000     -91.887581     -2500.3882
   1   2.0000     -20.603706      -560.6553
   2   2.0000     -20.591147      -560.3136
   3   2.0000     -20.544606      -559.0471
   4   2.0000     -15.628098      -425.2622
   5   2.0000     -15.605286      -424.6414
   6   2.0000     -11.397331      -310.1371
   7   2.0000     -11.382023      -309.7206
   8   2.0000     -11.338090      -308.5251
   9   2.0000     -11.307123      -307.6825
  10   2.0000     -11.303752      -307.5907
  11   2.0000     -11.303068      -307.5721
  12   2.0000     -11.261516      -306.4414
  13   2.0000     -11.258440      -306.3577
  14   2.0000     -11.254386      -306.2474
  15   2.0000     -11.247241      -306.0530
  16   2.0000     -11.237433      -305.7861
  17   2.0000     -11.233558      -305.6806
  18   2.0000     -11.230346      -305.5932
  19   2.0000     -11.224859      -305.4439
  20   2.0000      -8.892668      -241.9818
  21   2.0000      -6.574247      -178.8944
  22   2.0000      -6.572243      -178.8398
  23   2.0000      -6.571657      -178.8239
  24   2.0000      -1.452469       -39.5237
  25   2.0000      -1.410894       -38.3924
  26   2.0000      -1.357017       -36.9263
  27   2.0000      -1.339548       -36.4510
  28   2.0000      -1.236721       -33.6529
  29   2.0000      -1.151764       -31.3411
  30   2.0000      -1.119993       -30.4766
  31   2.0000      -1.041897       -28.3515
  32   2.0000      -1.033585       -28.1253
  33   2.0000      -1.009273       -27.4637
  34   2.0000      -0.997958       -27.1558
  35   2.0000      -0.982731       -26.7415
  36   2.0000      -0.920542       -25.0492
  37   2.0000      -0.895174       -24.3589
  38   2.0000      -0.847534       -23.0626
  39   2.0000      -0.834573       -22.7099
  40   2.0000      -0.827458       -22.5163
  41   2.0000      -0.816300       -22.2127
  42   2.0000      -0.750599       -20.4248
  43   2.0000      -0.735105       -20.0032
  44   2.0000      -0.725519       -19.7424
  45   2.0000      -0.690005       -18.7760
  46   2.0000      -0.685495       -18.6533
  47   2.0000      -0.679062       -18.4782
  48   2.0000      -0.669463       -18.2170
  49   2.0000      -0.654674       -17.8146
  50   2.0000      -0.651718       -17.7341
  51   2.0000      -0.643357       -17.5066
  52   2.0000      -0.629985       -17.1428
  53   2.0000      -0.613219       -16.6865
  54   2.0000      -0.602405       -16.3923
  55   2.0000      -0.597693       -16.2640
  56   2.0000      -0.594444       -16.1757
  57   2.0000      -0.579906       -15.7800
  58   2.0000      -0.573184       -15.5971
  59   2.0000      -0.565001       -15.3744
  60   2.0000      -0.558446       -15.1961
  61   2.0000      -0.545234       -14.8366
  62   2.0000      -0.537945       -14.6382
  63   2.0000      -0.525768       -14.3069
  64   2.0000      -0.514655       -14.0045
  65   2.0000      -0.508717       -13.8429
  66   2.0000      -0.499716       -13.5980
  67   2.0000      -0.493602       -13.4316
  68   2.0000      -0.480826       -13.0839
  69   2.0000      -0.464356       -12.6358
  70   2.0000      -0.457787       -12.4570
  71   2.0000      -0.449972       -12.2443
  72   2.0000      -0.352732        -9.5983
  73   2.0000      -0.344026        -9.3614
  74   2.0000      -0.326682        -8.8895
  75   2.0000      -0.316713        -8.6182
  76   2.0000      -0.313715        -8.5366
  77   0.0000       0.077877         2.1191
  78   0.0000       0.112304         3.0559
  79   0.0000       0.122041         3.3209
  80   0.0000       0.136483         3.7139
  81   0.0000       0.141704         3.8560

MULLIKEN ATOMIC CHARGES
-----------------------
   0 C :   -0.303855
   1 C :    0.038167
   2 O :   -0.349174
   3 C :    0.430584
   4 O :   -0.431659
   5 C :   -0.174582
   6 C :    0.162790
   7 C :   -0.278613
   8 N :   -0.128417
   9 C :    0.207584
  10 S :   -0.443203
  11 N :   -0.210743
  12 C :    0.042214
  13 C :    0.032698
  14 C :   -0.167079
  15 C :   -0.134466
  16 C :   -0.276776
  17 C :    0.314682
  18 O :   -0.359133
  19 C :   -0.251933
  20 H :    0.127886
  21 H :    0.095275
  22 H :    0.095059
  23 H :    0.098104
  24 H :    0.106984
  25 H :    0.124262
  26 H :    0.101148
  27 H :    0.129283
  28 H :    0.198769
  29 H :    0.199899
  30 H :    0.155140
  31 H :    0.158557
  32 H :    0.159656
  33 H :    0.127996
  34 H :    0.239836
  35 H :    0.163058
Sum of atomic charges:   -0.0000000

LOEWDIN ATOMIC CHARGES
----------------------
   0 C :    0.106189
   1 C :   -0.015029
   2 O :    0.302023
   3 C :   -0.412997
   4 O :    0.104542
   5 C :   -0.090478
   6 C :   -0.063325
   7 C :    0.124620
   8 N :    0.405400
   9 C :   -0.458947
  10 S :   -0.038208
  11 N :    0.396697
  12 C :   -0.048306
  13 C :   -0.040388
  14 C :    0.024774
  15 C :    0.040628
  16 C :   -0.001085
  17 C :   -0.192387
  18 O :    0.393063
  19 C :    0.029904
  20 H :   -0.024641
  21 H :   -0.027219
  22 H :   -0.028865
  23 H :   -0.029063
  24 H :   -0.025156
  25 H :   -0.009715
  26 H :   -0.021588
  27 H :   -0.009302
  28 H :   -0.058880
  29 H :   -0.063009
  30 H :   -0.008759
  31 H :   -0.024209
  32 H :   -0.021219
  33 H :   -0.036227
  34 H :   -0.154958
  35 H :   -0.023882

  Mayer bond orders larger than 0.100000
B(  0-C ,  1-C ) :   0.9643 B(  0-C , 20-H ) :   0.9719 B(  0-C , 21-H ) :   0.9765
B(  0-C , 22-H ) :   0.9757 B(  1-C ,  2-O ) :   0.8992 B(  1-C , 23-H ) :   0.9793
B(  1-C , 24-H ) :   0.9838 B(  2-O ,  3-C ) :   1.1513 B(  3-C ,  4-O ) :   1.9645
B(  3-C ,  5-C ) :   1.0538 B(  5-C ,  6-C ) :   1.6500 B(  5-C , 12-C ) :   0.9532
B(  6-C ,  7-C ) :   0.9543 B(  6-C ,  8-N ) :   1.1378 B(  7-C , 25-H ) :   0.9651
B(  7-C , 26-H ) :   0.9914 B(  7-C , 27-H ) :   0.9634 B(  8-N ,  9-C ) :   1.1852
B(  8-N , 28-H ) :   0.9469 B(  9-C , 10-S ) :   1.6072 B(  9-C , 11-N ) :   1.3072
B( 11-N , 12-C ) :   0.9769 B( 11-N , 29-H ) :   0.9485 B( 12-C , 13-C ) :   0.9729
B( 12-C , 30-H ) :   0.9980 B( 13-C , 14-C ) :   1.3750 B( 13-C , 19-C ) :   1.3672
B( 14-C , 15-C ) :   1.3971 B( 14-C , 31-H ) :   0.9639 B( 15-C , 16-C ) :   1.3586
B( 15-C , 32-H ) :   0.9713 B( 16-C , 17-C ) :   1.3336 B( 16-C , 33-H ) :   0.9860
B( 17-C , 18-O ) :   1.1031 B( 17-C , 19-C ) :   1.3672 B( 18-O , 34-H ) :   0.9807
B( 19-C , 35-H ) :   0.9602

MP2 TOTAL ENERGY:    -1274.340982074 Eh
FINAL SINGLE POINT ENERGY     -1274.340982074335

DIPOLE MOMENT
-------------
                                X             Y             Z
Electronic contribution:      9.84861      10.04773      10.63858
Nuclear contribution   :    -11.29688     -11.25918     -11.82317
                        -----------------------------------------
Total Dipole Moment    :     -1.44827      -1.21145      -1.18459
                        -----------------------------------------
Magnitude (a.u.)       :      2.22898
Magnitude (Debye)      :      5.66561

Rotational constants in cm-1:     0.009916     0.009236     0.005595
Rotational constants in MHz :   297.271080   276.879975   167.727420

                             ****ORCA TERMINATED NORMALLY****
TOTAL RUN TIME: 0 days 1 hours 34 minutes 52 seconds 992 msec
