                         Program Version 4.2.0 -  RELEASE  -
|  1> ! ri-mp2 cc-pvtz cc-pvtz/c TightSCF NoKeepInts
|  2>
|  3> %scf
|  4>   MaxCore 4096
|  5> end
|  6> *xyz  0  1
|  7>     C       14.5901087   14.7911093   14.8028602
|  8>     C       15.4210057   15.2656035   16.0091074
|  9>     O       16.5105474   16.0741139   15.5298363
| 10>     C       16.3010143   17.4170328   15.4213937
| 11>     O       15.6309580   17.8726114   14.5125050
| 12>     C       16.8708300   18.2114342   16.5684035
| 13>     C       16.8729046   19.5696943   16.5311546
| 14>     C       16.1058095   20.4635762   15.5784006
| 15>     N       17.6409572   20.3148733   17.4286834
| 16>     C       18.5909659   19.7857173   18.2589726
| 17>     S       19.5411005   20.7359936   19.2231025
| 18>     N       18.7317405   18.4217720   18.2325499
| 19>     C       17.8577384   17.4857860   17.5011915
| 20>     C       17.2291861   16.4467419   18.4193260
| 21>     C       17.7578023   15.1446776   18.4899324
| 22>     C       17.1741639   14.1829334   19.3316592
| 23>     C       16.0574388   14.5283434   20.1120954
| 24>     C       15.5361755   15.8281149   20.0512764
| 25>     O       14.4585650   16.1647377   20.8032866
| 26>     C       16.1178388   16.7827047   19.2111256
| 27>     H       14.1232781   15.6413384   14.2898274
| 28>     H       13.7937746   14.1108840   15.1278153
| 29>     H       15.2237744   14.2599314   14.0818608
| 30>     H       14.7933352   15.8216669   16.7189132
| 31>     H       15.8231244   14.3850640   16.5262690
| 32>     H       15.0454803   20.1815204   15.5511754
| 33>     H       16.4968302   20.3656979   14.5574436
| 34>     H       16.1526323   21.5244219   15.8512133
| 35>     H       17.5663368   21.3196268   17.4371862
| 36>     H       19.4221100   18.0584693   18.8774998
| 37>     H       18.5952291   17.0156680   16.8348173
| 38>     H       18.6192144   14.8756518   17.8838409
| 39>     H       17.5879902   13.1768058   19.3787760
| 40>     H       15.6040605   13.7890898   20.7645996
| 41>     H       14.2372264   15.4005797   21.3569972
| 42>     H       15.7057522   17.7860123   19.1829021
| 43> *
| 44>
| 45>                          ****END OF INPUT****

CARTESIAN COORDINATES (ANGSTROEM)
---------------------------------
  C     14.590109   14.791109   14.802860
  C     15.421006   15.265603   16.009107
  O     16.510547   16.074114   15.529836
  C     16.301014   17.417033   15.421394
  O     15.630958   17.872611   14.512505
  C     16.870830   18.211434   16.568403
  C     16.872905   19.569694   16.531155
  C     16.105809   20.463576   15.578401
  N     17.640957   20.314873   17.428683
  C     18.590966   19.785717   18.258973
  S     19.541100   20.735994   19.223102
  N     18.731741   18.421772   18.232550
  C     17.857738   17.485786   17.501191
  C     17.229186   16.446742   18.419326
  C     17.757802   15.144678   18.489932
  C     17.174164   14.182933   19.331659
  C     16.057439   14.528343   20.112095
  C     15.536176   15.828115   20.051276
  O     14.458565   16.164738   20.803287
  C     16.117839   16.782705   19.211126
  H     14.123278   15.641338   14.289827
  H     13.793775   14.110884   15.127815
  H     15.223774   14.259931   14.081861
  H     14.793335   15.821667   16.718913
  H     15.823124   14.385064   16.526269
  H     15.045480   20.181520   15.551175
  H     16.496830   20.365698   14.557444
  H     16.152632   21.524422   15.851213
  H     17.566337   21.319627   17.437186
  H     19.422110   18.058469   18.877500
  H     18.595229   17.015668   16.834817
  H     18.619214   14.875652   17.883841
  H     17.587990   13.176806   19.378776
  H     15.604060   13.789090   20.764600
  H     14.237226   15.400580   21.356997
  H     15.705752   17.786012   19.182902

 Total Charge           Charge          ....    0
 Multiplicity           Mult            ....    1
 Number of Electrons    NEL             ....  154
 Basis Dimension        Dim             ....  828

ORBITAL ENERGIES
----------------

  NO   OCC          E(Eh)            E(eV)
   0   2.0000     -91.890900     -2500.4785
   1   2.0000     -20.602434      -560.6207
   2   2.0000     -20.581826      -560.0599
   3   2.0000     -20.546629      -559.1022
   4   2.0000     -15.631467      -425.3539
   5   2.0000     -15.609022      -424.7431
   6   2.0000     -11.392795      -310.0137
   7   2.0000     -11.385380      -309.8119
   8   2.0000     -11.339914      -308.5748
   9   2.0000     -11.320167      -308.0374
  10   2.0000     -11.310475      -307.7737
  11   2.0000     -11.295718      -307.3721
  12   2.0000     -11.266186      -306.5685
  13   2.0000     -11.261397      -306.4382
  14   2.0000     -11.259252      -306.3798
  15   2.0000     -11.253460      -306.2222
  16   2.0000     -11.249917      -306.1258
  17   2.0000     -11.244563      -305.9801
  18   2.0000     -11.244442      -305.9768
  19   2.0000     -11.216781      -305.2241
  20   2.0000      -8.895956      -242.0713
  21   2.0000      -6.577523      -178.9835
  22   2.0000      -6.575529      -178.9292
  23   2.0000      -6.574934      -178.9130
  24   2.0000      -1.447156       -39.3791
  25   2.0000      -1.422142       -38.6984
  26   2.0000      -1.353702       -36.8361
  27   2.0000      -1.342793       -36.5393
  28   2.0000      -1.240794       -33.7637
  29   2.0000      -1.163204       -31.6524
  30   2.0000      -1.122858       -30.5545
  31   2.0000      -1.047245       -28.4970
  32   2.0000      -1.030289       -28.0356
  33   2.0000      -1.021247       -27.7895
  34   2.0000      -0.998323       -27.1658
  35   2.0000      -0.986688       -26.8491
  36   2.0000      -0.925134       -25.1742
  37   2.0000      -0.881242       -23.9798
  38   2.0000      -0.850047       -23.1310
  39   2.0000      -0.843015       -22.9396
  40   2.0000      -0.839748       -22.8507
  41   2.0000      -0.828550       -22.5460
  42   2.0000      -0.756594       -20.5880
  43   2.0000      -0.737443       -20.0668
  44   2.0000      -0.721032       -19.6203
  45   2.0000      -0.700995       -19.0750
  46   2.0000      -0.690852       -18.7990
  47   2.0000      -0.678537       -18.4639
  48   2.0000      -0.671406       -18.2699
  49   2.0000      -0.659054       -17.9338
  50   2.0000      -0.648278       -17.6406
  51   2.0000      -0.646955       -17.6045
  52   2.0000      -0.638203       -17.3664
  53   2.0000      -0.612677       -16.6718
  54   2.0000      -0.606672       -16.5084
  55   2.0000      -0.603247       -16.4152
  56   2.0000      -0.586879       -15.9698
  57   2.0000      -0.582990       -15.8640
  58   2.0000      -0.578396       -15.7390
  59   2.0000      -0.571059       -15.5393
  60   2.0000      -0.566008       -15.4019
  61   2.0000      -0.542320       -14.7573
  62   2.0000      -0.536137       -14.5890
  63   2.0000      -0.529012       -14.3951
  64   2.0000      -0.517092       -14.0708
  65   2.0000      -0.511902       -13.9296
  66   2.0000      -0.503222       -13.6934
  67   2.0000      -0.495346       -13.4791
  68   2.0000      -0.487394       -13.2627
  69   2.0000      -0.464478       -12.6391
  70   2.0000      -0.455851       -12.4043
  71   2.0000      -0.442119       -12.0307
  72   2.0000      -0.356463        -9.6999
  73   2.0000      -0.354199        -9.6383
  74   2.0000      -0.330795        -9.0014
  75   2.0000      -0.327074        -8.9001
  76   2.0000      -0.320555        -8.7228
  77   0.0000       0.071584         1.9479
  78   0.0000       0.097705         2.6587
  79   0.0000       0.122392         3.3305
  80   0.0000       0.129501         3.5239
  81   0.0000       0.130713         3.5569

MULLIKEN ATOMIC CHARGES
-----------------------
   0 C :   -0.262682
   1 C :    0.019166
   2 O :   -0.378974
   3 C :    0.480357
   4 O :   -0.410365
   5 C :   -0.288814
   6 C :    0.188837
   7 C :   -0.266034
   8 N :   -0.127256
   9 C :    0.212780
  10 S :   -0.439682
  11 N :   -0.217527
  12 C :    0.072531
  13 C :    0.038669
  14 C :   -0.191586
  15 C :   -0.131619
  16 C :   -0.272571
  17 C :    0.318127
  18 O :   -0.356200
  19 C :   -0.256917
  20 H :    0.110959
  21 H :    0.085856
  22 H :    0.093806
  23 H :    0.092814
  24 H :    0.112372
  25 H :    0.130949
  26 H :    0.132274
  27 H :    0.094683
  28 H :    0.199322
  29 H :    0.201339
  30 H :    0.152358
  31 H :    0.152923
  32 H :    0.166393
  33 H :    0.133943
  34 H :    0.241951
  35 H :    0.167816
Sum of atomic charges:   -0.0000000

LOEWDIN ATOMIC CHARGES
----------------------
   0 C :    0.105870
   1 C :   -0.023142
   2 O :    0.292697
   3 C :   -0.421328
   4 O :    0.117080
   5 C :   -0.101965
   6 C :   -0.053663
   7 C :    0.131413
   8 N :    0.407872
   9 C :   -0.456433
  10 S :   -0.034410
  11 N :    0.394344
  12 C :   -0.054595
  13 C :   -0.038325
  14 C :    0.018379
  15 C :    0.041203
  16 C :   -0.000142
  17 C :   -0.190910
  18 O :    0.396179
  19 C :    0.033254
  20 H :   -0.025922
  21 H :   -0.030902
  22 H :   -0.026661
  23 H :   -0.032316
  24 H :   -0.024812
  25 H :   -0.004741
  26 H :   -0.003965
  27 H :   -0.023391
  28 H :   -0.056662
  29 H :   -0.064491
  30 H :   -0.011978
  31 H :   -0.027734
  32 H :   -0.019838
  33 H :   -0.034145
  34 H :   -0.152538
  35 H :   -0.023283

  Mayer bond orders larger than 0.100000
B(  0-C ,  1-C ) :   0.9872 B(  0-C , 20-H ) :   0.9736 B(  0-C , 21-H ) :   0.9773
B(  0-C , 22-H ) :   0.9784 B(  1-C ,  2-O ) :   0.8808 B(  1-C , 23-H ) :   0.9671
B(  1-C , 24-H ) :   0.9762 B(  2-O ,  3-C ) :   1.0824 B(  3-C ,  4-O ) :   2.0085
B(  3-C ,  5-C ) :   1.0795 B(  5-C ,  6-C ) :   1.6282 B(  5-C , 12-C ) :   0.9511
B(  6-C ,  7-C ) :   0.9664 B(  6-C ,  8-N ) :   1.1601 B(  7-C , 25-H ) :   0.9620
B(  7-C , 26-H ) :   0.9569 B(  7-C , 27-H ) :   0.9898 B(  8-N ,  9-C ) :   1.1850
B(  8-N , 28-H ) :   0.9461 B(  9-C , 10-S ) :   1.6061 B(  9-C , 11-N ) :   1.3110
B( 11-N , 12-C ) :   0.9601 B( 11-N , 29-H ) :   0.9483 B( 12-C , 13-C ) :   0.9692
B( 12-C , 30-H ) :   1.0010 B( 13-C , 14-C ) :   1.3433 B( 13-C , 19-C ) :   1.3653
B( 14-C , 15-C ) :   1.3921 B( 14-C , 31-H ) :   0.9755 B( 15-C , 16-C ) :   1.3585
B( 15-C , 32-H ) :   0.9688 B( 16-C , 17-C ) :   1.3327 B( 16-C , 33-H ) :   0.9837
B( 17-C , 18-O ) :   1.1068 B( 17-C , 19-C ) :   1.3603 B( 18-O , 34-H ) :   0.9787
B( 19-C , 35-H ) :   0.9606

MP2 TOTAL ENERGY:    -1274.328349351 Eh
FINAL SINGLE POINT ENERGY     -1274.328349350986

DIPOLE MOMENT
-------------
                                X             Y             Z
Electronic contribution:      9.72112       9.88442       7.96104
Nuclear contribution   :    -10.70447     -11.44225      -7.76686
                        -----------------------------------------
Total Dipole Moment    :     -0.98335      -1.55783       0.19418
                        -----------------------------------------
Magnitude (a.u.)       :      1.85244
Magnitude (Debye)      :      4.70852

Rotational constants in cm-1:     0.012068     0.008579     0.006000
Rotational constants in MHz :   361.794946   257.204207   179.860829

                             ****ORCA TERMINATED NORMALLY****
TOTAL RUN TIME: 0 days 2 hours 4 minutes 52 seconds 54 msec
