                         Program Version 4.2.0 -  RELEASE  -
|  1> ! ri-mp2 cc-pvtz cc-pvtz/c TightSCF NoKeepInts
|  2>
|  3> %scf
|  4>   MaxCore 4096
|  5> end
|  6> *xyz  0  1
|  7>     C       14.4606454   16.5134698   16.1199179
|  8>     C       15.1251885   15.8412412   14.8985212
|  9>     O       16.4884832   16.2345098   14.5816306
| 10>     C       17.4786595   16.5512047   15.4775372
| 11>     O       18.5144176   15.9120233   15.5025562
| 12>     C       17.1980385   17.6372189   16.4655402
| 13>     C       16.8038235   18.8559049   16.0204758
| 14>     C       16.4118732   19.2149657   14.5995552
| 15>     N       16.8435197   19.9712650   16.8598862
| 16>     C       17.5003842   20.0045605   18.0614910
| 17>     S       17.6151294   21.3919797   18.9539428
| 18>     N       18.0841387   18.8314351   18.4721730
| 19>     C       17.9103804   17.5198825   17.8159654
| 20>     C       17.3352006   16.4321595   18.7121445
| 21>     C       17.8692480   15.1315396   18.6788264
| 22>     C       17.3330111   14.1176802   19.4899930
| 23>     C       16.2521535   14.4065730   20.3405512
| 24>     C       15.7154464   15.7009236   20.3732355
| 25>     O       14.6659611   15.9804639   21.1862959
| 26>     C       16.2510161   16.7083222   19.5642887
| 27>     H       14.9894726   16.2683053   17.0475935
| 28>     H       13.4364205   16.1370736   16.2319240
| 29>     H       14.3916368   17.6000855   16.0118458
| 30>     H       15.1237723   14.7584547   15.0816958
| 31>     H       14.4982706   16.0107200   14.0135753
| 32>     H       15.4316436   18.8037768   14.3347940
| 33>     H       17.1423265   18.8197801   13.8816347
| 34>     H       16.3683581   20.2992132   14.4384431
| 35>     H       16.4539004   20.8484349   16.5530766
| 36>     H       18.5609556   18.8816174   19.3638180
| 37>     H       18.9593786   17.2898251   17.5766901
| 38>     H       18.6993646   14.9045325   18.0127353
| 39>     H       17.7540849   13.1142881   19.4542760
| 40>     H       15.8342947   13.6259053   20.9676188
| 41>     H       14.4685307   15.1780647   21.6926323
| 42>     H       15.8178710   17.7025997   19.6011188
| 43> *
| 44>
| 45>                          ****END OF INPUT****

CARTESIAN COORDINATES (ANGSTROEM)
---------------------------------
  C     14.460645   16.513470   16.119918
  C     15.125188   15.841241   14.898521
  O     16.488483   16.234510   14.581631
  C     17.478659   16.551205   15.477537
  O     18.514418   15.912023   15.502556
  C     17.198038   17.637219   16.465540
  C     16.803824   18.855905   16.020476
  C     16.411873   19.214966   14.599555
  N     16.843520   19.971265   16.859886
  C     17.500384   20.004561   18.061491
  S     17.615129   21.391980   18.953943
  N     18.084139   18.831435   18.472173
  C     17.910380   17.519883   17.815965
  C     17.335201   16.432160   18.712144
  C     17.869248   15.131540   18.678826
  C     17.333011   14.117680   19.489993
  C     16.252153   14.406573   20.340551
  C     15.715446   15.700924   20.373235
  O     14.665961   15.980464   21.186296
  C     16.251016   16.708322   19.564289
  H     14.989473   16.268305   17.047594
  H     13.436421   16.137074   16.231924
  H     14.391637   17.600085   16.011846
  H     15.123772   14.758455   15.081696
  H     14.498271   16.010720   14.013575
  H     15.431644   18.803777   14.334794
  H     17.142326   18.819780   13.881635
  H     16.368358   20.299213   14.438443
  H     16.453900   20.848435   16.553077
  H     18.560956   18.881617   19.363818
  H     18.959379   17.289825   17.576690
  H     18.699365   14.904533   18.012735
  H     17.754085   13.114288   19.454276
  H     15.834295   13.625905   20.967619
  H     14.468531   15.178065   21.692632
  H     15.817871   17.702600   19.601119

 Total Charge           Charge          ....    0
 Multiplicity           Mult            ....    1
 Number of Electrons    NEL             ....  154
 Basis Dimension        Dim             ....  828

ORBITAL ENERGIES
----------------

  NO   OCC          E(Eh)            E(eV)
   0   2.0000     -91.889974     -2500.4533
   1   2.0000     -20.598438      -560.5120
   2   2.0000     -20.591933      -560.3350
   3   2.0000     -20.550733      -559.2139
   4   2.0000     -15.629030      -425.2875
   5   2.0000     -15.608783      -424.7366
   6   2.0000     -11.397266      -310.1354
   7   2.0000     -11.385237      -309.8080
   8   2.0000     -11.334016      -308.4143
   9   2.0000     -11.315546      -307.9116
  10   2.0000     -11.312184      -307.8202
  11   2.0000     -11.308249      -307.7131
  12   2.0000     -11.263862      -306.5053
  13   2.0000     -11.263109      -306.4848
  14   2.0000     -11.259584      -306.3889
  15   2.0000     -11.255783      -306.2854
  16   2.0000     -11.244799      -305.9865
  17   2.0000     -11.240666      -305.8741
  18   2.0000     -11.237443      -305.7864
  19   2.0000     -11.236645      -305.7647
  20   2.0000      -8.895064      -242.0470
  21   2.0000      -6.576641      -178.9595
  22   2.0000      -6.574635      -178.9049
  23   2.0000      -6.574048      -178.8889
  24   2.0000      -1.443230       -39.2723
  25   2.0000      -1.418198       -38.5911
  26   2.0000      -1.356029       -36.8994
  27   2.0000      -1.340889       -36.4874
  28   2.0000      -1.238792       -33.7092
  29   2.0000      -1.159499       -31.5516
  30   2.0000      -1.124757       -30.6062
  31   2.0000      -1.046969       -28.4895
  32   2.0000      -1.039423       -28.2841
  33   2.0000      -1.017471       -27.6868
  34   2.0000      -1.004020       -27.3208
  35   2.0000      -0.990048       -26.9406
  36   2.0000      -0.925742       -25.1907
  37   2.0000      -0.899519       -24.4772
  38   2.0000      -0.851345       -23.1663
  39   2.0000      -0.840908       -22.8823
  40   2.0000      -0.835140       -22.7253
  41   2.0000      -0.825285       -22.4571
  42   2.0000      -0.748046       -20.3554
  43   2.0000      -0.734589       -19.9892
  44   2.0000      -0.728871       -19.8336
  45   2.0000      -0.695537       -18.9265
  46   2.0000      -0.687578       -18.7099
  47   2.0000      -0.676114       -18.3980
  48   2.0000      -0.673185       -18.3183
  49   2.0000      -0.665595       -18.1118
  50   2.0000      -0.653458       -17.7815
  51   2.0000      -0.651022       -17.7152
  52   2.0000      -0.639756       -17.4086
  53   2.0000      -0.614587       -16.7238
  54   2.0000      -0.604237       -16.4421
  55   2.0000      -0.602558       -16.3964
  56   2.0000      -0.601661       -16.3720
  57   2.0000      -0.588496       -16.0138
  58   2.0000      -0.576820       -15.6961
  59   2.0000      -0.571644       -15.5552
  60   2.0000      -0.563434       -15.3318
  61   2.0000      -0.555810       -15.1244
  62   2.0000      -0.546565       -14.8728
  63   2.0000      -0.531166       -14.4538
  64   2.0000      -0.522232       -14.2107
  65   2.0000      -0.512910       -13.9570
  66   2.0000      -0.500597       -13.6219
  67   2.0000      -0.491051       -13.3622
  68   2.0000      -0.485621       -13.2144
  69   2.0000      -0.467376       -12.7180
  70   2.0000      -0.458891       -12.4871
  71   2.0000      -0.448890       -12.2149
  72   2.0000      -0.354472        -9.6457
  73   2.0000      -0.348959        -9.4956
  74   2.0000      -0.329306        -8.9609
  75   2.0000      -0.323194        -8.7946
  76   2.0000      -0.319335        -8.6895
  77   0.0000       0.078052         2.1239
  78   0.0000       0.105186         2.8623
  79   0.0000       0.117080         3.1859
  80   0.0000       0.127578         3.4716
  81   0.0000       0.130986         3.5643

MULLIKEN ATOMIC CHARGES
-----------------------
   0 C :   -0.334603
   1 C :    0.032155
   2 O :   -0.362606
   3 C :    0.444357
   4 O :   -0.377295
   5 C :   -0.227944
   6 C :    0.136639
   7 C :   -0.292811
   8 N :   -0.136353
   9 C :    0.207964
  10 S :   -0.441285
  11 N :   -0.226176
  12 C :    0.090573
  13 C :    0.010974
  14 C :   -0.215934
  15 C :   -0.131283
  16 C :   -0.276614
  17 C :    0.322608
  18 O :   -0.357197
  19 C :   -0.264274
  20 H :    0.127740
  21 H :    0.125939
  22 H :    0.100212
  23 H :    0.112131
  24 H :    0.111126
  25 H :    0.117359
  26 H :    0.136752
  27 H :    0.109700
  28 H :    0.197725
  29 H :    0.203551
  30 H :    0.164894
  31 H :    0.179482
  32 H :    0.164261
  33 H :    0.131908
  34 H :    0.240991
  35 H :    0.175337
Sum of atomic charges:   -0.0000000

LOEWDIN ATOMIC CHARGES
----------------------
   0 C :    0.102696
   1 C :   -0.013507
   2 O :    0.284105
   3 C :   -0.417053
   4 O :    0.124479
   5 C :   -0.089123
   6 C :   -0.078980
   7 C :    0.128078
   8 N :    0.404442
   9 C :   -0.457324
  10 S :   -0.037115
  11 N :    0.396373
  12 C :   -0.048287
  13 C :   -0.044125
  14 C :    0.020328
  15 C :    0.043726
  16 C :   -0.000840
  17 C :   -0.192709
  18 O :    0.395053
  19 C :    0.027289
  20 H :   -0.026230
  21 H :   -0.020514
  22 H :   -0.034009
  23 H :   -0.024853
  24 H :   -0.023239
  25 H :   -0.016119
  26 H :   -0.004725
  27 H :   -0.017579
  28 H :   -0.059091
  29 H :   -0.063659
  30 H :   -0.004974
  31 H :   -0.021362
  32 H :   -0.018899
  33 H :   -0.035092
  34 H :   -0.153494
  35 H :   -0.023664

  Mayer bond orders larger than 0.100000
B(  0-C ,  1-C ) :   0.9637 B(  0-C , 20-H ) :   0.9629 B(  0-C , 21-H ) :   0.9771
B(  0-C , 22-H ) :   0.9727 B(  1-C ,  2-O ) :   0.9060 B(  1-C , 23-H ) :   0.9819
B(  1-C , 24-H ) :   0.9805 B(  2-O ,  3-C ) :   1.1146 B(  3-C ,  4-O ) :   2.0770
B(  3-C ,  5-C ) :   0.9539 B(  5-C ,  6-C ) :   1.7119 B(  5-C , 12-C ) :   0.9230
B(  6-C ,  7-C ) :   0.9437 B(  6-C ,  8-N ) :   1.1099 B(  7-C , 25-H ) :   0.9678
B(  7-C , 26-H ) :   0.9662 B(  7-C , 27-H ) :   0.9879 B(  8-N ,  9-C ) :   1.1925
B(  8-N , 28-H ) :   0.9477 B(  9-C , 10-S ) :   1.6098 B(  9-C , 11-N ) :   1.2944
B( 11-N , 12-C ) :   0.9743 B( 11-N , 29-H ) :   0.9474 B( 12-C , 13-C ) :   0.9708
B( 12-C , 30-H ) :   0.9911 B( 13-C , 14-C ) :   1.3883 B( 13-C , 19-C ) :   1.3459
B( 14-C , 15-C ) :   1.3968 B( 14-C , 31-H ) :   0.9567 B( 15-C , 16-C ) :   1.3598
B( 15-C , 32-H ) :   0.9702 B( 16-C , 17-C ) :   1.3327 B( 16-C , 33-H ) :   0.9845
B( 17-C , 18-O ) :   1.1080 B( 17-C , 19-C ) :   1.3610 B( 18-O , 34-H ) :   0.9796
B( 19-C , 35-H ) :   0.9583

MP2 TOTAL ENERGY:    -1274.319346982 Eh
FINAL SINGLE POINT ENERGY     -1274.319346982232

DIPOLE MOMENT
-------------
                                X             Y             Z
Electronic contribution:      8.84156       6.64020       7.21714
Nuclear contribution   :    -10.39965      -7.96063      -7.76753
                        -----------------------------------------
Total Dipole Moment    :     -1.55809      -1.32043      -0.55039
                        -----------------------------------------
Magnitude (a.u.)       :      2.11521
Magnitude (Debye)      :      5.37643

Rotational constants in cm-1:     0.011300     0.009307     0.006441
Rotational constants in MHz :   338.761997   279.013732   193.105569

                             ****ORCA TERMINATED NORMALLY****
TOTAL RUN TIME: 0 days 1 hours 47 minutes 41 seconds 892 msec
