                         Program Version 4.2.0 -  RELEASE  -
|  1> ! ri-mp2 cc-pvtz cc-pvtz/c TightSCF NoKeepInts
|  2>
|  3> %scf
|  4>   MaxCore 4096
|  5> end
|  6> *xyz  0  1
|  7>     C       14.4437804   15.7098265   15.7218239
|  8>     C       15.7846530   14.9684301   15.9288235
|  9>     O       16.9389406   15.7346169   15.4993777
| 10>     C       16.8567706   17.0664719   15.2085532
| 11>     O       16.5908238   17.4237837   14.0751889
| 12>     C       17.0528082   17.9865537   16.3875074
| 13>     C       16.9531829   19.3317650   16.2191220
| 14>     C       16.3240780   20.0685042   15.0541096
| 15>     N       17.4411662   20.2199403   17.1798736
| 16>     C       18.2451506   19.8598817   18.2260673
| 17>     S       18.8907791   20.9756980   19.2621242
| 18>     N       18.5105633   18.5209349   18.3552197
| 19>     C       17.8789167   17.4444272   17.5694307
| 20>     C       17.1808483   16.4301992   18.4615343
| 21>     C       17.8075779   15.2120367   18.7833840
| 22>     C       17.1650964   14.2784395   19.6141053
| 23>     C       15.8905329   14.5689183   20.1309085
| 24>     C       15.2711745   15.7880369   19.8224396
| 25>     O       14.0413168   16.0715993   20.3194672
| 26>     C       15.9127434   16.7155260   18.9958516
| 27>     H       14.3876158   16.6161514   16.3371428
| 28>     H       13.6073069   15.0617123   16.0100174
| 29>     H       14.3050530   15.9862557   14.6685407
| 30>     H       15.8795259   14.6963032   16.9851909
| 31>     H       15.7602236   14.0290263   15.3616838
| 32>     H       15.3710060   19.6052897   14.7687693
| 33>     H       16.9813012   20.0328029   14.1755570
| 34>     H       16.1171966   21.1223641   15.2746048
| 35>     H       17.2806838   21.2090376   17.0745070
| 36>     H       19.0867470   18.2829182   19.1526918
| 37>     H       18.7753746   17.0024624   17.1112934
| 38>     H       18.7923170   14.9856742   18.3823878
| 39>     H       17.6549146   13.3364049   19.8558755
| 40>     H       15.3908577   13.8506294   20.7729381
| 41>     H       13.7924133   15.3486606   20.9153175
| 42>     H       15.4235596   17.6587172   18.7765703
| 43> *
| 44>
| 45>                          ****END OF INPUT****

CARTESIAN COORDINATES (ANGSTROEM)
---------------------------------
  C     14.443780   15.709826   15.721824
  C     15.784653   14.968430   15.928824
  O     16.938941   15.734617   15.499378
  C     16.856771   17.066472   15.208553
  O     16.590824   17.423784   14.075189
  C     17.052808   17.986554   16.387507
  C     16.953183   19.331765   16.219122
  C     16.324078   20.068504   15.054110
  N     17.441166   20.219940   17.179874
  C     18.245151   19.859882   18.226067
  S     18.890779   20.975698   19.262124
  N     18.510563   18.520935   18.355220
  C     17.878917   17.444427   17.569431
  C     17.180848   16.430199   18.461534
  C     17.807578   15.212037   18.783384
  C     17.165096   14.278439   19.614105
  C     15.890533   14.568918   20.130909
  C     15.271175   15.788037   19.822440
  O     14.041317   16.071599   20.319467
  C     15.912743   16.715526   18.995852
  H     14.387616   16.616151   16.337143
  H     13.607307   15.061712   16.010017
  H     14.305053   15.986256   14.668541
  H     15.879526   14.696303   16.985191
  H     15.760224   14.029026   15.361684
  H     15.371006   19.605290   14.768769
  H     16.981301   20.032803   14.175557
  H     16.117197   21.122364   15.274605
  H     17.280684   21.209038   17.074507
  H     19.086747   18.282918   19.152692
  H     18.775375   17.002462   17.111293
  H     18.792317   14.985674   18.382388
  H     17.654915   13.336405   19.855875
  H     15.390858   13.850629   20.772938
  H     13.792413   15.348661   20.915318
  H     15.423560   17.658717   18.776570

 Total Charge           Charge          ....    0
 Multiplicity           Mult            ....    1
 Number of Electrons    NEL             ....  154
 Basis Dimension        Dim             ....  828

ORBITAL ENERGIES
----------------

  NO   OCC          E(Eh)            E(eV)
   0   2.0000     -91.890925     -2500.4792
   1   2.0000     -20.604109      -560.6663
   2   2.0000     -20.578247      -559.9626
   3   2.0000     -20.545295      -559.0659
   4   2.0000     -15.630982      -425.3406
   5   2.0000     -15.609168      -424.7471
   6   2.0000     -11.392058      -309.9937
   7   2.0000     -11.385183      -309.8066
   8   2.0000     -11.339062      -308.5516
   9   2.0000     -11.321960      -308.0862
  10   2.0000     -11.311704      -307.8071
  11   2.0000     -11.296841      -307.4027
  12   2.0000     -11.267399      -306.6015
  13   2.0000     -11.263050      -306.4832
  14   2.0000     -11.258957      -306.3718
  15   2.0000     -11.253105      -306.2125
  16   2.0000     -11.251651      -306.1730
  17   2.0000     -11.246000      -306.0192
  18   2.0000     -11.245769      -306.0129
  19   2.0000     -11.227781      -305.5235
  20   2.0000      -8.895976      -242.0718
  21   2.0000      -6.577543      -178.9841
  22   2.0000      -6.575550      -178.9298
  23   2.0000      -6.574954      -178.9136
  24   2.0000      -1.440648       -39.2020
  25   2.0000      -1.423799       -38.7435
  26   2.0000      -1.348864       -36.7045
  27   2.0000      -1.342877       -36.5415
  28   2.0000      -1.241186       -33.7744
  29   2.0000      -1.164684       -31.6927
  30   2.0000      -1.122686       -30.5498
  31   2.0000      -1.048321       -28.5263
  32   2.0000      -1.030079       -28.0299
  33   2.0000      -1.022653       -27.8278
  34   2.0000      -1.000808       -27.2334
  35   2.0000      -0.987651       -26.8754
  36   2.0000      -0.925758       -25.1912
  37   2.0000      -0.894478       -24.3400
  38   2.0000      -0.850000       -23.1297
  39   2.0000      -0.844413       -22.9776
  40   2.0000      -0.841045       -22.8860
  41   2.0000      -0.822485       -22.3810
  42   2.0000      -0.746166       -20.3042
  43   2.0000      -0.738089       -20.0844
  44   2.0000      -0.717058       -19.5121
  45   2.0000      -0.702059       -19.1040
  46   2.0000      -0.689961       -18.7748
  47   2.0000      -0.676535       -18.4095
  48   2.0000      -0.670806       -18.2536
  49   2.0000      -0.660646       -17.9771
  50   2.0000      -0.653112       -17.7721
  51   2.0000      -0.644263       -17.5313
  52   2.0000      -0.637631       -17.3508
  53   2.0000      -0.625764       -17.0279
  54   2.0000      -0.613978       -16.7072
  55   2.0000      -0.605729       -16.4827
  56   2.0000      -0.603232       -16.4148
  57   2.0000      -0.582853       -15.8602
  58   2.0000      -0.571698       -15.5567
  59   2.0000      -0.567695       -15.4478
  60   2.0000      -0.546384       -14.8679
  61   2.0000      -0.542204       -14.7541
  62   2.0000      -0.538018       -14.6402
  63   2.0000      -0.530990       -14.4490
  64   2.0000      -0.529976       -14.4214
  65   2.0000      -0.515899       -14.0383
  66   2.0000      -0.504372       -13.7246
  67   2.0000      -0.491940       -13.3864
  68   2.0000      -0.482762       -13.1366
  69   2.0000      -0.466157       -12.6848
  70   2.0000      -0.453207       -12.3324
  71   2.0000      -0.441816       -12.0224
  72   2.0000      -0.357697        -9.7334
  73   2.0000      -0.354470        -9.6456
  74   2.0000      -0.331952        -9.0329
  75   2.0000      -0.328155        -8.9295
  76   2.0000      -0.320720        -8.7272
  77   0.0000       0.071767         1.9529
  78   0.0000       0.098240         2.6733
  79   0.0000       0.120725         3.2851
  80   0.0000       0.127137         3.4596
  81   0.0000       0.129458         3.5227

MULLIKEN ATOMIC CHARGES
-----------------------
   0 C :   -0.323151
   1 C :    0.033172
   2 O :   -0.389606
   3 C :    0.505019
   4 O :   -0.401629
   5 C :   -0.314069
   6 C :    0.184777
   7 C :   -0.268539
   8 N :   -0.126813
   9 C :    0.211425
  10 S :   -0.439851
  11 N :   -0.216085
  12 C :    0.068649
  13 C :    0.006398
  14 C :   -0.159945
  15 C :   -0.134383
  16 C :   -0.272523
  17 C :    0.312721
  18 O :   -0.357640
  19 C :   -0.250225
  20 H :    0.097440
  21 H :    0.110675
  22 H :    0.123841
  23 H :    0.105816
  24 H :    0.118426
  25 H :    0.127447
  26 H :    0.136036
  27 H :    0.093993
  28 H :    0.199437
  29 H :    0.200898
  30 H :    0.151493
  31 H :    0.152807
  32 H :    0.163988
  33 H :    0.134350
  34 H :    0.242477
  35 H :    0.173176
Sum of atomic charges:   -0.0000000

LOEWDIN ATOMIC CHARGES
----------------------
   0 C :    0.104712
   1 C :   -0.010865
   2 O :    0.281788
   3 C :   -0.424888
   4 O :    0.120057
   5 C :   -0.103756
   6 C :   -0.055154
   7 C :    0.130436
   8 N :    0.407976
   9 C :   -0.457010
  10 S :   -0.034322
  11 N :    0.394887
  12 C :   -0.054609
  13 C :   -0.040483
  14 C :    0.017393
  15 C :    0.042436
  16 C :   -0.000156
  17 C :   -0.191267
  18 O :    0.396682
  19 C :    0.034559
  20 H :   -0.032632
  21 H :   -0.022130
  22 H :   -0.023780
  23 H :   -0.033061
  24 H :   -0.025768
  25 H :   -0.005848
  26 H :   -0.003827
  27 H :   -0.023392
  28 H :   -0.056483
  29 H :   -0.064372
  30 H :   -0.011259
  31 H :   -0.027229
  32 H :   -0.019069
  33 H :   -0.033754
  34 H :   -0.152182
  35 H :   -0.023630

  Mayer bond orders larger than 0.100000
B(  0-C ,  1-C ) :   0.9652 B(  0-C , 20-H ) :   0.9724 B(  0-C , 21-H ) :   0.9752
B(  0-C , 22-H ) :   0.9715 B(  1-C ,  2-O ) :   0.8954 B(  1-C , 23-H ) :   0.9691
B(  1-C , 24-H ) :   0.9843 B(  2-O ,  3-C ) :   1.0945 B(  3-C ,  4-O ) :   2.0366
B(  3-C ,  5-C ) :   1.0520 B(  5-C ,  6-C ) :   1.6247 B(  5-C , 12-C ) :   0.9591
B(  6-C ,  7-C ) :   0.9666 B(  6-C ,  8-N ) :   1.1586 B(  7-C , 25-H ) :   0.9658
B(  7-C , 26-H ) :   0.9551 B(  7-C , 27-H ) :   0.9880 B(  8-N ,  9-C ) :   1.1861
B(  8-N , 28-H ) :   0.9469 B(  9-C , 10-S ) :   1.6069 B(  9-C , 11-N ) :   1.3098
B( 11-N , 12-C ) :   0.9588 B( 11-N , 29-H ) :   0.9485 B( 12-C , 13-C ) :   0.9696
B( 12-C , 30-H ) :   1.0022 B( 13-C , 14-C ) :   1.3506 B( 13-C , 19-C ) :   1.3636
B( 14-C , 15-C ) :   1.3976 B( 14-C , 31-H ) :   0.9729 B( 15-C , 16-C ) :   1.3584
B( 15-C , 32-H ) :   0.9701 B( 16-C , 17-C ) :   1.3311 B( 16-C , 33-H ) :   0.9839
B( 17-C , 18-O ) :   1.1065 B( 17-C , 19-C ) :   1.3637 B( 18-O , 34-H ) :   0.9786
B( 19-C , 35-H ) :   0.9574

MP2 TOTAL ENERGY:    -1274.323328983 Eh
FINAL SINGLE POINT ENERGY     -1274.323328983215

DIPOLE MOMENT
-------------
                                X             Y             Z
Electronic contribution:      9.31232       8.24967       6.13884
Nuclear contribution   :    -10.43577      -9.85647      -5.80697
                        -----------------------------------------
Total Dipole Moment    :     -1.12345      -1.60679       0.33187
                        -----------------------------------------
Magnitude (a.u.)       :      1.98849
Magnitude (Debye)      :      5.05433

Rotational constants in cm-1:     0.012391     0.008887     0.006317
Rotational constants in MHz :   371.485558   266.419529   189.389921

                             ****ORCA TERMINATED NORMALLY****
TOTAL RUN TIME: 0 days 1 hours 48 minutes 4 seconds 412 msec
