                         Program Version 4.2.0 -  RELEASE  -
|  1> ! ri-mp2 cc-pvtz cc-pvtz/c TightSCF NoKeepInts
|  2>
|  3> %scf
|  4>   MaxCore 4096
|  5> end
|  6> *xyz  0  1
|  7>     C       15.5241655   13.9465051   15.0929043
|  8>     C       15.0676909   15.4041229   14.9142759
|  9>     O       15.9219754   16.2227082   15.7276232
| 10>     C       15.7862802   17.5810528   15.6758759
| 11>     O       15.0157078   18.1236493   14.9015557
| 12>     C       16.6691612   18.2904561   16.6679397
| 13>     C       16.8728183   19.6304428   16.5832931
| 14>     C       16.1035345   20.6225917   15.7356149
| 15>     N       17.8875014   20.2522219   17.3145824
| 16>     C       18.8625122   19.5863403   18.0065633
| 17>     S       20.0931921   20.3834230   18.7719705
| 18>     N       18.7787854   18.2171240   18.0142547
| 19>     C       17.6667012   17.4243858   17.4565210
| 20>     C       17.0207891   16.5129125   18.4919658
| 21>     C       17.1820927   15.1170246   18.4183525
| 22>     C       16.5867893   14.2784301   19.3757082
| 23>     C       15.8279311   14.8411058   20.4164214
| 24>     C       15.6700039   16.2319264   20.4940842
| 25>     O       14.9391308   16.7776492   21.4986425
| 26>     C       16.2635556   17.0638691   19.5395668
| 27>     H       15.4399160   13.6429879   16.1440030
| 28>     H       16.5683069   13.8264159   14.7787507
| 29>     H       14.9035127   13.2727420   14.4898059
| 30>     H       15.1521333   15.6924232   13.8575478
| 31>     H       14.0206214   15.5163033   15.2263952
| 32>     H       15.0244476   20.5253396   15.9113647
| 33>     H       16.2799420   20.4383952   14.6682275
| 34>     H       16.3737392   21.6649467   15.9417096
| 35>     H       17.9730517   21.2559189   17.2987510
| 36>     H       19.4933552   17.7546146   18.5618895
| 37>     H       18.2077028   16.8330890   16.7042178
| 38>     H       17.7631676   14.6813345   17.6100223
| 39>     H       16.7135527   13.1993695   19.3091447
| 40>     H       15.3662364   14.1978417   21.1582048
| 41>     H       14.6308092   16.0520043   22.0617801
| 42>     H       16.1361868   18.1383320   19.6184696
| 43> *
| 44>
| 45>                          ****END OF INPUT****

CARTESIAN COORDINATES (ANGSTROEM)
---------------------------------
  C     15.524165   13.946505   15.092904
  C     15.067691   15.404123   14.914276
  O     15.921975   16.222708   15.727623
  C     15.786280   17.581053   15.675876
  O     15.015708   18.123649   14.901556
  C     16.669161   18.290456   16.667940
  C     16.872818   19.630443   16.583293
  C     16.103534   20.622592   15.735615
  N     17.887501   20.252222   17.314582
  C     18.862512   19.586340   18.006563
  S     20.093192   20.383423   18.771970
  N     18.778785   18.217124   18.014255
  C     17.666701   17.424386   17.456521
  C     17.020789   16.512912   18.491966
  C     17.182093   15.117025   18.418353
  C     16.586789   14.278430   19.375708
  C     15.827931   14.841106   20.416421
  C     15.670004   16.231926   20.494084
  O     14.939131   16.777649   21.498642
  C     16.263556   17.063869   19.539567
  H     15.439916   13.642988   16.144003
  H     16.568307   13.826416   14.778751
  H     14.903513   13.272742   14.489806
  H     15.152133   15.692423   13.857548
  H     14.020621   15.516303   15.226395
  H     15.024448   20.525340   15.911365
  H     16.279942   20.438395   14.668227
  H     16.373739   21.664947   15.941710
  H     17.973052   21.255919   17.298751
  H     19.493355   17.754615   18.561889
  H     18.207703   16.833089   16.704218
  H     17.763168   14.681335   17.610022
  H     16.713553   13.199369   19.309145
  H     15.366236   14.197842   21.158205
  H     14.630809   16.052004   22.061780
  H     16.136187   18.138332   19.618470

 Total Charge           Charge          ....    0
 Multiplicity           Mult            ....    1
 Number of Electrons    NEL             ....  154
 Basis Dimension        Dim             ....  828

ORBITAL ENERGIES
----------------

  NO   OCC          E(Eh)            E(eV)
   0   2.0000     -91.888720     -2500.4192
   1   2.0000     -20.602497      -560.6224
   2   2.0000     -20.595878      -560.4423
   3   2.0000     -20.541201      -558.9545
   4   2.0000     -15.628979      -425.2861
   5   2.0000     -15.606937      -424.6864
   6   2.0000     -11.394217      -310.0524
   7   2.0000     -11.383375      -309.7574
   8   2.0000     -11.337124      -308.4988
   9   2.0000     -11.313002      -307.8424
  10   2.0000     -11.307558      -307.6943
  11   2.0000     -11.296421      -307.3912
  12   2.0000     -11.260163      -306.4046
  13   2.0000     -11.259327      -306.3819
  14   2.0000     -11.254516      -306.2510
  15   2.0000     -11.251381      -306.1656
  16   2.0000     -11.243151      -305.9417
  17   2.0000     -11.238497      -305.8151
  18   2.0000     -11.238177      -305.8063
  19   2.0000     -11.231515      -305.6251
  20   2.0000      -8.893793      -242.0124
  21   2.0000      -6.575366      -178.9248
  22   2.0000      -6.573367      -178.8704
  23   2.0000      -6.572777      -178.8544
  24   2.0000      -1.453188       -39.5433
  25   2.0000      -1.415553       -38.5192
  26   2.0000      -1.354564       -36.8595
  27   2.0000      -1.340213       -36.4691
  28   2.0000      -1.238135       -33.6914
  29   2.0000      -1.157111       -31.4866
  30   2.0000      -1.121041       -30.5051
  31   2.0000      -1.043451       -28.3938
  32   2.0000      -1.040508       -28.3137
  33   2.0000      -1.014563       -27.6077
  34   2.0000      -0.996308       -27.1109
  35   2.0000      -0.984664       -26.7941
  36   2.0000      -0.921571       -25.0772
  37   2.0000      -0.888531       -24.1782
  38   2.0000      -0.846008       -23.0210
  39   2.0000      -0.837379       -22.7862
  40   2.0000      -0.833635       -22.6844
  41   2.0000      -0.816963       -22.2307
  42   2.0000      -0.766145       -20.8479
  43   2.0000      -0.732839       -19.9416
  44   2.0000      -0.719691       -19.5838
  45   2.0000      -0.694928       -18.9100
  46   2.0000      -0.685961       -18.6660
  47   2.0000      -0.679994       -18.5036
  48   2.0000      -0.678390       -18.4599
  49   2.0000      -0.666015       -18.1232
  50   2.0000      -0.646231       -17.5848
  51   2.0000      -0.642223       -17.4758
  52   2.0000      -0.634733       -17.2720
  53   2.0000      -0.606350       -16.4996
  54   2.0000      -0.600514       -16.3408
  55   2.0000      -0.598531       -16.2869
  56   2.0000      -0.588614       -16.0170
  57   2.0000      -0.576932       -15.6991
  58   2.0000      -0.571582       -15.5535
  59   2.0000      -0.569408       -15.4944
  60   2.0000      -0.561624       -15.2826
  61   2.0000      -0.552568       -15.0361
  62   2.0000      -0.541068       -14.7232
  63   2.0000      -0.523611       -14.2482
  64   2.0000      -0.517434       -14.0801
  65   2.0000      -0.512777       -13.9534
  66   2.0000      -0.508477       -13.8364
  67   2.0000      -0.497736       -13.5441
  68   2.0000      -0.484076       -13.1724
  69   2.0000      -0.463317       -12.6075
  70   2.0000      -0.459805       -12.5119
  71   2.0000      -0.447853       -12.1867
  72   2.0000      -0.352916        -9.6033
  73   2.0000      -0.349396        -9.5076
  74   2.0000      -0.327861        -8.9216
  75   2.0000      -0.320328        -8.7166
  76   2.0000      -0.317889        -8.6502
  77   0.0000       0.078034         2.1234
  78   0.0000       0.104460         2.8425
  79   0.0000       0.124633         3.3914
  80   0.0000       0.133084         3.6214
  81   0.0000       0.136905         3.7254

MULLIKEN ATOMIC CHARGES
-----------------------
   0 C :   -0.286145
   1 C :    0.048881
   2 O :   -0.332997
   3 C :    0.422543
   4 O :   -0.435219
   5 C :   -0.213588
   6 C :    0.173652
   7 C :   -0.269163
   8 N :   -0.126633
   9 C :    0.210092
  10 S :   -0.442198
  11 N :   -0.214394
  12 C :    0.052448
  13 C :    0.047916
  14 C :   -0.181929
  15 C :   -0.133568
  16 C :   -0.277130
  17 C :    0.316518
  18 O :   -0.357078
  19 C :   -0.247975
  20 H :    0.100060
  21 H :    0.095136
  22 H :    0.104332
  23 H :    0.097730
  24 H :    0.089519
  25 H :    0.133586
  26 H :    0.129038
  27 H :    0.094474
  28 H :    0.199831
  29 H :    0.200405
  30 H :    0.151736
  31 H :    0.155576
  32 H :    0.161699
  33 H :    0.129951
  34 H :    0.240430
  35 H :    0.162464
Sum of atomic charges:    0.0000000

LOEWDIN ATOMIC CHARGES
----------------------
   0 C :    0.106362
   1 C :   -0.017650
   2 O :    0.311553
   3 C :   -0.413913
   4 O :    0.094557
   5 C :   -0.094850
   6 C :   -0.056780
   7 C :    0.131053
   8 N :    0.407064
   9 C :   -0.456678
  10 S :   -0.036753
  11 N :    0.394683
  12 C :   -0.054975
  13 C :   -0.039671
  14 C :    0.018030
  15 C :    0.038480
  16 C :   -0.000277
  17 C :   -0.189579
  18 O :    0.394931
  19 C :    0.033801
  20 H :   -0.027477
  21 H :   -0.028573
  22 H :   -0.023930
  23 H :   -0.028501
  24 H :   -0.028252
  25 H :   -0.004142
  26 H :   -0.005172
  27 H :   -0.023675
  28 H :   -0.057148
  29 H :   -0.064329
  30 H :   -0.014397
  31 H :   -0.029681
  32 H :   -0.021812
  33 H :   -0.035434
  34 H :   -0.154116
  35 H :   -0.022747

  Mayer bond orders larger than 0.100000
B(  0-C ,  1-C ) :   0.9708 B(  0-C , 20-H ) :   0.9746 B(  0-C , 21-H ) :   0.9767
B(  0-C , 22-H ) :   0.9799 B(  1-C ,  2-O ) :   0.9083 B(  1-C , 23-H ) :   0.9792
B(  1-C , 24-H ) :   0.9760 B(  2-O ,  3-C ) :   1.1823 B(  3-C ,  4-O ) :   1.9603
B(  3-C ,  5-C ) :   1.0719 B(  5-C ,  6-C ) :   1.6452 B(  5-C , 12-C ) :   0.9547
B(  6-C ,  7-C ) :   0.9654 B(  6-C ,  8-N ) :   1.1525 B(  7-C , 25-H ) :   0.9615
B(  7-C , 26-H ) :   0.9586 B(  7-C , 27-H ) :   0.9904 B(  8-N ,  9-C ) :   1.1880
B(  8-N , 28-H ) :   0.9463 B(  9-C , 10-S ) :   1.6058 B(  9-C , 11-N ) :   1.3089
B( 11-N , 12-C ) :   0.9690 B( 11-N , 29-H ) :   0.9483 B( 12-C , 13-C ) :   0.9646
B( 12-C , 30-H ) :   1.0013 B( 13-C , 14-C ) :   1.3574 B( 13-C , 19-C ) :   1.3802
B( 14-C , 15-C ) :   1.3919 B( 14-C , 31-H ) :   0.9697 B( 15-C , 16-C ) :   1.3612
B( 15-C , 32-H ) :   0.9701 B( 16-C , 17-C ) :   1.3334 B( 16-C , 33-H ) :   0.9850
B( 17-C , 18-O ) :   1.1038 B( 17-C , 19-C ) :   1.3653 B( 18-O , 34-H ) :   0.9800
B( 19-C , 35-H ) :   0.9596

MP2 TOTAL ENERGY:    -1274.345863333 Eh
FINAL SINGLE POINT ENERGY     -1274.345863332840

DIPOLE MOMENT
-------------
                                X             Y             Z
Electronic contribution:      8.15419      11.14002       8.69575
Nuclear contribution   :     -9.29068     -12.76998      -9.12606
                        -----------------------------------------
Total Dipole Moment    :     -1.13648      -1.62996      -0.43031
                        -----------------------------------------
Magnitude (a.u.)       :      2.03311
Magnitude (Debye)      :      5.16775

Rotational constants in cm-1:     0.011177     0.008442     0.005901
Rotational constants in MHz :   335.078137   253.097366   176.905919

                             ****ORCA TERMINATED NORMALLY****
TOTAL RUN TIME: 0 days 1 hours 38 minutes 41 seconds 892 msec
