                         Program Version 4.2.0 -  RELEASE  -
|  1> ! ri-mp2 cc-pvtz cc-pvtz/c TightSCF NoKeepInts
|  2>
|  3> %scf
|  4>   MaxCore 4096
|  5> end
|  6> *xyz  0  1
|  7>     C       14.4070520   16.6063828   16.1096228
|  8>     C       15.1442941   15.7401958   15.0646259
|  9>     O       16.4555423   16.1960681   14.6341250
| 10>     C       17.4810353   16.5855664   15.4585602
| 11>     O       18.5552575   16.0140548   15.4236137
| 12>     C       17.1913387   17.6543445   16.4578898
| 13>     C       16.7983107   18.8738672   16.0173904
| 14>     C       16.4386820   19.2357710   14.5887194
| 15>     N       16.8399184   19.9865529   16.8603119
| 16>     C       17.4906434   20.0118485   18.0657929
| 17>     S       17.6058512   21.3947658   18.9651473
| 18>     N       18.0699800   18.8353320   18.4740088
| 19>     C       17.9009488   17.5281954   17.8077674
| 20>     C       17.3303271   16.4261495   18.6891266
| 21>     C       17.8471606   15.1205418   18.6093377
| 22>     C       17.3153284   14.0914638   19.4040357
| 23>     C       16.2559466   14.3700358   20.2845204
| 24>     C       15.7361982   15.6693312   20.3633808
| 25>     O       14.7073248   15.9391385   21.2055064
| 26>     C       16.2673306   16.6919562   19.5707384
| 27>     H       14.9028831   16.5737270   17.0853632
| 28>     H       13.3946588   16.2119624   16.2605248
| 29>     H       14.3008999   17.6460968   15.7858683
| 30>     H       15.2515055   14.7298880   15.4817923
| 31>     H       14.5058441   15.6484492   14.1763999
| 32>     H       15.5801052   18.6626579   14.2231265
| 33>     H       17.2817201   19.0252245   13.9177330
| 34>     H       16.1927518   20.2983912   14.4728630
| 35>     H       16.4585788   20.8674163   16.5537816
| 36>     H       18.5445244   18.8807640   19.3671217
| 37>     H       18.9509190   17.3034354   17.5674320
| 38>     H       18.6613455   14.9021958   17.9209051
| 39>     H       17.7236342   13.0846163   19.3333480
| 40>     H       15.8416861   13.5777930   20.8993907
| 41>     H       14.5108089   15.1261296   21.6950209
| 42>     H       15.8466641   17.6896910   19.6431077
| 43> *
| 44>
| 45>                          ****END OF INPUT****

CARTESIAN COORDINATES (ANGSTROEM)
---------------------------------
  C     14.407052   16.606383   16.109623
  C     15.144294   15.740196   15.064626
  O     16.455542   16.196068   14.634125
  C     17.481035   16.585566   15.458560
  O     18.555257   16.014055   15.423614
  C     17.191339   17.654344   16.457890
  C     16.798311   18.873867   16.017390
  C     16.438682   19.235771   14.588719
  N     16.839918   19.986553   16.860312
  C     17.490643   20.011848   18.065793
  S     17.605851   21.394766   18.965147
  N     18.069980   18.835332   18.474009
  C     17.900949   17.528195   17.807767
  C     17.330327   16.426150   18.689127
  C     17.847161   15.120542   18.609338
  C     17.315328   14.091464   19.404036
  C     16.255947   14.370036   20.284520
  C     15.736198   15.669331   20.363381
  O     14.707325   15.939139   21.205506
  C     16.267331   16.691956   19.570738
  H     14.902883   16.573727   17.085363
  H     13.394659   16.211962   16.260525
  H     14.300900   17.646097   15.785868
  H     15.251505   14.729888   15.481792
  H     14.505844   15.648449   14.176400
  H     15.580105   18.662658   14.223126
  H     17.281720   19.025224   13.917733
  H     16.192752   20.298391   14.472863
  H     16.458579   20.867416   16.553782
  H     18.544524   18.880764   19.367122
  H     18.950919   17.303435   17.567432
  H     18.661345   14.902196   17.920905
  H     17.723634   13.084616   19.333348
  H     15.841686   13.577793   20.899391
  H     14.510809   15.126130   21.695021
  H     15.846664   17.689691   19.643108

 Total Charge           Charge          ....    0
 Multiplicity           Mult            ....    1
 Number of Electrons    NEL             ....  154
 Basis Dimension        Dim             ....  828

ORBITAL ENERGIES
----------------

  NO   OCC          E(Eh)            E(eV)
   0   2.0000     -91.889926     -2500.4520
   1   2.0000     -20.599379      -560.5376
   2   2.0000     -20.592252      -560.3437
   3   2.0000     -20.552121      -559.2517
   4   2.0000     -15.628533      -425.2740
   5   2.0000     -15.609129      -424.7460
   6   2.0000     -11.397316      -310.1367
   7   2.0000     -11.385291      -309.8095
   8   2.0000     -11.332549      -308.3743
   9   2.0000     -11.316750      -307.9444
  10   2.0000     -11.311414      -307.7992
  11   2.0000     -11.308998      -307.7335
  12   2.0000     -11.264572      -306.5246
  13   2.0000     -11.263021      -306.4824
  14   2.0000     -11.258304      -306.3540
  15   2.0000     -11.257151      -306.3227
  16   2.0000     -11.245713      -306.0114
  17   2.0000     -11.241649      -305.9008
  18   2.0000     -11.238705      -305.8207
  19   2.0000     -11.235541      -305.7346
  20   2.0000      -8.895015      -242.0457
  21   2.0000      -6.576593      -178.9582
  22   2.0000      -6.574587      -178.9036
  23   2.0000      -6.573999      -178.8876
  24   2.0000      -1.443897       -39.2904
  25   2.0000      -1.419118       -38.6162
  26   2.0000      -1.356924       -36.9238
  27   2.0000      -1.340427       -36.4749
  28   2.0000      -1.238680       -33.7062
  29   2.0000      -1.160595       -31.5814
  30   2.0000      -1.125280       -30.6204
  31   2.0000      -1.047722       -28.5100
  32   2.0000      -1.038812       -28.2675
  33   2.0000      -1.018588       -27.7172
  34   2.0000      -1.003893       -27.3173
  35   2.0000      -0.990334       -26.9484
  36   2.0000      -0.925985       -25.1973
  37   2.0000      -0.898101       -24.4386
  38   2.0000      -0.851266       -23.1641
  39   2.0000      -0.841519       -22.8989
  40   2.0000      -0.836272       -22.7561
  41   2.0000      -0.826469       -22.4894
  42   2.0000      -0.749835       -20.4041
  43   2.0000      -0.735434       -20.0122
  44   2.0000      -0.728991       -19.8369
  45   2.0000      -0.696688       -18.9579
  46   2.0000      -0.688200       -18.7269
  47   2.0000      -0.675930       -18.3930
  48   2.0000      -0.673657       -18.3311
  49   2.0000      -0.665335       -18.1047
  50   2.0000      -0.653195       -17.7743
  51   2.0000      -0.650509       -17.7013
  52   2.0000      -0.638528       -17.3752
  53   2.0000      -0.613735       -16.7006
  54   2.0000      -0.604066       -16.4375
  55   2.0000      -0.603164       -16.4129
  56   2.0000      -0.599525       -16.3139
  57   2.0000      -0.590928       -16.0800
  58   2.0000      -0.577360       -15.7108
  59   2.0000      -0.576118       -15.6770
  60   2.0000      -0.563839       -15.3428
  61   2.0000      -0.556837       -15.1523
  62   2.0000      -0.545592       -14.8463
  63   2.0000      -0.530577       -14.4377
  64   2.0000      -0.522268       -14.2116
  65   2.0000      -0.513071       -13.9614
  66   2.0000      -0.501450       -13.6452
  67   2.0000      -0.492696       -13.4069
  68   2.0000      -0.485621       -13.2144
  69   2.0000      -0.465642       -12.6708
  70   2.0000      -0.459614       -12.5067
  71   2.0000      -0.450236       -12.2515
  72   2.0000      -0.354362        -9.6427
  73   2.0000      -0.349348        -9.5062
  74   2.0000      -0.329301        -8.9607
  75   2.0000      -0.324381        -8.8269
  76   2.0000      -0.319200        -8.6859
  77   0.0000       0.079008         2.1499
  78   0.0000       0.103999         2.8300
  79   0.0000       0.118134         3.2146
  80   0.0000       0.124866         3.3978
  81   0.0000       0.130375         3.5477

MULLIKEN ATOMIC CHARGES
-----------------------
   0 C :   -0.332339
   1 C :    0.035908
   2 O :   -0.363208
   3 C :    0.440188
   4 O :   -0.376015
   5 C :   -0.228890
   6 C :    0.140543
   7 C :   -0.291700
   8 N :   -0.138414
   9 C :    0.209883
  10 S :   -0.441319
  11 N :   -0.230692
  12 C :    0.096553
  13 C :    0.018264
  14 C :   -0.229393
  15 C :   -0.130196
  16 C :   -0.276740
  17 C :    0.324733
  18 O :   -0.356414
  19 C :   -0.270087
  20 H :    0.126379
  21 H :    0.125428
  22 H :    0.097068
  23 H :    0.106433
  24 H :    0.114699
  25 H :    0.124338
  26 H :    0.135593
  27 H :    0.104655
  28 H :    0.197185
  29 H :    0.204312
  30 H :    0.166315
  31 H :    0.180801
  32 H :    0.164963
  33 H :    0.132030
  34 H :    0.241083
  35 H :    0.178052
Sum of atomic charges:   -0.0000000

LOEWDIN ATOMIC CHARGES
----------------------
   0 C :    0.102636
   1 C :   -0.012486
   2 O :    0.283436
   3 C :   -0.415833
   4 O :    0.125866
   5 C :   -0.088314
   6 C :   -0.080027
   7 C :    0.128442
   8 N :    0.404508
   9 C :   -0.456591
  10 S :   -0.037227
  11 N :    0.396368
  12 C :   -0.048795
  13 C :   -0.043646
  14 C :    0.019174
  15 C :    0.043815
  16 C :   -0.000905
  17 C :   -0.192001
  18 O :    0.395463
  19 C :    0.026934
  20 H :   -0.029301
  21 H :   -0.020938
  22 H :   -0.033554
  23 H :   -0.026304
  24 H :   -0.020819
  25 H :   -0.016307
  26 H :   -0.004676
  27 H :   -0.018595
  28 H :   -0.059573
  29 H :   -0.063932
  30 H :   -0.004751
  31 H :   -0.021436
  32 H :   -0.018710
  33 H :   -0.035006
  34 H :   -0.153279
  35 H :   -0.023637

  Mayer bond orders larger than 0.100000
B(  0-C ,  1-C ) :   0.9626 B(  0-C , 20-H ) :   0.9637 B(  0-C , 21-H ) :   0.9779
B(  0-C , 22-H ) :   0.9746 B(  1-C ,  2-O ) :   0.9045 B(  1-C , 23-H ) :   0.9814
B(  1-C , 24-H ) :   0.9818 B(  2-O ,  3-C ) :   1.1193 B(  3-C ,  4-O ) :   2.0852
B(  3-C ,  5-C ) :   0.9523 B(  5-C ,  6-C ) :   1.7070 B(  5-C , 12-C ) :   0.9184
B(  6-C ,  7-C ) :   0.9414 B(  6-C ,  8-N ) :   1.1093 B(  7-C , 25-H ) :   0.9694
B(  7-C , 26-H ) :   0.9666 B(  7-C , 27-H ) :   0.9870 B(  8-N ,  9-C ) :   1.1945
B(  8-N , 28-H ) :   0.9477 B(  9-C , 10-S ) :   1.6091 B(  9-C , 11-N ) :   1.2926
B( 11-N , 12-C ) :   0.9729 B( 11-N , 29-H ) :   0.9471 B( 12-C , 13-C ) :   0.9714
B( 12-C , 30-H ) :   0.9910 B( 13-C , 14-C ) :   1.3872 B( 13-C , 19-C ) :   1.3435
B( 14-C , 15-C ) :   1.3967 B( 14-C , 31-H ) :   0.9569 B( 15-C , 16-C ) :   1.3594
B( 15-C , 32-H ) :   0.9698 B( 16-C , 17-C ) :   1.3330 B( 16-C , 33-H ) :   0.9845
B( 17-C , 18-O ) :   1.1084 B( 17-C , 19-C ) :   1.3601 B( 18-O , 34-H ) :   0.9795
B( 19-C , 35-H ) :   0.9573

MP2 TOTAL ENERGY:    -1274.318504658 Eh
FINAL SINGLE POINT ENERGY     -1274.318504657823

DIPOLE MOMENT
-------------
                                X             Y             Z
Electronic contribution:      8.82588       6.59467       7.11217
Nuclear contribution   :    -10.37002      -7.99110      -7.59730
                        -----------------------------------------
Total Dipole Moment    :     -1.54413      -1.39643      -0.48513
                        -----------------------------------------
Magnitude (a.u.)       :      2.13769
Magnitude (Debye)      :      5.43357

Rotational constants in cm-1:     0.011415     0.009270     0.006450
Rotational constants in MHz :   342.207849   277.892902   193.371435

                             ****ORCA TERMINATED NORMALLY****
TOTAL RUN TIME: 0 days 1 hours 49 minutes 5 seconds 899 msec
