                         Program Version 4.2.0 -  RELEASE  -
|  1> ! ri-mp2 cc-pvtz cc-pvtz/c TightSCF NoKeepInts
|  2>
|  3> %scf
|  4>   MaxCore 4096
|  5> end
|  6> *xyz  0  1
|  7>     C       15.4013539   14.9032406   13.8457066
|  8>     C       14.9624112   15.1686625   15.2975864
|  9>     O       15.9224000   16.0501152   15.9063236
| 10>     C       15.7475812   17.4049456   15.8370908
| 11>     O       14.9218269   17.9169231   15.0997790
| 12>     C       16.6424927   18.1534477   16.7889311
| 13>     C       16.8098657   19.4963099   16.6741000
| 14>     C       15.9922848   20.4534261   15.8312761
| 15>     N       17.8302760   20.1563077   17.3627006
| 16>     C       18.8431046   19.5275745   18.0347509
| 17>     S       20.0763074   20.3686850   18.7471502
| 18>     N       18.7946517   18.1570827   18.0683639
| 19>     C       17.6856929   17.3271529   17.5607447
| 20>     C       17.0945279   16.4213296   18.6331780
| 21>     C       17.2868616   15.0283874   18.5815543
| 22>     C       16.7430904   14.1958294   19.5742708
| 23>     C       16.0044296   14.7615704   20.6278032
| 24>     C       15.8152936   16.1495347   20.6831512
| 25>     O       15.1039184   16.6983373   21.6999336
| 26>     C       16.3576576   16.9754524   19.6936043
| 27>     H       15.3883559   15.8315820   13.2606087
| 28>     H       14.7228459   14.1887084   13.3642882
| 29>     H       16.4162453   14.4880828   13.8161689
| 30>     H       13.9487952   15.5916336   15.3312289
| 31>     H       14.9513061   14.2166020   15.8435825
| 32>     H       14.9223384   20.3421880   16.0494683
| 33>     H       16.1324536   20.2449991   14.7629614
| 34>     H       16.2512996   21.5051724   16.0007039
| 35>     H       17.8895986   21.1613771   17.3269053
| 36>     H       19.5379823   17.7224150   18.6002915
| 37>     H       18.2176322   16.7350230   16.8026064
| 38>     H       17.8533116   14.5901365   17.7641978
| 39>     H       16.8944478   13.1189453   19.5253669
| 40>     H       15.5828082   14.1229051   21.3969489
| 41>     H       14.8343767   15.9778510   22.2890192
| 42>     H       16.2071745   18.0480640   19.7556538
| 43> *
| 44>
| 45>                          ****END OF INPUT****

CARTESIAN COORDINATES (ANGSTROEM)
---------------------------------
  C     15.401354   14.903241   13.845707
  C     14.962411   15.168662   15.297586
  O     15.922400   16.050115   15.906324
  C     15.747581   17.404946   15.837091
  O     14.921827   17.916923   15.099779
  C     16.642493   18.153448   16.788931
  C     16.809866   19.496310   16.674100
  C     15.992285   20.453426   15.831276
  N     17.830276   20.156308   17.362701
  C     18.843105   19.527575   18.034751
  S     20.076307   20.368685   18.747150
  N     18.794652   18.157083   18.068364
  C     17.685693   17.327153   17.560745
  C     17.094528   16.421330   18.633178
  C     17.286862   15.028387   18.581554
  C     16.743090   14.195829   19.574271
  C     16.004430   14.761570   20.627803
  C     15.815294   16.149535   20.683151
  O     15.103918   16.698337   21.699934
  C     16.357658   16.975452   19.693604
  H     15.388356   15.831582   13.260609
  H     14.722846   14.188708   13.364288
  H     16.416245   14.488083   13.816169
  H     13.948795   15.591634   15.331229
  H     14.951306   14.216602   15.843583
  H     14.922338   20.342188   16.049468
  H     16.132454   20.244999   14.762961
  H     16.251300   21.505172   16.000704
  H     17.889599   21.161377   17.326905
  H     19.537982   17.722415   18.600292
  H     18.217632   16.735023   16.802606
  H     17.853312   14.590136   17.764198
  H     16.894448   13.118945   19.525367
  H     15.582808   14.122905   21.396949
  H     14.834377   15.977851   22.289019
  H     16.207175   18.048064   19.755654

 Total Charge           Charge          ....    0
 Multiplicity           Mult            ....    1
 Number of Electrons    NEL             ....  154
 Basis Dimension        Dim             ....  828

ORBITAL ENERGIES
----------------

  NO   OCC          E(Eh)            E(eV)
   0   2.0000     -91.888827     -2500.4221
   1   2.0000     -20.600861      -560.5779
   2   2.0000     -20.595789      -560.4399
   3   2.0000     -20.541886      -558.9731
   4   2.0000     -15.629240      -425.2932
   5   2.0000     -15.606915      -424.6858
   6   2.0000     -11.395806      -310.0957
   7   2.0000     -11.383451      -309.7595
   8   2.0000     -11.337532      -308.5099
   9   2.0000     -11.312878      -307.8390
  10   2.0000     -11.307412      -307.6903
  11   2.0000     -11.296970      -307.4062
  12   2.0000     -11.260093      -306.4027
  13   2.0000     -11.259440      -306.3849
  14   2.0000     -11.254360      -306.2467
  15   2.0000     -11.251785      -306.1766
  16   2.0000     -11.242794      -305.9320
  17   2.0000     -11.238203      -305.8070
  18   2.0000     -11.238045      -305.8028
  19   2.0000     -11.224804      -305.4425
  20   2.0000      -8.893897      -242.0152
  21   2.0000      -6.575470      -178.9276
  22   2.0000      -6.573471      -178.8733
  23   2.0000      -6.572881      -178.8572
  24   2.0000      -1.451635       -39.5010
  25   2.0000      -1.415447       -38.5163
  26   2.0000      -1.354757       -36.8648
  27   2.0000      -1.340401       -36.4742
  28   2.0000      -1.238211       -33.6934
  29   2.0000      -1.156916       -31.4813
  30   2.0000      -1.121061       -30.5056
  31   2.0000      -1.042497       -28.3678
  32   2.0000      -1.037251       -28.2250
  33   2.0000      -1.014213       -27.5981
  34   2.0000      -0.995947       -27.1011
  35   2.0000      -0.984292       -26.7839
  36   2.0000      -0.921589       -25.0777
  37   2.0000      -0.892226       -24.2787
  38   2.0000      -0.846550       -23.0358
  39   2.0000      -0.837459       -22.7884
  40   2.0000      -0.833454       -22.6794
  41   2.0000      -0.817838       -22.2545
  42   2.0000      -0.759432       -20.6652
  43   2.0000      -0.732897       -19.9431
  44   2.0000      -0.722329       -19.6556
  45   2.0000      -0.694801       -18.9065
  46   2.0000      -0.688260       -18.7285
  47   2.0000      -0.680145       -18.5077
  48   2.0000      -0.671723       -18.2785
  49   2.0000      -0.653351       -17.7786
  50   2.0000      -0.646875       -17.6024
  51   2.0000      -0.642158       -17.4740
  52   2.0000      -0.629288       -17.1238
  53   2.0000      -0.612620       -16.6702
  54   2.0000      -0.605811       -16.4850
  55   2.0000      -0.599878       -16.3235
  56   2.0000      -0.598393       -16.2831
  57   2.0000      -0.578510       -15.7421
  58   2.0000      -0.571334       -15.5468
  59   2.0000      -0.569215       -15.4891
  60   2.0000      -0.563319       -15.3287
  61   2.0000      -0.540785       -14.7155
  62   2.0000      -0.535472       -14.5709
  63   2.0000      -0.528234       -14.3740
  64   2.0000      -0.523408       -14.2427
  65   2.0000      -0.512911       -13.9570
  66   2.0000      -0.500059       -13.6073
  67   2.0000      -0.496514       -13.5108
  68   2.0000      -0.485128       -13.2010
  69   2.0000      -0.463140       -12.6027
  70   2.0000      -0.454712       -12.3734
  71   2.0000      -0.448203       -12.1962
  72   2.0000      -0.353077        -9.6077
  73   2.0000      -0.349105        -9.4996
  74   2.0000      -0.327939        -8.9237
  75   2.0000      -0.320349        -8.7171
  76   2.0000      -0.317971        -8.6524
  77   0.0000       0.077318         2.1039
  78   0.0000       0.105822         2.8796
  79   0.0000       0.124087         3.3766
  80   0.0000       0.133079         3.6213
  81   0.0000       0.136204         3.7063

MULLIKEN ATOMIC CHARGES
-----------------------
   0 C :   -0.283104
   1 C :    0.031742
   2 O :   -0.345753
   3 C :    0.436510
   4 O :   -0.439588
   5 C :   -0.215824
   6 C :    0.172771
   7 C :   -0.269198
   8 N :   -0.126003
   9 C :    0.209871
  10 S :   -0.441892
  11 N :   -0.214667
  12 C :    0.055277
  13 C :    0.045864
  14 C :   -0.176560
  15 C :   -0.134911
  16 C :   -0.275672
  17 C :    0.316569
  18 O :   -0.357044
  19 C :   -0.247828
  20 H :    0.110839
  21 H :    0.093057
  22 H :    0.091099
  23 H :    0.103591
  24 H :    0.107846
  25 H :    0.133772
  26 H :    0.128596
  27 H :    0.094787
  28 H :    0.199844
  29 H :    0.200434
  30 H :    0.153248
  31 H :    0.150042
  32 H :    0.160097
  33 H :    0.129533
  34 H :    0.240438
  35 H :    0.162214
Sum of atomic charges:   -0.0000000

LOEWDIN ATOMIC CHARGES
----------------------
   0 C :    0.104308
   1 C :   -0.015968
   2 O :    0.310410
   3 C :   -0.413622
   4 O :    0.094453
   5 C :   -0.094364
   6 C :   -0.056244
   7 C :    0.131048
   8 N :    0.407179
   9 C :   -0.456760
  10 S :   -0.036508
  11 N :    0.394749
  12 C :   -0.054804
  13 C :   -0.039434
  14 C :    0.017071
  15 C :    0.038828
  16 C :   -0.000547
  17 C :   -0.189609
  18 O :    0.394906
  19 C :    0.033279
  20 H :   -0.024802
  21 H :   -0.027342
  22 H :   -0.030154
  23 H :   -0.027540
  24 H :   -0.026530
  25 H :   -0.004217
  26 H :   -0.005267
  27 H :   -0.023615
  28 H :   -0.057150
  29 H :   -0.064268
  30 H :   -0.014018
  31 H :   -0.029439
  32 H :   -0.021542
  33 H :   -0.035542
  34 H :   -0.154088
  35 H :   -0.022859

  Mayer bond orders larger than 0.100000
B(  0-C ,  1-C ) :   0.9673 B(  0-C , 20-H ) :   0.9762 B(  0-C , 21-H ) :   0.9764
B(  0-C , 22-H ) :   0.9778 B(  1-C ,  2-O ) :   0.8960 B(  1-C , 23-H ) :   0.9751
B(  1-C , 24-H ) :   0.9826 B(  2-O ,  3-C ) :   1.1648 B(  3-C ,  4-O ) :   1.9444
B(  3-C ,  5-C ) :   1.0818 B(  5-C ,  6-C ) :   1.6391 B(  5-C , 12-C ) :   0.9552
B(  6-C ,  7-C ) :   0.9656 B(  6-C ,  8-N ) :   1.1527 B(  7-C , 25-H ) :   0.9613
B(  7-C , 26-H ) :   0.9587 B(  7-C , 27-H ) :   0.9908 B(  8-N ,  9-C ) :   1.1875
B(  8-N , 28-H ) :   0.9463 B(  9-C , 10-S ) :   1.6063 B(  9-C , 11-N ) :   1.3091
B( 11-N , 12-C ) :   0.9680 B( 11-N , 29-H ) :   0.9483 B( 12-C , 13-C ) :   0.9650
B( 12-C , 30-H ) :   1.0008 B( 13-C , 14-C ) :   1.3544 B( 13-C , 19-C ) :   1.3807
B( 14-C , 15-C ) :   1.3954 B( 14-C , 31-H ) :   0.9720 B( 15-C , 16-C ) :   1.3601
B( 15-C , 32-H ) :   0.9709 B( 16-C , 17-C ) :   1.3340 B( 16-C , 33-H ) :   0.9852
B( 17-C , 18-O ) :   1.1040 B( 17-C , 19-C ) :   1.3649 B( 18-O , 34-H ) :   0.9800
B( 19-C , 35-H ) :   0.9597

MP2 TOTAL ENERGY:    -1274.343304015 Eh
FINAL SINGLE POINT ENERGY     -1274.343304014678

DIPOLE MOMENT
-------------
                                X             Y             Z
Electronic contribution:      8.56880       9.24385      11.04643
Nuclear contribution   :     -9.72712     -10.85655     -11.40113
                        -----------------------------------------
Total Dipole Moment    :     -1.15831      -1.61270      -0.35470
                        -----------------------------------------
Magnitude (a.u.)       :      2.01701
Magnitude (Debye)      :      5.12682

Rotational constants in cm-1:     0.010360     0.008864     0.005802
Rotational constants in MHz :   310.575952   265.726269   173.924718

                             ****ORCA TERMINATED NORMALLY****
TOTAL RUN TIME: 0 days 1 hours 46 minutes 53 seconds 348 msec
