                         Program Version 4.2.0 -  RELEASE  -
|  1> ! ri-mp2 cc-pvtz cc-pvtz/c TightSCF NoKeepInts
|  2>
|  3> %scf
|  4>   MaxCore 4096
|  5> end
|  6> *xyz  0  1
|  7>     C       14.6050242   16.1328117   16.2096644
|  8>     C       15.0826909   16.0313946   14.7430543
|  9>     O       16.4819467   16.3459929   14.5200437
| 10>     C       17.4176805   16.5046520   15.5065158
| 11>     O       18.3310963   15.7084985   15.6256169
| 12>     C       17.2170565   17.6459790   16.4601525
| 13>     C       16.8296485   18.8722524   16.0254911
| 14>     C       16.3455247   19.2485402   14.6394184
| 15>     N       16.9181219   19.9865243   16.8630355
| 16>     C       17.6008576   20.0071052   18.0497565
| 17>     S       17.7626815   21.3924095   18.9381985
| 18>     N       18.1632802   18.8213400   18.4512699
| 19>     C       17.9519226   17.5144191   17.7979935
| 20>     C       17.3441685   16.4591702   18.7114287
| 21>     C       17.9084887   15.1735872   18.7913315
| 22>     C       17.3369665   14.1925477   19.6186797
| 23>     C       16.1905035   14.4995204   20.3714561
| 24>     C       15.6240265   15.7789933   20.2909943
| 25>     O       14.5113421   16.0754256   21.0085031
| 26>     C       16.1950475   16.7535079   19.4663870
| 27>     H       15.2287755   15.5229867   16.8758321
| 28>     H       13.5781086   15.7564175   16.2924213
| 29>     H       14.5979205   17.1688123   16.5668254
| 30>     H       14.9159399   14.9982418   14.4106916
| 31>     H       14.4581425   16.6731246   14.1087120
| 32>     H       15.3109972   18.9232937   14.4828217
| 33>     H       16.9699189   18.7886651   13.8628053
| 34>     H       16.3807480   20.3310301   14.4642461
| 35>     H       16.5370573   20.8710347   16.5667926
| 36>     H       18.6525093   18.8601831   19.3367164
| 37>     H       18.9903185   17.2528281   17.5457787
| 38>     H       18.7864095   14.9305901   18.1963426
| 39>     H       17.7802834   13.1994633   19.6686184
| 40>     H       15.7448018   13.7436965   21.0096118
| 41>     H       14.2962891   15.2974990   21.5449665
| 42>     H       15.7407046   17.7374616   19.4158259
| 43> *
| 44>
| 45>                          ****END OF INPUT****

CARTESIAN COORDINATES (ANGSTROEM)
---------------------------------
  C     14.605024   16.132812   16.209664
  C     15.082691   16.031395   14.743054
  O     16.481947   16.345993   14.520044
  C     17.417680   16.504652   15.506516
  O     18.331096   15.708498   15.625617
  C     17.217057   17.645979   16.460152
  C     16.829649   18.872252   16.025491
  C     16.345525   19.248540   14.639418
  N     16.918122   19.986524   16.863035
  C     17.600858   20.007105   18.049757
  S     17.762681   21.392409   18.938198
  N     18.163280   18.821340   18.451270
  C     17.951923   17.514419   17.797994
  C     17.344168   16.459170   18.711429
  C     17.908489   15.173587   18.791331
  C     17.336966   14.192548   19.618680
  C     16.190503   14.499520   20.371456
  C     15.624026   15.778993   20.290994
  O     14.511342   16.075426   21.008503
  C     16.195048   16.753508   19.466387
  H     15.228775   15.522987   16.875832
  H     13.578109   15.756417   16.292421
  H     14.597920   17.168812   16.566825
  H     14.915940   14.998242   14.410692
  H     14.458142   16.673125   14.108712
  H     15.310997   18.923294   14.482822
  H     16.969919   18.788665   13.862805
  H     16.380748   20.331030   14.464246
  H     16.537057   20.871035   16.566793
  H     18.652509   18.860183   19.336716
  H     18.990319   17.252828   17.545779
  H     18.786410   14.930590   18.196343
  H     17.780283   13.199463   19.668618
  H     15.744802   13.743696   21.009612
  H     14.296289   15.297499   21.544966
  H     15.740705   17.737462   19.415826

 Total Charge           Charge          ....    0
 Multiplicity           Mult            ....    1
 Number of Electrons    NEL             ....  154
 Basis Dimension        Dim             ....  828

ORBITAL ENERGIES
----------------

  NO   OCC          E(Eh)            E(eV)
   0   2.0000     -91.890063     -2500.4557
   1   2.0000     -20.596990      -560.4726
   2   2.0000     -20.589363      -560.2651
   3   2.0000     -20.550144      -559.1978
   4   2.0000     -15.630030      -425.3147
   5   2.0000     -15.608199      -424.7207
   6   2.0000     -11.396216      -310.1068
   7   2.0000     -11.385056      -309.8031
   8   2.0000     -11.337198      -308.5008
   9   2.0000     -11.313471      -307.8552
  10   2.0000     -11.311562      -307.8033
  11   2.0000     -11.306907      -307.6766
  12   2.0000     -11.264165      -306.5135
  13   2.0000     -11.261286      -306.4352
  14   2.0000     -11.260318      -306.4088
  15   2.0000     -11.253544      -306.2245
  16   2.0000     -11.243435      -305.9494
  17   2.0000     -11.239099      -305.8314
  18   2.0000     -11.236296      -305.7552
  19   2.0000     -11.235709      -305.7392
  20   2.0000      -8.895150      -242.0493
  21   2.0000      -6.576727      -178.9618
  22   2.0000      -6.574722      -178.9073
  23   2.0000      -6.574133      -178.8913
  24   2.0000      -1.444147       -39.2972
  25   2.0000      -1.416777       -38.5525
  26   2.0000      -1.355888       -36.8956
  27   2.0000      -1.341764       -36.5112
  28   2.0000      -1.239147       -33.7189
  29   2.0000      -1.157789       -31.5050
  30   2.0000      -1.123618       -30.5752
  31   2.0000      -1.045724       -28.4556
  32   2.0000      -1.037662       -28.2362
  33   2.0000      -1.015613       -27.6362
  34   2.0000      -1.004450       -27.3325
  35   2.0000      -0.989011       -26.9123
  36   2.0000      -0.925362       -25.1804
  37   2.0000      -0.900357       -24.5000
  38   2.0000      -0.851637       -23.1742
  39   2.0000      -0.839830       -22.8529
  40   2.0000      -0.833471       -22.6799
  41   2.0000      -0.823527       -22.4093
  42   2.0000      -0.745397       -20.2833
  43   2.0000      -0.732876       -19.9426
  44   2.0000      -0.729091       -19.8396
  45   2.0000      -0.693935       -18.8829
  46   2.0000      -0.687073       -18.6962
  47   2.0000      -0.678292       -18.4573
  48   2.0000      -0.673907       -18.3379
  49   2.0000      -0.665242       -18.1021
  50   2.0000      -0.653107       -17.7719
  51   2.0000      -0.650680       -17.7059
  52   2.0000      -0.639178       -17.3929
  53   2.0000      -0.619322       -16.8526
  54   2.0000      -0.606557       -16.5052
  55   2.0000      -0.603659       -16.4264
  56   2.0000      -0.600799       -16.3486
  57   2.0000      -0.583552       -15.8793
  58   2.0000      -0.576433       -15.6855
  59   2.0000      -0.564029       -15.3480
  60   2.0000      -0.561748       -15.2860
  61   2.0000      -0.551144       -14.9974
  62   2.0000      -0.545828       -14.8527
  63   2.0000      -0.533934       -14.5291
  64   2.0000      -0.521484       -14.1903
  65   2.0000      -0.512201       -13.9377
  66   2.0000      -0.499211       -13.5842
  67   2.0000      -0.489175       -13.3111
  68   2.0000      -0.486697       -13.2437
  69   2.0000      -0.470444       -12.8014
  70   2.0000      -0.456988       -12.4353
  71   2.0000      -0.448038       -12.1917
  72   2.0000      -0.354802        -9.6547
  73   2.0000      -0.348430        -9.4813
  74   2.0000      -0.329280        -8.9602
  75   2.0000      -0.321120        -8.7381
  76   2.0000      -0.319346        -8.6898
  77   0.0000       0.075560         2.0561
  78   0.0000       0.106033         2.8853
  79   0.0000       0.116597         3.1728
  80   0.0000       0.131604         3.5811
  81   0.0000       0.134126         3.6497

MULLIKEN ATOMIC CHARGES
-----------------------
   0 C :   -0.336976
   1 C :    0.032801
   2 O :   -0.365230
   3 C :    0.452692
   4 O :   -0.380491
   5 C :   -0.253251
   6 C :    0.170190
   7 C :   -0.308311
   8 N :   -0.131824
   9 C :    0.204263
  10 S :   -0.440838
  11 N :   -0.215913
  12 C :    0.069866
  13 C :    0.009284
  14 C :   -0.187891
  15 C :   -0.132976
  16 C :   -0.278186
  17 C :    0.316499
  18 O :   -0.358460
  19 C :   -0.253671
  20 H :    0.127174
  21 H :    0.123059
  22 H :    0.108014
  23 H :    0.121694
  24 H :    0.098164
  25 H :    0.115040
  26 H :    0.142667
  27 H :    0.113995
  28 H :    0.198056
  29 H :    0.200587
  30 H :    0.161625
  31 H :    0.172022
  32 H :    0.163166
  33 H :    0.131286
  34 H :    0.240958
  35 H :    0.170917
Sum of atomic charges:   -0.0000000

LOEWDIN ATOMIC CHARGES
----------------------
   0 C :    0.103540
   1 C :   -0.014675
   2 O :    0.286220
   3 C :   -0.421497
   4 O :    0.124762
   5 C :   -0.090902
   6 C :   -0.074927
   7 C :    0.128159
   8 N :    0.404781
   9 C :   -0.458565
  10 S :   -0.036679
  11 N :    0.396481
  12 C :   -0.048291
  13 C :   -0.043790
  14 C :    0.022767
  15 C :    0.042544
  16 C :   -0.000949
  17 C :   -0.193759
  18 O :    0.394130
  19 C :    0.029807
  20 H :   -0.020431
  21 H :   -0.020812
  22 H :   -0.033562
  23 H :   -0.023082
  24 H :   -0.031495
  25 H :   -0.015225
  26 H :   -0.005423
  27 H :   -0.017242
  28 H :   -0.058533
  29 H :   -0.063256
  30 H :   -0.005618
  31 H :   -0.021729
  32 H :   -0.019372
  33 H :   -0.035222
  34 H :   -0.153840
  35 H :   -0.024316

  Mayer bond orders larger than 0.100000
B(  0-C ,  1-C ) :   0.9603 B(  0-C , 20-H ) :   0.9666 B(  0-C , 21-H ) :   0.9753
B(  0-C , 22-H ) :   0.9704 B(  1-C ,  2-O ) :   0.9028 B(  1-C , 23-H ) :   0.9826
B(  1-C , 24-H ) :   0.9786 B(  2-O ,  3-C ) :   1.1115 B(  3-C ,  4-O ) :   2.0739
B(  3-C ,  5-C ) :   0.9646 B(  5-C ,  6-C ) :   1.6974 B(  5-C , 12-C ) :   0.9415
B(  6-C ,  7-C ) :   0.9454 B(  6-C ,  8-N ) :   1.1243 B(  7-C , 25-H ) :   0.9665
B(  7-C , 26-H ) :   0.9649 B(  7-C , 27-H ) :   0.9886 B(  8-N ,  9-C ) :   1.1885
B(  8-N , 28-H ) :   0.9476 B(  9-C , 10-S ) :   1.6114 B(  9-C , 11-N ) :   1.2982
B( 11-N , 12-C ) :   0.9796 B( 11-N , 29-H ) :   0.9487 B( 12-C , 13-C ) :   0.9673
B( 12-C , 30-H ) :   0.9938 B( 13-C , 14-C ) :   1.3872 B( 13-C , 19-C ) :   1.3542
B( 14-C , 15-C ) :   1.3958 B( 14-C , 31-H ) :   0.9588 B( 15-C , 16-C ) :   1.3605
B( 15-C , 32-H ) :   0.9705 B( 16-C , 17-C ) :   1.3308 B( 16-C , 33-H ) :   0.9849
B( 17-C , 18-O ) :   1.1074 B( 17-C , 19-C ) :   1.3666 B( 18-O , 34-H ) :   0.9799
B( 19-C , 35-H ) :   0.9586

MP2 TOTAL ENERGY:    -1274.323274773 Eh
FINAL SINGLE POINT ENERGY     -1274.323274773164

DIPOLE MOMENT
-------------
                                X             Y             Z
Electronic contribution:      8.90492       7.06750       6.98113
Nuclear contribution   :    -10.44733      -8.24393      -7.59832
                        -----------------------------------------
Total Dipole Moment    :     -1.54241      -1.17643      -0.61719
                        -----------------------------------------
Magnitude (a.u.)       :      2.03567
Magnitude (Debye)      :      5.17426

Rotational constants in cm-1:     0.011332     0.009364     0.006477
Rotational constants in MHz :   339.718033   280.715688   194.188124

                             ****ORCA TERMINATED NORMALLY****
TOTAL RUN TIME: 0 days 1 hours 55 minutes 2 seconds 579 msec
