                         Program Version 4.2.0 -  RELEASE  -
|  1> ! ri-mp2 cc-pvtz cc-pvtz/c TightSCF NoKeepInts
|  2>
|  3> %scf
|  4>   MaxCore 4096
|  5> end
|  6> *xyz  0  1
|  7>     C       14.2959721   16.7933803   16.0069324
|  8>     C       15.1757358   15.6360848   15.4889286
|  9>     O       16.3795568   16.0614712   14.8046274
| 10>     C       17.4708137   16.5828967   15.4504958
| 11>     O       18.5832054   16.1206248   15.2771892
| 12>     C       17.2146521   17.6614355   16.4438946
| 13>     C       16.8090917   18.8843014   16.0254191
| 14>     C       16.3525649   19.2768275   14.6349323
| 15>     N       16.8762922   19.9880898   16.8770508
| 16>     C       17.5467020   19.9966383   18.0722827
| 17>     S       17.6800283   21.3676724   18.9871431
| 18>     N       18.1252624   18.8123017   18.4594800
| 19>     C       17.9514635   17.5163203   17.7733418
| 20>     C       17.3779750   16.4003877   18.6329793
| 21>     C       17.9233623   15.1060148   18.5635325
| 22>     C       17.3792489   14.0603589   19.3277047
| 23>     C       16.2778426   14.3110138   20.1641110
| 24>     C       15.7281775   15.5988154   20.2293351
| 25>     O       14.6574988   15.8409796   21.0264536
| 26>     C       16.2713280   16.6377726   19.4667707
| 27>     H       14.6999541   17.2430433   16.9203166
| 28>     H       13.2985889   16.4123673   16.2586182
| 29>     H       14.1688347   17.5666409   15.2411304
| 30>     H       15.4356976   14.9694559   16.3228596
| 31>     H       14.5771014   15.0489106   14.7804356
| 32>     H       16.2763613   18.4258555   13.9494212
| 33>     H       17.0604832   19.9835373   14.1833395
| 34>     H       15.3674734   19.7581477   14.6641439
| 35>     H       16.4953378   20.8739969   16.5839568
| 36>     H       18.6120751   18.8453234   19.3465178
| 37>     H       18.9965876   17.2922469   17.5116403
| 38>     H       18.7676476   14.9092894   17.9053805
| 39>     H       17.8098346   13.0620694   19.2671301
| 40>     H       15.8539138   13.5058133   20.7552322
| 41>     H       14.4620995   15.0233115   21.5087831
| 42>     H       15.8282352   17.6266029   19.5264895
| 43> *
| 44>
| 45>                          ****END OF INPUT****

CARTESIAN COORDINATES (ANGSTROEM)
---------------------------------
  C     14.295972   16.793380   16.006932
  C     15.175736   15.636085   15.488929
  O     16.379557   16.061471   14.804627
  C     17.470814   16.582897   15.450496
  O     18.583205   16.120625   15.277189
  C     17.214652   17.661435   16.443895
  C     16.809092   18.884301   16.025419
  C     16.352565   19.276827   14.634932
  N     16.876292   19.988090   16.877051
  C     17.546702   19.996638   18.072283
  S     17.680028   21.367672   18.987143
  N     18.125262   18.812302   18.459480
  C     17.951463   17.516320   17.773342
  C     17.377975   16.400388   18.632979
  C     17.923362   15.106015   18.563532
  C     17.379249   14.060359   19.327705
  C     16.277843   14.311014   20.164111
  C     15.728177   15.598815   20.229335
  O     14.657499   15.840980   21.026454
  C     16.271328   16.637773   19.466771
  H     14.699954   17.243043   16.920317
  H     13.298589   16.412367   16.258618
  H     14.168835   17.566641   15.241130
  H     15.435698   14.969456   16.322860
  H     14.577101   15.048911   14.780436
  H     16.276361   18.425856   13.949421
  H     17.060483   19.983537   14.183339
  H     15.367473   19.758148   14.664144
  H     16.495338   20.873997   16.583957
  H     18.612075   18.845323   19.346518
  H     18.996588   17.292247   17.511640
  H     18.767648   14.909289   17.905380
  H     17.809835   13.062069   19.267130
  H     15.853914   13.505813   20.755232
  H     14.462100   15.023312   21.508783
  H     15.828235   17.626603   19.526490

 Total Charge           Charge          ....    0
 Multiplicity           Mult            ....    1
 Number of Electrons    NEL             ....  154
 Basis Dimension        Dim             ....  828

ORBITAL ENERGIES
----------------

  NO   OCC          E(Eh)            E(eV)
   0   2.0000     -91.889437     -2500.4387
   1   2.0000     -20.601716      -560.6012
   2   2.0000     -20.593813      -560.3861
   3   2.0000     -20.553967      -559.3019
   4   2.0000     -15.626706      -425.2243
   5   2.0000     -15.609640      -424.7599
   6   2.0000     -11.397746      -310.1484
   7   2.0000     -11.385477      -309.8146
   8   2.0000     -11.330678      -308.3234
   9   2.0000     -11.319498      -308.0192
  10   2.0000     -11.310424      -307.7723
  11   2.0000     -11.308273      -307.7137
  12   2.0000     -11.266988      -306.5903
  13   2.0000     -11.262401      -306.4655
  14   2.0000     -11.260066      -306.4020
  15   2.0000     -11.259986      -306.3998
  16   2.0000     -11.248507      -306.0874
  17   2.0000     -11.244401      -305.9757
  18   2.0000     -11.242044      -305.9116
  19   2.0000     -11.233468      -305.6782
  20   2.0000      -8.894541      -242.0328
  21   2.0000      -6.576122      -178.9454
  22   2.0000      -6.574111      -178.8907
  23   2.0000      -6.573528      -178.8748
  24   2.0000      -1.446256       -39.3546
  25   2.0000      -1.421434       -38.6792
  26   2.0000      -1.359631       -36.9974
  27   2.0000      -1.340020       -36.4638
  28   2.0000      -1.238930       -33.7130
  29   2.0000      -1.163443       -31.6589
  30   2.0000      -1.125865       -30.6363
  31   2.0000      -1.049252       -28.5516
  32   2.0000      -1.037640       -28.2356
  33   2.0000      -1.021185       -27.7879
  34   2.0000      -1.005676       -27.3658
  35   2.0000      -0.990038       -26.9403
  36   2.0000      -0.926922       -25.2228
  37   2.0000      -0.894551       -24.3420
  38   2.0000      -0.851597       -23.1731
  39   2.0000      -0.842680       -22.9305
  40   2.0000      -0.839269       -22.8377
  41   2.0000      -0.830250       -22.5923
  42   2.0000      -0.753917       -20.5151
  43   2.0000      -0.737281       -20.0624
  44   2.0000      -0.729821       -19.8594
  45   2.0000      -0.699459       -19.0333
  46   2.0000      -0.689870       -18.7723
  47   2.0000      -0.679132       -18.4801
  48   2.0000      -0.674934       -18.3659
  49   2.0000      -0.664469       -18.0811
  50   2.0000      -0.653499       -17.7826
  51   2.0000      -0.645763       -17.5721
  52   2.0000      -0.639034       -17.3890
  53   2.0000      -0.614108       -16.7107
  54   2.0000      -0.607636       -16.5346
  55   2.0000      -0.605417       -16.4742
  56   2.0000      -0.601168       -16.3586
  57   2.0000      -0.593641       -16.1538
  58   2.0000      -0.580002       -15.7827
  59   2.0000      -0.576394       -15.6845
  60   2.0000      -0.564240       -15.3537
  61   2.0000      -0.556101       -15.1323
  62   2.0000      -0.542851       -14.7717
  63   2.0000      -0.531186       -14.4543
  64   2.0000      -0.523307       -14.2399
  65   2.0000      -0.513615       -13.9762
  66   2.0000      -0.502675       -13.6785
  67   2.0000      -0.495989       -13.4965
  68   2.0000      -0.489179       -13.3112
  69   2.0000      -0.464917       -12.6510
  70   2.0000      -0.458901       -12.4873
  71   2.0000      -0.452328       -12.3085
  72   2.0000      -0.354883        -9.6568
  73   2.0000      -0.352936        -9.6039
  74   2.0000      -0.329139        -8.9563
  75   2.0000      -0.327007        -8.8983
  76   2.0000      -0.319288        -8.6883
  77   0.0000       0.085385         2.3235
  78   0.0000       0.101141         2.7522
  79   0.0000       0.119945         3.2639
  80   0.0000       0.123477         3.3600
  81   0.0000       0.128658         3.5010

MULLIKEN ATOMIC CHARGES
-----------------------
   0 C :   -0.330256
   1 C :    0.039914
   2 O :   -0.348139
   3 C :    0.418699
   4 O :   -0.371588
   5 C :   -0.224978
   6 C :    0.163057
   7 C :   -0.336844
   8 N :   -0.138424
   9 C :    0.207884
  10 S :   -0.442916
  11 N :   -0.225064
  12 C :    0.079214
  13 C :    0.028377
  14 C :   -0.231011
  15 C :   -0.126788
  16 C :   -0.278869
  17 C :    0.317496
  18 O :   -0.354880
  19 C :   -0.265940
  20 H :    0.117423
  21 H :    0.121918
  22 H :    0.099824
  23 H :    0.102394
  24 H :    0.120453
  25 H :    0.132009
  26 H :    0.146222
  27 H :    0.115794
  28 H :    0.198296
  29 H :    0.201792
  30 H :    0.168508
  31 H :    0.176529
  32 H :    0.166006
  33 H :    0.133033
  34 H :    0.241611
  35 H :    0.179244
Sum of atomic charges:    0.0000000

LOEWDIN ATOMIC CHARGES
----------------------
   0 C :    0.102043
   1 C :   -0.012629
   2 O :    0.286926
   3 C :   -0.416754
   4 O :    0.128514
   5 C :   -0.083652
   6 C :   -0.085839
   7 C :    0.123758
   8 N :    0.404200
   9 C :   -0.455669
  10 S :   -0.038396
  11 N :    0.395968
  12 C :   -0.050627
  13 C :   -0.044242
  14 C :    0.018305
  15 C :    0.043785
  16 C :   -0.000427
  17 C :   -0.191298
  18 O :    0.395870
  19 C :    0.028462
  20 H :   -0.034292
  21 H :   -0.022656
  22 H :   -0.029801
  23 H :   -0.027769
  24 H :   -0.019358
  25 H :   -0.012130
  26 H :   -0.009088
  27 H :   -0.018231
  28 H :   -0.056322
  29 H :   -0.064227
  30 H :   -0.004092
  31 H :   -0.021464
  32 H :   -0.018317
  33 H :   -0.034454
  34 H :   -0.152813
  35 H :   -0.023286

  Mayer bond orders larger than 0.100000
B(  0-C ,  1-C ) :   0.9578 B(  0-C , 20-H ) :   0.9689 B(  0-C , 21-H ) :   0.9792
B(  0-C , 22-H ) :   0.9762 B(  1-C ,  2-O ) :   0.9011 B(  1-C , 23-H ) :   0.9762
B(  1-C , 24-H ) :   0.9839 B(  2-O ,  3-C ) :   1.1368 B(  3-C ,  4-O ) :   2.1115
B(  3-C ,  5-C ) :   0.9298 B(  5-C ,  6-C ) :   1.7058 B(  5-C , 12-C ) :   0.9313
B(  6-C ,  7-C ) :   0.9487 B(  6-C ,  8-N ) :   1.1116 B(  7-C , 25-H ) :   0.9740
B(  7-C , 26-H ) :   0.9667 B(  7-C , 27-H ) :   0.9683 B(  8-N ,  9-C ) :   1.1980
B(  8-N , 28-H ) :   0.9500 B(  9-C , 10-S ) :   1.6106 B(  9-C , 11-N ) :   1.2891
B( 11-N , 12-C ) :   0.9839 B( 11-N , 29-H ) :   0.9481 B( 12-C , 13-C ) :   0.9632
B( 12-C , 30-H ) :   0.9913 B( 13-C , 14-C ) :   1.3835 B( 13-C , 19-C ) :   1.3458
B( 14-C , 15-C ) :   1.3938 B( 14-C , 31-H ) :   0.9602 B( 15-C , 16-C ) :   1.3618
B( 15-C , 32-H ) :   0.9693 B( 16-C , 17-C ) :   1.3303 B( 16-C , 33-H ) :   0.9845
B( 17-C , 18-O ) :   1.1109 B( 17-C , 19-C ) :   1.3654 B( 18-O , 34-H ) :   0.9790
B( 19-C , 35-H ) :   0.9545

MP2 TOTAL ENERGY:    -1274.324550191 Eh
FINAL SINGLE POINT ENERGY     -1274.324550191199

DIPOLE MOMENT
-------------
                                X             Y             Z
Electronic contribution:      9.26707       5.98626       6.79262
Nuclear contribution   :    -10.79737      -7.45770      -7.07750
                        -----------------------------------------
Total Dipole Moment    :     -1.53030      -1.47144      -0.28489
                        -----------------------------------------
Magnitude (a.u.)       :      2.14199
Magnitude (Debye)      :      5.44449

Rotational constants in cm-1:     0.011761     0.009145     0.006610
Rotational constants in MHz :   352.587786   274.162235   198.151169

                             ****ORCA TERMINATED NORMALLY****
TOTAL RUN TIME: 0 days 1 hours 47 minutes 51 seconds 919 msec
