                         Program Version 4.2.0 -  RELEASE  -
|  1> ! ri-mp2 cc-pvtz cc-pvtz/c TightSCF NoKeepInts
|  2>
|  3> %scf
|  4>   MaxCore 4096
|  5> end
|  6> *xyz  0  1
|  7>     C       14.7684022   14.3097518   16.4760212
|  8>     C       15.2150106   15.6828679   15.9412824
|  9>     O       16.6311884   15.7302792   15.6907923
| 10>     C       17.0305407   16.9441870   15.2173049
| 11>     O       17.0047556   17.1582942   14.0180389
| 12>     C       17.2651197   17.9906557   16.2780225
| 13>     C       17.2419190   19.3088276   15.9426913
| 14>     C       16.7408302   19.9010838   14.6377949
| 15>     N       17.6605901   20.2948298   16.8374528
| 16>     C       18.2325198   20.0376446   18.0539075
| 17>     S       18.6335046   21.2519060   19.1041053
| 18>     N       18.4307383   18.7164407   18.3724097
| 19>     C       17.9287975   17.5563072   17.6048301
| 20>     C       17.1369665   16.6004940   18.4915234
| 21>     C       17.5481827   15.2605330   18.6411064
| 22>     C       16.7897482   14.3591541   19.4083408
| 23>     C       15.6067665   14.8006097   20.0239835
| 24>     C       15.2342426   16.1479327   19.9328530
| 25>     O       14.1125277   16.5776719   20.5604884
| 26>     C       16.0001128   17.0483009   19.1851971
| 27>     H       14.7796078   13.5582705   15.6781384
| 28>     H       13.7407257   14.3882670   16.8543578
| 29>     H       15.4000974   13.9446519   17.2875618
| 30>     H       14.6577497   15.9178822   15.0253940
| 31>     H       14.9682621   16.4422197   16.6928473
| 32>     H       17.4863772   19.7721333   13.8412466
| 33>     H       16.5002857   20.9683492   14.7067396
| 34>     H       15.8269922   19.3911061   14.3093202
| 35>     H       17.5512739   21.2699502   16.6018715
| 36>     H       18.7999178   18.5651240   19.3034912
| 37>     H       18.8666073   17.0655588   17.3079744
| 38>     H       18.4453560   14.9045552   18.1400512
| 39>     H       17.0957073   13.3164509   19.4897222
| 40>     H       14.9857748   14.0983574   20.5698096
| 41>     H       13.7675252   15.8285065   21.0698782
| 42>     H       15.7022765   18.0908453   19.1414495
| 43> *
| 44>
| 45>                          ****END OF INPUT****

CARTESIAN COORDINATES (ANGSTROEM)
---------------------------------
  C     14.768402   14.309752   16.476021
  C     15.215011   15.682868   15.941282
  O     16.631188   15.730279   15.690792
  C     17.030541   16.944187   15.217305
  O     17.004756   17.158294   14.018039
  C     17.265120   17.990656   16.278022
  C     17.241919   19.308828   15.942691
  C     16.740830   19.901084   14.637795
  N     17.660590   20.294830   16.837453
  C     18.232520   20.037645   18.053908
  S     18.633505   21.251906   19.104105
  N     18.430738   18.716441   18.372410
  C     17.928798   17.556307   17.604830
  C     17.136966   16.600494   18.491523
  C     17.548183   15.260533   18.641106
  C     16.789748   14.359154   19.408341
  C     15.606766   14.800610   20.023983
  C     15.234243   16.147933   19.932853
  O     14.112528   16.577672   20.560488
  C     16.000113   17.048301   19.185197
  H     14.779608   13.558271   15.678138
  H     13.740726   14.388267   16.854358
  H     15.400097   13.944652   17.287562
  H     14.657750   15.917882   15.025394
  H     14.968262   16.442220   16.692847
  H     17.486377   19.772133   13.841247
  H     16.500286   20.968349   14.706740
  H     15.826992   19.391106   14.309320
  H     17.551274   21.269950   16.601872
  H     18.799918   18.565124   19.303491
  H     18.866607   17.065559   17.307974
  H     18.445356   14.904555   18.140051
  H     17.095707   13.316451   19.489722
  H     14.985775   14.098357   20.569810
  H     13.767525   15.828506   21.069878
  H     15.702276   18.090845   19.141450

 Total Charge           Charge          ....    0
 Multiplicity           Mult            ....    1
 Number of Electrons    NEL             ....  154
 Basis Dimension        Dim             ....  828

ORBITAL ENERGIES
----------------

  NO   OCC          E(Eh)            E(eV)
   0   2.0000     -91.892552     -2500.5235
   1   2.0000     -20.602125      -560.6123
   2   2.0000     -20.582710      -560.0840
   3   2.0000     -20.550857      -559.2172
   4   2.0000     -15.631809      -425.3631
   5   2.0000     -15.611279      -424.8045
   6   2.0000     -11.392305      -310.0004
   7   2.0000     -11.387262      -309.8632
   8   2.0000     -11.338881      -308.5466
   9   2.0000     -11.319460      -308.0182
  10   2.0000     -11.316265      -307.9312
  11   2.0000     -11.295298      -307.3607
  12   2.0000     -11.267876      -306.6145
  13   2.0000     -11.262161      -306.4590
  14   2.0000     -11.259719      -306.3925
  15   2.0000     -11.253984      -306.2365
  16   2.0000     -11.248769      -306.0946
  17   2.0000     -11.245525      -306.0063
  18   2.0000     -11.244441      -305.9768
  19   2.0000     -11.225180      -305.4527
  20   2.0000      -8.897552      -242.1147
  21   2.0000      -6.579109      -179.0267
  22   2.0000      -6.577124      -178.9726
  23   2.0000      -6.576522      -178.9563
  24   2.0000      -1.449923       -39.4544
  25   2.0000      -1.422813       -38.7167
  26   2.0000      -1.354533       -36.8587
  27   2.0000      -1.342556       -36.5328
  28   2.0000      -1.241357       -33.7790
  29   2.0000      -1.162770       -31.6406
  30   2.0000      -1.122295       -30.5392
  31   2.0000      -1.047743       -28.5105
  32   2.0000      -1.031215       -28.0608
  33   2.0000      -1.021023       -27.7834
  34   2.0000      -0.999754       -27.2047
  35   2.0000      -0.988204       -26.8904
  36   2.0000      -0.926191       -25.2029
  37   2.0000      -0.874820       -23.8050
  38   2.0000      -0.850518       -23.1438
  39   2.0000      -0.842367       -22.9220
  40   2.0000      -0.839980       -22.8570
  41   2.0000      -0.834523       -22.7085
  42   2.0000      -0.761957       -20.7339
  43   2.0000      -0.737498       -20.0683
  44   2.0000      -0.725907       -19.7529
  45   2.0000      -0.700584       -19.0639
  46   2.0000      -0.688424       -18.7330
  47   2.0000      -0.681753       -18.5514
  48   2.0000      -0.674786       -18.3619
  49   2.0000      -0.657572       -17.8935
  50   2.0000      -0.648988       -17.6599
  51   2.0000      -0.642012       -17.4700
  52   2.0000      -0.631517       -17.1845
  53   2.0000      -0.624392       -16.9906
  54   2.0000      -0.611764       -16.6470
  55   2.0000      -0.605359       -16.4727
  56   2.0000      -0.601203       -16.3596
  57   2.0000      -0.580370       -15.7927
  58   2.0000      -0.573828       -15.6147
  59   2.0000      -0.567579       -15.4446
  60   2.0000      -0.554772       -15.0961
  61   2.0000      -0.546305       -14.8657
  62   2.0000      -0.535054       -14.5596
  63   2.0000      -0.527868       -14.3640
  64   2.0000      -0.520139       -14.1537
  65   2.0000      -0.515856       -14.0371
  66   2.0000      -0.507370       -13.8062
  67   2.0000      -0.502203       -13.6656
  68   2.0000      -0.482049       -13.1172
  69   2.0000      -0.466778       -12.7017
  70   2.0000      -0.458913       -12.4876
  71   2.0000      -0.448812       -12.2128
  72   2.0000      -0.358119        -9.7449
  73   2.0000      -0.351540        -9.5659
  74   2.0000      -0.331141        -9.0108
  75   2.0000      -0.326105        -8.8738
  76   2.0000      -0.321954        -8.7608
  77   0.0000       0.072639         1.9766
  78   0.0000       0.096893         2.6366
  79   0.0000       0.119736         3.2582
  80   0.0000       0.126624         3.4456
  81   0.0000       0.128577         3.4988

MULLIKEN ATOMIC CHARGES
-----------------------
   0 C :   -0.287576
   1 C :    0.022337
   2 O :   -0.359305
   3 C :    0.478563
   4 O :   -0.388712
   5 C :   -0.285754
   6 C :    0.171371
   7 C :   -0.268401
   8 N :   -0.127994
   9 C :    0.211219
  10 S :   -0.435008
  11 N :   -0.212806
  12 C :    0.053441
  13 C :    0.007491
  14 C :   -0.164427
  15 C :   -0.140726
  16 C :   -0.288494
  17 C :    0.324849
  18 O :   -0.357360
  19 C :   -0.249250
  20 H :    0.108929
  21 H :    0.090886
  22 H :    0.109826
  23 H :    0.114889
  24 H :    0.093242
  25 H :    0.136083
  26 H :    0.095246
  27 H :    0.124545
  28 H :    0.201005
  29 H :    0.199927
  30 H :    0.150227
  31 H :    0.149161
  32 H :    0.170114
  33 H :    0.134951
  34 H :    0.241956
  35 H :    0.175558
Sum of atomic charges:   -0.0000000

LOEWDIN ATOMIC CHARGES
----------------------
   0 C :    0.116020
   1 C :   -0.025332
   2 O :    0.289831
   3 C :   -0.421594
   4 O :    0.126463
   5 C :   -0.100415
   6 C :   -0.059890
   7 C :    0.129559
   8 N :    0.405622
   9 C :   -0.455514
  10 S :   -0.033065
  11 N :    0.392286
  12 C :   -0.049156
  13 C :   -0.041041
  14 C :    0.023032
  15 C :    0.042412
  16 C :    0.001689
  17 C :   -0.193989
  18 O :    0.396675
  19 C :    0.032622
  20 H :   -0.028109
  21 H :   -0.022742
  22 H :   -0.031428
  23 H :   -0.029895
  24 H :   -0.040360
  25 H :   -0.004390
  26 H :   -0.023702
  27 H :   -0.007015
  28 H :   -0.054606
  29 H :   -0.064102
  30 H :   -0.013286
  31 H :   -0.027454
  32 H :   -0.019928
  33 H :   -0.034819
  34 H :   -0.152316
  35 H :   -0.022061

  Mayer bond orders larger than 0.100000
B(  0-C ,  1-C ) :   0.9755 B(  0-C , 20-H ) :   0.9826 B(  0-C , 21-H ) :   0.9764
B(  0-C , 22-H ) :   0.9714 B(  1-C ,  2-O ) :   0.8877 B(  1-C , 23-H ) :   0.9784
B(  1-C , 24-H ) :   0.9649 B(  2-O ,  3-C ) :   1.1156 B(  3-C ,  4-O ) :   2.0668
B(  3-C ,  5-C ) :   1.0163 B(  5-C ,  6-C ) :   1.6534 B(  5-C , 12-C ) :   0.9612
B(  6-C ,  7-C ) :   0.9619 B(  6-C ,  8-N ) :   1.1556 B(  7-C , 25-H ) :   0.9567
B(  7-C , 26-H ) :   0.9871 B(  7-C , 27-H ) :   0.9672 B(  8-N ,  9-C ) :   1.1884
B(  8-N , 28-H ) :   0.9463 B(  9-C , 10-S ) :   1.6139 B(  9-C , 11-N ) :   1.2952
B( 11-N , 12-C ) :   0.9879 B( 11-N , 29-H ) :   0.9474 B( 12-C , 13-C ) :   0.9609
B( 12-C , 30-H ) :   1.0017 B( 13-C , 14-C ) :   1.3615 B( 13-C , 19-C ) :   1.3570
B( 14-C , 15-C ) :   1.3924 B( 14-C , 31-H ) :   0.9722 B( 15-C , 16-C ) :   1.3474
B( 15-C , 32-H ) :   0.9722 B( 16-C , 17-C ) :   1.3339 B( 16-C , 33-H ) :   0.9843
B( 17-C , 18-O ) :   1.1063 B( 17-C , 19-C ) :   1.3540 B( 18-O , 34-H ) :   0.9784
B( 19-C , 35-H ) :   0.9580

MP2 TOTAL ENERGY:    -1274.323895249 Eh
FINAL SINGLE POINT ENERGY     -1274.323895248600

DIPOLE MOMENT
-------------
                                X             Y             Z
Electronic contribution:      9.13974      10.76147       5.19611
Nuclear contribution   :    -10.25781     -12.17917      -5.08249
                        -----------------------------------------
Total Dipole Moment    :     -1.11807      -1.41770       0.11362
                        -----------------------------------------
Magnitude (a.u.)       :      1.80910
Magnitude (Debye)      :      4.59837

Rotational constants in cm-1:     0.013073     0.008651     0.006082
Rotational constants in MHz :   391.916371   259.341253   182.326304

                             ****ORCA TERMINATED NORMALLY****
TOTAL RUN TIME: 0 days 1 hours 48 minutes 12 seconds 212 msec
