                         Program Version 4.2.0 -  RELEASE  -
|  1> ! ri-mp2 cc-pvtz cc-pvtz/c TightSCF NoKeepInts
|  2>
|  3> %scf
|  4>   MaxCore 4096
|  5> end
|  6> *xyz  0  1
|  7>     C       15.6890813   14.3449413   14.3437222
|  8>     C       14.8296924   15.3356403   15.1469609
|  9>     O       15.7323258   16.1847718   15.8791682
| 10>     C       15.6119050   17.5466458   15.8346597
| 11>     O       14.7946911   18.1080600   15.1248515
| 12>     C       16.5808404   18.2403011   16.7557366
| 13>     C       16.8045525   19.5758968   16.6510776
| 14>     C       15.9943778   20.5826369   15.8604670
| 15>     N       17.8838449   20.1785987   17.3014111
| 16>     C       18.8958216   19.4948196   17.9186774
| 17>     S       20.1970067   20.2685648   18.5850178
| 18>     N       18.7860317   18.1276416   17.9369337
| 19>     C       17.6185151   17.3564534   17.4695992
| 20>     C       17.0355109   16.4621823   18.5561249
| 21>     C       17.1506218   15.0623306   18.4715755
| 22>     C       16.6149763   14.2403816   19.4774372
| 23>     C       15.9626628   14.8235950   20.5774192
| 24>     C       15.8506432   16.2182268   20.6654195
| 25>     O       15.2226185   16.7837610   21.7269637
| 26>     C       16.3846611   17.0335774   19.6626546
| 27>     H       15.0517082   13.6563560   13.7757560
| 28>     H       16.3246522   13.7523380   15.0132730
| 29>     H       16.3333490   14.8795997   13.6345924
| 30>     H       14.1957716   15.9024561   14.4519466
| 31>     H       14.1770219   14.7946889   15.8443378
| 32>     H       14.9301224   20.5098405   16.1189869
| 33>     H       16.0841458   20.3915487   14.7835309
| 34>     H       16.3023418   21.6193472   16.0403535
| 35>     H       17.9875481   21.1803721   17.2759061
| 36>     H       19.5313541   17.6519033   18.4294618
| 37>     H       18.0888787   16.7522341   16.6809455
| 38>     H       17.6494239   14.6109218   17.6181826
| 39>     H       16.7053753   13.1582008   19.4025026
| 40>     H       15.5474277   14.1931481   21.3567273
| 41>     H       14.9428940   16.0668353   22.3156213
| 42>     H       16.2946044   18.1111826   19.7499983
| 43> *
| 44>
| 45>                          ****END OF INPUT****

CARTESIAN COORDINATES (ANGSTROEM)
---------------------------------
  C     15.689081   14.344941   14.343722
  C     14.829692   15.335640   15.146961
  O     15.732326   16.184772   15.879168
  C     15.611905   17.546646   15.834660
  O     14.794691   18.108060   15.124851
  C     16.580840   18.240301   16.755737
  C     16.804552   19.575897   16.651078
  C     15.994378   20.582637   15.860467
  N     17.883845   20.178599   17.301411
  C     18.895822   19.494820   17.918677
  S     20.197007   20.268565   18.585018
  N     18.786032   18.127642   17.936934
  C     17.618515   17.356453   17.469599
  C     17.035511   16.462182   18.556125
  C     17.150622   15.062331   18.471576
  C     16.614976   14.240382   19.477437
  C     15.962663   14.823595   20.577419
  C     15.850643   16.218227   20.665419
  O     15.222618   16.783761   21.726964
  C     16.384661   17.033577   19.662655
  H     15.051708   13.656356   13.775756
  H     16.324652   13.752338   15.013273
  H     16.333349   14.879600   13.634592
  H     14.195772   15.902456   14.451947
  H     14.177022   14.794689   15.844338
  H     14.930122   20.509840   16.118987
  H     16.084146   20.391549   14.783531
  H     16.302342   21.619347   16.040353
  H     17.987548   21.180372   17.275906
  H     19.531354   17.651903   18.429462
  H     18.088879   16.752234   16.680945
  H     17.649424   14.610922   17.618183
  H     16.705375   13.158201   19.402503
  H     15.547428   14.193148   21.356727
  H     14.942894   16.066835   22.315621
  H     16.294604   18.111183   19.749998

 Total Charge           Charge          ....    0
 Multiplicity           Mult            ....    1
 Number of Electrons    NEL             ....  154
 Basis Dimension        Dim             ....  828

ORBITAL ENERGIES
----------------

  NO   OCC          E(Eh)            E(eV)
   0   2.0000     -91.888639     -2500.4170
   1   2.0000     -20.601991      -560.6087
   2   2.0000     -20.595555      -560.4335
   3   2.0000     -20.540690      -558.9406
   4   2.0000     -15.628948      -425.2853
   5   2.0000     -15.606778      -424.6820
   6   2.0000     -11.395730      -310.0936
   7   2.0000     -11.383247      -309.7539
   8   2.0000     -11.337212      -308.5012
   9   2.0000     -11.312655      -307.8330
  10   2.0000     -11.307283      -307.6868
  11   2.0000     -11.295695      -307.3715
  12   2.0000     -11.259905      -306.3976
  13   2.0000     -11.259406      -306.3840
  14   2.0000     -11.254161      -306.2413
  15   2.0000     -11.251349      -306.1648
  16   2.0000     -11.242622      -305.9273
  17   2.0000     -11.238053      -305.8030
  18   2.0000     -11.237966      -305.8006
  19   2.0000     -11.231069      -305.6129
  20   2.0000      -8.893712      -242.0102
  21   2.0000      -6.575286      -178.9226
  22   2.0000      -6.573287      -178.8682
  23   2.0000      -6.572697      -178.8522
  24   2.0000      -1.450933       -39.4819
  25   2.0000      -1.415218       -38.5100
  26   2.0000      -1.354669       -36.8624
  27   2.0000      -1.340185       -36.4683
  28   2.0000      -1.238043       -33.6889
  29   2.0000      -1.156721       -31.4760
  30   2.0000      -1.120767       -30.4976
  31   2.0000      -1.043185       -28.3865
  32   2.0000      -1.040183       -28.3048
  33   2.0000      -1.014092       -27.5948
  34   2.0000      -0.996286       -27.1103
  35   2.0000      -0.984426       -26.7876
  36   2.0000      -0.921374       -25.0719
  37   2.0000      -0.890555       -24.2332
  38   2.0000      -0.846080       -23.0230
  39   2.0000      -0.837172       -22.7806
  40   2.0000      -0.833292       -22.6750
  41   2.0000      -0.816849       -22.2276
  42   2.0000      -0.764840       -20.8124
  43   2.0000      -0.732835       -19.9415
  44   2.0000      -0.721052       -19.6208
  45   2.0000      -0.694384       -18.8952
  46   2.0000      -0.686433       -18.6788
  47   2.0000      -0.679611       -18.4932
  48   2.0000      -0.675808       -18.3897
  49   2.0000      -0.660551       -17.9745
  50   2.0000      -0.646489       -17.5919
  51   2.0000      -0.640247       -17.4220
  52   2.0000      -0.631979       -17.1970
  53   2.0000      -0.605949       -16.4887
  54   2.0000      -0.603566       -16.4239
  55   2.0000      -0.599236       -16.3060
  56   2.0000      -0.598139       -16.2762
  57   2.0000      -0.577236       -15.7074
  58   2.0000      -0.569474       -15.4962
  59   2.0000      -0.567749       -15.4492
  60   2.0000      -0.562616       -15.3096
  61   2.0000      -0.545980       -14.8569
  62   2.0000      -0.541276       -14.7289
  63   2.0000      -0.528937       -14.3931
  64   2.0000      -0.523429       -14.2432
  65   2.0000      -0.512801       -13.9540
  66   2.0000      -0.500575       -13.6213
  67   2.0000      -0.496290       -13.5047
  68   2.0000      -0.484307       -13.1787
  69   2.0000      -0.463149       -12.6029
  70   2.0000      -0.456643       -12.4259
  71   2.0000      -0.448175       -12.1955
  72   2.0000      -0.352883        -9.6024
  73   2.0000      -0.348948        -9.4954
  74   2.0000      -0.327763        -8.9189
  75   2.0000      -0.320126        -8.7111
  76   2.0000      -0.317777        -8.6472
  77   0.0000       0.077989         2.1222
  78   0.0000       0.105965         2.8834
  79   0.0000       0.123422         3.3585
  80   0.0000       0.132880         3.6159
  81   0.0000       0.135523         3.6878

MULLIKEN ATOMIC CHARGES
-----------------------
   0 C :   -0.266565
   1 C :    0.011223
   2 O :   -0.341135
   3 C :    0.446380
   4 O :   -0.437833
   5 C :   -0.224804
   6 C :    0.170632
   7 C :   -0.269233
   8 N :   -0.126109
   9 C :    0.209843
  10 S :   -0.442232
  11 N :   -0.214239
  12 C :    0.050575
  13 C :    0.048009
  14 C :   -0.177452
  15 C :   -0.135304
  16 C :   -0.275567
  17 C :    0.316706
  18 O :   -0.356990
  19 C :   -0.247534
  20 H :    0.094063
  21 H :    0.090726
  22 H :    0.095766
  23 H :    0.127771
  24 H :    0.100548
  25 H :    0.133828
  26 H :    0.128630
  27 H :    0.094277
  28 H :    0.199870
  29 H :    0.200378
  30 H :    0.152834
  31 H :    0.151456
  32 H :    0.159481
  33 H :    0.129407
  34 H :    0.240381
  35 H :    0.162212
Sum of atomic charges:   -0.0000000

LOEWDIN ATOMIC CHARGES
----------------------
   0 C :    0.103987
   1 C :   -0.011038
   2 O :    0.312270
   3 C :   -0.413842
   4 O :    0.093878
   5 C :   -0.094515
   6 C :   -0.056474
   7 C :    0.130874
   8 N :    0.407102
   9 C :   -0.456912
  10 S :   -0.036809
  11 N :    0.394771
  12 C :   -0.055067
  13 C :   -0.039368
  14 C :    0.016649
  15 C :    0.039049
  16 C :   -0.000411
  17 C :   -0.189513
  18 O :    0.394932
  19 C :    0.033539
  20 H :   -0.025205
  21 H :   -0.030657
  22 H :   -0.026683
  23 H :   -0.027974
  24 H :   -0.029000
  25 H :   -0.004143
  26 H :   -0.005303
  27 H :   -0.023734
  28 H :   -0.057156
  29 H :   -0.064273
  30 H :   -0.014395
  31 H :   -0.030516
  32 H :   -0.021612
  33 H :   -0.035542
  34 H :   -0.154126
  35 H :   -0.022780

  Mayer bond orders larger than 0.100000
B(  0-C ,  1-C ) :   0.9714 B(  0-C , 20-H ) :   0.9765 B(  0-C , 21-H ) :   0.9795
B(  0-C , 22-H ) :   0.9782 B(  1-C ,  2-O ) :   0.8886 B(  1-C , 23-H ) :   0.9746
B(  1-C , 24-H ) :   0.9794 B(  2-O ,  3-C ) :   1.1788 B(  3-C ,  4-O ) :   1.9642
B(  3-C ,  5-C ) :   1.0657 B(  5-C ,  6-C ) :   1.6442 B(  5-C , 12-C ) :   0.9540
B(  6-C ,  7-C ) :   0.9657 B(  6-C ,  8-N ) :   1.1533 B(  7-C , 25-H ) :   0.9615
B(  7-C , 26-H ) :   0.9587 B(  7-C , 27-H ) :   0.9904 B(  8-N ,  9-C ) :   1.1878
B(  8-N , 28-H ) :   0.9464 B(  9-C , 10-S ) :   1.6060 B(  9-C , 11-N ) :   1.3089
B( 11-N , 12-C ) :   0.9703 B( 11-N , 29-H ) :   0.9484 B( 12-C , 13-C ) :   0.9644
B( 12-C , 30-H ) :   1.0018 B( 13-C , 14-C ) :   1.3550 B( 13-C , 19-C ) :   1.3810
B( 14-C , 15-C ) :   1.3955 B( 14-C , 31-H ) :   0.9708 B( 15-C , 16-C ) :   1.3600
B( 15-C , 32-H ) :   0.9710 B( 16-C , 17-C ) :   1.3344 B( 16-C , 33-H ) :   0.9853
B( 17-C , 18-O ) :   1.1041 B( 17-C , 19-C ) :   1.3648 B( 18-O , 34-H ) :   0.9800
B( 19-C , 35-H ) :   0.9597

MP2 TOTAL ENERGY:    -1274.343156987 Eh
FINAL SINGLE POINT ENERGY     -1274.343156986538

DIPOLE MOMENT
-------------
                                X             Y             Z
Electronic contribution:      8.02750      10.21394       9.91699
Nuclear contribution   :     -9.22656     -11.81274     -10.30960
                        -----------------------------------------
Total Dipole Moment    :     -1.19906      -1.59880      -0.39261
                        -----------------------------------------
Magnitude (a.u.)       :      2.03668
Magnitude (Debye)      :      5.17683

Rotational constants in cm-1:     0.010563     0.008647     0.005894
Rotational constants in MHz :   316.659775   259.241573   176.696696

                             ****ORCA TERMINATED NORMALLY****
TOTAL RUN TIME: 0 days 1 hours 39 minutes 21 seconds 304 msec
