                         Program Version 4.2.0 -  RELEASE  -
|  1> ! ri-mp2 cc-pvtz cc-pvtz/c TightSCF NoKeepInts
|  2>
|  3> %scf
|  4>   MaxCore 4096
|  5> end
|  6> *xyz  0  1
|  7>     C       14.3598535   16.5464112   16.0123476
|  8>     C       15.3817975   15.3893207   15.9630090
|  9>     O       16.5503400   15.7015601   15.1680720
| 10>     C       17.3863996   16.7874169   15.2656767
| 11>     O       18.2776184   16.9608908   14.4556676
| 12>     C       17.1463396   17.7597897   16.3691450
| 13>     C       16.8785040   19.0395352   16.0227153
| 14>     C       16.4365148   19.5031390   14.6514071
| 15>     N       17.0423944   20.0877087   16.9294041
| 16>     C       17.7122629   19.9692104   18.1183709
| 17>     S       17.9809682   21.2688544   19.1049894
| 18>     N       18.1734434   18.7153215   18.4381466
| 19>     C       17.8642655   17.4782709   17.6935653
| 20>     C       17.2578549   16.3766880   18.5454203
| 21>     C       17.8475488   15.0999510   18.5844257
| 22>     C       17.2783773   14.0766563   19.3609220
| 23>     C       16.1133362   14.3336801   20.1042557
| 24>     C       15.5279250   15.6068596   20.0705150
| 25>     O       14.3999799   15.8562615   20.7813576
| 26>     C       16.0957216   16.6234975   19.2961879
| 27>     H       14.6346250   17.3120655   16.7453343
| 28>     H       13.3780856   16.1594714   16.3117866
| 29>     H       14.2474101   17.0129173   15.0262254
| 30>     H       15.6627630   15.0951637   16.9788904
| 31>     H       14.8928374   14.5176256   15.5091541
| 32>     H       15.7755652   18.7699140   14.1739965
| 33>     H       17.3082521   19.6309816   13.9957156
| 34>     H       15.8956411   20.4563741   14.6864003
| 35>     H       16.7551607   21.0208071   16.6797234
| 36>     H       18.6591038   18.6565041   19.3245599
| 37>     H       18.8830926   17.1882825   17.3963744
| 38>     H       18.7451712   14.8975161   18.0046600
| 39>     H       17.7397109   13.0904310   19.3844238
| 40>     H       15.6705452   13.5455067   20.7047623
| 41>     H       14.1969327   15.0613180   21.2976483
| 42>     H       15.6306581   17.6040978   19.2827439
| 43> *
| 44>
| 45>                          ****END OF INPUT****

CARTESIAN COORDINATES (ANGSTROEM)
---------------------------------
  C     14.359853   16.546411   16.012348
  C     15.381797   15.389321   15.963009
  O     16.550340   15.701560   15.168072
  C     17.386400   16.787417   15.265677
  O     18.277618   16.960891   14.455668
  C     17.146340   17.759790   16.369145
  C     16.878504   19.039535   16.022715
  C     16.436515   19.503139   14.651407
  N     17.042394   20.087709   16.929404
  C     17.712263   19.969210   18.118371
  S     17.980968   21.268854   19.104989
  N     18.173443   18.715322   18.438147
  C     17.864265   17.478271   17.693565
  C     17.257855   16.376688   18.545420
  C     17.847549   15.099951   18.584426
  C     17.278377   14.076656   19.360922
  C     16.113336   14.333680   20.104256
  C     15.527925   15.606860   20.070515
  O     14.399980   15.856261   20.781358
  C     16.095722   16.623497   19.296188
  H     14.634625   17.312065   16.745334
  H     13.378086   16.159471   16.311787
  H     14.247410   17.012917   15.026225
  H     15.662763   15.095164   16.978890
  H     14.892837   14.517626   15.509154
  H     15.775565   18.769914   14.173996
  H     17.308252   19.630982   13.995716
  H     15.895641   20.456374   14.686400
  H     16.755161   21.020807   16.679723
  H     18.659104   18.656504   19.324560
  H     18.883093   17.188282   17.396374
  H     18.745171   14.897516   18.004660
  H     17.739711   13.090431   19.384424
  H     15.670545   13.545507   20.704762
  H     14.196933   15.061318   21.297648
  H     15.630658   17.604098   19.282744

 Total Charge           Charge          ....    0
 Multiplicity           Mult            ....    1
 Number of Electrons    NEL             ....  154
 Basis Dimension        Dim             ....  828

ORBITAL ENERGIES
----------------

  NO   OCC          E(Eh)            E(eV)
   0   2.0000     -91.889254     -2500.4337
   1   2.0000     -20.606825      -560.7402
   2   2.0000     -20.596827      -560.4681
   3   2.0000     -20.549828      -559.1892
   4   2.0000     -15.625398      -425.1887
   5   2.0000     -15.610591      -424.7858
   6   2.0000     -11.397624      -310.1451
   7   2.0000     -11.384780      -309.7956
   8   2.0000     -11.325624      -308.1859
   9   2.0000     -11.325160      -308.1733
  10   2.0000     -11.316684      -307.9426
  11   2.0000     -11.302182      -307.5480
  12   2.0000     -11.271851      -306.7227
  13   2.0000     -11.266680      -306.5820
  14   2.0000     -11.257252      -306.3254
  15   2.0000     -11.255425      -306.2757
  16   2.0000     -11.255303      -306.2724
  17   2.0000     -11.250161      -306.1324
  18   2.0000     -11.249768      -306.1217
  19   2.0000     -11.232287      -305.6461
  20   2.0000      -8.894342      -242.0274
  21   2.0000      -6.575921      -178.9399
  22   2.0000      -6.573915      -178.8853
  23   2.0000      -6.573331      -178.8694
  24   2.0000      -1.442496       -39.2523
  25   2.0000      -1.426565       -38.8188
  26   2.0000      -1.357369       -36.9359
  27   2.0000      -1.338995       -36.4359
  28   2.0000      -1.239182       -33.7199
  29   2.0000      -1.168858       -31.8063
  30   2.0000      -1.125918       -30.6378
  31   2.0000      -1.052880       -28.6503
  32   2.0000      -1.035246       -28.1705
  33   2.0000      -1.026792       -27.9404
  34   2.0000      -1.004421       -27.3317
  35   2.0000      -0.989964       -26.9383
  36   2.0000      -0.927840       -25.2478
  37   2.0000      -0.897497       -24.4221
  38   2.0000      -0.851654       -23.1747
  39   2.0000      -0.845706       -23.0128
  40   2.0000      -0.844707       -22.9856
  41   2.0000      -0.830121       -22.5888
  42   2.0000      -0.752381       -20.4733
  43   2.0000      -0.740830       -20.1590
  44   2.0000      -0.722209       -19.6523
  45   2.0000      -0.705523       -19.1982
  46   2.0000      -0.693280       -18.8651
  47   2.0000      -0.678653       -18.4671
  48   2.0000      -0.676627       -18.4119
  49   2.0000      -0.663383       -18.0516
  50   2.0000      -0.652053       -17.7433
  51   2.0000      -0.647929       -17.6311
  52   2.0000      -0.637494       -17.3471
  53   2.0000      -0.618057       -16.8182
  54   2.0000      -0.614181       -16.7127
  55   2.0000      -0.608655       -16.5623
  56   2.0000      -0.605184       -16.4679
  57   2.0000      -0.585769       -15.9396
  58   2.0000      -0.578621       -15.7451
  59   2.0000      -0.570263       -15.5176
  60   2.0000      -0.567103       -15.4317
  61   2.0000      -0.552029       -15.0215
  62   2.0000      -0.538912       -14.6645
  63   2.0000      -0.535846       -14.5811
  64   2.0000      -0.528706       -14.3868
  65   2.0000      -0.517341       -14.0776
  66   2.0000      -0.505223       -13.7478
  67   2.0000      -0.503829       -13.7099
  68   2.0000      -0.490156       -13.3378
  69   2.0000      -0.463181       -12.6038
  70   2.0000      -0.452847       -12.3226
  71   2.0000      -0.447192       -12.1687
  72   2.0000      -0.360156        -9.8003
  73   2.0000      -0.350737        -9.5440
  74   2.0000      -0.334671        -9.1069
  75   2.0000      -0.328236        -8.9318
  76   2.0000      -0.318161        -8.6576
  77   0.0000       0.085922         2.3381
  78   0.0000       0.095237         2.5915
  79   0.0000       0.119801         3.2599
  80   0.0000       0.126746         3.4489
  81   0.0000       0.129018         3.5108

MULLIKEN ATOMIC CHARGES
-----------------------
   0 C :   -0.329467
   1 C :    0.036554
   2 O :   -0.316517
   3 C :    0.412368
   4 O :   -0.379061
   5 C :   -0.234710
   6 C :    0.153934
   7 C :   -0.293538
   8 N :   -0.133127
   9 C :    0.212187
  10 S :   -0.442558
  11 N :   -0.214013
  12 C :    0.043264
  13 C :   -0.000311
  14 C :   -0.192386
  15 C :   -0.129819
  16 C :   -0.272508
  17 C :    0.312383
  18 O :   -0.354246
  19 C :   -0.248315
  20 H :    0.112511
  21 H :    0.117964
  22 H :    0.106176
  23 H :    0.098517
  24 H :    0.125926
  25 H :    0.114628
  26 H :    0.148239
  27 H :    0.098905
  28 H :    0.197430
  29 H :    0.199973
  30 H :    0.165261
  31 H :    0.160803
  32 H :    0.165563
  33 H :    0.135870
  34 H :    0.242365
  35 H :    0.179757
Sum of atomic charges:   -0.0000000

LOEWDIN ATOMIC CHARGES
----------------------
   0 C :    0.101503
   1 C :   -0.013360
   2 O :    0.298428
   3 C :   -0.416828
   4 O :    0.125180
   5 C :   -0.088139
   6 C :   -0.086417
   7 C :    0.129488
   8 N :    0.404443
   9 C :   -0.454799
  10 S :   -0.037809
  11 N :    0.395614
  12 C :   -0.056108
  13 C :   -0.046857
  14 C :    0.016598
  15 C :    0.045069
  16 C :    0.002398
  17 C :   -0.191106
  18 O :    0.397852
  19 C :    0.033556
  20 H :   -0.036605
  21 H :   -0.023013
  22 H :   -0.030290
  23 H :   -0.034490
  24 H :   -0.020257
  25 H :   -0.012192
  26 H :   -0.003000
  27 H :   -0.019795
  28 H :   -0.058382
  29 H :   -0.064316
  30 H :   -0.007629
  31 H :   -0.025247
  32 H :   -0.017697
  33 H :   -0.032801
  34 H :   -0.151774
  35 H :   -0.021216

  Mayer bond orders larger than 0.100000
B(  0-C ,  1-C ) :   0.9541 B(  0-C , 20-H ) :   0.9705 B(  0-C , 21-H ) :   0.9774
B(  0-C , 22-H ) :   0.9765 B(  1-C ,  2-O ) :   0.9055 B(  1-C , 23-H ) :   0.9669
B(  1-C , 24-H ) :   0.9846 B(  2-O ,  3-C ) :   1.2016 B(  3-C ,  4-O ) :   2.1186
B(  3-C ,  5-C ) :   0.9148 B(  5-C ,  6-C ) :   1.7196 B(  5-C , 12-C ) :   0.9466
B(  6-C ,  7-C ) :   0.9399 B(  6-C ,  8-N ) :   1.1169 B(  7-C , 25-H ) :   0.9774
B(  7-C , 26-H ) :   0.9588 B(  7-C , 27-H ) :   0.9845 B(  8-N ,  9-C ) :   1.2014
B(  8-N , 28-H ) :   0.9496 B(  9-C , 10-S ) :   1.6112 B(  9-C , 11-N ) :   1.2845
B( 11-N , 12-C ) :   0.9809 B( 11-N , 29-H ) :   0.9475 B( 12-C , 13-C ) :   0.9531
B( 12-C , 30-H ) :   1.0016 B( 13-C , 14-C ) :   1.3706 B( 13-C , 19-C ) :   1.3554
B( 14-C , 15-C ) :   1.3956 B( 14-C , 31-H ) :   0.9690 B( 15-C , 16-C ) :   1.3646
B( 15-C , 32-H ) :   0.9696 B( 16-C , 17-C ) :   1.3276 B( 16-C , 33-H ) :   0.9831
B( 17-C , 18-O ) :   1.1133 B( 17-C , 19-C ) :   1.3623 B( 18-O , 34-H ) :   0.9782
B( 19-C , 35-H ) :   0.9541

MP2 TOTAL ENERGY:    -1274.320223050 Eh
FINAL SINGLE POINT ENERGY     -1274.320223049845

DIPOLE MOMENT
-------------
                                X             Y             Z
Electronic contribution:      8.99480       6.47290       6.18323
Nuclear contribution   :    -10.51307      -8.24115      -5.90291
                        -----------------------------------------
Total Dipole Moment    :     -1.51827      -1.76826       0.28032
                        -----------------------------------------
Magnitude (a.u.)       :      2.34743
Magnitude (Debye)      :      5.96671

Rotational constants in cm-1:     0.012287     0.009018     0.006489
Rotational constants in MHz :   368.359059   270.357045   194.533312

                             ****ORCA TERMINATED NORMALLY****
TOTAL RUN TIME: 0 days 1 hours 47 minutes 50 seconds 355 msec
