                         Program Version 4.2.0 -  RELEASE  -
|  1> ! ri-mp2 cc-pvtz cc-pvtz/c TightSCF NoKeepInts
|  2>
|  3> %scf
|  4>   MaxCore 4096
|  5> end
|  6> *xyz  0  1
|  7>     C       14.4261452   16.7233107   16.1234044
|  8>     C       15.2120788   15.5544227   15.4905969
|  9>     O       16.5225206   15.8538903   14.9355289
| 10>     C       17.5428154   16.6282778   15.4367093
| 11>     O       18.6948058   16.4326000   15.0982815
| 12>     C       17.2114394   17.6763867   16.4334773
| 13>     C       16.8577232   18.9020658   15.9853098
| 14>     C       16.4945140   19.2597506   14.5593197
| 15>     N       16.9045708   20.0150652   16.8261542
| 16>     C       17.5182481   20.0216403   18.0520192
| 17>     S       17.6395983   21.3989017   18.9592482
| 18>     N       18.0542821   18.8295451   18.4771227
| 19>     C       17.8835494   17.5296881   17.7965822
| 20>     C       17.2841825   16.4155641   18.6417822
| 21>     C       17.7574808   15.0983789   18.5019582
| 22>     C       17.1946191   14.0536783   19.2536622
| 23>     C       16.1478908   14.3284840   20.1503417
| 24>     C       15.6717619   15.6395324   20.2887603
| 25>     O       14.6548229   15.9059486   21.1461609
| 26>     C       16.2334080   16.6777692   19.5386103
| 27>     H       14.8320230   17.0193540   17.0959637
| 28>     H       13.3908385   16.4088142   16.3036442
| 29>     H       14.3877131   17.5903590   15.4558422
| 30>     H       15.3318001   14.7790979   16.2593273
| 31>     H       14.5994139   15.1148229   14.6928250
| 32>     H       16.1376152   18.3929938   13.9900956
| 33>     H       17.3715747   19.6555253   14.0310086
| 34>     H       15.7036221   20.0186687   14.5205964
| 35>     H       16.5631798   20.9066960   16.5035217
| 36>     H       18.5052036   18.8634476   19.3828973
| 37>     H       18.9354122   17.2941880   17.5741172
| 38>     H       18.5625544   14.8837754   17.8017668
| 39>     H       17.5697465   13.0378664   19.1390138
| 40>     H       15.7099962   13.5244108   20.7328147
| 41>     H       14.4352298   15.0807231   21.6045668
| 42>     H       15.8446200   17.6843564   19.6549687
| 43> *
| 44>
| 45>                          ****END OF INPUT****

CARTESIAN COORDINATES (ANGSTROEM)
---------------------------------
  C     14.426145   16.723311   16.123404
  C     15.212079   15.554423   15.490597
  O     16.522521   15.853890   14.935529
  C     17.542815   16.628278   15.436709
  O     18.694806   16.432600   15.098281
  C     17.211439   17.676387   16.433477
  C     16.857723   18.902066   15.985310
  C     16.494514   19.259751   14.559320
  N     16.904571   20.015065   16.826154
  C     17.518248   20.021640   18.052019
  S     17.639598   21.398902   18.959248
  N     18.054282   18.829545   18.477123
  C     17.883549   17.529688   17.796582
  C     17.284183   16.415564   18.641782
  C     17.757481   15.098379   18.501958
  C     17.194619   14.053678   19.253662
  C     16.147891   14.328484   20.150342
  C     15.671762   15.639532   20.288760
  O     14.654823   15.905949   21.146161
  C     16.233408   16.677769   19.538610
  H     14.832023   17.019354   17.095964
  H     13.390838   16.408814   16.303644
  H     14.387713   17.590359   15.455842
  H     15.331800   14.779098   16.259327
  H     14.599414   15.114823   14.692825
  H     16.137615   18.392994   13.990096
  H     17.371575   19.655525   14.031009
  H     15.703622   20.018669   14.520596
  H     16.563180   20.906696   16.503522
  H     18.505204   18.863448   19.382897
  H     18.935412   17.294188   17.574117
  H     18.562554   14.883775   17.801767
  H     17.569746   13.037866   19.139014
  H     15.709996   13.524411   20.732815
  H     14.435230   15.080723   21.604567
  H     15.844620   17.684356   19.654969

 Total Charge           Charge          ....    0
 Multiplicity           Mult            ....    1
 Number of Electrons    NEL             ....  154
 Basis Dimension        Dim             ....  828

ORBITAL ENERGIES
----------------

  NO   OCC          E(Eh)            E(eV)
   0   2.0000     -91.888770     -2500.4205
   1   2.0000     -20.603349      -560.6456
   2   2.0000     -20.598451      -560.5124
   3   2.0000     -20.551497      -559.2347
   4   2.0000     -15.624894      -425.1750
   5   2.0000     -15.610027      -424.7704
   6   2.0000     -11.400182      -310.2147
   7   2.0000     -11.384909      -309.7991
   8   2.0000     -11.324919      -308.1667
   9   2.0000     -11.321627      -308.0771
  10   2.0000     -11.312890      -307.8394
  11   2.0000     -11.310509      -307.7746
  12   2.0000     -11.269955      -306.6711
  13   2.0000     -11.262712      -306.4740
  14   2.0000     -11.262422      -306.4661
  15   2.0000     -11.257750      -306.3389
  16   2.0000     -11.250193      -306.1333
  17   2.0000     -11.245913      -306.0169
  18   2.0000     -11.244915      -305.9897
  19   2.0000     -11.235494      -305.7333
  20   2.0000      -8.893874      -242.0146
  21   2.0000      -6.575458      -178.9273
  22   2.0000      -6.573445      -178.8725
  23   2.0000      -6.572865      -178.8568
  24   2.0000      -1.443181       -39.2710
  25   2.0000      -1.423036       -38.7228
  26   2.0000      -1.357920       -36.9509
  27   2.0000      -1.338304       -36.4171
  28   2.0000      -1.238106       -33.6906
  29   2.0000      -1.165333       -31.7103
  30   2.0000      -1.126556       -30.6551
  31   2.0000      -1.050743       -28.5922
  32   2.0000      -1.039490       -28.2860
  33   2.0000      -1.023478       -27.8503
  34   2.0000      -1.005417       -27.3588
  35   2.0000      -0.990496       -26.9528
  36   2.0000      -0.927338       -25.2342
  37   2.0000      -0.900234       -24.4966
  38   2.0000      -0.851594       -23.1730
  39   2.0000      -0.843552       -22.9542
  40   2.0000      -0.840822       -22.8799
  41   2.0000      -0.829219       -22.5642
  42   2.0000      -0.750108       -20.4115
  43   2.0000      -0.737465       -20.0674
  44   2.0000      -0.727679       -19.8011
  45   2.0000      -0.701271       -19.0826
  46   2.0000      -0.689926       -18.7738
  47   2.0000      -0.677674       -18.4404
  48   2.0000      -0.675058       -18.3693
  49   2.0000      -0.663974       -18.0677
  50   2.0000      -0.655126       -17.8269
  51   2.0000      -0.651057       -17.7162
  52   2.0000      -0.637568       -17.3491
  53   2.0000      -0.615402       -16.7459
  54   2.0000      -0.608671       -16.5628
  55   2.0000      -0.606446       -16.5022
  56   2.0000      -0.601521       -16.3682
  57   2.0000      -0.590954       -16.0807
  58   2.0000      -0.580782       -15.8039
  59   2.0000      -0.578897       -15.7526
  60   2.0000      -0.565288       -15.3823
  61   2.0000      -0.557644       -15.1743
  62   2.0000      -0.542046       -14.7498
  63   2.0000      -0.533696       -14.5226
  64   2.0000      -0.522110       -14.2073
  65   2.0000      -0.514138       -13.9904
  66   2.0000      -0.503998       -13.7145
  67   2.0000      -0.502329       -13.6691
  68   2.0000      -0.489285       -13.3141
  69   2.0000      -0.462364       -12.5816
  70   2.0000      -0.455498       -12.3947
  71   2.0000      -0.451977       -12.2989
  72   2.0000      -0.356283        -9.6949
  73   2.0000      -0.350391        -9.5346
  74   2.0000      -0.329850        -8.9757
  75   2.0000      -0.328007        -8.9255
  76   2.0000      -0.318052        -8.6546
  77   0.0000       0.090881         2.4730
  78   0.0000       0.102034         2.7765
  79   0.0000       0.118462         3.2235
  80   0.0000       0.121393         3.3033
  81   0.0000       0.127568         3.4713

MULLIKEN ATOMIC CHARGES
-----------------------
   0 C :   -0.331374
   1 C :    0.045355
   2 O :   -0.337806
   3 C :    0.413859
   4 O :   -0.378171
   5 C :   -0.213974
   6 C :    0.148880
   7 C :   -0.321553
   8 N :   -0.140877
   9 C :    0.213538
  10 S :   -0.444375
  11 N :   -0.236839
  12 C :    0.091663
  13 C :    0.036369
  14 C :   -0.251525
  15 C :   -0.128038
  16 C :   -0.278173
  17 C :    0.325337
  18 O :   -0.353674
  19 C :   -0.270247
  20 H :    0.121457
  21 H :    0.123222
  22 H :    0.097981
  23 H :    0.102258
  24 H :    0.119810
  25 H :    0.117080
  26 H :    0.150954
  27 H :    0.107965
  28 H :    0.196750
  29 H :    0.204335
  30 H :    0.171186
  31 H :    0.173409
  32 H :    0.167137
  33 H :    0.133667
  34 H :    0.241741
  35 H :    0.182673
Sum of atomic charges:   -0.0000000

LOEWDIN ATOMIC CHARGES
----------------------
   0 C :    0.101724
   1 C :   -0.010279
   2 O :    0.289892
   3 C :   -0.417271
   4 O :    0.124872
   5 C :   -0.082046
   6 C :   -0.094159
   7 C :    0.124515
   8 N :    0.403498
   9 C :   -0.454056
  10 S :   -0.039550
  11 N :    0.396218
  12 C :   -0.051236
  13 C :   -0.042897
  14 C :    0.016602
  15 C :    0.044756
  16 C :   -0.000555
  17 C :   -0.190085
  18 O :    0.396917
  19 C :    0.028348
  20 H :   -0.032049
  21 H :   -0.021426
  22 H :   -0.031134
  23 H :   -0.027883
  24 H :   -0.020012
  25 H :   -0.012277
  26 H :   -0.005880
  27 H :   -0.018173
  28 H :   -0.058306
  29 H :   -0.064828
  30 H :   -0.003442
  31 H :   -0.022284
  32 H :   -0.017881
  33 H :   -0.034231
  34 H :   -0.152495
  35 H :   -0.022907

  Mayer bond orders larger than 0.100000
B(  0-C ,  1-C ) :   0.9596 B(  0-C , 20-H ) :   0.9674 B(  0-C , 21-H ) :   0.9778
B(  0-C , 22-H ) :   0.9760 B(  1-C ,  2-O ) :   0.9045 B(  1-C , 23-H ) :   0.9765
B(  1-C , 24-H ) :   0.9810 B(  2-O ,  3-C ) :   1.1684 B(  3-C ,  4-O ) :   2.1087
B(  3-C ,  5-C ) :   0.9240 B(  5-C ,  6-C ) :   1.7182 B(  5-C , 12-C ) :   0.9249
B(  6-C ,  7-C ) :   0.9460 B(  6-C ,  8-N ) :   1.1060 B(  7-C , 25-H ) :   0.9782
B(  7-C , 26-H ) :   0.9624 B(  7-C , 27-H ) :   0.9763 B(  8-N ,  9-C ) :   1.2042
B(  8-N , 28-H ) :   0.9501 B(  9-C , 10-S ) :   1.6068 B(  9-C , 11-N ) :   1.2853
B( 11-N , 12-C ) :   0.9740 B( 11-N , 29-H ) :   0.9464 B( 12-C , 13-C ) :   0.9635
B( 12-C , 30-H ) :   0.9925 B( 13-C , 14-C ) :   1.3797 B( 13-C , 19-C ) :   1.3422
B( 14-C , 15-C ) :   1.3978 B( 14-C , 31-H ) :   0.9628 B( 15-C , 16-C ) :   1.3601
B( 15-C , 32-H ) :   0.9686 B( 16-C , 17-C ) :   1.3312 B( 16-C , 33-H ) :   0.9843
B( 17-C , 18-O ) :   1.1120 B( 17-C , 19-C ) :   1.3600 B( 18-O , 34-H ) :   0.9788
B( 19-C , 35-H ) :   0.9544

MP2 TOTAL ENERGY:    -1274.318953600 Eh
FINAL SINGLE POINT ENERGY     -1274.318953599810

DIPOLE MOMENT
-------------
                                X             Y             Z
Electronic contribution:      8.87990       6.32981       6.81731
Nuclear contribution   :    -10.54213      -7.96581      -7.03191
                        -----------------------------------------
Total Dipole Moment    :     -1.66223      -1.63599      -0.21460
                        -----------------------------------------
Magnitude (a.u.)       :      2.34212
Magnitude (Debye)      :      5.95320

Rotational constants in cm-1:     0.011903     0.009163     0.006494
Rotational constants in MHz :   356.829590   274.703090   194.682848

                             ****ORCA TERMINATED NORMALLY****
TOTAL RUN TIME: 0 days 1 hours 42 minutes 50 seconds 276 msec
