                         Program Version 4.2.0 -  RELEASE  -
|  1> ! ri-mp2 cc-pvtz cc-pvtz/c TightSCF NoKeepInts
|  2>
|  3> %scf
|  4>   MaxCore 4096
|  5> end
|  6> *xyz  0  1
|  7>     C       14.7962847   15.1264592   13.3783789
|  8>     C       14.6178710   15.5472055   14.8470099
|  9>     O       15.5431004   16.6185698   15.1060300
| 10>     C       16.5711861   16.4228657   15.9821755
| 11>     O       17.0429575   15.3180820   16.1949811
| 12>     C       16.9752340   17.6407552   16.7647243
| 13>     C       16.8742919   18.9020910   16.2669510
| 14>     C       16.1611600   19.3544407   15.0075996
| 15>     N       17.5089843   19.9723691   16.9027310
| 16>     C       18.4368795   19.8416717   17.9003081
| 17>     S       19.2311620   21.1484632   18.5303488
| 18>     N       18.6898520   18.5652160   18.3338713
| 19>     C       17.9417214   17.3612941   17.9231618
| 20>     C       17.2959184   16.6287983   19.0919871
| 21>     C       17.5666463   15.2681822   19.3237857
| 22>     C       16.9719861   14.5950772   20.4042097
| 23>     C       16.1002854   15.2890821   21.2608800
| 24>     C       15.8273306   16.6446177   21.0309349
| 25>     O       14.9829644   17.3160303   21.8540967
| 26>     C       16.4202981   17.3116196   19.9541572
| 27>     H       14.6246065   15.9764515   12.7064904
| 28>     H       14.0875496   14.3313584   13.1169383
| 29>     H       15.8125096   14.7485476   13.2085154
| 30>     H       13.5914047   15.9044246   14.9999662
| 31>     H       14.7810323   14.6880551   15.5124615
| 32>     H       16.5339449   18.8096963   14.1310349
| 33>     H       16.2964200   20.4231609   14.8013472
| 34>     H       15.0821032   19.1722266   15.0861952
| 35>     H       17.3504611   20.9133830   16.5799192
| 36>     H       19.3625325   18.4978115   19.0872184
| 37>     H       18.7576079   16.7615841   17.4939339
| 38>     H       18.2290383   14.7273309   18.6519241
| 39>     H       17.1839834   13.5403335   20.5697534
| 40>     H       15.6378660   14.7727251   22.0954237
| 41>     H       14.6999102   16.6983386   22.5448228
| 42>     H       16.1999157   18.3616819   19.7937328
| 43> *
| 44>
| 45>                          ****END OF INPUT****

CARTESIAN COORDINATES (ANGSTROEM)
---------------------------------
  C     14.796285   15.126459   13.378379
  C     14.617871   15.547206   14.847010
  O     15.543100   16.618570   15.106030
  C     16.571186   16.422866   15.982176
  O     17.042957   15.318082   16.194981
  C     16.975234   17.640755   16.764724
  C     16.874292   18.902091   16.266951
  C     16.161160   19.354441   15.007600
  N     17.508984   19.972369   16.902731
  C     18.436879   19.841672   17.900308
  S     19.231162   21.148463   18.530349
  N     18.689852   18.565216   18.333871
  C     17.941721   17.361294   17.923162
  C     17.295918   16.628798   19.091987
  C     17.566646   15.268182   19.323786
  C     16.971986   14.595077   20.404210
  C     16.100285   15.289082   21.260880
  C     15.827331   16.644618   21.030935
  O     14.982964   17.316030   21.854097
  C     16.420298   17.311620   19.954157
  H     14.624607   15.976451   12.706490
  H     14.087550   14.331358   13.116938
  H     15.812510   14.748548   13.208515
  H     13.591405   15.904425   14.999966
  H     14.781032   14.688055   15.512462
  H     16.533945   18.809696   14.131035
  H     16.296420   20.423161   14.801347
  H     15.082103   19.172227   15.086195
  H     17.350461   20.913383   16.579919
  H     19.362533   18.497811   19.087218
  H     18.757608   16.761584   17.493934
  H     18.229038   14.727331   18.651924
  H     17.183983   13.540333   20.569753
  H     15.637866   14.772725   22.095424
  H     14.699910   16.698339   22.544823
  H     16.199916   18.361682   19.793733

 Total Charge           Charge          ....    0
 Multiplicity           Mult            ....    1
 Number of Electrons    NEL             ....  154
 Basis Dimension        Dim             ....  828

ORBITAL ENERGIES
----------------

  NO   OCC          E(Eh)            E(eV)
   0   2.0000     -91.888012     -2500.3999
   1   2.0000     -20.600514      -560.5685
   2   2.0000     -20.591730      -560.3294
   3   2.0000     -20.546689      -559.1038
   4   2.0000     -15.628587      -425.2755
   5   2.0000     -15.605655      -424.6515
   6   2.0000     -11.396253      -310.1078
   7   2.0000     -11.382554      -309.7350
   8   2.0000     -11.338159      -308.5270
   9   2.0000     -11.307738      -307.6992
  10   2.0000     -11.304186      -307.6025
  11   2.0000     -11.299985      -307.4882
  12   2.0000     -11.260744      -306.4204
  13   2.0000     -11.259116      -306.3761
  14   2.0000     -11.255005      -306.2643
  15   2.0000     -11.247834      -306.0691
  16   2.0000     -11.238023      -305.8022
  17   2.0000     -11.234125      -305.6961
  18   2.0000     -11.230902      -305.6084
  19   2.0000     -11.229095      -305.5592
  20   2.0000      -8.893095      -241.9934
  21   2.0000      -6.574673      -178.9059
  22   2.0000      -6.572670      -178.8514
  23   2.0000      -6.572082      -178.8354
  24   2.0000      -1.453987       -39.5650
  25   2.0000      -1.411473       -38.4081
  26   2.0000      -1.357628       -36.9429
  27   2.0000      -1.339878       -36.4599
  28   2.0000      -1.237009       -33.6607
  29   2.0000      -1.152377       -31.3578
  30   2.0000      -1.120829       -30.4993
  31   2.0000      -1.043618       -28.3983
  32   2.0000      -1.035638       -28.1811
  33   2.0000      -1.009891       -27.4805
  34   2.0000      -0.998552       -27.1720
  35   2.0000      -0.983520       -26.7629
  36   2.0000      -0.920686       -25.0531
  37   2.0000      -0.888736       -24.1837
  38   2.0000      -0.847527       -23.0624
  39   2.0000      -0.835152       -22.7256
  40   2.0000      -0.828030       -22.5318
  41   2.0000      -0.820176       -22.3181
  42   2.0000      -0.759758       -20.6741
  43   2.0000      -0.735803       -20.0222
  44   2.0000      -0.726200       -19.7609
  45   2.0000      -0.690304       -18.7841
  46   2.0000      -0.685891       -18.6640
  47   2.0000      -0.680102       -18.5065
  48   2.0000      -0.671436       -18.2707
  49   2.0000      -0.655639       -17.8408
  50   2.0000      -0.647593       -17.6219
  51   2.0000      -0.639317       -17.3967
  52   2.0000      -0.628001       -17.0888
  53   2.0000      -0.616025       -16.7629
  54   2.0000      -0.602865       -16.4048
  55   2.0000      -0.598367       -16.2824
  56   2.0000      -0.594965       -16.1898
  57   2.0000      -0.583083       -15.8665
  58   2.0000      -0.573001       -15.5921
  59   2.0000      -0.564397       -15.3580
  60   2.0000      -0.561297       -15.2737
  61   2.0000      -0.547412       -14.8958
  62   2.0000      -0.534489       -14.5442
  63   2.0000      -0.528731       -14.3875
  64   2.0000      -0.515844       -14.0368
  65   2.0000      -0.509011       -13.8509
  66   2.0000      -0.501455       -13.6453
  67   2.0000      -0.494130       -13.4460
  68   2.0000      -0.480638       -13.0788
  69   2.0000      -0.463555       -12.6140
  70   2.0000      -0.458018       -12.4633
  71   2.0000      -0.453176       -12.3315
  72   2.0000      -0.353091        -9.6081
  73   2.0000      -0.344506        -9.3745
  74   2.0000      -0.327084        -8.9004
  75   2.0000      -0.317192        -8.6312
  76   2.0000      -0.314401        -8.5553
  77   0.0000       0.076561         2.0833
  78   0.0000       0.111577         3.0362
  79   0.0000       0.121495         3.3060
  80   0.0000       0.135681         3.6921
  81   0.0000       0.139653         3.8001

MULLIKEN ATOMIC CHARGES
-----------------------
   0 C :   -0.270604
   1 C :    0.029023
   2 O :   -0.350499
   3 C :    0.426773
   4 O :   -0.420843
   5 C :   -0.173044
   6 C :    0.158008
   7 C :   -0.281121
   8 N :   -0.129102
   9 C :    0.207316
  10 S :   -0.442436
  11 N :   -0.210898
  12 C :    0.041411
  13 C :    0.031240
  14 C :   -0.168740
  15 C :   -0.134434
  16 C :   -0.277096
  17 C :    0.314134
  18 O :   -0.359019
  19 C :   -0.250739
  20 H :    0.090253
  21 H :    0.092138
  22 H :    0.104765
  23 H :    0.101307
  24 H :    0.110371
  25 H :    0.125823
  26 H :    0.102064
  27 H :    0.128801
  28 H :    0.198872
  29 H :    0.200037
  30 H :    0.155516
  31 H :    0.159210
  32 H :    0.159989
  33 H :    0.128207
  34 H :    0.239907
  35 H :    0.163411
Sum of atomic charges:   -0.0000000

LOEWDIN ATOMIC CHARGES
----------------------
   0 C :    0.104373
   1 C :   -0.013943
   2 O :    0.306018
   3 C :   -0.415806
   4 O :    0.105113
   5 C :   -0.092021
   6 C :   -0.064386
   7 C :    0.125148
   8 N :    0.405475
   9 C :   -0.458624
  10 S :   -0.037647
  11 N :    0.396416
  12 C :   -0.048263
  13 C :   -0.040606
  14 C :    0.024711
  15 C :    0.040813
  16 C :   -0.001181
  17 C :   -0.192498
  18 O :    0.393088
  19 C :    0.029708
  20 H :   -0.029763
  21 H :   -0.026651
  22 H :   -0.023789
  23 H :   -0.029658
  24 H :   -0.026083
  25 H :   -0.009365
  26 H :   -0.021146
  27 H :   -0.009380
  28 H :   -0.058716
  29 H :   -0.063135
  30 H :   -0.008234
  31 H :   -0.023986
  32 H :   -0.021080
  33 H :   -0.036177
  34 H :   -0.154871
  35 H :   -0.023853

  Mayer bond orders larger than 0.100000
B(  0-C ,  1-C ) :   0.9716 B(  0-C , 20-H ) :   0.9791 B(  0-C , 21-H ) :   0.9759
B(  0-C , 22-H ) :   0.9776 B(  1-C ,  2-O ) :   0.8915 B(  1-C , 23-H ) :   0.9817
B(  1-C , 24-H ) :   0.9724 B(  2-O ,  3-C ) :   1.1275 B(  3-C ,  4-O ) :   1.9845
B(  3-C ,  5-C ) :   1.0459 B(  5-C ,  6-C ) :   1.6583 B(  5-C , 12-C ) :   0.9469
B(  6-C ,  7-C ) :   0.9541 B(  6-C ,  8-N ) :   1.1342 B(  7-C , 25-H ) :   0.9656
B(  7-C , 26-H ) :   0.9910 B(  7-C , 27-H ) :   0.9636 B(  8-N ,  9-C ) :   1.1856
B(  8-N , 28-H ) :   0.9468 B(  9-C , 10-S ) :   1.6081 B(  9-C , 11-N ) :   1.3064
B( 11-N , 12-C ) :   0.9757 B( 11-N , 29-H ) :   0.9485 B( 12-C , 13-C ) :   0.9734
B( 12-C , 30-H ) :   0.9971 B( 13-C , 14-C ) :   1.3762 B( 13-C , 19-C ) :   1.3659
B( 14-C , 15-C ) :   1.3972 B( 14-C , 31-H ) :   0.9638 B( 15-C , 16-C ) :   1.3587
B( 15-C , 32-H ) :   0.9712 B( 16-C , 17-C ) :   1.3333 B( 16-C , 33-H ) :   0.9860
B( 17-C , 18-O ) :   1.1035 B( 17-C , 19-C ) :   1.3674 B( 18-O , 34-H ) :   0.9807
B( 19-C , 35-H ) :   0.9602

MP2 TOTAL ENERGY:    -1274.337447344 Eh
FINAL SINGLE POINT ENERGY     -1274.337447343831

DIPOLE MOMENT
-------------
                                X             Y             Z
Electronic contribution:      9.76621       9.56882      12.64017
Nuclear contribution   :    -11.38461     -10.77219     -13.50957
                        -----------------------------------------
Total Dipole Moment    :     -1.61840      -1.20338      -0.86940
                        -----------------------------------------
Magnitude (a.u.)       :      2.19618
Magnitude (Debye)      :      5.58224

Rotational constants in cm-1:     0.009939     0.008802     0.005434
Rotational constants in MHz :   297.973705   263.876301   162.917455

                             ****ORCA TERMINATED NORMALLY****
TOTAL RUN TIME: 0 days 1 hours 32 minutes 15 seconds 801 msec
