                         Program Version 4.2.0 -  RELEASE  -
|  1> ! ri-mp2 cc-pvtz cc-pvtz/c TightSCF NoKeepInts
|  2>
|  3> %scf
|  4>   MaxCore 4096
|  5> end
|  6> *xyz  0  1
|  7>     C       14.4511570   15.7107684   15.9938005
|  8>     C       15.1680067   15.6979707   14.6261782
|  9>     O       16.1766484   16.7245857   14.5861433
| 10>     C       17.1797749   16.6750953   15.5063265
| 11>     O       17.8948574   15.6944103   15.6197020
| 12>     C       17.1697941   17.7995628   16.4992983
| 13>     C       16.8385102   19.0702943   16.1537105
| 14>     C       16.2333101   19.5452532   14.8478165
| 15>     N       17.0935346   20.1340033   17.0226578
| 16>     C       17.8632741   20.0431388   18.1513597
| 17>     S       18.2094331   21.3672725   19.0798508
| 18>     N       18.3500719   18.7978417   18.4605703
| 19>     C       17.9927199   17.5453475   17.7661429
| 20>     C       17.3646345   16.5027194   18.6809045
| 21>     C       17.9025666   15.2061655   18.7663302
| 22>     C       17.3116134   14.2409444   19.5987528
| 23>     C       16.1727897   14.5753337   20.3515119
| 24>     C       15.6329070   15.8659815   20.2655749
| 25>     O       14.5284751   16.1892187   20.9844155
| 26>     C       16.2232087   16.8244203   19.4357805
| 27>     H       15.1252390   15.3922601   16.7996862
| 28>     H       13.5988462   15.0206765   15.9826542
| 29>     H       14.0744874   16.7138246   16.2294654
| 30>     H       15.6232030   14.7127179   14.4550379
| 31>     H       14.4362249   15.8774697   13.8281343
| 32>     H       15.2117673   19.1624538   14.7318299
| 33>     H       16.8244550   19.1938898   13.9926171
| 34>     H       16.1847081   20.6385703   14.7746589
| 35>     H       16.7629230   21.0584287   16.7964620
| 36>     H       18.8983893   18.7548797   19.3103600
| 37>     H       18.9843019   17.2165671   17.4220342
| 38>     H       18.7723699   14.9418755   18.1692096
| 39>     H       17.7332988   13.2387693   19.6520675
| 40>     H       15.7120740   13.8320705   20.9936566
| 41>     H       14.2958510   15.4169217   21.5214937
| 42>     H       15.7915738   17.8182970   19.3818046
| 43> *
| 44>
| 45>                          ****END OF INPUT****

CARTESIAN COORDINATES (ANGSTROEM)
---------------------------------
  C     14.451157   15.710768   15.993800
  C     15.168007   15.697971   14.626178
  O     16.176648   16.724586   14.586143
  C     17.179775   16.675095   15.506326
  O     17.894857   15.694410   15.619702
  C     17.169794   17.799563   16.499298
  C     16.838510   19.070294   16.153710
  C     16.233310   19.545253   14.847817
  N     17.093535   20.134003   17.022658
  C     17.863274   20.043139   18.151360
  S     18.209433   21.367272   19.079851
  N     18.350072   18.797842   18.460570
  C     17.992720   17.545347   17.766143
  C     17.364635   16.502719   18.680904
  C     17.902567   15.206165   18.766330
  C     17.311613   14.240944   19.598753
  C     16.172790   14.575334   20.351512
  C     15.632907   15.865981   20.265575
  O     14.528475   16.189219   20.984416
  C     16.223209   16.824420   19.435780
  H     15.125239   15.392260   16.799686
  H     13.598846   15.020676   15.982654
  H     14.074487   16.713825   16.229465
  H     15.623203   14.712718   14.455038
  H     14.436225   15.877470   13.828134
  H     15.211767   19.162454   14.731830
  H     16.824455   19.193890   13.992617
  H     16.184708   20.638570   14.774659
  H     16.762923   21.058429   16.796462
  H     18.898389   18.754880   19.310360
  H     18.984302   17.216567   17.422034
  H     18.772370   14.941875   18.169210
  H     17.733299   13.238769   19.652067
  H     15.712074   13.832070   20.993657
  H     14.295851   15.416922   21.521494
  H     15.791574   17.818297   19.381805

 Total Charge           Charge          ....    0
 Multiplicity           Mult            ....    1
 Number of Electrons    NEL             ....  154
 Basis Dimension        Dim             ....  828

ORBITAL ENERGIES
----------------

  NO   OCC          E(Eh)            E(eV)
   0   2.0000     -91.889236     -2500.4332
   1   2.0000     -20.594904      -560.4158
   2   2.0000     -20.588587      -560.2439
   3   2.0000     -20.550480      -559.2070
   4   2.0000     -15.629754      -425.3072
   5   2.0000     -15.607046      -424.6893
   6   2.0000     -11.393927      -310.0445
   7   2.0000     -11.384047      -309.7757
   8   2.0000     -11.338285      -308.5304
   9   2.0000     -11.311198      -307.7934
  10   2.0000     -11.305601      -307.6410
  11   2.0000     -11.302582      -307.5589
  12   2.0000     -11.260063      -306.4019
  13   2.0000     -11.259509      -306.3868
  14   2.0000     -11.257967      -306.3448
  15   2.0000     -11.251321      -306.1640
  16   2.0000     -11.241488      -305.8964
  17   2.0000     -11.237257      -305.7813
  18   2.0000     -11.234159      -305.6970
  19   2.0000     -11.229087      -305.5590
  20   2.0000      -8.894311      -242.0265
  21   2.0000      -6.575886      -178.9389
  22   2.0000      -6.573885      -178.8845
  23   2.0000      -6.573295      -178.8684
  24   2.0000      -1.451357       -39.4934
  25   2.0000      -1.414691       -38.4957
  26   2.0000      -1.356700       -36.9177
  27   2.0000      -1.340831       -36.4859
  28   2.0000      -1.238108       -33.6906
  29   2.0000      -1.155679       -31.4476
  30   2.0000      -1.122249       -30.5380
  31   2.0000      -1.044094       -28.4112
  32   2.0000      -1.032209       -28.0878
  33   2.0000      -1.013084       -27.5674
  34   2.0000      -1.001126       -27.2420
  35   2.0000      -0.986367       -26.8404
  36   2.0000      -0.922965       -25.1152
  37   2.0000      -0.895211       -24.3599
  38   2.0000      -0.848707       -23.0945
  39   2.0000      -0.837596       -22.7921
  40   2.0000      -0.831363       -22.6225
  41   2.0000      -0.817321       -22.2404
  42   2.0000      -0.751084       -20.4380
  43   2.0000      -0.735677       -20.0188
  44   2.0000      -0.728239       -19.8164
  45   2.0000      -0.693024       -18.8582
  46   2.0000      -0.686444       -18.6791
  47   2.0000      -0.678169       -18.4539
  48   2.0000      -0.671119       -18.2621
  49   2.0000      -0.661386       -17.9972
  50   2.0000      -0.653341       -17.7783
  51   2.0000      -0.646212       -17.5843
  52   2.0000      -0.634834       -17.2747
  53   2.0000      -0.612394       -16.6641
  54   2.0000      -0.604220       -16.4417
  55   2.0000      -0.600888       -16.3510
  56   2.0000      -0.598491       -16.2858
  57   2.0000      -0.580695       -15.8015
  58   2.0000      -0.575247       -15.6533
  59   2.0000      -0.563047       -15.3213
  60   2.0000      -0.555764       -15.1231
  61   2.0000      -0.549933       -14.9644
  62   2.0000      -0.541540       -14.7360
  63   2.0000      -0.530488       -14.4353
  64   2.0000      -0.519254       -14.1296
  65   2.0000      -0.511172       -13.9097
  66   2.0000      -0.498163       -13.5557
  67   2.0000      -0.493672       -13.4335
  68   2.0000      -0.482013       -13.1162
  69   2.0000      -0.464212       -12.6319
  70   2.0000      -0.458370       -12.4729
  71   2.0000      -0.450278       -12.2527
  72   2.0000      -0.354026        -9.6335
  73   2.0000      -0.347515        -9.4564
  74   2.0000      -0.328309        -8.9337
  75   2.0000      -0.318613        -8.6699
  76   2.0000      -0.318046        -8.6545
  77   0.0000       0.073670         2.0047
  78   0.0000       0.107257         2.9186
  79   0.0000       0.118897         3.2354
  80   0.0000       0.133201         3.6246
  81   0.0000       0.139807         3.8043

MULLIKEN ATOMIC CHARGES
-----------------------
   0 C :   -0.322455
   1 C :    0.038742
   2 O :   -0.374168
   3 C :    0.437142
   4 O :   -0.401482
   5 C :   -0.190817
   6 C :    0.150794
   7 C :   -0.280925
   8 N :   -0.127321
   9 C :    0.207766
  10 S :   -0.440545
  11 N :   -0.211357
  12 C :    0.056740
  13 C :    0.010835
  14 C :   -0.165535
  15 C :   -0.135972
  16 C :   -0.277513
  17 C :    0.314728
  18 O :   -0.358996
  19 C :   -0.248879
  20 H :    0.124317
  21 H :    0.110055
  22 H :    0.097489
  23 H :    0.109878
  24 H :    0.107958
  25 H :    0.123582
  26 H :    0.128720
  27 H :    0.102556
  28 H :    0.198227
  29 H :    0.199217
  30 H :    0.156074
  31 H :    0.163038
  32 H :    0.161432
  33 H :    0.130409
  34 H :    0.240457
  35 H :    0.165807
Sum of atomic charges:   -0.0000000

LOEWDIN ATOMIC CHARGES
----------------------
   0 C :    0.104900
   1 C :   -0.019642
   2 O :    0.293687
   3 C :   -0.420399
   4 O :    0.118045
   5 C :   -0.094816
   6 C :   -0.066838
   7 C :    0.126362
   8 N :    0.405754
   9 C :   -0.457739
  10 S :   -0.036488
  11 N :    0.396174
  12 C :   -0.048108
  13 C :   -0.042950
  14 C :    0.023889
  15 C :    0.041289
  16 C :   -0.001148
  17 C :   -0.193607
  18 O :    0.393750
  19 C :    0.030218
  20 H :   -0.022647
  21 H :   -0.024400
  22 H :   -0.029467
  23 H :   -0.026622
  24 H :   -0.024165
  25 H :   -0.010889
  26 H :   -0.007339
  27 H :   -0.020644
  28 H :   -0.058423
  29 H :   -0.063491
  30 H :   -0.007241
  31 H :   -0.023087
  32 H :   -0.020248
  33 H :   -0.035577
  34 H :   -0.154310
  35 H :   -0.023783

  Mayer bond orders larger than 0.100000
B(  0-C ,  1-C ) :   0.9578 B(  0-C , 20-H ) :   0.9674 B(  0-C , 21-H ) :   0.9771
B(  0-C , 22-H ) :   0.9741 B(  1-C ,  2-O ) :   0.9011 B(  1-C , 23-H ) :   0.9827
B(  1-C , 24-H ) :   0.9835 B(  2-O ,  3-C ) :   1.0810 B(  3-C ,  4-O ) :   2.0267
B(  3-C ,  5-C ) :   1.0199 B(  5-C ,  6-C ) :   1.6701 B(  5-C , 12-C ) :   0.9475
B(  6-C ,  7-C ) :   0.9552 B(  6-C ,  8-N ) :   1.1392 B(  7-C , 25-H ) :   0.9644
B(  7-C , 26-H ) :   0.9655 B(  7-C , 27-H ) :   0.9899 B(  8-N ,  9-C ) :   1.1845
B(  8-N , 28-H ) :   0.9471 B(  9-C , 10-S ) :   1.6117 B(  9-C , 11-N ) :   1.3028
B( 11-N , 12-C ) :   0.9806 B( 11-N , 29-H ) :   0.9488 B( 12-C , 13-C ) :   0.9642
B( 12-C , 30-H ) :   0.9955 B( 13-C , 14-C ) :   1.3822 B( 13-C , 19-C ) :   1.3652
B( 14-C , 15-C ) :   1.3968 B( 14-C , 31-H ) :   0.9617 B( 15-C , 16-C ) :   1.3597
B( 15-C , 32-H ) :   0.9710 B( 16-C , 17-C ) :   1.3320 B( 16-C , 33-H ) :   0.9851
B( 17-C , 18-O ) :   1.1056 B( 17-C , 19-C ) :   1.3655 B( 18-O , 34-H ) :   0.9802
B( 19-C , 35-H ) :   0.9601

MP2 TOTAL ENERGY:    -1274.331267877 Eh
FINAL SINGLE POINT ENERGY     -1274.331267877288

DIPOLE MOMENT
-------------
                                X             Y             Z
Electronic contribution:      9.34483       8.62962       7.41534
Nuclear contribution   :    -10.72684      -9.92324      -8.23480
                        -----------------------------------------
Total Dipole Moment    :     -1.38201      -1.29362      -0.81946
                        -----------------------------------------
Magnitude (a.u.)       :      2.06274
Magnitude (Debye)      :      5.24308

Rotational constants in cm-1:     0.011192     0.009281     0.006271
Rotational constants in MHz :   335.540585   278.242688   187.993065

                             ****ORCA TERMINATED NORMALLY****
TOTAL RUN TIME: 0 days 1 hours 44 minutes 19 seconds 133 msec
