                         Program Version 4.2.0 -  RELEASE  -
|  1> ! ri-mp2 cc-pvtz cc-pvtz/c TightSCF NoKeepInts
|  2>
|  3> %scf
|  4>   MaxCore 4096
|  5> end
|  6> *xyz  0  1
|  7>     C       14.3674017   15.0039800   15.2285406
|  8>     C       15.1334335   15.7977792   14.1478598
|  9>     O       15.8329017   16.9067995   14.7472393
| 10>     C       16.8072775   16.6909045   15.6800624
| 11>     O       17.3931195   15.6245527   15.7739148
| 12>     C       17.0446695   17.8321594   16.6289627
| 13>     C       16.8352432   19.1326123   16.2917004
| 14>     C       16.1366620   19.6780388   15.0615510
| 15>     N       17.3208633   20.1650271   17.0985181
| 16>     C       18.2016909   19.9931271   18.1318993
| 17>     S       18.8182181   21.2751578   18.9756415
| 18>     N       18.5631106   18.7009336   18.4163363
| 19>     C       17.9722127   17.4955005   17.8035772
| 20>     C       17.3421786   16.5530794   18.8208587
| 21>     C       17.7413656   15.2064218   18.8947464
| 22>     C       17.1577891   14.3383598   19.8327465
| 23>     C       16.1674345   14.8216209   20.7051030
| 24>     C       15.7663604   16.1627654   20.6321397
| 25>     O       14.8071419   16.6307921   21.4701094
| 26>     C       16.3487268   17.0241498   19.6968585
| 27>     H       15.0530797   14.4966535   15.9186557
| 28>     H       13.7383043   14.2365522   14.7617379
| 29>     H       13.7181358   15.6688533   15.8114999
| 30>     H       15.8422249   15.1350440   13.6328525
| 31>     H       14.4216474   16.1780338   13.4040593
| 32>     H       16.6149181   19.3088354   14.1456835
| 33>     H       16.1529953   20.7736164   15.0122917
| 34>     H       15.0843564   19.3678718   15.0440633
| 35>     H       17.0816746   21.1207962   16.8885425
| 36>     H       19.1964630   18.5993124   19.1993218
| 37>     H       18.8690455   17.0413894   17.3574823
| 38>     H       18.4958962   14.8285428   18.2087901
| 39>     H       17.4700836   13.2965322   19.8760307
| 40>     H       15.7130499   14.1543006   21.4297539
| 41>     H       14.5499323   15.9003686   22.0524058
| 42>     H       16.0273920   18.0595357   19.6564634
| 43> *
| 44>
| 45>                          ****END OF INPUT****

CARTESIAN COORDINATES (ANGSTROEM)
---------------------------------
  C     14.367402   15.003980   15.228541
  C     15.133434   15.797779   14.147860
  O     15.832902   16.906800   14.747239
  C     16.807278   16.690904   15.680062
  O     17.393120   15.624553   15.773915
  C     17.044669   17.832159   16.628963
  C     16.835243   19.132612   16.291700
  C     16.136662   19.678039   15.061551
  N     17.320863   20.165027   17.098518
  C     18.201691   19.993127   18.131899
  S     18.818218   21.275158   18.975641
  N     18.563111   18.700934   18.416336
  C     17.972213   17.495500   17.803577
  C     17.342179   16.553079   18.820859
  C     17.741366   15.206422   18.894746
  C     17.157789   14.338360   19.832746
  C     16.167434   14.821621   20.705103
  C     15.766360   16.162765   20.632140
  O     14.807142   16.630792   21.470109
  C     16.348727   17.024150   19.696858
  H     15.053080   14.496654   15.918656
  H     13.738304   14.236552   14.761738
  H     13.718136   15.668853   15.811500
  H     15.842225   15.135044   13.632852
  H     14.421647   16.178034   13.404059
  H     16.614918   19.308835   14.145683
  H     16.152995   20.773616   15.012292
  H     15.084356   19.367872   15.044063
  H     17.081675   21.120796   16.888542
  H     19.196463   18.599312   19.199322
  H     18.869045   17.041389   17.357482
  H     18.495896   14.828543   18.208790
  H     17.470084   13.296532   19.876031
  H     15.713050   14.154301   21.429754
  H     14.549932   15.900369   22.052406
  H     16.027392   18.059536   19.656463

 Total Charge           Charge          ....    0
 Multiplicity           Mult            ....    1
 Number of Electrons    NEL             ....  154
 Basis Dimension        Dim             ....  828

ORBITAL ENERGIES
----------------

  NO   OCC          E(Eh)            E(eV)
   0   2.0000     -91.887928     -2500.3976
   1   2.0000     -20.601034      -560.5826
   2   2.0000     -20.592015      -560.3372
   3   2.0000     -20.545449      -559.0701
   4   2.0000     -15.628413      -425.2707
   5   2.0000     -15.605684      -424.6523
   6   2.0000     -11.396331      -310.1099
   7   2.0000     -11.382491      -309.7333
   8   2.0000     -11.337993      -308.5225
   9   2.0000     -11.308072      -307.7083
  10   2.0000     -11.304222      -307.6035
  11   2.0000     -11.301871      -307.5395
  12   2.0000     -11.260886      -306.4243
  13   2.0000     -11.258537      -306.3604
  14   2.0000     -11.255271      -306.2715
  15   2.0000     -11.248213      -306.0794
  16   2.0000     -11.238367      -305.8115
  17   2.0000     -11.234452      -305.7050
  18   2.0000     -11.231230      -305.6173
  19   2.0000     -11.226356      -305.4847
  20   2.0000      -8.893012      -241.9912
  21   2.0000      -6.574589      -178.9037
  22   2.0000      -6.572586      -178.8492
  23   2.0000      -6.571999      -178.8332
  24   2.0000      -1.452574       -39.5266
  25   2.0000      -1.411765       -38.4161
  26   2.0000      -1.356489       -36.9120
  27   2.0000      -1.339741       -36.4562
  28   2.0000      -1.236959       -33.6594
  29   2.0000      -1.152670       -31.3657
  30   2.0000      -1.120661       -30.4947
  31   2.0000      -1.042332       -28.3633
  32   2.0000      -1.033275       -28.1168
  33   2.0000      -1.010155       -27.4877
  34   2.0000      -0.998570       -27.1725
  35   2.0000      -0.983522       -26.7630
  36   2.0000      -0.921041       -25.0628
  37   2.0000      -0.895508       -24.3680
  38   2.0000      -0.847606       -23.0645
  39   2.0000      -0.835163       -22.7259
  40   2.0000      -0.828358       -22.5408
  41   2.0000      -0.815685       -22.1959
  42   2.0000      -0.750709       -20.4278
  43   2.0000      -0.735408       -20.0115
  44   2.0000      -0.726178       -19.7603
  45   2.0000      -0.690763       -18.7966
  46   2.0000      -0.685815       -18.6620
  47   2.0000      -0.678825       -18.4718
  48   2.0000      -0.669414       -18.2157
  49   2.0000      -0.655377       -17.8337
  50   2.0000      -0.652773       -17.7629
  51   2.0000      -0.644488       -17.5374
  52   2.0000      -0.631211       -17.1761
  53   2.0000      -0.613630       -16.6977
  54   2.0000      -0.602817       -16.4035
  55   2.0000      -0.598399       -16.2833
  56   2.0000      -0.595309       -16.1992
  57   2.0000      -0.579063       -15.7571
  58   2.0000      -0.573706       -15.6113
  59   2.0000      -0.563740       -15.3402
  60   2.0000      -0.556967       -15.1558
  61   2.0000      -0.547254       -14.8915
  62   2.0000      -0.537163       -14.6170
  63   2.0000      -0.529467       -14.4075
  64   2.0000      -0.515835       -14.0366
  65   2.0000      -0.508764       -13.8442
  66   2.0000      -0.498077       -13.5534
  67   2.0000      -0.493853       -13.4384
  68   2.0000      -0.480869       -13.0851
  69   2.0000      -0.463788       -12.6203
  70   2.0000      -0.459307       -12.4984
  71   2.0000      -0.450226       -12.2513
  72   2.0000      -0.352980        -9.6051
  73   2.0000      -0.344839        -9.3835
  74   2.0000      -0.327018        -8.8986
  75   2.0000      -0.317099        -8.6287
  76   2.0000      -0.314723        -8.5640
  77   0.0000       0.077119         2.0985
  78   0.0000       0.111000         3.0205
  79   0.0000       0.121344         3.3019
  80   0.0000       0.135707         3.6928
  81   0.0000       0.141671         3.8551

MULLIKEN ATOMIC CHARGES
-----------------------
   0 C :   -0.304688
   1 C :    0.035779
   2 O :   -0.356272
   3 C :    0.431847
   4 O :   -0.425269
   5 C :   -0.169407
   6 C :    0.156432
   7 C :   -0.279533
   8 N :   -0.128471
   9 C :    0.207764
  10 S :   -0.442518
  11 N :   -0.211209
  12 C :    0.042797
  13 C :    0.032857
  14 C :   -0.172181
  15 C :   -0.134513
  16 C :   -0.277106
  17 C :    0.314432
  18 O :   -0.358931
  19 C :   -0.251458
  20 H :    0.124530
  21 H :    0.096595
  22 H :    0.095419
  23 H :    0.104189
  24 H :    0.107300
  25 H :    0.125742
  26 H :    0.100979
  27 H :    0.128185
  28 H :    0.198841
  29 H :    0.199889
  30 H :    0.155622
  31 H :    0.160092
  32 H :    0.160350
  33 H :    0.128433
  34 H :    0.239946
  35 H :    0.163536
Sum of atomic charges:   -0.0000000

LOEWDIN ATOMIC CHARGES
----------------------
   0 C :    0.106188
   1 C :   -0.016352
   2 O :    0.301041
   3 C :   -0.414375
   4 O :    0.105181
   5 C :   -0.091557
   6 C :   -0.064026
   7 C :    0.125306
   8 N :    0.405472
   9 C :   -0.458496
  10 S :   -0.037762
  11 N :    0.396497
  12 C :   -0.048215
  13 C :   -0.040651
  14 C :    0.024459
  15 C :    0.040365
  16 C :   -0.001131
  17 C :   -0.192449
  18 O :    0.393161
  19 C :    0.029815
  20 H :   -0.023734
  21 H :   -0.026225
  22 H :   -0.028988
  23 H :   -0.028458
  24 H :   -0.025207
  25 H :   -0.009065
  26 H :   -0.021386
  27 H :   -0.009550
  28 H :   -0.058734
  29 H :   -0.063169
  30 H :   -0.008248
  31 H :   -0.023935
  32 H :   -0.021044
  33 H :   -0.036123
  34 H :   -0.154846
  35 H :   -0.023760

  Mayer bond orders larger than 0.100000
B(  0-C ,  1-C ) :   0.9609 B(  0-C , 20-H ) :   0.9721 B(  0-C , 21-H ) :   0.9763
B(  0-C , 22-H ) :   0.9760 B(  1-C ,  2-O ) :   0.8998 B(  1-C , 23-H ) :   0.9802
B(  1-C , 24-H ) :   0.9839 B(  2-O ,  3-C ) :   1.1283 B(  3-C ,  4-O ) :   1.9809
B(  3-C ,  5-C ) :   1.0428 B(  5-C ,  6-C ) :   1.6535 B(  5-C , 12-C ) :   0.9513
B(  6-C ,  7-C ) :   0.9556 B(  6-C ,  8-N ) :   1.1373 B(  7-C , 25-H ) :   0.9650
B(  7-C , 26-H ) :   0.9907 B(  7-C , 27-H ) :   0.9635 B(  8-N ,  9-C ) :   1.1853
B(  8-N , 28-H ) :   0.9469 B(  9-C , 10-S ) :   1.6082 B(  9-C , 11-N ) :   1.3061
B( 11-N , 12-C ) :   0.9773 B( 11-N , 29-H ) :   0.9485 B( 12-C , 13-C ) :   0.9722
B( 12-C , 30-H ) :   0.9969 B( 13-C , 14-C ) :   1.3755 B( 13-C , 19-C ) :   1.3662
B( 14-C , 15-C ) :   1.3968 B( 14-C , 31-H ) :   0.9634 B( 15-C , 16-C ) :   1.3588
B( 15-C , 32-H ) :   0.9710 B( 16-C , 17-C ) :   1.3334 B( 16-C , 33-H ) :   0.9859
B( 17-C , 18-O ) :   1.1036 B( 17-C , 19-C ) :   1.3671 B( 18-O , 34-H ) :   0.9806
B( 19-C , 35-H ) :   0.9601

MP2 TOTAL ENERGY:    -1274.340115453 Eh
FINAL SINGLE POINT ENERGY     -1274.340115452866

DIPOLE MOMENT
-------------
                                X             Y             Z
Electronic contribution:      9.85907       9.90413       9.63749
Nuclear contribution   :    -11.30793     -11.16315     -10.74892
                        -----------------------------------------
Total Dipole Moment    :     -1.44886      -1.25902      -1.11143
                        -----------------------------------------
Magnitude (a.u.)       :      2.21802
Magnitude (Debye)      :      5.63777

Rotational constants in cm-1:     0.010230     0.009272     0.005761
Rotational constants in MHz :   306.683344   277.967590   172.713299

                             ****ORCA TERMINATED NORMALLY****
TOTAL RUN TIME: 0 days 1 hours 35 minutes 25 seconds 861 msec
