                         Program Version 4.2.0 -  RELEASE  -
|  1> ! ri-mp2 cc-pvtz cc-pvtz/c TightSCF NoKeepInts
|  2>
|  3> %scf
|  4>   MaxCore 4096
|  5> end
|  6> *xyz  0  1
|  7>     C       13.9819083   15.3831914   14.7742582
|  8>     C       14.9895375   16.1727968   15.6252031
|  9>     O       16.2987980   15.9154133   15.0823888
| 10>     C       17.4334921   16.3857015   15.6895956
| 11>     O       18.4951942   15.7988186   15.5941566
| 12>     C       17.2685216   17.5957925   16.5492883
| 13>     C       16.9316939   18.7853356   15.9935343
| 14>     C       16.4726804   19.0359811   14.5702454
| 15>     N       17.0781238   19.9747437   16.7094343
| 16>     C       17.7798860   20.0838408   17.8812971
| 17>     S       18.0145458   21.5426931   18.6234112
| 18>     N       18.2998580   18.9205412   18.3943077
| 19>     C       18.0264809   17.5652964   17.8752933
| 20>     C       17.4070136   16.6051112   18.8790755
| 21>     C       17.8796867   15.2842684   18.9765995
| 22>     C       17.2971296   14.3828587   19.8830021
| 23>     C       16.2306776   14.8053694   20.6951824
| 24>     C       15.7529481   16.1192430   20.5940734
| 25>     O       14.7163380   16.5266118   21.3687114
| 26>     C       16.3337239   17.0142930   19.6896782
| 27>     H       14.2125863   14.3105957   14.8003405
| 28>     H       14.0115130   15.7168418   13.7294968
| 29>     H       12.9621292   15.5241374   15.1526206
| 30>     H       14.7345523   17.2377661   15.5952753
| 31>     H       14.9384325   15.8287209   16.6676675
| 32>     H       16.7023796   18.1994337   13.8991277
| 33>     H       16.9733005   19.9148304   14.1437794
| 34>     H       15.3915831   19.2144758   14.5274746
| 35>     H       16.7369076   20.8412980   16.3237408
| 36>     H       18.8108795   19.0276969   19.2617834
| 37>     H       19.0487605   17.2427735   17.6263158
| 38>     H       18.6964232   14.9531597   18.3379191
| 39>     H       17.6704043   13.3621801   19.9496430
| 40>     H       15.7771886   14.1115915   21.3954779
| 41>     H       14.4841891   15.7903538   21.9547674
| 42>     H       15.9475324   18.0262433   19.6238339
| 43> *
| 44>
| 45>                          ****END OF INPUT****

CARTESIAN COORDINATES (ANGSTROEM)
---------------------------------
  C     13.981908   15.383191   14.774258
  C     14.989537   16.172797   15.625203
  O     16.298798   15.915413   15.082389
  C     17.433492   16.385701   15.689596
  O     18.495194   15.798819   15.594157
  C     17.268522   17.595793   16.549288
  C     16.931694   18.785336   15.993534
  C     16.472680   19.035981   14.570245
  N     17.078124   19.974744   16.709434
  C     17.779886   20.083841   17.881297
  S     18.014546   21.542693   18.623411
  N     18.299858   18.920541   18.394308
  C     18.026481   17.565296   17.875293
  C     17.407014   16.605111   18.879075
  C     17.879687   15.284268   18.976599
  C     17.297130   14.382859   19.883002
  C     16.230678   14.805369   20.695182
  C     15.752948   16.119243   20.594073
  O     14.716338   16.526612   21.368711
  C     16.333724   17.014293   19.689678
  H     14.212586   14.310596   14.800340
  H     14.011513   15.716842   13.729497
  H     12.962129   15.524137   15.152621
  H     14.734552   17.237766   15.595275
  H     14.938432   15.828721   16.667668
  H     16.702380   18.199434   13.899128
  H     16.973300   19.914830   14.143779
  H     15.391583   19.214476   14.527475
  H     16.736908   20.841298   16.323741
  H     18.810879   19.027697   19.261783
  H     19.048760   17.242773   17.626316
  H     18.696423   14.953160   18.337919
  H     17.670404   13.362180   19.949643
  H     15.777189   14.111591   21.395478
  H     14.484189   15.790354   21.954767
  H     15.947532   18.026243   19.623834

 Total Charge           Charge          ....    0
 Multiplicity           Mult            ....    1
 Number of Electrons    NEL             ....  154
 Basis Dimension        Dim             ....  828

ORBITAL ENERGIES
----------------

  NO   OCC          E(Eh)            E(eV)
   0   2.0000     -91.889737     -2500.4469
   1   2.0000     -20.603373      -560.6463
   2   2.0000     -20.599452      -560.5396
   3   2.0000     -20.551806      -559.2431
   4   2.0000     -15.627810      -425.2543
   5   2.0000     -15.609456      -424.7549
   6   2.0000     -11.398468      -310.1681
   7   2.0000     -11.385704      -309.8208
   8   2.0000     -11.333993      -308.4136
   9   2.0000     -11.316763      -307.9448
  10   2.0000     -11.309910      -307.7583
  11   2.0000     -11.306346      -307.6613
  12   2.0000     -11.267238      -306.5971
  13   2.0000     -11.264467      -306.5217
  14   2.0000     -11.263348      -306.4913
  15   2.0000     -11.257085      -306.3208
  16   2.0000     -11.245897      -306.0164
  17   2.0000     -11.241940      -305.9087
  18   2.0000     -11.239374      -305.8389
  19   2.0000     -11.235903      -305.7445
  20   2.0000      -8.894846      -242.0411
  21   2.0000      -6.576427      -178.9537
  22   2.0000      -6.574415      -178.8989
  23   2.0000      -6.573832      -178.8831
  24   2.0000      -1.450775       -39.4776
  25   2.0000      -1.419160       -38.6173
  26   2.0000      -1.363700       -37.1082
  27   2.0000      -1.340853       -36.4865
  28   2.0000      -1.239223       -33.7210
  29   2.0000      -1.161132       -31.5960
  30   2.0000      -1.126222       -30.6461
  31   2.0000      -1.048445       -28.5296
  32   2.0000      -1.042177       -28.3591
  33   2.0000      -1.018908       -27.7259
  34   2.0000      -1.005836       -27.3702
  35   2.0000      -0.989460       -26.9246
  36   2.0000      -0.926370       -25.2078
  37   2.0000      -0.881133       -23.9769
  38   2.0000      -0.856015       -23.2934
  39   2.0000      -0.842752       -22.9325
  40   2.0000      -0.837951       -22.8018
  41   2.0000      -0.836002       -22.7488
  42   2.0000      -0.758895       -20.6506
  43   2.0000      -0.739901       -20.1337
  44   2.0000      -0.732543       -19.9335
  45   2.0000      -0.696854       -18.9624
  46   2.0000      -0.689148       -18.7527
  47   2.0000      -0.683245       -18.5920
  48   2.0000      -0.674447       -18.3526
  49   2.0000      -0.664690       -18.0871
  50   2.0000      -0.657624       -17.8949
  51   2.0000      -0.648714       -17.6524
  52   2.0000      -0.639131       -17.3916
  53   2.0000      -0.612917       -16.6783
  54   2.0000      -0.607083       -16.5196
  55   2.0000      -0.603009       -16.4087
  56   2.0000      -0.597942       -16.2708
  57   2.0000      -0.584270       -15.8988
  58   2.0000      -0.577368       -15.7110
  59   2.0000      -0.568290       -15.4640
  60   2.0000      -0.561879       -15.2895
  61   2.0000      -0.559846       -15.2342
  62   2.0000      -0.551164       -14.9979
  63   2.0000      -0.526879       -14.3371
  64   2.0000      -0.522702       -14.2234
  65   2.0000      -0.515255       -14.0208
  66   2.0000      -0.506258       -13.7760
  67   2.0000      -0.501456       -13.6453
  68   2.0000      -0.489074       -13.3084
  69   2.0000      -0.469054       -12.7636
  70   2.0000      -0.459131       -12.4936
  71   2.0000      -0.452087       -12.3019
  72   2.0000      -0.356571        -9.7028
  73   2.0000      -0.351643        -9.5687
  74   2.0000      -0.329229        -8.9588
  75   2.0000      -0.324434        -8.8283
  76   2.0000      -0.319714        -8.6999
  77   0.0000       0.084289         2.2936
  78   0.0000       0.104380         2.8403
  79   0.0000       0.114622         3.1190
  80   0.0000       0.128618         3.4999
  81   0.0000       0.130198         3.5429

MULLIKEN ATOMIC CHARGES
-----------------------
   0 C :   -0.258164
   1 C :    0.027847
   2 O :   -0.312623
   3 C :    0.415951
   4 O :   -0.380347
   5 C :   -0.208292
   6 C :    0.140045
   7 C :   -0.329158
   8 N :   -0.138086
   9 C :    0.208858
  10 S :   -0.442668
  11 N :   -0.221478
  12 C :    0.058759
  13 C :    0.025090
  14 C :   -0.220123
  15 C :   -0.127570
  16 C :   -0.277646
  17 C :    0.314612
  18 O :   -0.355995
  19 C :   -0.251211
  20 H :    0.106829
  21 H :    0.096253
  22 H :    0.090205
  23 H :    0.084089
  24 H :    0.112500
  25 H :    0.136812
  26 H :    0.131367
  27 H :    0.122471
  28 H :    0.197390
  29 H :    0.202185
  30 H :    0.166372
  31 H :    0.175680
  32 H :    0.164540
  33 H :    0.131801
  34 H :    0.241288
  35 H :    0.172417
Sum of atomic charges:   -0.0000000

LOEWDIN ATOMIC CHARGES
----------------------
   0 C :    0.111817
   1 C :   -0.025755
   2 O :    0.305101
   3 C :   -0.415646
   4 O :    0.121906
   5 C :   -0.085405
   6 C :   -0.089937
   7 C :    0.125566
   8 N :    0.402749
   9 C :   -0.456405
  10 S :   -0.038078
  11 N :    0.395976
  12 C :   -0.049685
  13 C :   -0.044188
  14 C :    0.019290
  15 C :    0.044483
  16 C :   -0.000207
  17 C :   -0.191698
  18 O :    0.394960
  19 C :    0.027273
  20 H :   -0.022319
  21 H :   -0.026660
  22 H :   -0.024435
  23 H :   -0.038187
  24 H :   -0.027626
  25 H :   -0.007703
  26 H :   -0.010965
  27 H :   -0.017999
  28 H :   -0.057031
  29 H :   -0.063690
  30 H :   -0.004283
  31 H :   -0.021426
  32 H :   -0.018626
  33 H :   -0.034824
  34 H :   -0.153166
  35 H :   -0.023179

  Mayer bond orders larger than 0.100000
B(  0-C ,  1-C ) :   0.9803 B(  0-C , 20-H ) :   0.9777 B(  0-C , 21-H ) :   0.9775
B(  0-C , 22-H ) :   0.9766 B(  1-C ,  2-O ) :   0.9065 B(  1-C , 23-H ) :   0.9666
B(  1-C , 24-H ) :   0.9732 B(  2-O ,  3-C ) :   1.1779 B(  3-C ,  4-O ) :   2.1008
B(  3-C ,  5-C ) :   0.9211 B(  5-C ,  6-C ) :   1.7195 B(  5-C , 12-C ) :   0.9428
B(  6-C ,  7-C ) :   0.9350 B(  6-C ,  8-N ) :   1.1102 B(  7-C , 25-H ) :   0.9742
B(  7-C , 26-H ) :   0.9764 B(  7-C , 27-H ) :   0.9662 B(  8-N ,  9-C ) :   1.1959
B(  8-N , 28-H ) :   0.9510 B(  9-C , 10-S ) :   1.6105 B(  9-C , 11-N ) :   1.2917
B( 11-N , 12-C ) :   0.9837 B( 11-N , 29-H ) :   0.9476 B( 12-C , 13-C ) :   0.9677
B( 12-C , 30-H ) :   0.9898 B( 13-C , 14-C ) :   1.3837 B( 13-C , 19-C ) :   1.3550
B( 14-C , 15-C ) :   1.3937 B( 14-C , 31-H ) :   0.9596 B( 15-C , 16-C ) :   1.3619
B( 15-C , 32-H ) :   0.9697 B( 16-C , 17-C ) :   1.3309 B( 16-C , 33-H ) :   0.9848
B( 17-C , 18-O ) :   1.1089 B( 17-C , 19-C ) :   1.3661 B( 18-O , 34-H ) :   0.9793
B( 19-C , 35-H ) :   0.9568

MP2 TOTAL ENERGY:    -1274.332048384 Eh
FINAL SINGLE POINT ENERGY     -1274.332048383842

DIPOLE MOMENT
-------------
                                X             Y             Z
Electronic contribution:     10.43438       8.38456       9.14099
Nuclear contribution   :    -12.08738      -9.56581      -9.45895
                        -----------------------------------------
Total Dipole Moment    :     -1.65300      -1.18126      -0.31796
                        -----------------------------------------
Magnitude (a.u.)       :      2.05642
Magnitude (Debye)      :      5.22701

Rotational constants in cm-1:     0.010421     0.009170     0.006166
Rotational constants in MHz :   312.424375   274.919577   184.849042

                             ****ORCA TERMINATED NORMALLY****
TOTAL RUN TIME: 0 days 1 hours 44 minutes 58 seconds 243 msec
