                         Program Version 4.2.0 -  RELEASE  -
|  1> ! ri-mp2 cc-pvtz cc-pvtz/c TightSCF NoKeepInts
|  2>
|  3> %scf
|  4>   MaxCore 4096
|  5> end
|  6> *xyz  0  1
|  7>     C       14.6328137   15.2736145   13.3228220
|  8>     C       14.6989665   15.4577694   14.8482216
|  9>     O       15.6127435   16.5389453   15.1093851
| 10>     C       16.6306984   16.3691773   16.0028463
| 11>     O       17.1131930   15.2746643   16.2423305
| 12>     C       17.0084388   17.6051964   16.7701686
| 13>     C       16.8994567   18.8566295   16.2494527
| 14>     C       16.1994246   19.2789869   14.9723972
| 15>     N       17.5116048   19.9453449   16.8759728
| 16>     C       18.4263029   19.8431894   17.8889320
| 17>     S       19.1952148   21.1702963   18.5078903
| 18>     N       18.6884922   18.5775334   18.3478863
| 19>     C       17.9611985   17.3575993   17.9471466
| 20>     C       17.3073799   16.6372367   19.1190532
| 21>     C       17.5922580   15.2846259   19.3790297
| 22>     C       16.9902364   14.6228389   20.4623678
| 23>     C       16.0968269   15.3202140   21.2935590
| 24>     C       15.8097719   16.6677522   21.0354948
| 25>     O       14.9445012   17.3423155   21.8340055
| 26>     C       16.4101412   17.3234854   19.9559022
| 27>     H       14.2963180   16.1964248   12.8343326
| 28>     H       13.9324965   14.4707339   13.0622855
| 29>     H       15.6204701   15.0093807   12.9242839
| 30>     H       13.7048011   15.7049869   15.2422916
| 31>     H       15.0262763   14.5172495   15.3121195
| 32>     H       16.5914375   18.7241508   14.1106789
| 33>     H       16.3248283   20.3456545   14.7499474
| 34>     H       15.1215908   19.0848866   15.0385156
| 35>     H       17.3462988   20.8787035   16.5348660
| 36>     H       19.3508038   18.5313093   19.1119398
| 37>     H       18.7905767   16.7608942   17.5401725
| 38>     H       18.2716364   14.7408596   18.7267768
| 39>     H       17.2133942   13.5740758   20.6497857
| 40>     H       15.6286662   14.8125524   22.1302323
| 41>     H       14.6591231   16.7331645   22.5313277
| 42>     H       16.1786183   18.3675575   19.7735801
| 43> *
| 44>
| 45>                          ****END OF INPUT****

CARTESIAN COORDINATES (ANGSTROEM)
---------------------------------
  C     14.632814   15.273615   13.322822
  C     14.698966   15.457769   14.848222
  O     15.612744   16.538945   15.109385
  C     16.630698   16.369177   16.002846
  O     17.113193   15.274664   16.242331
  C     17.008439   17.605196   16.770169
  C     16.899457   18.856630   16.249453
  C     16.199425   19.278987   14.972397
  N     17.511605   19.945345   16.875973
  C     18.426303   19.843189   17.888932
  S     19.195215   21.170296   18.507890
  N     18.688492   18.577533   18.347886
  C     17.961198   17.357599   17.947147
  C     17.307380   16.637237   19.119053
  C     17.592258   15.284626   19.379030
  C     16.990236   14.622839   20.462368
  C     16.096827   15.320214   21.293559
  C     15.809772   16.667752   21.035495
  O     14.944501   17.342316   21.834005
  C     16.410141   17.323485   19.955902
  H     14.296318   16.196425   12.834333
  H     13.932496   14.470734   13.062285
  H     15.620470   15.009381   12.924284
  H     13.704801   15.704987   15.242292
  H     15.026276   14.517250   15.312119
  H     16.591438   18.724151   14.110679
  H     16.324828   20.345654   14.749947
  H     15.121591   19.084887   15.038516
  H     17.346299   20.878704   16.534866
  H     19.350804   18.531309   19.111940
  H     18.790577   16.760894   17.540172
  H     18.271636   14.740860   18.726777
  H     17.213394   13.574076   20.649786
  H     15.628666   14.812552   22.130232
  H     14.659123   16.733165   22.531328
  H     16.178618   18.367558   19.773580

 Total Charge           Charge          ....    0
 Multiplicity           Mult            ....    1
 Number of Electrons    NEL             ....  154
 Basis Dimension        Dim             ....  828

ORBITAL ENERGIES
----------------

  NO   OCC          E(Eh)            E(eV)
   0   2.0000     -91.887945     -2500.3981
   1   2.0000     -20.600641      -560.5719
   2   2.0000     -20.591636      -560.3269
   3   2.0000     -20.546335      -559.0942
   4   2.0000     -15.628521      -425.2737
   5   2.0000     -15.605560      -424.6489
   6   2.0000     -11.396111      -310.1040
   7   2.0000     -11.382478      -309.7330
   8   2.0000     -11.338105      -308.5255
   9   2.0000     -11.307617      -307.6959
  10   2.0000     -11.304049      -307.5988
  11   2.0000     -11.299465      -307.4741
  12   2.0000     -11.260630      -306.4173
  13   2.0000     -11.259103      -306.3758
  14   2.0000     -11.254868      -306.2605
  15   2.0000     -11.247695      -306.0653
  16   2.0000     -11.237895      -305.7987
  17   2.0000     -11.234002      -305.6927
  18   2.0000     -11.231318      -305.6197
  19   2.0000     -11.230762      -305.6046
  20   2.0000      -8.893030      -241.9916
  21   2.0000      -6.574607      -178.9042
  22   2.0000      -6.572604      -178.8496
  23   2.0000      -6.572016      -178.8337
  24   2.0000      -1.453489       -39.5514
  25   2.0000      -1.411379       -38.4056
  26   2.0000      -1.357563       -36.9412
  27   2.0000      -1.339808       -36.4580
  28   2.0000      -1.236928       -33.6585
  29   2.0000      -1.152241       -31.3541
  30   2.0000      -1.120703       -30.4959
  31   2.0000      -1.044166       -28.4132
  32   2.0000      -1.036214       -28.1968
  33   2.0000      -1.009775       -27.4774
  34   2.0000      -0.998555       -27.1721
  35   2.0000      -0.983568       -26.7642
  36   2.0000      -0.920553       -25.0495
  37   2.0000      -0.888101       -24.1665
  38   2.0000      -0.847317       -23.0567
  39   2.0000      -0.834972       -22.7207
  40   2.0000      -0.827899       -22.5283
  41   2.0000      -0.820048       -22.3146
  42   2.0000      -0.760996       -20.7078
  43   2.0000      -0.735995       -20.0274
  44   2.0000      -0.726075       -19.7575
  45   2.0000      -0.690007       -18.7760
  46   2.0000      -0.685594       -18.6560
  47   2.0000      -0.680018       -18.5042
  48   2.0000      -0.672436       -18.2979
  49   2.0000      -0.653979       -17.7957
  50   2.0000      -0.649361       -17.6700
  51   2.0000      -0.639156       -17.3923
  52   2.0000      -0.628427       -17.1004
  53   2.0000      -0.616583       -16.7781
  54   2.0000      -0.602975       -16.4078
  55   2.0000      -0.598296       -16.2805
  56   2.0000      -0.594898       -16.1880
  57   2.0000      -0.580943       -15.8083
  58   2.0000      -0.572932       -15.5903
  59   2.0000      -0.563373       -15.3302
  60   2.0000      -0.561565       -15.2810
  61   2.0000      -0.547099       -14.8873
  62   2.0000      -0.535150       -14.5622
  63   2.0000      -0.531073       -14.4512
  64   2.0000      -0.515768       -14.0348
  65   2.0000      -0.508793       -13.8450
  66   2.0000      -0.500591       -13.6218
  67   2.0000      -0.493956       -13.4412
  68   2.0000      -0.480853       -13.0847
  69   2.0000      -0.463292       -12.6068
  70   2.0000      -0.460213       -12.5230
  71   2.0000      -0.451986       -12.2992
  72   2.0000      -0.353035        -9.6066
  73   2.0000      -0.344384        -9.3712
  74   2.0000      -0.327018        -8.8986
  75   2.0000      -0.317128        -8.6295
  76   2.0000      -0.314271        -8.5518
  77   0.0000       0.076495         2.0815
  78   0.0000       0.111680         3.0390
  79   0.0000       0.121221         3.2986
  80   0.0000       0.135623         3.6905
  81   0.0000       0.139040         3.7835

MULLIKEN ATOMIC CHARGES
-----------------------
   0 C :   -0.266525
   1 C :    0.023522
   2 O :   -0.351764
   3 C :    0.435086
   4 O :   -0.419789
   5 C :   -0.177964
   6 C :    0.156090
   7 C :   -0.281969
   8 N :   -0.128954
   9 C :    0.207423
  10 S :   -0.442526
  11 N :   -0.210768
  12 C :    0.040568
  13 C :    0.031675
  14 C :   -0.168185
  15 C :   -0.134357
  16 C :   -0.277086
  17 C :    0.314078
  18 O :   -0.359087
  19 C :   -0.250825
  20 H :    0.090264
  21 H :    0.092511
  22 H :    0.100865
  23 H :    0.099309
  24 H :    0.116899
  25 H :    0.125826
  26 H :    0.102555
  27 H :    0.128443
  28 H :    0.198829
  29 H :    0.200003
  30 H :    0.155510
  31 H :    0.159039
  32 H :    0.159905
  33 H :    0.128148
  34 H :    0.239902
  35 H :    0.163348
Sum of atomic charges:   -0.0000000

LOEWDIN ATOMIC CHARGES
----------------------
   0 C :    0.104648
   1 C :   -0.012377
   2 O :    0.305529
   3 C :   -0.415230
   4 O :    0.105686
   5 C :   -0.092163
   6 C :   -0.064450
   7 C :    0.125055
   8 N :    0.405459
   9 C :   -0.458641
  10 S :   -0.037720
  11 N :    0.396425
  12 C :   -0.048313
  13 C :   -0.040565
  14 C :    0.024838
  15 C :    0.040891
  16 C :   -0.001191
  17 C :   -0.192525
  18 O :    0.393046
  19 C :    0.029647
  20 H :   -0.030005
  21 H :   -0.025706
  22 H :   -0.024540
  23 H :   -0.030904
  24 H :   -0.026623
  25 H :   -0.009335
  26 H :   -0.021150
  27 H :   -0.009624
  28 H :   -0.058740
  29 H :   -0.063136
  30 H :   -0.008240
  31 H :   -0.023989
  32 H :   -0.021089
  33 H :   -0.036194
  34 H :   -0.154887
  35 H :   -0.023890

  Mayer bond orders larger than 0.100000
B(  0-C ,  1-C ) :   0.9737 B(  0-C , 20-H ) :   0.9797 B(  0-C , 21-H ) :   0.9761
B(  0-C , 22-H ) :   0.9782 B(  1-C ,  2-O ) :   0.8898 B(  1-C , 23-H ) :   0.9790
B(  1-C , 24-H ) :   0.9725 B(  2-O ,  3-C ) :   1.1283 B(  3-C ,  4-O ) :   1.9933
B(  3-C ,  5-C ) :   1.0417 B(  5-C ,  6-C ) :   1.6588 B(  5-C , 12-C ) :   0.9470
B(  6-C ,  7-C ) :   0.9539 B(  6-C ,  8-N ) :   1.1349 B(  7-C , 25-H ) :   0.9655
B(  7-C , 26-H ) :   0.9912 B(  7-C , 27-H ) :   0.9636 B(  8-N ,  9-C ) :   1.1854
B(  8-N , 28-H ) :   0.9469 B(  9-C , 10-S ) :   1.6081 B(  9-C , 11-N ) :   1.3064
B( 11-N , 12-C ) :   0.9760 B( 11-N , 29-H ) :   0.9485 B( 12-C , 13-C ) :   0.9736
B( 12-C , 30-H ) :   0.9970 B( 13-C , 14-C ) :   1.3766 B( 13-C , 19-C ) :   1.3656
B( 14-C , 15-C ) :   1.3973 B( 14-C , 31-H ) :   0.9638 B( 15-C , 16-C ) :   1.3588
B( 15-C , 32-H ) :   0.9712 B( 16-C , 17-C ) :   1.3333 B( 16-C , 33-H ) :   0.9860
B( 17-C , 18-O ) :   1.1034 B( 17-C , 19-C ) :   1.3675 B( 18-O , 34-H ) :   0.9807
B( 19-C , 35-H ) :   0.9602

MP2 TOTAL ENERGY:    -1274.337277989 Eh
FINAL SINGLE POINT ENERGY     -1274.337277988993

DIPOLE MOMENT
-------------
                                X             Y             Z
Electronic contribution:     10.02624       9.35001      12.76253
Nuclear contribution   :    -11.62697     -10.58677     -13.65060
                        -----------------------------------------
Total Dipole Moment    :     -1.60073      -1.23676      -0.88807
                        -----------------------------------------
Magnitude (a.u.)       :      2.20920
Magnitude (Debye)      :      5.61534

Rotational constants in cm-1:     0.009940     0.008744     0.005423
Rotational constants in MHz :   297.990003   262.149058   162.589806

                             ****ORCA TERMINATED NORMALLY****
TOTAL RUN TIME: 0 days 1 hours 32 minutes 23 seconds 883 msec
