                         Program Version 4.2.0 -  RELEASE  -
|  1> ! ri-mp2 cc-pvtz cc-pvtz/c TightSCF NoKeepInts
|  2>
|  3> %scf
|  4>   MaxCore 4096
|  5> end
|  6> *xyz  0  1
|  7>     C       15.1788260   14.6263839   13.9812735
|  8>     C       14.5285947   15.8762650   14.6137087
|  9>     O       15.4915552   16.8747154   15.0259285
| 10>     C       16.5584535   16.6234047   15.8472922
| 11>     O       17.0734102   15.5264410   15.9763281
| 12>     C       16.9389647   17.7838691   16.7240573
| 13>     C       16.8218540   19.0773449   16.3211519
| 14>     C       16.1159233   19.6111735   15.0898596
| 15>     N       17.4342095   20.1069654   17.0405260
| 16>     C       18.3585296   19.9167469   18.0317621
| 17>     S       19.1273193   21.1852660   18.7635158
| 18>     N       18.6305626   18.6155614   18.3694661
| 19>     C       17.9037982   17.4343127   17.8651591
| 20>     C       17.2633163   16.6061900   18.9714445
| 21>     C       17.5504002   15.2352052   19.0990196
| 22>     C       16.9604373   14.4734978   20.1216303
| 23>     C       16.0768571   15.0885522   21.0251653
| 24>     C       15.7874556   16.4542717   20.8989496
| 25>     O       14.9314883   17.0496473   21.7674121
| 26>     C       16.3758235   17.2095950   19.8795101
| 27>     H       15.9864358   14.9098114   13.2949343
| 28>     H       14.4329506   14.0575466   13.4133455
| 29>     H       15.5869355   13.9549413   14.7464872
| 30>     H       13.8488593   16.3306875   13.8815747
| 31>     H       13.9252763   15.5658023   15.4770206
| 32>     H       15.0354953   19.4317881   15.1542349
| 33>     H       16.4882918   19.1194602   14.1823707
| 34>     H       16.2597241   20.6895461   14.9501971
| 35>     H       17.2615584   21.0668904   16.7884612
| 36>     H       19.3004256   18.5022218   19.1197645
| 37>     H       18.7317819   16.8812463   17.3981431
| 38>     H       18.2219525   14.7560708   18.3903894
| 39>     H       17.1852023   13.4118448   20.2063177
| 40>     H       15.6179746   14.5037134   21.8152808
| 41>     H       14.6538949   16.3770172   22.4071390
| 42>     H       16.1424618   18.2660026   19.7991788
| 43> *
| 44>
| 45>                          ****END OF INPUT****

CARTESIAN COORDINATES (ANGSTROEM)
---------------------------------
  C     15.178826   14.626384   13.981273
  C     14.528595   15.876265   14.613709
  O     15.491555   16.874715   15.025928
  C     16.558453   16.623405   15.847292
  O     17.073410   15.526441   15.976328
  C     16.938965   17.783869   16.724057
  C     16.821854   19.077345   16.321152
  C     16.115923   19.611173   15.089860
  N     17.434210   20.106965   17.040526
  C     18.358530   19.916747   18.031762
  S     19.127319   21.185266   18.763516
  N     18.630563   18.615561   18.369466
  C     17.903798   17.434313   17.865159
  C     17.263316   16.606190   18.971445
  C     17.550400   15.235205   19.099020
  C     16.960437   14.473498   20.121630
  C     16.076857   15.088552   21.025165
  C     15.787456   16.454272   20.898950
  O     14.931488   17.049647   21.767412
  C     16.375823   17.209595   19.879510
  H     15.986436   14.909811   13.294934
  H     14.432951   14.057547   13.413345
  H     15.586935   13.954941   14.746487
  H     13.848859   16.330687   13.881575
  H     13.925276   15.565802   15.477021
  H     15.035495   19.431788   15.154235
  H     16.488292   19.119460   14.182371
  H     16.259724   20.689546   14.950197
  H     17.261558   21.066890   16.788461
  H     19.300426   18.502222   19.119764
  H     18.731782   16.881246   17.398143
  H     18.221953   14.756071   18.390389
  H     17.185202   13.411845   20.206318
  H     15.617975   14.503713   21.815281
  H     14.653895   16.377017   22.407139
  H     16.142462   18.266003   19.799179

 Total Charge           Charge          ....    0
 Multiplicity           Mult            ....    1
 Number of Electrons    NEL             ....  154
 Basis Dimension        Dim             ....  828

ORBITAL ENERGIES
----------------

  NO   OCC          E(Eh)            E(eV)
   0   2.0000     -91.887300     -2500.3806
   1   2.0000     -20.599028      -560.5280
   2   2.0000     -20.591721      -560.3292
   3   2.0000     -20.546691      -559.1039
   4   2.0000     -15.627417      -425.2436
   5   2.0000     -15.605057      -424.6352
   6   2.0000     -11.397891      -310.1524
   7   2.0000     -11.381816      -309.7149
   8   2.0000     -11.336416      -308.4796
   9   2.0000     -11.307747      -307.6995
  10   2.0000     -11.305635      -307.6420
  11   2.0000     -11.303635      -307.5875
  12   2.0000     -11.259562      -306.3883
  13   2.0000     -11.258137      -306.3495
  14   2.0000     -11.254920      -306.2619
  15   2.0000     -11.247910      -306.0712
  16   2.0000     -11.238027      -305.8022
  17   2.0000     -11.234011      -305.6930
  18   2.0000     -11.230887      -305.6080
  19   2.0000     -11.222764      -305.3869
  20   2.0000      -8.892393      -241.9743
  21   2.0000      -6.573972      -178.8869
  22   2.0000      -6.571968      -178.8323
  23   2.0000      -6.571382      -178.8164
  24   2.0000      -1.448409       -39.4132
  25   2.0000      -1.411464       -38.4079
  26   2.0000      -1.358240       -36.9596
  27   2.0000      -1.338954       -36.4348
  28   2.0000      -1.236226       -33.6394
  29   2.0000      -1.152130       -31.3510
  30   2.0000      -1.119803       -30.4714
  31   2.0000      -1.042089       -28.3567
  32   2.0000      -1.033508       -28.1232
  33   2.0000      -1.009716       -27.4758
  34   2.0000      -0.997551       -27.1447
  35   2.0000      -0.982462       -26.7341
  36   2.0000      -0.920431       -25.0462
  37   2.0000      -0.893766       -24.3206
  38   2.0000      -0.847362       -23.0579
  39   2.0000      -0.835162       -22.7259
  40   2.0000      -0.828022       -22.5316
  41   2.0000      -0.819289       -22.2940
  42   2.0000      -0.746920       -20.3247
  43   2.0000      -0.729940       -19.8627
  44   2.0000      -0.725600       -19.7446
  45   2.0000      -0.690502       -18.7895
  46   2.0000      -0.684697       -18.6316
  47   2.0000      -0.679605       -18.4930
  48   2.0000      -0.668132       -18.1808
  49   2.0000      -0.666425       -18.1344
  50   2.0000      -0.644154       -17.5283
  51   2.0000      -0.642305       -17.4780
  52   2.0000      -0.632795       -17.2192
  53   2.0000      -0.604430       -16.4474
  54   2.0000      -0.598342       -16.2817
  55   2.0000      -0.597060       -16.2468
  56   2.0000      -0.594787       -16.1850
  57   2.0000      -0.587320       -15.9818
  58   2.0000      -0.572393       -15.5756
  59   2.0000      -0.569065       -15.4851
  60   2.0000      -0.559427       -15.2228
  61   2.0000      -0.545941       -14.8558
  62   2.0000      -0.537201       -14.6180
  63   2.0000      -0.522527       -14.2187
  64   2.0000      -0.515613       -14.0305
  65   2.0000      -0.510229       -13.8840
  66   2.0000      -0.499582       -13.5943
  67   2.0000      -0.493634       -13.4325
  68   2.0000      -0.479379       -13.0446
  69   2.0000      -0.461676       -12.5628
  70   2.0000      -0.457850       -12.4587
  71   2.0000      -0.446036       -12.1372
  72   2.0000      -0.352086        -9.5807
  73   2.0000      -0.344326        -9.3696
  74   2.0000      -0.326444        -8.8830
  75   2.0000      -0.316503        -8.6125
  76   2.0000      -0.314455        -8.5567
  77   0.0000       0.077708         2.1146
  78   0.0000       0.111553         3.0355
  79   0.0000       0.121871         3.3163
  80   0.0000       0.135938         3.6991
  81   0.0000       0.139688         3.8011

MULLIKEN ATOMIC CHARGES
-----------------------
   0 C :   -0.288799
   1 C :    0.046904
   2 O :   -0.360138
   3 C :    0.418094
   4 O :   -0.419313
   5 C :   -0.144840
   6 C :    0.151725
   7 C :   -0.281186
   8 N :   -0.128656
   9 C :    0.207757
  10 S :   -0.443700
  11 N :   -0.211004
  12 C :    0.038217
  13 C :    0.033470
  14 C :   -0.170759
  15 C :   -0.134658
  16 C :   -0.277339
  17 C :    0.313815
  18 O :   -0.358878
  19 C :   -0.250402
  20 H :    0.096756
  21 H :    0.093391
  22 H :    0.121843
  23 H :    0.098577
  24 H :    0.088907
  25 H :    0.128497
  26 H :    0.124065
  27 H :    0.101555
  28 H :    0.198607
  29 H :    0.199763
  30 H :    0.156112
  31 H :    0.159796
  32 H :    0.159943
  33 H :    0.128210
  34 H :    0.239850
  35 H :    0.163815
Sum of atomic charges:   -0.0000000

LOEWDIN ATOMIC CHARGES
----------------------
   0 C :    0.103060
   1 C :   -0.011604
   2 O :    0.293681
   3 C :   -0.412345
   4 O :    0.116417
   5 C :   -0.091137
   6 C :   -0.065449
   7 C :    0.124844
   8 N :    0.405118
   9 C :   -0.458720
  10 S :   -0.038682
  11 N :    0.396352
  12 C :   -0.048187
  13 C :   -0.040479
  14 C :    0.024053
  15 C :    0.040585
  16 C :   -0.001372
  17 C :   -0.192473
  18 O :    0.393149
  19 C :    0.029849
  20 H :   -0.025932
  21 H :   -0.029853
  22 H :   -0.025989
  23 H :   -0.024471
  24 H :   -0.029161
  25 H :   -0.009534
  26 H :   -0.009654
  27 H :   -0.021303
  28 H :   -0.058913
  29 H :   -0.063271
  30 H :   -0.008469
  31 H :   -0.024100
  32 H :   -0.021161
  33 H :   -0.036223
  34 H :   -0.154913
  35 H :   -0.023712

  Mayer bond orders larger than 0.100000
B(  0-C ,  1-C ) :   0.9712 B(  0-C , 20-H ) :   0.9754 B(  0-C , 21-H ) :   0.9758
B(  0-C , 22-H ) :   0.9716 B(  1-C ,  2-O ) :   0.9094 B(  1-C , 23-H ) :   0.9838
B(  1-C , 24-H ) :   0.9795 B(  2-O ,  3-C ) :   1.1064 B(  3-C ,  4-O ) :   1.9864
B(  3-C ,  5-C ) :   1.0477 B(  5-C ,  6-C ) :   1.6590 B(  5-C , 12-C ) :   0.9462
B(  6-C ,  7-C ) :   0.9550 B(  6-C ,  8-N ) :   1.1321 B(  7-C , 25-H ) :   0.9632
B(  7-C , 26-H ) :   0.9658 B(  7-C , 27-H ) :   0.9913 B(  8-N ,  9-C ) :   1.1868
B(  8-N , 28-H ) :   0.9471 B(  9-C , 10-S ) :   1.6070 B(  9-C , 11-N ) :   1.3058
B( 11-N , 12-C ) :   0.9760 B( 11-N , 29-H ) :   0.9485 B( 12-C , 13-C ) :   0.9731
B( 12-C , 30-H ) :   0.9968 B( 13-C , 14-C ) :   1.3766 B( 13-C , 19-C ) :   1.3661
B( 14-C , 15-C ) :   1.3972 B( 14-C , 31-H ) :   0.9636 B( 15-C , 16-C ) :   1.3589
B( 15-C , 32-H ) :   0.9712 B( 16-C , 17-C ) :   1.3331 B( 16-C , 33-H ) :   0.9860
B( 17-C , 18-O ) :   1.1036 B( 17-C , 19-C ) :   1.3673 B( 18-O , 34-H ) :   0.9807
B( 19-C , 35-H ) :   0.9600

MP2 TOTAL ENERGY:    -1274.331324097 Eh
FINAL SINGLE POINT ENERGY     -1274.331324096792

DIPOLE MOMENT
-------------
                                X             Y             Z
Electronic contribution:      8.95463      10.40496      11.73754
Nuclear contribution   :    -10.57334     -11.62274     -12.72985
                        -----------------------------------------
Total Dipole Moment    :     -1.61871      -1.21778      -0.99231
                        -----------------------------------------
Magnitude (a.u.)       :      2.25563
Magnitude (Debye)      :      5.73336

Rotational constants in cm-1:     0.009919     0.009068     0.005546
Rotational constants in MHz :   297.363548   271.851711   166.252892

                             ****ORCA TERMINATED NORMALLY****
TOTAL RUN TIME: 0 days 2 hours 2 minutes 35 seconds 79 msec
