                         Program Version 4.2.0 -  RELEASE  -
|  1> ! ri-mp2 cc-pvtz cc-pvtz/c TightSCF NoKeepInts
|  2>
|  3> %scf
|  4>   MaxCore 4096
|  5> end
|  6> *xyz  0  1
|  7>     C       14.7752903   14.6752755   15.1931724
|  8>     C       14.7032178   16.1994202   14.9662109
|  9>     O       16.0070784   16.7479589   14.6861721
| 10>     C       16.9992338   16.6122743   15.6113280
| 11>     O       17.6369520   15.5803806   15.7284149
| 12>     C       17.1595355   17.7808115   16.5390878
| 13>     C       16.9695371   19.0648633   16.1382946
| 14>     C       16.3804055   19.5503884   14.8286334
| 15>     N       17.3830453   20.1301234   16.9421505
| 16>     C       18.1817234   20.0017108   18.0467121
| 17>     S       18.7188169   21.3177447   18.8920549
| 18>     N       18.5296353   18.7232774   18.4035742
| 19>     C       17.9971755   17.4914074   17.7891747
| 20>     C       17.2915067   16.5746126   18.7794954
| 21>     C       17.6586750   15.2214485   18.8897082
| 22>     C       17.0001718   14.3736778   19.7960146
| 23>     C       15.9657340   14.8837212   20.5991895
| 24>     C       15.5957389   16.2311825   20.4890985
| 25>     O       14.5926510   16.7247603   21.2580436
| 26>     C       16.2522338   17.0722726   19.5848909
| 27>     H       15.3260032   14.1873541   14.3789290
| 28>     H       13.7672299   14.2452723   15.2306037
| 29>     H       15.2755114   14.4375193   16.1407408
| 30>     H       14.0413561   16.4031543   14.1146031
| 31>     H       14.2711958   16.6824396   15.8528910
| 32>     H       16.8914286   19.0869194   13.9749759
| 33>     H       16.4694613   20.6360929   14.6998439
| 34>     H       15.3150448   19.2988170   14.7627805
| 35>     H       17.1575193   21.0760748   16.6786740
| 36>     H       19.1048673   18.6550150   19.2337520
| 37>     H       18.9282187   17.0298365   17.4284353
| 38>     H       18.4480210   14.8225811   18.2564025
| 39>     H       17.2896607   13.3267585   19.8683007
| 40>     H       15.4537168   14.2319375   21.2992539
| 41>     H       14.2963099   16.0101440   21.8416346
| 42>     H       15.9530972   18.1127721   19.5147581
| 43> *
| 44>
| 45>                          ****END OF INPUT****

CARTESIAN COORDINATES (ANGSTROEM)
---------------------------------
  C     14.775290   14.675275   15.193172
  C     14.703218   16.199420   14.966211
  O     16.007078   16.747959   14.686172
  C     16.999234   16.612274   15.611328
  O     17.636952   15.580381   15.728415
  C     17.159536   17.780811   16.539088
  C     16.969537   19.064863   16.138295
  C     16.380405   19.550388   14.828633
  N     17.383045   20.130123   16.942151
  C     18.181723   20.001711   18.046712
  S     18.718817   21.317745   18.892055
  N     18.529635   18.723277   18.403574
  C     17.997176   17.491407   17.789175
  C     17.291507   16.574613   18.779495
  C     17.658675   15.221448   18.889708
  C     17.000172   14.373678   19.796015
  C     15.965734   14.883721   20.599190
  C     15.595739   16.231182   20.489098
  O     14.592651   16.724760   21.258044
  C     16.252234   17.072273   19.584891
  H     15.326003   14.187354   14.378929
  H     13.767230   14.245272   15.230604
  H     15.275511   14.437519   16.140741
  H     14.041356   16.403154   14.114603
  H     14.271196   16.682440   15.852891
  H     16.891429   19.086919   13.974976
  H     16.469461   20.636093   14.699844
  H     15.315045   19.298817   14.762780
  H     17.157519   21.076075   16.678674
  H     19.104867   18.655015   19.233752
  H     18.928219   17.029836   17.428435
  H     18.448021   14.822581   18.256403
  H     17.289661   13.326758   19.868301
  H     15.453717   14.231937   21.299254
  H     14.296310   16.010144   21.841635
  H     15.953097   18.112772   19.514758

 Total Charge           Charge          ....    0
 Multiplicity           Mult            ....    1
 Number of Electrons    NEL             ....  154
 Basis Dimension        Dim             ....  828

ORBITAL ENERGIES
----------------

  NO   OCC          E(Eh)            E(eV)
   0   2.0000     -91.889603     -2500.4432
   1   2.0000     -20.594942      -560.4169
   2   2.0000     -20.587561      -560.2160
   3   2.0000     -20.552307      -559.2567
   4   2.0000     -15.630431      -425.3257
   5   2.0000     -15.607262      -424.6952
   6   2.0000     -11.394840      -310.0694
   7   2.0000     -11.384360      -309.7842
   8   2.0000     -11.339767      -308.5707
   9   2.0000     -11.311264      -307.7951
  10   2.0000     -11.306955      -307.6779
  11   2.0000     -11.305289      -307.6326
  12   2.0000     -11.261211      -306.4331
  13   2.0000     -11.260165      -306.4047
  14   2.0000     -11.258364      -306.3557
  15   2.0000     -11.251268      -306.1626
  16   2.0000     -11.241293      -305.8911
  17   2.0000     -11.237506      -305.7881
  18   2.0000     -11.233989      -305.6924
  19   2.0000     -11.224098      -305.4232
  20   2.0000      -8.894679      -242.0365
  21   2.0000      -6.576253      -178.9489
  22   2.0000      -6.574252      -178.8945
  23   2.0000      -6.573661      -178.8784
  24   2.0000      -1.449679       -39.4478
  25   2.0000      -1.414695       -38.4958
  26   2.0000      -1.358719       -36.9726
  27   2.0000      -1.341406       -36.5015
  28   2.0000      -1.238515       -33.7017
  29   2.0000      -1.155597       -31.4454
  30   2.0000      -1.122273       -30.5386
  31   2.0000      -1.043968       -28.4078
  32   2.0000      -1.032668       -28.1003
  33   2.0000      -1.013220       -27.5711
  34   2.0000      -1.001008       -27.2388
  35   2.0000      -0.985772       -26.8242
  36   2.0000      -0.923046       -25.1174
  37   2.0000      -0.889911       -24.2157
  38   2.0000      -0.850847       -23.1527
  39   2.0000      -0.838761       -22.8239
  40   2.0000      -0.831399       -22.6235
  41   2.0000      -0.826734       -22.4966
  42   2.0000      -0.747108       -20.3299
  43   2.0000      -0.731034       -19.8925
  44   2.0000      -0.728708       -19.8291
  45   2.0000      -0.692916       -18.8552
  46   2.0000      -0.685400       -18.6507
  47   2.0000      -0.680822       -18.5261
  48   2.0000      -0.675403       -18.3786
  49   2.0000      -0.666666       -18.1409
  50   2.0000      -0.648851       -17.6561
  51   2.0000      -0.644658       -17.5420
  52   2.0000      -0.635454       -17.2916
  53   2.0000      -0.610117       -16.6021
  54   2.0000      -0.605110       -16.4659
  55   2.0000      -0.601180       -16.3589
  56   2.0000      -0.598348       -16.2819
  57   2.0000      -0.576834       -15.6965
  58   2.0000      -0.573759       -15.6128
  59   2.0000      -0.569829       -15.5058
  60   2.0000      -0.557969       -15.1831
  61   2.0000      -0.551474       -15.0064
  62   2.0000      -0.538805       -14.6616
  63   2.0000      -0.525926       -14.3112
  64   2.0000      -0.518405       -14.1065
  65   2.0000      -0.511619       -13.9219
  66   2.0000      -0.498251       -13.5581
  67   2.0000      -0.493182       -13.4202
  68   2.0000      -0.481010       -13.0890
  69   2.0000      -0.465000       -12.6533
  70   2.0000      -0.459517       -12.5041
  71   2.0000      -0.449301       -12.2261
  72   2.0000      -0.354782        -9.6541
  73   2.0000      -0.347684        -9.4610
  74   2.0000      -0.328667        -8.9435
  75   2.0000      -0.318929        -8.6785
  76   2.0000      -0.317998        -8.6532
  77   0.0000       0.072149         1.9633
  78   0.0000       0.106680         2.9029
  79   0.0000       0.120239         3.2719
  80   0.0000       0.133358         3.6288
  81   0.0000       0.138553         3.7702

MULLIKEN ATOMIC CHARGES
-----------------------
   0 C :   -0.273614
   1 C :    0.025283
   2 O :   -0.377276
   3 C :    0.460776
   4 O :   -0.390459
   5 C :   -0.218499
   6 C :    0.162471
   7 C :   -0.284727
   8 N :   -0.127904
   9 C :    0.206401
  10 S :   -0.440154
  11 N :   -0.212779
  12 C :    0.048847
  13 C :    0.032344
  14 C :   -0.184734
  15 C :   -0.133265
  16 C :   -0.277816
  17 C :    0.314269
  18 O :   -0.358435
  19 C :   -0.255767
  20 H :    0.107689
  21 H :    0.094029
  22 H :    0.108353
  23 H :    0.107462
  24 H :    0.088036
  25 H :    0.132361
  26 H :    0.105389
  27 H :    0.121498
  28 H :    0.198853
  29 H :    0.199851
  30 H :    0.157554
  31 H :    0.165327
  32 H :    0.162309
  33 H :    0.129875
  34 H :    0.240535
  35 H :    0.165920
Sum of atomic charges:   -0.0000000

LOEWDIN ATOMIC CHARGES
----------------------
   0 C :    0.107841
   1 C :   -0.023288
   2 O :    0.291257
   3 C :   -0.418316
   4 O :    0.128199
   5 C :   -0.097811
   6 C :   -0.065360
   7 C :    0.126285
   8 N :    0.405764
   9 C :   -0.458184
  10 S :   -0.036090
  11 N :    0.396172
  12 C :   -0.049024
  13 C :   -0.042067
  14 C :    0.023671
  15 C :    0.040999
  16 C :   -0.001040
  17 C :   -0.192887
  18 O :    0.393332
  19 C :    0.028221
  20 H :   -0.021625
  21 H :   -0.028191
  22 H :   -0.025811
  23 H :   -0.022846
  24 H :   -0.035478
  25 H :   -0.006455
  26 H :   -0.020224
  27 H :   -0.010910
  28 H :   -0.058283
  29 H :   -0.063376
  30 H :   -0.007398
  31 H :   -0.023128
  32 H :   -0.020271
  33 H :   -0.035665
  34 H :   -0.154236
  35 H :   -0.023776

  Mayer bond orders larger than 0.100000
B(  0-C ,  1-C ) :   0.9829 B(  0-C , 20-H ) :   0.9742 B(  0-C , 21-H ) :   0.9744
B(  0-C , 22-H ) :   0.9707 B(  1-C ,  2-O ) :   0.9049 B(  1-C , 23-H ) :   0.9790
B(  1-C , 24-H ) :   0.9721 B(  2-O ,  3-C ) :   1.0666 B(  3-C ,  4-O ) :   2.0436
B(  3-C ,  5-C ) :   1.0154 B(  5-C ,  6-C ) :   1.6610 B(  5-C , 12-C ) :   0.9539
B(  6-C ,  7-C ) :   0.9516 B(  6-C ,  8-N ) :   1.1393 B(  7-C , 25-H ) :   0.9644
B(  7-C , 26-H ) :   0.9895 B(  7-C , 27-H ) :   0.9674 B(  8-N ,  9-C ) :   1.1842
B(  8-N , 28-H ) :   0.9471 B(  9-C , 10-S ) :   1.6115 B(  9-C , 11-N ) :   1.3036
B( 11-N , 12-C ) :   0.9797 B( 11-N , 29-H ) :   0.9487 B( 12-C , 13-C ) :   0.9684
B( 12-C , 30-H ) :   0.9953 B( 13-C , 14-C ) :   1.3780 B( 13-C , 19-C ) :   1.3627
B( 14-C , 15-C ) :   1.3955 B( 14-C , 31-H ) :   0.9617 B( 15-C , 16-C ) :   1.3597
B( 15-C , 32-H ) :   0.9704 B( 16-C , 17-C ) :   1.3325 B( 16-C , 33-H ) :   0.9855
B( 17-C , 18-O ) :   1.1051 B( 17-C , 19-C ) :   1.3665 B( 18-O , 34-H ) :   0.9801
B( 19-C , 35-H ) :   0.9596

MP2 TOTAL ENERGY:    -1274.326641062 Eh
FINAL SINGLE POINT ENERGY     -1274.326641061913

DIPOLE MOMENT
-------------
                                X             Y             Z
Electronic contribution:      9.71462       9.99244       8.58270
Nuclear contribution   :    -11.30508     -11.07134      -9.26419
                        -----------------------------------------
Total Dipole Moment    :     -1.59045      -1.07890      -0.68149
                        -----------------------------------------
Magnitude (a.u.)       :      2.03912
Magnitude (Debye)      :      5.18303

Rotational constants in cm-1:     0.010822     0.009184     0.005974
Rotational constants in MHz :   324.426906   275.323862   179.091371

                             ****ORCA TERMINATED NORMALLY****
TOTAL RUN TIME: 0 days 1 hours 52 minutes 32 seconds 682 msec
