                         Program Version 4.2.0 -  RELEASE  -
|  1> ! ri-mp2 cc-pvtz cc-pvtz/c TightSCF NoKeepInts
|  2>
|  3> %scf
|  4>   MaxCore 4096
|  5> end
|  6> *xyz  0  1
|  7>     C       14.1321586   16.8367118   15.7496519
|  8>     C       15.1620102   15.6968866   15.6268832
|  9>     O       16.3100152   16.0936960   14.8451110
| 10>     C       17.4300930   16.5990522   15.4484689
| 11>     O       18.5349967   16.1383770   15.2298718
| 12>     C       17.1983807   17.6642134   16.4635120
| 13>     C       16.7726419   18.8891497   16.0724362
| 14>     C       16.2605078   19.2907820   14.7039497
| 15>     N       16.8544773   19.9822459   16.9364461
| 16>     C       17.5631259   19.9821348   18.1094603
| 17>     S       17.7122120   21.3423246   19.0379377
| 18>     N       18.1644102   18.7983217   18.4624469
| 19>     C       17.9781227   17.5092369   17.7666571
| 20>     C       17.4377590   16.3809888   18.6307520
| 21>     C       18.0155846   15.1007885   18.5628042
| 22>     C       17.5001957   14.0439477   19.3315191
| 23>     C       16.3951042   14.2690889   20.1703999
| 24>     C       15.8126379   15.5425345   20.2331308
| 25>     O       14.7378726   15.7595049   21.0319760
| 26>     C       16.3267956   16.5925023   19.4655120
| 27>     H       14.4438281   17.5879329   16.4828503
| 28>     H       13.1697672   16.4345062   16.0892915
| 29>     H       13.9693504   17.3223693   14.7798138
| 30>     H       15.4641730   15.3379283   16.6207545
| 31>     H       14.6761043   14.8584349   15.1110519
| 32>     H       16.3602669   18.4937619   13.9582910
| 33>     H       16.8203392   20.1512629   14.3158238
| 34>     H       15.2009930   19.5701137   14.7475102
| 35>     H       16.4529664   20.8671259   16.6686172
| 36>     H       18.6780398   18.8244752   19.3344810
| 37>     H       19.0157409   17.2950884   17.4691488
| 38>     H       18.8620844   14.9234483   17.9020662
| 39>     H       17.9554390   13.0565520   19.2722972
| 40>     H       15.9934542   13.4550603   20.7650096
| 41>     H       14.5661439   14.9393117   21.5190841
| 42>     H       15.8592076   17.5701399   19.5229821
| 43> *
| 44>
| 45>                          ****END OF INPUT****

CARTESIAN COORDINATES (ANGSTROEM)
---------------------------------
  C     14.132159   16.836712   15.749652
  C     15.162010   15.696887   15.626883
  O     16.310015   16.093696   14.845111
  C     17.430093   16.599052   15.448469
  O     18.534997   16.138377   15.229872
  C     17.198381   17.664213   16.463512
  C     16.772642   18.889150   16.072436
  C     16.260508   19.290782   14.703950
  N     16.854477   19.982246   16.936446
  C     17.563126   19.982135   18.109460
  S     17.712212   21.342325   19.037938
  N     18.164410   18.798322   18.462447
  C     17.978123   17.509237   17.766657
  C     17.437759   16.380989   18.630752
  C     18.015585   15.100788   18.562804
  C     17.500196   14.043948   19.331519
  C     16.395104   14.269089   20.170400
  C     15.812638   15.542535   20.233131
  O     14.737873   15.759505   21.031976
  C     16.326796   16.592502   19.465512
  H     14.443828   17.587933   16.482850
  H     13.169767   16.434506   16.089292
  H     13.969350   17.322369   14.779814
  H     15.464173   15.337928   16.620755
  H     14.676104   14.858435   15.111052
  H     16.360267   18.493762   13.958291
  H     16.820339   20.151263   14.315824
  H     15.200993   19.570114   14.747510
  H     16.452966   20.867126   16.668617
  H     18.678040   18.824475   19.334481
  H     19.015741   17.295088   17.469149
  H     18.862084   14.923448   17.902066
  H     17.955439   13.056552   19.272297
  H     15.993454   13.455060   20.765010
  H     14.566144   14.939312   21.519084
  H     15.859208   17.570140   19.522982

 Total Charge           Charge          ....    0
 Multiplicity           Mult            ....    1
 Number of Electrons    NEL             ....  154
 Basis Dimension        Dim             ....  828

ORBITAL ENERGIES
----------------

  NO   OCC          E(Eh)            E(eV)
   0   2.0000     -91.889678     -2500.4452
   1   2.0000     -20.601925      -560.6069
   2   2.0000     -20.594173      -560.3959
   3   2.0000     -20.554627      -559.3198
   4   2.0000     -15.627215      -425.2381
   5   2.0000     -15.609749      -424.7629
   6   2.0000     -11.397259      -310.1352
   7   2.0000     -11.385758      -309.8222
   8   2.0000     -11.332049      -308.3607
   9   2.0000     -11.319767      -308.0265
  10   2.0000     -11.310405      -307.7718
  11   2.0000     -11.306325      -307.6607
  12   2.0000     -11.266822      -306.5858
  13   2.0000     -11.262658      -306.4725
  14   2.0000     -11.260616      -306.4169
  15   2.0000     -11.260237      -306.4066
  16   2.0000     -11.248865      -306.0972
  17   2.0000     -11.244555      -305.9799
  18   2.0000     -11.242420      -305.9218
  19   2.0000     -11.233843      -305.6884
  20   2.0000      -8.894779      -242.0392
  21   2.0000      -6.576359      -178.9518
  22   2.0000      -6.574349      -178.8971
  23   2.0000      -6.573765      -178.8812
  24   2.0000      -1.448251       -39.4089
  25   2.0000      -1.421651       -38.6851
  26   2.0000      -1.361506       -37.0484
  27   2.0000      -1.340459       -36.4757
  28   2.0000      -1.239190       -33.7201
  29   2.0000      -1.163739       -31.6670
  30   2.0000      -1.126278       -30.6476
  31   2.0000      -1.049560       -28.5600
  32   2.0000      -1.038109       -28.2484
  33   2.0000      -1.021293       -27.7908
  34   2.0000      -1.005616       -27.3642
  35   2.0000      -0.990098       -26.9419
  36   2.0000      -0.926952       -25.2236
  37   2.0000      -0.891199       -24.2508
  38   2.0000      -0.852104       -23.1869
  39   2.0000      -0.842963       -22.9382
  40   2.0000      -0.839501       -22.8440
  41   2.0000      -0.833274       -22.6745
  42   2.0000      -0.756842       -20.5947
  43   2.0000      -0.737674       -20.0731
  44   2.0000      -0.730796       -19.8860
  45   2.0000      -0.699559       -19.0360
  46   2.0000      -0.690404       -18.7869
  47   2.0000      -0.681863       -18.5544
  48   2.0000      -0.675331       -18.3767
  49   2.0000      -0.664160       -18.0727
  50   2.0000      -0.653377       -17.7793
  51   2.0000      -0.641941       -17.4681
  52   2.0000      -0.637839       -17.3565
  53   2.0000      -0.614283       -16.7155
  54   2.0000      -0.610067       -16.6008
  55   2.0000      -0.606838       -16.5129
  56   2.0000      -0.604715       -16.4551
  57   2.0000      -0.587490       -15.9864
  58   2.0000      -0.581845       -15.8328
  59   2.0000      -0.576839       -15.6966
  60   2.0000      -0.564150       -15.3513
  61   2.0000      -0.556327       -15.1384
  62   2.0000      -0.542587       -14.7646
  63   2.0000      -0.530831       -14.4447
  64   2.0000      -0.523403       -14.2425
  65   2.0000      -0.514335       -13.9958
  66   2.0000      -0.502787       -13.6815
  67   2.0000      -0.495415       -13.4809
  68   2.0000      -0.491893       -13.3851
  69   2.0000      -0.467203       -12.7132
  70   2.0000      -0.458031       -12.4637
  71   2.0000      -0.452711       -12.3189
  72   2.0000      -0.355465        -9.6727
  73   2.0000      -0.354331        -9.6418
  74   2.0000      -0.329407        -8.9636
  75   2.0000      -0.327273        -8.9056
  76   2.0000      -0.319741        -8.7006
  77   0.0000       0.085243         2.3196
  78   0.0000       0.100458         2.7336
  79   0.0000       0.120031         3.2662
  80   0.0000       0.125388         3.4120
  81   0.0000       0.128600         3.4994

MULLIKEN ATOMIC CHARGES
-----------------------
   0 C :   -0.320738
   1 C :    0.028446
   2 O :   -0.341616
   3 C :    0.425466
   4 O :   -0.372081
   5 C :   -0.207698
   6 C :    0.133737
   7 C :   -0.331619
   8 N :   -0.137374
   9 C :    0.207083
  10 S :   -0.442609
  11 N :   -0.220220
  12 C :    0.062153
  13 C :    0.003662
  14 C :   -0.212459
  15 C :   -0.128562
  16 C :   -0.277203
  17 C :    0.310178
  18 O :   -0.354987
  19 C :   -0.239126
  20 H :    0.105464
  21 H :    0.119898
  22 H :    0.104042
  23 H :    0.106281
  24 H :    0.124635
  25 H :    0.134341
  26 H :    0.140615
  27 H :    0.122968
  28 H :    0.198762
  29 H :    0.201144
  30 H :    0.167071
  31 H :    0.175419
  32 H :    0.165504
  33 H :    0.133509
  34 H :    0.241629
  35 H :    0.174285
Sum of atomic charges:   -0.0000000

LOEWDIN ATOMIC CHARGES
----------------------
   0 C :    0.102825
   1 C :   -0.014770
   2 O :    0.291579
   3 C :   -0.419215
   4 O :    0.128238
   5 C :   -0.086495
   6 C :   -0.086947
   7 C :    0.126107
   8 N :    0.403904
   9 C :   -0.455641
  10 S :   -0.038051
  11 N :    0.395755
  12 C :   -0.051005
  13 C :   -0.045486
  14 C :    0.017936
  15 C :    0.044319
  16 C :   -0.000003
  17 C :   -0.191638
  18 O :    0.395837
  19 C :    0.027934
  20 H :   -0.034555
  21 H :   -0.022904
  22 H :   -0.028405
  23 H :   -0.027628
  24 H :   -0.020388
  25 H :   -0.009727
  26 H :   -0.010793
  27 H :   -0.016608
  28 H :   -0.056119
  29 H :   -0.064170
  30 H :   -0.004391
  31 H :   -0.021485
  32 H :   -0.018201
  33 H :   -0.034294
  34 H :   -0.152755
  35 H :   -0.022760

  Mayer bond orders larger than 0.100000
B(  0-C ,  1-C ) :   0.9596 B(  0-C , 20-H ) :   0.9745 B(  0-C , 21-H ) :   0.9787
B(  0-C , 22-H ) :   0.9735 B(  1-C ,  2-O ) :   0.8988 B(  1-C , 23-H ) :   0.9700
B(  1-C , 24-H ) :   0.9851 B(  2-O ,  3-C ) :   1.1392 B(  3-C ,  4-O ) :   2.1153
B(  3-C ,  5-C ) :   0.9157 B(  5-C ,  6-C ) :   1.7231 B(  5-C , 12-C ) :   0.9383
B(  6-C ,  7-C ) :   0.9502 B(  6-C ,  8-N ) :   1.1063 B(  7-C , 25-H ) :   0.9742
B(  7-C , 26-H ) :   0.9720 B(  7-C , 27-H ) :   0.9638 B(  8-N ,  9-C ) :   1.1970
B(  8-N , 28-H ) :   0.9501 B(  9-C , 10-S ) :   1.6118 B(  9-C , 11-N ) :   1.2898
B( 11-N , 12-C ) :   0.9853 B( 11-N , 29-H ) :   0.9481 B( 12-C , 13-C ) :   0.9656
B( 12-C , 30-H ) :   0.9910 B( 13-C , 14-C ) :   1.3855 B( 13-C , 19-C ) :   1.3535
B( 14-C , 15-C ) :   1.3929 B( 14-C , 31-H ) :   0.9602 B( 15-C , 16-C ) :   1.3629
B( 15-C , 32-H ) :   0.9695 B( 16-C , 17-C ) :   1.3296 B( 16-C , 33-H ) :   0.9843
B( 17-C , 18-O ) :   1.1113 B( 17-C , 19-C ) :   1.3675 B( 18-O , 34-H ) :   0.9789
B( 19-C , 35-H ) :   0.9562

MP2 TOTAL ENERGY:    -1274.327260735 Eh
FINAL SINGLE POINT ENERGY     -1274.327260735053

DIPOLE MOMENT
-------------
                                X             Y             Z
Electronic contribution:      9.66832       5.76224       7.15682
Nuclear contribution   :    -11.16047      -7.21097      -7.38733
                        -----------------------------------------
Total Dipole Moment    :     -1.49214      -1.44874      -0.23051
                        -----------------------------------------
Magnitude (a.u.)       :      2.09248
Magnitude (Debye)      :      5.31866

Rotational constants in cm-1:     0.011602     0.009096     0.006615
Rotational constants in MHz :   347.819554   272.694399   198.307578

                             ****ORCA TERMINATED NORMALLY****
TOTAL RUN TIME: 0 days 1 hours 51 minutes 27 seconds 827 msec
