                         Program Version 4.2.0 -  RELEASE  -
|  1> ! ri-mp2 cc-pvtz cc-pvtz/c TightSCF NoKeepInts
|  2>
|  3> %scf
|  4>   MaxCore 4096
|  5> end
|  6> *xyz  0  1
|  7>     C       14.6427464   14.5681334   16.4195248
|  8>     C       15.0543665   15.9555792   15.9002929
|  9>     O       16.3579174   15.8272368   15.3000099
| 10>     C       17.2134313   16.8881929   15.1768803
| 11>     O       17.9577038   16.9881148   14.2194181
| 12>     C       17.1807555   17.9027082   16.2738499
| 13>     C       17.1379784   19.2090808   15.9238323
| 14>     C       16.7242888   19.7449802   14.5700632
| 15>     N       17.5072581   20.2141322   16.8188167
| 16>     C       18.1691762   19.9824522   17.9951718
| 17>     S       18.6896036   21.2169403   18.9646139
| 18>     N       18.4010292   18.6675352   18.3174071
| 19>     C       17.8580345   17.5018667   17.5919617
| 20>     C       17.0958220   16.5366025   18.4859779
| 21>     C       17.5379896   15.2104625   18.6434573
| 22>     C       16.8561098   14.3285412   19.4990041
| 23>     C       15.7208914   14.7754888   20.1969627
| 24>     C       15.2816878   16.0977513   20.0443948
| 25>     O       14.1861349   16.5323572   20.7157494
| 26>     C       15.9679230   16.9762652   19.1999620
| 27>     H       15.3836432   14.1780344   17.1252858
| 28>     H       14.5556948   13.8573407   15.5884160
| 29>     H       13.6745049   14.6195675   16.9318438
| 30>     H       14.3306835   16.3128940   15.1561011
| 31>     H       15.0497522   16.6574880   16.7403476
| 32>     H       17.5726620   19.7132472   13.8732292
| 33>     H       16.3659597   20.7801438   14.6204195
| 34>     H       15.9198844   19.1415281   14.1318436
| 35>     H       17.3869605   21.1826784   16.5676884
| 36>     H       18.8818865   18.5270821   19.1973278
| 37>     H       18.8023187   17.0325807   17.2787854
| 38>     H       18.4131327   14.8610414   18.1009692
| 39>     H       17.2052053   13.3036062   19.6148745
| 40>     H       15.1886887   14.0960943   20.8549022
| 41>     H       13.8908101   15.8107726   21.2918074
| 42>     H       15.6243644   18.0014788   19.1068075
| 43> *
| 44>
| 45>                          ****END OF INPUT****

CARTESIAN COORDINATES (ANGSTROEM)
---------------------------------
  C     14.642746   14.568133   16.419525
  C     15.054367   15.955579   15.900293
  O     16.357917   15.827237   15.300010
  C     17.213431   16.888193   15.176880
  O     17.957704   16.988115   14.219418
  C     17.180756   17.902708   16.273850
  C     17.137978   19.209081   15.923832
  C     16.724289   19.744980   14.570063
  N     17.507258   20.214132   16.818817
  C     18.169176   19.982452   17.995172
  S     18.689604   21.216940   18.964614
  N     18.401029   18.667535   18.317407
  C     17.858034   17.501867   17.591962
  C     17.095822   16.536603   18.485978
  C     17.537990   15.210462   18.643457
  C     16.856110   14.328541   19.499004
  C     15.720891   14.775489   20.196963
  C     15.281688   16.097751   20.044395
  O     14.186135   16.532357   20.715749
  C     15.967923   16.976265   19.199962
  H     15.383643   14.178034   17.125286
  H     14.555695   13.857341   15.588416
  H     13.674505   14.619567   16.931844
  H     14.330683   16.312894   15.156101
  H     15.049752   16.657488   16.740348
  H     17.572662   19.713247   13.873229
  H     16.365960   20.780144   14.620420
  H     15.919884   19.141528   14.131844
  H     17.386961   21.182678   16.567688
  H     18.881886   18.527082   19.197328
  H     18.802319   17.032581   17.278785
  H     18.413133   14.861041   18.100969
  H     17.205205   13.303606   19.614874
  H     15.188689   14.096094   20.854902
  H     13.890810   15.810773   21.291807
  H     15.624364   18.001479   19.106807

 Total Charge           Charge          ....    0
 Multiplicity           Mult            ....    1
 Number of Electrons    NEL             ....  154
 Basis Dimension        Dim             ....  828

ORBITAL ENERGIES
----------------

  NO   OCC          E(Eh)            E(eV)
   0   2.0000     -91.889998     -2500.4540
   1   2.0000     -20.605621      -560.7074
   2   2.0000     -20.597027      -560.4736
   3   2.0000     -20.551553      -559.2362
   4   2.0000     -15.626879      -425.2290
   5   2.0000     -15.610796      -424.7913
   6   2.0000     -11.394952      -310.0724
   7   2.0000     -11.385377      -309.8119
   8   2.0000     -11.329013      -308.2781
   9   2.0000     -11.323932      -308.1398
  10   2.0000     -11.316926      -307.9492
  11   2.0000     -11.298742      -307.4544
  12   2.0000     -11.270793      -306.6939
  13   2.0000     -11.264354      -306.5187
  14   2.0000     -11.257053      -306.3200
  15   2.0000     -11.256607      -306.3079
  16   2.0000     -11.253575      -306.2254
  17   2.0000     -11.248990      -306.1006
  18   2.0000     -11.248792      -306.0952
  19   2.0000     -11.225948      -305.4736
  20   2.0000      -8.895075      -242.0473
  21   2.0000      -6.576649      -178.9597
  22   2.0000      -6.574647      -178.9052
  23   2.0000      -6.574059      -178.8892
  24   2.0000      -1.446957       -39.3737
  25   2.0000      -1.425390       -38.7868
  26   2.0000      -1.360226       -37.0136
  27   2.0000      -1.340131       -36.4668
  28   2.0000      -1.240002       -33.7422
  29   2.0000      -1.167136       -31.7594
  30   2.0000      -1.125450       -30.6250
  31   2.0000      -1.051647       -28.6168
  32   2.0000      -1.035230       -28.1700
  33   2.0000      -1.025441       -27.9037
  34   2.0000      -1.003491       -27.3064
  35   2.0000      -0.989171       -26.9167
  36   2.0000      -0.927417       -25.2363
  37   2.0000      -0.877952       -23.8903
  38   2.0000      -0.852563       -23.1994
  39   2.0000      -0.844806       -22.9884
  40   2.0000      -0.844025       -22.9671
  41   2.0000      -0.837521       -22.7901
  42   2.0000      -0.760713       -20.7001
  43   2.0000      -0.740126       -20.1399
  44   2.0000      -0.729000       -19.8371
  45   2.0000      -0.704483       -19.1700
  46   2.0000      -0.693381       -18.8679
  47   2.0000      -0.681087       -18.5333
  48   2.0000      -0.676457       -18.4073
  49   2.0000      -0.659548       -17.9472
  50   2.0000      -0.651817       -17.7368
  51   2.0000      -0.645216       -17.5572
  52   2.0000      -0.639163       -17.3925
  53   2.0000      -0.615783       -16.7563
  54   2.0000      -0.612040       -16.6545
  55   2.0000      -0.604922       -16.4608
  56   2.0000      -0.602764       -16.4020
  57   2.0000      -0.583975       -15.8908
  58   2.0000      -0.576873       -15.6975
  59   2.0000      -0.566820       -15.4239
  60   2.0000      -0.558860       -15.2074
  61   2.0000      -0.548887       -14.9360
  62   2.0000      -0.539366       -14.6769
  63   2.0000      -0.534324       -14.5397
  64   2.0000      -0.526848       -14.3363
  65   2.0000      -0.516991       -14.0680
  66   2.0000      -0.506051       -13.7704
  67   2.0000      -0.501415       -13.6442
  68   2.0000      -0.490782       -13.3549
  69   2.0000      -0.465450       -12.6655
  70   2.0000      -0.455987       -12.4080
  71   2.0000      -0.451738       -12.2924
  72   2.0000      -0.359053        -9.7703
  73   2.0000      -0.351734        -9.5712
  74   2.0000      -0.332682        -9.0527
  75   2.0000      -0.328602        -8.9417
  76   2.0000      -0.319771        -8.7014
  77   0.0000       0.083340         2.2678
  78   0.0000       0.094293         2.5658
  79   0.0000       0.119078         3.2403
  80   0.0000       0.125474         3.4143
  81   0.0000       0.128831         3.5057

MULLIKEN ATOMIC CHARGES
-----------------------
   0 C :   -0.277259
   1 C :    0.023911
   2 O :   -0.313714
   3 C :    0.399250
   4 O :   -0.371423
   5 C :   -0.233055
   6 C :    0.150514
   7 C :   -0.282299
   8 N :   -0.132622
   9 C :    0.212211
  10 S :   -0.440992
  11 N :   -0.210912
  12 C :    0.035770
  13 C :    0.003656
  14 C :   -0.190371
  15 C :   -0.142069
  16 C :   -0.267182
  17 C :    0.313579
  18 O :   -0.355523
  19 C :   -0.228304
  20 H :    0.107091
  21 H :    0.109854
  22 H :    0.088999
  23 H :    0.108551
  24 H :    0.097653
  25 H :    0.144238
  26 H :    0.098542
  27 H :    0.114181
  28 H :    0.197952
  29 H :    0.200181
  30 H :    0.160175
  31 H :    0.157852
  32 H :    0.168551
  33 H :    0.135339
  34 H :    0.242169
  35 H :    0.175508
Sum of atomic charges:   -0.0000000

LOEWDIN ATOMIC CHARGES
----------------------
   0 C :    0.110640
   1 C :   -0.021102
   2 O :    0.306860
   3 C :   -0.420532
   4 O :    0.127659
   5 C :   -0.098256
   6 C :   -0.082029
   7 C :    0.129370
   8 N :    0.404746
   9 C :   -0.454619
  10 S :   -0.036138
  11 N :    0.395281
  12 C :   -0.054673
  13 C :   -0.043348
  14 C :    0.018729
  15 C :    0.045195
  16 C :    0.004113
  17 C :   -0.190773
  18 O :    0.397080
  19 C :    0.034526
  20 H :   -0.027309
  21 H :   -0.026747
  22 H :   -0.025842
  23 H :   -0.033761
  24 H :   -0.042371
  25 H :   -0.003443
  26 H :   -0.020526
  27 H :   -0.010249
  28 H :   -0.057791
  29 H :   -0.063857
  30 H :   -0.009396
  31 H :   -0.026108
  32 H :   -0.018789
  33 H :   -0.033341
  34 H :   -0.151926
  35 H :   -0.021272

  Mayer bond orders larger than 0.100000
B(  0-C ,  1-C ) :   0.9781 B(  0-C , 20-H ) :   0.9717 B(  0-C , 21-H ) :   0.9800
B(  0-C , 22-H ) :   0.9759 B(  1-C ,  2-O ) :   0.8995 B(  1-C , 23-H ) :   0.9802
B(  1-C , 24-H ) :   0.9570 B(  2-O ,  3-C ) :   1.1862 B(  3-C ,  4-O ) :   2.1295
B(  3-C ,  5-C ) :   0.9306 B(  5-C ,  6-C ) :   1.6975 B(  5-C , 12-C ) :   0.9599
B(  6-C ,  7-C ) :   0.9437 B(  6-C ,  8-N ) :   1.1286 B(  7-C , 25-H ) :   0.9568
B(  7-C , 26-H ) :   0.9853 B(  7-C , 27-H ) :   0.9772 B(  8-N ,  9-C ) :   1.1978
B(  8-N , 28-H ) :   0.9493 B(  9-C , 10-S ) :   1.6117 B(  9-C , 11-N ) :   1.2901
B( 11-N , 12-C ) :   0.9793 B( 11-N , 29-H ) :   0.9474 B( 12-C , 13-C ) :   0.9649
B( 12-C , 30-H ) :   1.0049 B( 13-C , 14-C ) :   1.3677 B( 13-C , 19-C ) :   1.3434
B( 14-C , 15-C ) :   1.3830 B( 14-C , 31-H ) :   0.9706 B( 15-C , 16-C ) :   1.3647
B( 15-C , 32-H ) :   0.9703 B( 16-C , 17-C ) :   1.3276 B( 16-C , 33-H ) :   0.9833
B( 17-C , 18-O ) :   1.1103 B( 17-C , 19-C ) :   1.3659 B( 18-O , 34-H ) :   0.9783
B( 19-C , 35-H ) :   0.9588

MP2 TOTAL ENERGY:    -1274.325891196 Eh
FINAL SINGLE POINT ENERGY     -1274.325891196269

DIPOLE MOMENT
-------------
                                X             Y             Z
Electronic contribution:      9.28986       9.85311       5.01221
Nuclear contribution   :    -10.93681     -11.27464      -4.67910
                        -----------------------------------------
Total Dipole Moment    :     -1.64694      -1.42153       0.33311
                        -----------------------------------------
Magnitude (a.u.)       :      2.20094
Magnitude (Debye)      :      5.59434

Rotational constants in cm-1:     0.012644     0.008728     0.006131
Rotational constants in MHz :   379.058418   261.670532   183.814346

                             ****ORCA TERMINATED NORMALLY****
TOTAL RUN TIME: 0 days 1 hours 48 minutes 27 seconds 450 msec
