                         Program Version 4.2.0 -  RELEASE  -
|  1> ! ri-mp2 cc-pvtz cc-pvtz/c TightSCF NoKeepInts
|  2>
|  3> %scf
|  4>   MaxCore 4096
|  5> end
|  6> *xyz  0  1
|  7>     C       13.8324859   15.8212900   13.6507225
|  8>     C       15.0876765   15.4172459   14.4421207
|  9>     O       15.5940923   16.6003716   15.0802363
| 10>     C       16.6533590   16.4827432   15.9318762
| 11>     O       17.2969199   15.4499327   16.0239110
| 12>     C       16.9160239   17.6842390   16.7976305
| 13>     C       16.5786666   18.9502458   16.4318781
| 14>     C       15.7006292   19.3889298   15.2758859
| 15>     N       17.0832637   20.0517397   17.1281926
| 16>     C       18.0916531   19.9907829   18.0513723
| 17>     S       18.7148332   21.3518715   18.7546980
| 18>     N       18.5738157   18.7409945   18.3451716
| 19>     C       17.9975620   17.4701224   17.8652931
| 20>     C       17.5647456   16.5462645   18.9962817
| 21>     C       18.0736536   15.2383275   19.0893834
| 22>     C       17.6759316   14.3894843   20.1359633
| 23>     C       16.7628375   14.8533136   21.0985158
| 24>     C       16.2530113   16.1558420   21.0071180
| 25>     O       15.3685608   16.6049786   21.9330853
| 26>     C       16.6504833   16.9981683   19.9638463
| 27>     H       13.0708846   16.2395321   14.3205713
| 28>     H       13.4016978   14.9497974   13.1427998
| 29>     H       14.0792300   16.5740536   12.8917739
| 30>     H       14.8253208   14.6602667   15.1939290
| 31>     H       15.8427531   14.9927585   13.7666164
| 32>     H       16.1018768   19.0255623   14.3215474
| 33>     H       15.6155998   20.4793450   15.1940509
| 34>     H       14.6836973   18.9926709   15.3893626
| 35>     H       16.7543613   20.9780479   16.9078297
| 36>     H       19.3015652   18.7209107   19.0484081
| 37>     H       18.8643691   17.0515817   17.3334056
| 38>     H       18.7680187   14.8741776   18.3358869
| 39>     H       18.0709642   13.3768667   20.1936597
| 40>     H       16.4518013   14.2005557   21.9072468
| 41>     H       15.2365415   15.8927299   22.5765034
| 42>     H       16.2481137   18.0042553   19.9112260
| 43> *
| 44>
| 45>                          ****END OF INPUT****

CARTESIAN COORDINATES (ANGSTROEM)
---------------------------------
  C     13.832486   15.821290   13.650723
  C     15.087677   15.417246   14.442121
  O     15.594092   16.600372   15.080236
  C     16.653359   16.482743   15.931876
  O     17.296920   15.449933   16.023911
  C     16.916024   17.684239   16.797631
  C     16.578667   18.950246   16.431878
  C     15.700629   19.388930   15.275886
  N     17.083264   20.051740   17.128193
  C     18.091653   19.990783   18.051372
  S     18.714833   21.351872   18.754698
  N     18.573816   18.740994   18.345172
  C     17.997562   17.470122   17.865293
  C     17.564746   16.546264   18.996282
  C     18.073654   15.238327   19.089383
  C     17.675932   14.389484   20.135963
  C     16.762837   14.853314   21.098516
  C     16.253011   16.155842   21.007118
  O     15.368561   16.604979   21.933085
  C     16.650483   16.998168   19.963846
  H     13.070885   16.239532   14.320571
  H     13.401698   14.949797   13.142800
  H     14.079230   16.574054   12.891774
  H     14.825321   14.660267   15.193929
  H     15.842753   14.992758   13.766616
  H     16.101877   19.025562   14.321547
  H     15.615600   20.479345   15.194051
  H     14.683697   18.992671   15.389363
  H     16.754361   20.978048   16.907830
  H     19.301565   18.720911   19.048408
  H     18.864369   17.051582   17.333406
  H     18.768019   14.874178   18.335887
  H     18.070964   13.376867   20.193660
  H     16.451801   14.200556   21.907247
  H     15.236541   15.892730   22.576503
  H     16.248114   18.004255   19.911226

 Total Charge           Charge          ....    0
 Multiplicity           Mult            ....    1
 Number of Electrons    NEL             ....  154
 Basis Dimension        Dim             ....  828

ORBITAL ENERGIES
----------------

  NO   OCC          E(Eh)            E(eV)
   0   2.0000     -91.887754     -2500.3929
   1   2.0000     -20.605005      -560.6907
   2   2.0000     -20.590965      -560.3087
   3   2.0000     -20.544845      -559.0536
   4   2.0000     -15.628365      -425.2694
   5   2.0000     -15.605357      -424.6434
   6   2.0000     -11.394997      -310.0736
   7   2.0000     -11.382231      -309.7263
   8   2.0000     -11.338279      -308.5303
   9   2.0000     -11.306872      -307.6756
  10   2.0000     -11.303848      -307.5934
  11   2.0000     -11.299775      -307.4825
  12   2.0000     -11.261234      -306.4338
  13   2.0000     -11.259065      -306.3747
  14   2.0000     -11.254165      -306.2414
  15   2.0000     -11.246909      -306.0440
  16   2.0000     -11.237174      -305.7791
  17   2.0000     -11.235867      -305.7435
  18   2.0000     -11.233332      -305.6745
  19   2.0000     -11.230051      -305.5852
  20   2.0000      -8.892840      -241.9865
  21   2.0000      -6.574419      -178.8990
  22   2.0000      -6.572415      -178.8445
  23   2.0000      -6.571828      -178.8285
  24   2.0000      -1.456017       -39.6202
  25   2.0000      -1.410710       -38.3874
  26   2.0000      -1.357173       -36.9305
  27   2.0000      -1.339709       -36.4553
  28   2.0000      -1.236821       -33.6556
  29   2.0000      -1.151611       -31.3369
  30   2.0000      -1.120429       -30.4884
  31   2.0000      -1.045355       -28.4456
  32   2.0000      -1.036834       -28.2137
  33   2.0000      -1.009140       -27.4601
  34   2.0000      -0.998500       -27.1706
  35   2.0000      -0.983590       -26.7648
  36   2.0000      -0.920210       -25.0402
  37   2.0000      -0.888625       -24.1807
  38   2.0000      -0.846786       -23.0422
  39   2.0000      -0.834104       -22.6971
  40   2.0000      -0.827181       -22.5088
  41   2.0000      -0.817740       -22.2518
  42   2.0000      -0.762742       -20.7553
  43   2.0000      -0.736033       -20.0285
  44   2.0000      -0.725475       -19.7412
  45   2.0000      -0.690023       -18.7765
  46   2.0000      -0.684223       -18.6187
  47   2.0000      -0.681402       -18.5419
  48   2.0000      -0.676010       -18.3952
  49   2.0000      -0.659970       -17.9587
  50   2.0000      -0.649477       -17.6732
  51   2.0000      -0.641451       -17.4548
  52   2.0000      -0.633066       -17.2266
  53   2.0000      -0.602977       -16.4078
  54   2.0000      -0.598662       -16.2904
  55   2.0000      -0.595023       -16.1914
  56   2.0000      -0.594199       -16.1690
  57   2.0000      -0.580792       -15.8041
  58   2.0000      -0.572165       -15.5694
  59   2.0000      -0.564575       -15.3629
  60   2.0000      -0.562512       -15.3067
  61   2.0000      -0.553973       -15.0744
  62   2.0000      -0.542137       -14.7523
  63   2.0000      -0.519603       -14.1391
  64   2.0000      -0.515073       -14.0158
  65   2.0000      -0.511254       -13.9119
  66   2.0000      -0.505011       -13.7421
  67   2.0000      -0.493667       -13.4334
  68   2.0000      -0.481122       -13.0920
  69   2.0000      -0.465568       -12.6688
  70   2.0000      -0.459948       -12.5158
  71   2.0000      -0.453553       -12.3418
  72   2.0000      -0.352944        -9.6041
  73   2.0000      -0.343796        -9.3552
  74   2.0000      -0.326826        -8.8934
  75   2.0000      -0.316879        -8.6227
  76   2.0000      -0.313446        -8.5293
  77   0.0000       0.077847         2.1183
  78   0.0000       0.112527         3.0620
  79   0.0000       0.119937         3.2636
  80   0.0000       0.135977         3.7001
  81   0.0000       0.138487         3.7684

MULLIKEN ATOMIC CHARGES
-----------------------
   0 C :   -0.272972
   1 C :    0.045085
   2 O :   -0.332504
   3 C :    0.406128
   4 O :   -0.423734
   5 C :   -0.169256
   6 C :    0.164271
   7 C :   -0.284208
   8 N :   -0.128939
   9 C :    0.207385
  10 S :   -0.442884
  11 N :   -0.210886
  12 C :    0.042536
  13 C :    0.032089
  14 C :   -0.164432
  15 C :   -0.134471
  16 C :   -0.276946
  17 C :    0.314271
  18 O :   -0.359291
  19 C :   -0.251188
  20 H :    0.096089
  21 H :    0.101154
  22 H :    0.093938
  23 H :    0.093109
  24 H :    0.095337
  25 H :    0.124703
  26 H :    0.103761
  27 H :    0.130338
  28 H :    0.198799
  29 H :    0.199991
  30 H :    0.154706
  31 H :    0.157852
  32 H :    0.159578
  33 H :    0.127924
  34 H :    0.239827
  35 H :    0.162839
Sum of atomic charges:    0.0000000

LOEWDIN ATOMIC CHARGES
----------------------
   0 C :    0.107249
   1 C :   -0.018495
   2 O :    0.307419
   3 C :   -0.415037
   4 O :    0.103282
   5 C :   -0.091273
   6 C :   -0.064046
   7 C :    0.124748
   8 N :    0.405390
   9 C :   -0.458792
  10 S :   -0.037937
  11 N :    0.396586
  12 C :   -0.048266
  13 C :   -0.040368
  14 C :    0.025412
  15 C :    0.041014
  16 C :   -0.001143
  17 C :   -0.192510
  18 O :    0.392957
  19 C :    0.029735
  20 H :   -0.027401
  21 H :   -0.022704
  22 H :   -0.028283
  23 H :   -0.026982
  24 H :   -0.028822
  25 H :   -0.010138
  26 H :   -0.021281
  27 H :   -0.009462
  28 H :   -0.058851
  29 H :   -0.063014
  30 H :   -0.008486
  31 H :   -0.024108
  32 H :   -0.021156
  33 H :   -0.036257
  34 H :   -0.154983
  35 H :   -0.023999

  Mayer bond orders larger than 0.100000
B(  0-C ,  1-C ) :   0.9701 B(  0-C , 20-H ) :   0.9771 B(  0-C , 21-H ) :   0.9789
B(  0-C , 22-H ) :   0.9777 B(  1-C ,  2-O ) :   0.9077 B(  1-C , 23-H ) :   0.9758
B(  1-C , 24-H ) :   0.9788 B(  2-O ,  3-C ) :   1.1640 B(  3-C ,  4-O ) :   1.9805
B(  3-C ,  5-C ) :   1.0500 B(  5-C ,  6-C ) :   1.6528 B(  5-C , 12-C ) :   0.9513
B(  6-C ,  7-C ) :   0.9527 B(  6-C ,  8-N ) :   1.1347 B(  7-C , 25-H ) :   0.9652
B(  7-C , 26-H ) :   0.9921 B(  7-C , 27-H ) :   0.9631 B(  8-N ,  9-C ) :   1.1852
B(  8-N , 28-H ) :   0.9469 B(  9-C , 10-S ) :   1.6075 B(  9-C , 11-N ) :   1.3073
B( 11-N , 12-C ) :   0.9760 B( 11-N , 29-H ) :   0.9485 B( 12-C , 13-C ) :   0.9751
B( 12-C , 30-H ) :   0.9975 B( 13-C , 14-C ) :   1.3754 B( 13-C , 19-C ) :   1.3664
B( 14-C , 15-C ) :   1.3974 B( 14-C , 31-H ) :   0.9642 B( 15-C , 16-C ) :   1.3585
B( 15-C , 32-H ) :   0.9713 B( 16-C , 17-C ) :   1.3335 B( 16-C , 33-H ) :   0.9861
B( 17-C , 18-O ) :   1.1029 B( 17-C , 19-C ) :   1.3677 B( 18-O , 34-H ) :   0.9807
B( 19-C , 35-H ) :   0.9603

MP2 TOTAL ENERGY:    -1274.343222577 Eh
FINAL SINGLE POINT ENERGY     -1274.343222576571

DIPOLE MOMENT
-------------
                                X             Y             Z
Electronic contribution:     10.86403       8.52691      12.60093
Nuclear contribution   :    -12.29092      -9.86710     -13.66505
                        -----------------------------------------
Total Dipole Moment    :     -1.42689      -1.34019      -1.06412
                        -----------------------------------------
Magnitude (a.u.)       :      2.22810
Magnitude (Debye)      :      5.66339

Rotational constants in cm-1:     0.009902     0.008644     0.005438
Rotational constants in MHz :   296.863315   259.151956   163.032991

                             ****ORCA TERMINATED NORMALLY****
TOTAL RUN TIME: 0 days 1 hours 33 minutes 33 seconds 735 msec
