                         Program Version 4.2.0 -  RELEASE  -
|  1> ! ri-mp2 cc-pvtz cc-pvtz/c TightSCF NoKeepInts
|  2>
|  3> %scf
|  4>   MaxCore 4096
|  5> end
|  6> *xyz  0  1
|  7>     C       14.7154888   14.5929560   15.6592515
|  8>     C       16.0329953   14.9057570   14.9244458
|  9>     O       16.7088913   15.9546463   15.6395464
| 10>     C       16.3231943   17.2564985   15.4743967
| 11>     O       15.5950228   17.6081792   14.5613312
| 12>     C       16.8700893   18.1614157   16.5454738
| 13>     C       16.8631945   19.5100890   16.3896615
| 14>     C       16.1323857   20.3048915   15.3272944
| 15>     N       17.5915704   20.3371744   17.2477698
| 16>     C       18.4944778   19.8891177   18.1736642
| 17>     S       19.3910131   20.9282611   19.0968095
| 18>     N       18.6334482   18.5286145   18.2830941
| 19>     C       17.8105613   17.5245901   17.5823302
| 20>     C       17.1128950   16.5658552   18.5387755
| 21>     C       17.5106500   15.2186217   18.6204482
| 22>     C       16.8600907   14.3343995   19.4974372
| 23>     C       15.8059160   14.8024387   20.3006163
| 24>     C       15.4111431   16.1453783   20.2239305
| 25>     O       14.3940279   16.5998264   20.9985011
| 26>     C       16.0605025   17.0228752   19.3500170
| 27>     H       14.9078107   14.3481611   16.7117256
| 28>     H       14.2091548   13.7389701   15.1936241
| 29>     H       14.0346722   15.4527773   15.6229119
| 30>     H       16.6612683   14.0059806   14.9238645
| 31>     H       15.8416609   15.1898912   13.8804770
| 32>     H       15.0651915   20.0482678   15.3199492
| 33>     H       16.5310382   20.0769813   14.3305601
| 34>     H       16.2061640   21.3888906   15.4737710
| 35>     H       17.5142153   21.3381327   17.1636692
| 36>     H       19.2824640   18.2278098   18.9991154
| 37>     H       18.5854402   17.0013320   17.0043846
| 38>     H       18.3204256   14.8544879   17.9938941
| 39>     H       17.1721762   13.2929504   19.5519057
| 40>     H       15.3003191   14.1235636   20.9794001
| 41>     H       14.0927430   15.8603508   21.5473004
| 42>     H       15.7446980   18.0598670   19.3066521
| 43> *
| 44>
| 45>                          ****END OF INPUT****

CARTESIAN COORDINATES (ANGSTROEM)
---------------------------------
  C     14.715489   14.592956   15.659251
  C     16.032995   14.905757   14.924446
  O     16.708891   15.954646   15.639546
  C     16.323194   17.256498   15.474397
  O     15.595023   17.608179   14.561331
  C     16.870089   18.161416   16.545474
  C     16.863194   19.510089   16.389661
  C     16.132386   20.304891   15.327294
  N     17.591570   20.337174   17.247770
  C     18.494478   19.889118   18.173664
  S     19.391013   20.928261   19.096809
  N     18.633448   18.528614   18.283094
  C     17.810561   17.524590   17.582330
  C     17.112895   16.565855   18.538775
  C     17.510650   15.218622   18.620448
  C     16.860091   14.334399   19.497437
  C     15.805916   14.802439   20.300616
  C     15.411143   16.145378   20.223931
  O     14.394028   16.599826   20.998501
  C     16.060502   17.022875   19.350017
  H     14.907811   14.348161   16.711726
  H     14.209155   13.738970   15.193624
  H     14.034672   15.452777   15.622912
  H     16.661268   14.005981   14.923865
  H     15.841661   15.189891   13.880477
  H     15.065191   20.048268   15.319949
  H     16.531038   20.076981   14.330560
  H     16.206164   21.388891   15.473771
  H     17.514215   21.338133   17.163669
  H     19.282464   18.227810   18.999115
  H     18.585440   17.001332   17.004385
  H     18.320426   14.854488   17.993894
  H     17.172176   13.292950   19.551906
  H     15.300319   14.123564   20.979400
  H     14.092743   15.860351   21.547300
  H     15.744698   18.059867   19.306652

 Total Charge           Charge          ....    0
 Multiplicity           Mult            ....    1
 Number of Electrons    NEL             ....  154
 Basis Dimension        Dim             ....  828

ORBITAL ENERGIES
----------------

  NO   OCC          E(Eh)            E(eV)
   0   2.0000     -91.888858     -2500.4230
   1   2.0000     -20.600076      -560.5566
   2   2.0000     -20.596803      -560.4675
   3   2.0000     -20.541244      -558.9557
   4   2.0000     -15.629224      -425.2928
   5   2.0000     -15.607084      -424.6903
   6   2.0000     -11.395266      -310.0809
   7   2.0000     -11.383600      -309.7635
   8   2.0000     -11.337296      -308.5035
   9   2.0000     -11.314094      -307.8721
  10   2.0000     -11.307489      -307.6924
  11   2.0000     -11.296208      -307.3854
  12   2.0000     -11.260954      -306.4261
  13   2.0000     -11.259222      -306.3790
  14   2.0000     -11.255404      -306.2751
  15   2.0000     -11.251710      -306.1746
  16   2.0000     -11.244098      -305.9675
  17   2.0000     -11.239348      -305.8382
  18   2.0000     -11.238901      -305.8260
  19   2.0000     -11.223035      -305.3943
  20   2.0000      -8.893929      -242.0161
  21   2.0000      -6.575502      -178.9285
  22   2.0000      -6.573503      -178.8741
  23   2.0000      -6.572913      -178.8581
  24   2.0000      -1.451039       -39.4848
  25   2.0000      -1.416489       -38.5446
  26   2.0000      -1.354183       -36.8492
  27   2.0000      -1.340301       -36.4715
  28   2.0000      -1.238217       -33.6936
  29   2.0000      -1.157966       -31.5099
  30   2.0000      -1.121325       -30.5128
  31   2.0000      -1.043081       -28.3837
  32   2.0000      -1.035840       -28.1866
  33   2.0000      -1.015331       -27.6286
  34   2.0000      -0.995948       -27.1011
  35   2.0000      -0.984612       -26.7927
  36   2.0000      -0.921937       -25.0872
  37   2.0000      -0.893678       -24.3182
  38   2.0000      -0.846526       -23.0351
  39   2.0000      -0.838257       -22.8101
  40   2.0000      -0.834479       -22.7073
  41   2.0000      -0.815236       -22.1837
  42   2.0000      -0.757048       -20.6003
  43   2.0000      -0.733879       -19.9699
  44   2.0000      -0.722441       -19.6586
  45   2.0000      -0.695855       -18.9352
  46   2.0000      -0.689262       -18.7558
  47   2.0000      -0.679354       -18.4862
  48   2.0000      -0.671013       -18.2592
  49   2.0000      -0.659422       -17.9438
  50   2.0000      -0.646978       -17.6052
  51   2.0000      -0.639799       -17.4098
  52   2.0000      -0.633493       -17.2382
  53   2.0000      -0.609168       -16.5763
  54   2.0000      -0.606613       -16.5068
  55   2.0000      -0.600392       -16.3375
  56   2.0000      -0.599239       -16.3061
  57   2.0000      -0.577570       -15.7165
  58   2.0000      -0.569701       -15.5023
  59   2.0000      -0.567224       -15.4349
  60   2.0000      -0.559304       -15.2194
  61   2.0000      -0.545386       -14.8407
  62   2.0000      -0.533255       -14.5106
  63   2.0000      -0.531793       -14.4708
  64   2.0000      -0.524164       -14.2632
  65   2.0000      -0.513151       -13.9636
  66   2.0000      -0.500199       -13.6111
  67   2.0000      -0.497906       -13.5487
  68   2.0000      -0.482012       -13.1162
  69   2.0000      -0.463563       -12.6142
  70   2.0000      -0.454858       -12.3773
  71   2.0000      -0.446933       -12.1617
  72   2.0000      -0.353248        -9.6124
  73   2.0000      -0.350167        -9.5285
  74   2.0000      -0.328060        -8.9270
  75   2.0000      -0.321382        -8.7452
  76   2.0000      -0.318077        -8.6553
  77   0.0000       0.077422         2.1068
  78   0.0000       0.104688         2.8487
  79   0.0000       0.124813         3.3963
  80   0.0000       0.132654         3.6097
  81   0.0000       0.137983         3.7547

MULLIKEN ATOMIC CHARGES
-----------------------
   0 C :   -0.295900
   1 C :    0.013778
   2 O :   -0.351342
   3 C :    0.440897
   4 O :   -0.438714
   5 C :   -0.224407
   6 C :    0.173321
   7 C :   -0.268231
   8 N :   -0.126261
   9 C :    0.210331
  10 S :   -0.441956
  11 N :   -0.215802
  12 C :    0.063653
  13 C :    0.043942
  14 C :   -0.183912
  15 C :   -0.136126
  16 C :   -0.276019
  17 C :    0.315562
  18 O :   -0.356591
  19 C :   -0.246097
  20 H :    0.107417
  21 H :    0.096593
  22 H :    0.108030
  23 H :    0.109328
  24 H :    0.119554
  25 H :    0.133996
  26 H :    0.128861
  27 H :    0.094718
  28 H :    0.199728
  29 H :    0.200344
  30 H :    0.153115
  31 H :    0.152457
  32 H :    0.161214
  33 H :    0.130716
  34 H :    0.240527
  35 H :    0.163279
Sum of atomic charges:   -0.0000000

LOEWDIN ATOMIC CHARGES
----------------------
   0 C :    0.105164
   1 C :   -0.018691
   2 O :    0.309346
   3 C :   -0.414107
   4 O :    0.094332
   5 C :   -0.094535
   6 C :   -0.056888
   7 C :    0.131278
   8 N :    0.407105
   9 C :   -0.456331
  10 S :   -0.036616
  11 N :    0.394633
  12 C :   -0.054317
  13 C :   -0.039903
  14 C :    0.016607
  15 C :    0.038677
  16 C :   -0.001079
  17 C :   -0.189743
  18 O :    0.395273
  19 C :    0.033571
  20 H :   -0.025810
  21 H :   -0.027633
  22 H :   -0.025543
  23 H :   -0.026352
  24 H :   -0.027835
  25 H :   -0.004262
  26 H :   -0.005043
  27 H :   -0.023631
  28 H :   -0.057157
  29 H :   -0.064422
  30 H :   -0.013695
  31 H :   -0.029118
  32 H :   -0.021423
  33 H :   -0.035302
  34 H :   -0.153948
  35 H :   -0.022601

  Mayer bond orders larger than 0.100000
B(  0-C ,  1-C ) :   0.9616 B(  0-C , 20-H ) :   0.9721 B(  0-C , 21-H ) :   0.9772
B(  0-C , 22-H ) :   0.9768 B(  1-C ,  2-O ) :   0.8947 B(  1-C , 23-H ) :   0.9846
B(  1-C , 24-H ) :   0.9786 B(  2-O ,  3-C ) :   1.1603 B(  3-C ,  4-O ) :   1.9572
B(  3-C ,  5-C ) :   1.0677 B(  5-C ,  6-C ) :   1.6419 B(  5-C , 12-C ) :   0.9552
B(  6-C ,  7-C ) :   0.9645 B(  6-C ,  8-N ) :   1.1539 B(  7-C , 25-H ) :   0.9611
B(  7-C , 26-H ) :   0.9592 B(  7-C , 27-H ) :   0.9905 B(  8-N ,  9-C ) :   1.1875
B(  8-N , 28-H ) :   0.9463 B(  9-C , 10-S ) :   1.6060 B(  9-C , 11-N ) :   1.3090
B( 11-N , 12-C ) :   0.9692 B( 11-N , 29-H ) :   0.9484 B( 12-C , 13-C ) :   0.9620
B( 12-C , 30-H ) :   1.0001 B( 13-C , 14-C ) :   1.3532 B( 13-C , 19-C ) :   1.3804
B( 14-C , 15-C ) :   1.3945 B( 14-C , 31-H ) :   0.9717 B( 15-C , 16-C ) :   1.3569
B( 15-C , 32-H ) :   0.9710 B( 16-C , 17-C ) :   1.3338 B( 16-C , 33-H ) :   0.9851
B( 17-C , 18-O ) :   1.1053 B( 17-C , 19-C ) :   1.3646 B( 18-O , 34-H ) :   0.9799
B( 19-C , 35-H ) :   0.9591

MP2 TOTAL ENERGY:    -1274.345167986 Eh
FINAL SINGLE POINT ENERGY     -1274.345167986386

DIPOLE MOMENT
-------------
                                X             Y             Z
Electronic contribution:      8.69269      10.93169       7.88476
Nuclear contribution   :     -9.52790     -12.72730      -8.31625
                        -----------------------------------------
Total Dipole Moment    :     -0.83520      -1.79562      -0.43149
                        -----------------------------------------
Magnitude (a.u.)       :      2.02682
Magnitude (Debye)      :      5.15176

Rotational constants in cm-1:     0.011852     0.008568     0.005985
Rotational constants in MHz :   355.318915   256.867580   179.426587

                             ****ORCA TERMINATED NORMALLY****
TOTAL RUN TIME: 0 days 1 hours 38 minutes 36 seconds 579 msec
