                         Program Version 4.2.0 -  RELEASE  -
|  1> ! ri-mp2 cc-pvtz cc-pvtz/c TightSCF NoKeepInts
|  2>
|  3> %scf
|  4>   MaxCore 4096
|  5> end
|  6> *xyz  0  1
|  7>     C       14.4424350   15.3712086   16.3358244
|  8>     C       15.1167980   16.1778234   15.2132855
|  9>     O       16.5028224   15.7874497   15.1628943
| 10>     C       17.5475334   16.6268915   15.4473396
| 11>     O       18.6771497   16.4033635   15.0563248
| 12>     C       17.2579133   17.7179343   16.4169545
| 13>     C       16.9891119   18.9549987   15.9395048
| 14>     C       16.6273115   19.3143316   14.5127514
| 15>     N       17.0843392   20.0790786   16.7610008
| 16>     C       17.6929697   20.0780691   17.9889801
| 17>     S       17.8859186   21.4655013   18.8677347
| 18>     N       18.1592732   18.8668967   18.4403305
| 19>     C       17.9064180   17.5639863   17.7916192
| 20>     C       17.2334952   16.5191726   18.6682524
| 21>     C       17.6369798   15.1738141   18.5937299
| 22>     C       17.0090862   14.1955739   19.3825025
| 23>     C       15.9687013   14.5659971   20.2517805
| 24>     C       15.5624074   15.9054739   20.3252120
| 25>     O       14.5510480   16.2636905   21.1553956
| 26>     C       16.1876111   16.8774959   19.5373418
| 27>     H       14.8635050   15.6333203   17.3125952
| 28>     H       14.5852983   14.2947359   16.1784301
| 29>     H       13.3651129   15.5742456   16.3639944
| 30>     H       14.6388336   15.9254826   14.2577469
| 31>     H       14.9766922   17.2508383   15.3845943
| 32>     H       16.6935629   18.4610482   13.8270768
| 33>     H       17.3091239   20.0811911   14.1225909
| 34>     H       15.6054433   19.7085681   14.4532687
| 35>     H       16.7881663   20.9805185   16.4208887
| 36>     H       18.6058488   18.8932002   19.3485831
| 37>     H       18.9426004   17.2558293   17.5849284
| 38>     H       18.4352209   14.8845021   17.9132505
| 39>     H       17.3277676   13.1566064   19.3154483
| 40>     H       15.4803395   13.8130415   20.8616448
| 41>     H       14.2775746   15.4705689   21.6406387
| 42>     H       15.8525872   17.9075520   19.6035609
| 43> *
| 44>
| 45>                          ****END OF INPUT****

CARTESIAN COORDINATES (ANGSTROEM)
---------------------------------
  C     14.442435   15.371209   16.335824
  C     15.116798   16.177823   15.213285
  O     16.502822   15.787450   15.162894
  C     17.547533   16.626891   15.447340
  O     18.677150   16.403364   15.056325
  C     17.257913   17.717934   16.416954
  C     16.989112   18.954999   15.939505
  C     16.627312   19.314332   14.512751
  N     17.084339   20.079079   16.761001
  C     17.692970   20.078069   17.988980
  S     17.885919   21.465501   18.867735
  N     18.159273   18.866897   18.440331
  C     17.906418   17.563986   17.791619
  C     17.233495   16.519173   18.668252
  C     17.636980   15.173814   18.593730
  C     17.009086   14.195574   19.382503
  C     15.968701   14.565997   20.251780
  C     15.562407   15.905474   20.325212
  O     14.551048   16.263690   21.155396
  C     16.187611   16.877496   19.537342
  H     14.863505   15.633320   17.312595
  H     14.585298   14.294736   16.178430
  H     13.365113   15.574246   16.363994
  H     14.638834   15.925483   14.257747
  H     14.976692   17.250838   15.384594
  H     16.693563   18.461048   13.827077
  H     17.309124   20.081191   14.122591
  H     15.605443   19.708568   14.453269
  H     16.788166   20.980518   16.420889
  H     18.605849   18.893200   19.348583
  H     18.942600   17.255829   17.584928
  H     18.435221   14.884502   17.913251
  H     17.327768   13.156606   19.315448
  H     15.480339   13.813042   20.861645
  H     14.277575   15.470569   21.640639
  H     15.852587   17.907552   19.603561

 Total Charge           Charge          ....    0
 Multiplicity           Mult            ....    1
 Number of Electrons    NEL             ....  154
 Basis Dimension        Dim             ....  828

ORBITAL ENERGIES
----------------

  NO   OCC          E(Eh)            E(eV)
   0   2.0000     -91.889037     -2500.4278
   1   2.0000     -20.602948      -560.6347
   2   2.0000     -20.601267      -560.5890
   3   2.0000     -20.554929      -559.3281
   4   2.0000     -15.625214      -425.1837
   5   2.0000     -15.610244      -424.7763
   6   2.0000     -11.400100      -310.2125
   7   2.0000     -11.385308      -309.8100
   8   2.0000     -11.328059      -308.2522
   9   2.0000     -11.319301      -308.0138
  10   2.0000     -11.314218      -307.8755
  11   2.0000     -11.305754      -307.6452
  12   2.0000     -11.267704      -306.6098
  13   2.0000     -11.267682      -306.6092
  14   2.0000     -11.262129      -306.4581
  15   2.0000     -11.260236      -306.4066
  16   2.0000     -11.248197      -306.0790
  17   2.0000     -11.243909      -305.9623
  18   2.0000     -11.242924      -305.9355
  19   2.0000     -11.227592      -305.5183
  20   2.0000      -8.894143      -242.0219
  21   2.0000      -6.575728      -178.9346
  22   2.0000      -6.573712      -178.8798
  23   2.0000      -6.573134      -178.8641
  24   2.0000      -1.450442       -39.4685
  25   2.0000      -1.420996       -38.6673
  26   2.0000      -1.365008       -37.1437
  27   2.0000      -1.339410       -36.4472
  28   2.0000      -1.238895       -33.7120
  29   2.0000      -1.163600       -31.6632
  30   2.0000      -1.127351       -30.6768
  31   2.0000      -1.050155       -28.5762
  32   2.0000      -1.038637       -28.2627
  33   2.0000      -1.021566       -27.7982
  34   2.0000      -1.006667       -27.3928
  35   2.0000      -0.990001       -26.9393
  36   2.0000      -0.927449       -25.2372
  37   2.0000      -0.887587       -24.1525
  38   2.0000      -0.853724       -23.2310
  39   2.0000      -0.842633       -22.9292
  40   2.0000      -0.838864       -22.8266
  41   2.0000      -0.836000       -22.7487
  42   2.0000      -0.757258       -20.6060
  43   2.0000      -0.739531       -20.1237
  44   2.0000      -0.733020       -19.9465
  45   2.0000      -0.699217       -19.0267
  46   2.0000      -0.692735       -18.8503
  47   2.0000      -0.683878       -18.6093
  48   2.0000      -0.675362       -18.3775
  49   2.0000      -0.664881       -18.0923
  50   2.0000      -0.652973       -17.7683
  51   2.0000      -0.638888       -17.3850
  52   2.0000      -0.632395       -17.2083
  53   2.0000      -0.622339       -16.9347
  54   2.0000      -0.613759       -16.7012
  55   2.0000      -0.608094       -16.5471
  56   2.0000      -0.604459       -16.4482
  57   2.0000      -0.586297       -15.9539
  58   2.0000      -0.579061       -15.7571
  59   2.0000      -0.570530       -15.5249
  60   2.0000      -0.562811       -15.3149
  61   2.0000      -0.558889       -15.2081
  62   2.0000      -0.537908       -14.6372
  63   2.0000      -0.534967       -14.5572
  64   2.0000      -0.522142       -14.2082
  65   2.0000      -0.513791       -13.9810
  66   2.0000      -0.505031       -13.7426
  67   2.0000      -0.502796       -13.6818
  68   2.0000      -0.489638       -13.3237
  69   2.0000      -0.468314       -12.7435
  70   2.0000      -0.455825       -12.4036
  71   2.0000      -0.451799       -12.2941
  72   2.0000      -0.355892        -9.6843
  73   2.0000      -0.353177        -9.6104
  74   2.0000      -0.328795        -8.9470
  75   2.0000      -0.327048        -8.8994
  76   2.0000      -0.319092        -8.6829
  77   0.0000       0.092776         2.5246
  78   0.0000       0.103643         2.8203
  79   0.0000       0.115456         3.1417
  80   0.0000       0.127961         3.4820
  81   0.0000       0.128299         3.4912

MULLIKEN ATOMIC CHARGES
-----------------------
   0 C :   -0.272249
   1 C :    0.022163
   2 O :   -0.313486
   3 C :    0.414373
   4 O :   -0.378322
   5 C :   -0.174178
   6 C :    0.122161
   7 C :   -0.322533
   8 N :   -0.138685
   9 C :    0.213632
  10 S :   -0.444384
  11 N :   -0.231653
  12 C :    0.039059
  13 C :    0.009178
  14 C :   -0.203393
  15 C :   -0.136948
  16 C :   -0.266970
  17 C :    0.310264
  18 O :   -0.356997
  19 C :   -0.235710
  20 H :    0.109148
  21 H :    0.103044
  22 H :    0.093553
  23 H :    0.115246
  24 H :    0.089777
  25 H :    0.121042
  26 H :    0.138236
  27 H :    0.122543
  28 H :    0.196396
  29 H :    0.204824
  30 H :    0.170027
  31 H :    0.166505
  32 H :    0.164411
  33 H :    0.133207
  34 H :    0.241321
  35 H :    0.175396
Sum of atomic charges:   -0.0000000

LOEWDIN ATOMIC CHARGES
----------------------
   0 C :    0.108171
   1 C :   -0.022575
   2 O :    0.311932
   3 C :   -0.420826
   4 O :    0.125418
   5 C :   -0.082134
   6 C :   -0.101505
   7 C :    0.124762
   8 N :    0.402166
   9 C :   -0.454857
  10 S :   -0.039307
  11 N :    0.396446
  12 C :   -0.050297
  13 C :   -0.044497
  14 C :    0.019015
  15 C :    0.046812
  16 C :    0.000370
  17 C :   -0.190814
  18 O :    0.396840
  19 C :    0.027298
  20 H :   -0.026186
  21 H :   -0.024268
  22 H :   -0.027203
  23 H :   -0.026860
  24 H :   -0.037984
  25 H :   -0.009113
  26 H :   -0.008366
  27 H :   -0.016498
  28 H :   -0.057434
  29 H :   -0.064113
  30 H :   -0.003717
  31 H :   -0.022743
  32 H :   -0.018043
  33 H :   -0.034311
  34 H :   -0.152757
  35 H :   -0.022817

  Mayer bond orders larger than 0.100000
B(  0-C ,  1-C ) :   0.9782 B(  0-C , 20-H ) :   0.9692 B(  0-C , 21-H ) :   0.9786
B(  0-C , 22-H ) :   0.9771 B(  1-C ,  2-O ) :   0.9071 B(  1-C , 23-H ) :   0.9812
B(  1-C , 24-H ) :   0.9599 B(  2-O ,  3-C ) :   1.1613 B(  3-C ,  4-O ) :   2.1166
B(  3-C ,  5-C ) :   0.9034 B(  5-C ,  6-C ) :   1.7297 B(  5-C , 12-C ) :   0.9481
B(  6-C ,  7-C ) :   0.9389 B(  6-C ,  8-N ) :   1.1031 B(  7-C , 25-H ) :   0.9794
B(  7-C , 26-H ) :   0.9709 B(  7-C , 27-H ) :   0.9673 B(  8-N ,  9-C ) :   1.2036
B(  8-N , 28-H ) :   0.9520 B(  9-C , 10-S ) :   1.6078 B(  9-C , 11-N ) :   1.2868
B( 11-N , 12-C ) :   0.9751 B( 11-N , 29-H ) :   0.9458 B( 12-C , 13-C ) :   0.9666
B( 12-C , 30-H ) :   0.9907 B( 13-C , 14-C ) :   1.3839 B( 13-C , 19-C ) :   1.3516
B( 14-C , 15-C ) :   1.3986 B( 14-C , 31-H ) :   0.9646 B( 15-C , 16-C ) :   1.3593
B( 15-C , 32-H ) :   0.9695 B( 16-C , 17-C ) :   1.3329 B( 16-C , 33-H ) :   0.9844
B( 17-C , 18-O ) :   1.1105 B( 17-C , 19-C ) :   1.3624 B( 18-O , 34-H ) :   0.9791
B( 19-C , 35-H ) :   0.9569

MP2 TOTAL ENERGY:    -1274.326513486 Eh
FINAL SINGLE POINT ENERGY     -1274.326513486488

DIPOLE MOMENT
-------------
                                X             Y             Z
Electronic contribution:      9.30273       8.21338       6.76771
Nuclear contribution   :    -11.00392      -9.54589      -7.19326
                        -----------------------------------------
Total Dipole Moment    :     -1.70119      -1.33251      -0.42555
                        -----------------------------------------
Magnitude (a.u.)       :      2.20244
Magnitude (Debye)      :      5.59815

Rotational constants in cm-1:     0.011860     0.009070     0.006333
Rotational constants in MHz :   355.547112   271.917496   189.869132

                             ****ORCA TERMINATED NORMALLY****
TOTAL RUN TIME: 0 days 1 hours 41 minutes 26 seconds 594 msec
