                         Program Version 4.2.0 -  RELEASE  -
|  1> ! ri-mp2 cc-pvtz cc-pvtz/c TightSCF NoKeepInts
|  2>
|  3> %scf
|  4>   MaxCore 4096
|  5> end
|  6> *xyz  0  1
|  7>     C       14.7825850   15.0764905   15.9533264
|  8>     C       14.8668243   16.3153817   15.0355565
|  9>     O       16.2237338   16.5392109   14.5965060
| 10>     C       17.2297224   16.5570396   15.5175630
| 11>     O       18.0309568   15.6439975   15.6049233
| 12>     C       17.2134512   17.7264748   16.4551363
| 13>     C       16.9515890   18.9874500   16.0259828
| 14>     C       16.4610678   19.4122387   14.6557271
| 15>     N       17.2055849   20.0867420   16.8495573
| 16>     C       17.9255453   20.0298066   18.0130955
| 17>     S       18.2801767   21.3890154   18.8856578
| 18>     N       18.3558066   18.7869183   18.4056551
| 19>     C       17.9770303   17.5123040   17.7646490
| 20>     C       17.2804768   16.5344449   18.7000764
| 21>     C       17.7255938   15.2043444   18.8019947
| 22>     C       17.0690600   14.2941777   19.6470306
| 23>     C       15.9574360   14.7178027   20.3954508
| 24>     C       15.5095868   16.0419676   20.2926652
| 25>     O       14.4306596   16.4512580   21.0062062
| 26>     C       16.1642972   16.9454540   19.4494475
| 27>     H       15.2541412   14.2078296   15.4759676
| 28>     H       13.7354302   14.8245209   16.1597636
| 29>     H       15.2781409   15.2529607   16.9160371
| 30>     H       14.2253417   16.1642465   14.1576761
| 31>     H       14.4921275   17.1912310   15.5809998
| 32>     H       17.0154260   18.8959705   13.8613729
| 33>     H       16.5920763   20.4869617   14.4782814
| 34>     H       15.3965198   19.1850385   14.5283842
| 35>     H       16.9224318   21.0093969   16.5598467
| 36>     H       18.8737894   18.7707278   19.2753292
| 37>     H       18.9681684   17.1313569   17.4767583
| 38>     H       18.5747230   14.8714595   18.2087920
| 39>     H       17.4196548   13.2656351   19.7137841
| 40>     H       15.4464351   14.0171983   21.0475556
| 41>     H       14.1491489   15.7069394   21.5593946
| 42>     H       15.8022606   17.9660075   19.3818493
| 43> *
| 44>
| 45>                          ****END OF INPUT****

CARTESIAN COORDINATES (ANGSTROEM)
---------------------------------
  C     14.782585   15.076491   15.953326
  C     14.866824   16.315382   15.035556
  O     16.223734   16.539211   14.596506
  C     17.229722   16.557040   15.517563
  O     18.030957   15.643997   15.604923
  C     17.213451   17.726475   16.455136
  C     16.951589   18.987450   16.025983
  C     16.461068   19.412239   14.655727
  N     17.205585   20.086742   16.849557
  C     17.925545   20.029807   18.013095
  S     18.280177   21.389015   18.885658
  N     18.355807   18.786918   18.405655
  C     17.977030   17.512304   17.764649
  C     17.280477   16.534445   18.700076
  C     17.725594   15.204344   18.801995
  C     17.069060   14.294178   19.647031
  C     15.957436   14.717803   20.395451
  C     15.509587   16.041968   20.292665
  O     14.430660   16.451258   21.006206
  C     16.164297   16.945454   19.449447
  H     15.254141   14.207830   15.475968
  H     13.735430   14.824521   16.159764
  H     15.278141   15.252961   16.916037
  H     14.225342   16.164247   14.157676
  H     14.492127   17.191231   15.581000
  H     17.015426   18.895971   13.861373
  H     16.592076   20.486962   14.478281
  H     15.396520   19.185039   14.528384
  H     16.922432   21.009397   16.559847
  H     18.873789   18.770728   19.275329
  H     18.968168   17.131357   17.476758
  H     18.574723   14.871460   18.208792
  H     17.419655   13.265635   19.713784
  H     15.446435   14.017198   21.047556
  H     14.149149   15.706939   21.559395
  H     15.802261   17.966007   19.381849

 Total Charge           Charge          ....    0
 Multiplicity           Mult            ....    1
 Number of Electrons    NEL             ....  154
 Basis Dimension        Dim             ....  828

ORBITAL ENERGIES
----------------

  NO   OCC          E(Eh)            E(eV)
   0   2.0000     -91.890298     -2500.4621
   1   2.0000     -20.597317      -560.4815
   2   2.0000     -20.589640      -560.2726
   3   2.0000     -20.552896      -559.2727
   4   2.0000     -15.630585      -425.3298
   5   2.0000     -15.608376      -424.7255
   6   2.0000     -11.394974      -310.0730
   7   2.0000     -11.385359      -309.8114
   8   2.0000     -11.339347      -308.5593
   9   2.0000     -11.314092      -307.8721
  10   2.0000     -11.308018      -307.7068
  11   2.0000     -11.306804      -307.6738
  12   2.0000     -11.263308      -306.4902
  13   2.0000     -11.261023      -306.4280
  14   2.0000     -11.260754      -306.4207
  15   2.0000     -11.253946      -306.2355
  16   2.0000     -11.243926      -305.9628
  17   2.0000     -11.239929      -305.8540
  18   2.0000     -11.236282      -305.7548
  19   2.0000     -11.228206      -305.5350
  20   2.0000      -8.895379      -242.0556
  21   2.0000      -6.576953      -178.9680
  22   2.0000      -6.574950      -178.9135
  23   2.0000      -6.574360      -178.8974
  24   2.0000      -1.449046       -39.4305
  25   2.0000      -1.417092       -38.5610
  26   2.0000      -1.359626       -36.9973
  27   2.0000      -1.341978       -36.5171
  28   2.0000      -1.239337       -33.7241
  29   2.0000      -1.158331       -31.5198
  30   2.0000      -1.123856       -30.5817
  31   2.0000      -1.045974       -28.4624
  32   2.0000      -1.033286       -28.1171
  33   2.0000      -1.015935       -27.6450
  34   2.0000      -1.003577       -27.3087
  35   2.0000      -0.988129       -26.8883
  36   2.0000      -0.924927       -25.1685
  37   2.0000      -0.893418       -24.3111
  38   2.0000      -0.852490       -23.1974
  39   2.0000      -0.840499       -22.8711
  40   2.0000      -0.833929       -22.6924
  41   2.0000      -0.828892       -22.5553
  42   2.0000      -0.745604       -20.2889
  43   2.0000      -0.732150       -19.9228
  44   2.0000      -0.730665       -19.8824
  45   2.0000      -0.694769       -18.9056
  46   2.0000      -0.685549       -18.6547
  47   2.0000      -0.682238       -18.5646
  48   2.0000      -0.677748       -18.4425
  49   2.0000      -0.664834       -18.0910
  50   2.0000      -0.652920       -17.7669
  51   2.0000      -0.646403       -17.5895
  52   2.0000      -0.636665       -17.3245
  53   2.0000      -0.620315       -16.8796
  54   2.0000      -0.607730       -16.5372
  55   2.0000      -0.603462       -16.4210
  56   2.0000      -0.600699       -16.3458
  57   2.0000      -0.580306       -15.7909
  58   2.0000      -0.575577       -15.6622
  59   2.0000      -0.566448       -15.4138
  60   2.0000      -0.557252       -15.1636
  61   2.0000      -0.549022       -14.9396
  62   2.0000      -0.542762       -14.7693
  63   2.0000      -0.531846       -14.4723
  64   2.0000      -0.519934       -14.1481
  65   2.0000      -0.511882       -13.9290
  66   2.0000      -0.499566       -13.5939
  67   2.0000      -0.491081       -13.3630
  68   2.0000      -0.487548       -13.2668
  69   2.0000      -0.467945       -12.7334
  70   2.0000      -0.460448       -12.5294
  71   2.0000      -0.449446       -12.2300
  72   2.0000      -0.356198        -9.6926
  73   2.0000      -0.350093        -9.5265
  74   2.0000      -0.329459        -8.9650
  75   2.0000      -0.321277        -8.7424
  76   2.0000      -0.319754        -8.7010
  77   0.0000       0.074095         2.0162
  78   0.0000       0.104776         2.8511
  79   0.0000       0.119356         3.2478
  80   0.0000       0.131382         3.5751
  81   0.0000       0.136776         3.7219

MULLIKEN ATOMIC CHARGES
-----------------------
   0 C :   -0.292534
   1 C :    0.022613
   2 O :   -0.367285
   3 C :    0.456879
   4 O :   -0.383454
   5 C :   -0.242055
   6 C :    0.163201
   7 C :   -0.295197
   8 N :   -0.129724
   9 C :    0.206451
  10 S :   -0.439870
  11 N :   -0.214406
  12 C :    0.062543
  13 C :   -0.016217
  14 C :   -0.174651
  15 C :   -0.134819
  16 C :   -0.272183
  17 C :    0.304202
  18 O :   -0.358137
  19 C :   -0.223697
  20 H :    0.113152
  21 H :    0.099998
  22 H :    0.114954
  23 H :    0.118729
  24 H :    0.082841
  25 H :    0.137043
  26 H :    0.110141
  27 H :    0.120918
  28 H :    0.198102
  29 H :    0.200105
  30 H :    0.159921
  31 H :    0.169092
  32 H :    0.162439
  33 H :    0.131679
  34 H :    0.240889
  35 H :    0.168339
Sum of atomic charges:   -0.0000000

LOEWDIN ATOMIC CHARGES
----------------------
   0 C :    0.110177
   1 C :   -0.023541
   2 O :    0.292785
   3 C :   -0.422989
   4 O :    0.127279
   5 C :   -0.096107
   6 C :   -0.070836
   7 C :    0.127808
   8 N :    0.405128
   9 C :   -0.457926
  10 S :   -0.035923
  11 N :    0.396122
  12 C :   -0.049165
  13 C :   -0.044872
  14 C :    0.023220
  15 C :    0.042581
  16 C :   -0.000463
  17 C :   -0.193025
  18 O :    0.394243
  19 C :    0.027448
  20 H :   -0.020519
  21 H :   -0.025171
  22 H :   -0.025051
  23 H :   -0.021707
  24 H :   -0.040005
  25 H :   -0.005744
  26 H :   -0.018141
  27 H :   -0.013838
  28 H :   -0.058134
  29 H :   -0.063411
  30 H :   -0.006287
  31 H :   -0.022151
  32 H :   -0.019457
  33 H :   -0.035069
  34 H :   -0.153696
  35 H :   -0.023567

  Mayer bond orders larger than 0.100000
B(  0-C ,  1-C ) :   0.9766 B(  0-C , 20-H ) :   0.9740 B(  0-C , 21-H ) :   0.9763
B(  0-C , 22-H ) :   0.9655 B(  1-C ,  2-O ) :   0.9013 B(  1-C , 23-H ) :   0.9776
B(  1-C , 24-H ) :   0.9714 B(  2-O ,  3-C ) :   1.0917 B(  3-C ,  4-O ) :   2.0680
B(  3-C ,  5-C ) :   0.9809 B(  5-C ,  6-C ) :   1.6842 B(  5-C , 12-C ) :   0.9437
B(  6-C ,  7-C ) :   0.9444 B(  6-C ,  8-N ) :   1.1373 B(  7-C , 25-H ) :   0.9655
B(  7-C , 26-H ) :   0.9879 B(  7-C , 27-H ) :   0.9674 B(  8-N ,  9-C ) :   1.1859
B(  8-N , 28-H ) :   0.9478 B(  9-C , 10-S ) :   1.6124 B(  9-C , 11-N ) :   1.2994
B( 11-N , 12-C ) :   0.9852 B( 11-N , 29-H ) :   0.9487 B( 12-C , 13-C ) :   0.9671
B( 12-C , 30-H ) :   0.9941 B( 13-C , 14-C ) :   1.3883 B( 13-C , 19-C ) :   1.3638
B( 14-C , 15-C ) :   1.3946 B( 14-C , 31-H ) :   0.9597 B( 15-C , 16-C ) :   1.3601
B( 15-C , 32-H ) :   0.9709 B( 16-C , 17-C ) :   1.3325 B( 16-C , 33-H ) :   0.9846
B( 17-C , 18-O ) :   1.1078 B( 17-C , 19-C ) :   1.3667 B( 18-O , 34-H ) :   0.9797
B( 19-C , 35-H ) :   0.9583

MP2 TOTAL ENERGY:    -1274.329723425 Eh
FINAL SINGLE POINT ENERGY     -1274.329723424556

DIPOLE MOMENT
-------------
                                X             Y             Z
Electronic contribution:      9.09246       8.93301       6.95972
Nuclear contribution   :    -10.65490     -10.00910      -7.49774
                        -----------------------------------------
Total Dipole Moment    :     -1.56244      -1.07609      -0.53802
                        -----------------------------------------
Magnitude (a.u.)       :      1.97197
Magnitude (Debye)      :      5.01234

Rotational constants in cm-1:     0.011499     0.009225     0.006306
Rotational constants in MHz :   344.725469   276.557355   189.035944

                             ****ORCA TERMINATED NORMALLY****
TOTAL RUN TIME: 0 days 2 hours 12 minutes 30 seconds 1 msec
