                         Program Version 4.2.0 -  RELEASE  -
|  1> ! ri-mp2 cc-pvtz cc-pvtz/c TightSCF NoKeepInts
|  2>
|  3> %scf
|  4>   MaxCore 4096
|  5> end
|  6> *xyz  0  1
|  7>     C       14.5530647   15.7596798   16.3477389
|  8>     C       15.0430283   16.2938531   14.9876284
|  9>     O       16.4346418   15.9568288   14.8001926
| 10>     C       17.4998670   16.5004301   15.4772933
| 11>     O       18.6092909   16.0081405   15.3891215
| 12>     C       17.2188527   17.6245852   16.4193091
| 13>     C       16.9190214   18.8521610   15.9277085
| 14>     C       16.6179604   19.2186307   14.4873483
| 15>     N       16.9911715   19.9867208   16.7379070
| 16>     C       17.6135862   20.0201859   17.9576500
| 17>     S       17.7836191   21.4259636   18.8114892
| 18>     N       18.1197938   18.8295911   18.4171519
| 19>     C       17.8854303   17.5115237   17.7939205
| 20>     C       17.2436397   16.4718618   18.7015914
| 21>     C       17.6482662   15.1269787   18.6242767
| 22>     C       17.0486348   14.1521646   19.4387033
| 23>     C       16.0347019   14.5251945   20.3374348
| 24>     C       15.6275984   15.8640903   20.4151137
| 25>     O       14.6423455   16.2252482   21.2749625
| 26>     C       16.2257473   16.8329168   19.6027648
| 27>     H       14.8927592   16.3939299   17.1722631
| 28>     H       14.9152648   14.7381446   16.5213052
| 29>     H       13.4568989   15.7411909   16.3773007
| 30>     H       14.4635183   15.8006175   14.1963517
| 31>     H       14.8525418   17.3682896   14.9100962
| 32>     H       16.8070545   18.3950781   13.7884860
| 33>     H       17.2542244   20.0504123   14.1577578
| 34>     H       15.5733454   19.5306029   14.3674735
| 35>     H       16.6677688   20.8759278   16.3905051
| 36>     H       18.5798674   18.8796570   19.3176478
| 37>     H       18.9261013   17.2192182   17.5875291
| 38>     H       18.4268906   14.8355611   17.9217799
| 39>     H       17.3692001   13.1139891   19.3686902
| 40>     H       15.5679749   13.7749408   20.9671856
| 41>     H       14.3840946   15.4335586   21.7707186
| 42>     H       15.8892333   17.8621324   19.6736032
| 43> *
| 44>
| 45>                          ****END OF INPUT****

CARTESIAN COORDINATES (ANGSTROEM)
---------------------------------
  C     14.553065   15.759680   16.347739
  C     15.043028   16.293853   14.987628
  O     16.434642   15.956829   14.800193
  C     17.499867   16.500430   15.477293
  O     18.609291   16.008140   15.389121
  C     17.218853   17.624585   16.419309
  C     16.919021   18.852161   15.927708
  C     16.617960   19.218631   14.487348
  N     16.991171   19.986721   16.737907
  C     17.613586   20.020186   17.957650
  S     17.783619   21.425964   18.811489
  N     18.119794   18.829591   18.417152
  C     17.885430   17.511524   17.793920
  C     17.243640   16.471862   18.701591
  C     17.648266   15.126979   18.624277
  C     17.048635   14.152165   19.438703
  C     16.034702   14.525194   20.337435
  C     15.627598   15.864090   20.415114
  O     14.642345   16.225248   21.274963
  C     16.225747   16.832917   19.602765
  H     14.892759   16.393930   17.172263
  H     14.915265   14.738145   16.521305
  H     13.456899   15.741191   16.377301
  H     14.463518   15.800617   14.196352
  H     14.852542   17.368290   14.910096
  H     16.807054   18.395078   13.788486
  H     17.254224   20.050412   14.157758
  H     15.573345   19.530603   14.367473
  H     16.667769   20.875928   16.390505
  H     18.579867   18.879657   19.317648
  H     18.926101   17.219218   17.587529
  H     18.426891   14.835561   17.921780
  H     17.369200   13.113989   19.368690
  H     15.567975   13.774941   20.967186
  H     14.384095   15.433559   21.770719
  H     15.889233   17.862132   19.673603

 Total Charge           Charge          ....    0
 Multiplicity           Mult            ....    1
 Number of Electrons    NEL             ....  154
 Basis Dimension        Dim             ....  828

ORBITAL ENERGIES
----------------

  NO   OCC          E(Eh)            E(eV)
   0   2.0000     -91.890008     -2500.4542
   1   2.0000     -20.603372      -560.6463
   2   2.0000     -20.599480      -560.5404
   3   2.0000     -20.550793      -559.2155
   4   2.0000     -15.627493      -425.2457
   5   2.0000     -15.610016      -424.7701
   6   2.0000     -11.401455      -310.2494
   7   2.0000     -11.385920      -309.8266
   8   2.0000     -11.333971      -308.4130
   9   2.0000     -11.317040      -307.9523
  10   2.0000     -11.311529      -307.8023
  11   2.0000     -11.308518      -307.7204
  12   2.0000     -11.268856      -306.6412
  13   2.0000     -11.266093      -306.5660
  14   2.0000     -11.265215      -306.5421
  15   2.0000     -11.257561      -306.3338
  16   2.0000     -11.245802      -306.0138
  17   2.0000     -11.241583      -305.8990
  18   2.0000     -11.238942      -305.8272
  19   2.0000     -11.228623      -305.5464
  20   2.0000      -8.895114      -242.0484
  21   2.0000      -6.576697      -178.9610
  22   2.0000      -6.574682      -178.9062
  23   2.0000      -6.574101      -178.8904
  24   2.0000      -1.447979       -39.4015
  25   2.0000      -1.419199       -38.6184
  26   2.0000      -1.361960       -37.0608
  27   2.0000      -1.341411       -36.5016
  28   2.0000      -1.239870       -33.7386
  29   2.0000      -1.161232       -31.5987
  30   2.0000      -1.126855       -30.6633
  31   2.0000      -1.048722       -28.5372
  32   2.0000      -1.037862       -28.2417
  33   2.0000      -1.019618       -27.7452
  34   2.0000      -1.006997       -27.4018
  35   2.0000      -0.990557       -26.9544
  36   2.0000      -0.927173       -25.2297
  37   2.0000      -0.895338       -24.3634
  38   2.0000      -0.854572       -23.2541
  39   2.0000      -0.842066       -22.9138
  40   2.0000      -0.836476       -22.7617
  41   2.0000      -0.832313       -22.6484
  42   2.0000      -0.749564       -20.3967
  43   2.0000      -0.740584       -20.1523
  44   2.0000      -0.732158       -19.9230
  45   2.0000      -0.696817       -18.9613
  46   2.0000      -0.689900       -18.7731
  47   2.0000      -0.681954       -18.5569
  48   2.0000      -0.674589       -18.3565
  49   2.0000      -0.664198       -18.0737
  50   2.0000      -0.652963       -17.7680
  51   2.0000      -0.644940       -17.5497
  52   2.0000      -0.638214       -17.3667
  53   2.0000      -0.620595       -16.8872
  54   2.0000      -0.612853       -16.6766
  55   2.0000      -0.607308       -16.5257
  56   2.0000      -0.602769       -16.4022
  57   2.0000      -0.588434       -16.0121
  58   2.0000      -0.577640       -15.7184
  59   2.0000      -0.569739       -15.5034
  60   2.0000      -0.564141       -15.3511
  61   2.0000      -0.555203       -15.1078
  62   2.0000      -0.538676       -14.6581
  63   2.0000      -0.537207       -14.6181
  64   2.0000      -0.520445       -14.1620
  65   2.0000      -0.512298       -13.9403
  66   2.0000      -0.505867       -13.7653
  67   2.0000      -0.502089       -13.6625
  68   2.0000      -0.485499       -13.2111
  69   2.0000      -0.466620       -12.6974
  70   2.0000      -0.455434       -12.3930
  71   2.0000      -0.451863       -12.2958
  72   2.0000      -0.358056        -9.7432
  73   2.0000      -0.350181        -9.5289
  74   2.0000      -0.329594        -8.9687
  75   2.0000      -0.324863        -8.8400
  76   2.0000      -0.320418        -8.7190
  77   0.0000       0.087238         2.3739
  78   0.0000       0.104751         2.8504
  79   0.0000       0.114677         3.1205
  80   0.0000       0.125572         3.4170
  81   0.0000       0.129915         3.5352

MULLIKEN ATOMIC CHARGES
-----------------------
   0 C :   -0.307692
   1 C :    0.028505
   2 O :   -0.322569
   3 C :    0.432875
   4 O :   -0.383120
   5 C :   -0.224782
   6 C :    0.139666
   7 C :   -0.332808
   8 N :   -0.140553
   9 C :    0.210091
  10 S :   -0.443044
  11 N :   -0.233543
  12 C :    0.082784
  13 C :    0.012612
  14 C :   -0.225712
  15 C :   -0.134135
  16 C :   -0.273080
  17 C :    0.321532
  18 O :   -0.355666
  19 C :   -0.253975
  20 H :    0.108989
  21 H :    0.115425
  22 H :    0.106059
  23 H :    0.125540
  24 H :    0.085497
  25 H :    0.130939
  26 H :    0.137855
  27 H :    0.122872
  28 H :    0.196679
  29 H :    0.205960
  30 H :    0.169749
  31 H :    0.179763
  32 H :    0.165583
  33 H :    0.132285
  34 H :    0.241169
  35 H :    0.178250
Sum of atomic charges:   -0.0000000

LOEWDIN ATOMIC CHARGES
----------------------
   0 C :    0.106858
   1 C :   -0.021235
   2 O :    0.303462
   3 C :   -0.414842
   4 O :    0.119970
   5 C :   -0.081062
   6 C :   -0.094509
   7 C :    0.122532
   8 N :    0.402637
   9 C :   -0.457415
  10 S :   -0.038236
  11 N :    0.396716
  12 C :   -0.047861
  13 C :   -0.043202
  14 C :    0.019689
  15 C :    0.045435
  16 C :   -0.000332
  17 C :   -0.190657
  18 O :    0.396026
  19 C :    0.026818
  20 H :   -0.033255
  21 H :   -0.021692
  22 H :   -0.025974
  23 H :   -0.020344
  24 H :   -0.038268
  25 H :   -0.008277
  26 H :   -0.008879
  27 H :   -0.018331
  28 H :   -0.056927
  29 H :   -0.063447
  30 H :   -0.003372
  31 H :   -0.021632
  32 H :   -0.018367
  33 H :   -0.034814
  34 H :   -0.153123
  35 H :   -0.024090

  Mayer bond orders larger than 0.100000
B(  0-C ,  1-C ) :   0.9619 B(  0-C , 20-H ) :   0.9694 B(  0-C , 21-H ) :   0.9724
B(  0-C , 22-H ) :   0.9773 B(  1-C ,  2-O ) :   0.8997 B(  1-C , 23-H ) :   0.9834
B(  1-C , 24-H ) :   0.9693 B(  2-O ,  3-C ) :   1.1738 B(  3-C ,  4-O ) :   2.0880
B(  3-C ,  5-C ) :   0.9190 B(  5-C ,  6-C ) :   1.7206 B(  5-C , 12-C ) :   0.9303
B(  6-C ,  7-C ) :   0.9347 B(  6-C ,  8-N ) :   1.1061 B(  7-C , 25-H ) :   0.9770
B(  7-C , 26-H ) :   0.9716 B(  7-C , 27-H ) :   0.9669 B(  8-N ,  9-C ) :   1.1995
B(  8-N , 28-H ) :   0.9516 B(  9-C , 10-S ) :   1.6082 B(  9-C , 11-N ) :   1.2911
B( 11-N , 12-C ) :   0.9743 B( 11-N , 29-H ) :   0.9460 B( 12-C , 13-C ) :   0.9740
B( 12-C , 30-H ) :   0.9881 B( 13-C , 14-C ) :   1.3863 B( 13-C , 19-C ) :   1.3408
B( 14-C , 15-C ) :   1.3995 B( 14-C , 31-H ) :   0.9577 B( 15-C , 16-C ) :   1.3583
B( 15-C , 32-H ) :   0.9693 B( 16-C , 17-C ) :   1.3327 B( 16-C , 33-H ) :   0.9845
B( 17-C , 18-O ) :   1.1096 B( 17-C , 19-C ) :   1.3606 B( 18-O , 34-H ) :   0.9794
B( 19-C , 35-H ) :   0.9571

MP2 TOTAL ENERGY:    -1274.328470743 Eh
FINAL SINGLE POINT ENERGY     -1274.328470742878

DIPOLE MOMENT
-------------
                                X             Y             Z
Electronic contribution:      8.79614       7.21078       6.75800
Nuclear contribution   :    -10.45432      -8.35509      -7.29743
                        -----------------------------------------
Total Dipole Moment    :     -1.65818      -1.14431      -0.53944
                        -----------------------------------------
Magnitude (a.u.)       :      2.08566
Magnitude (Debye)      :      5.30134

Rotational constants in cm-1:     0.011608     0.009247     0.006380
Rotational constants in MHz :   347.995519   277.219728   191.277233

                             ****ORCA TERMINATED NORMALLY****
TOTAL RUN TIME: 0 days 1 hours 45 minutes 57 seconds 559 msec
