                         Program Version 4.2.0 -  RELEASE  -
|  1> ! ri-mp2 cc-pvtz cc-pvtz/c TightSCF NoKeepInts
|  2>
|  3> %scf
|  4>   MaxCore 4096
|  5> end
|  6> *xyz  0  1
|  7>     C       15.4933296   13.9349550   16.2680889
|  8>     C       15.2487784   15.3427791   15.6996223
|  9>     O       16.5225952   15.9529312   15.4358247
| 10>     C       16.5048548   17.2908250   15.1808360
| 11>     O       16.0237556   17.7026564   14.1408353
| 12>     C       16.9699911   18.1551130   16.3249336
| 13>     C       17.1111746   19.4961867   16.1496643
| 14>     C       16.5702217   20.3396033   15.0127922
| 15>     N       17.8213696   20.2742866   17.0663480
| 16>     C       18.6099415   19.7674803   18.0620091
| 17>     S       19.5220719   20.7396067   19.0410924
| 18>     N       18.6272399   18.4024500   18.1875101
| 19>     C       17.7559856   17.4641823   17.4552482
| 20>     C       16.9425632   16.5964498   18.4061638
| 21>     C       17.5149374   15.4367135   18.9608620
| 22>     C       16.7906617   14.6466249   19.8696451
| 23>     C       15.4847572   15.0214798   20.2287897
| 24>     C       14.9184178   16.1848475   19.6902022
| 25>     O       13.6603483   16.5531736   20.0391564
| 26>     C       15.6437641   16.9731494   18.7913873
| 27>     H       16.0457640   13.3202565   15.5467272
| 28>     H       14.5399124   13.4376978   16.4830928
| 29>     H       16.0708890   13.9778976   17.1960193
| 30>     H       14.6612723   15.2811407   14.7735416
| 31>     H       14.6806057   15.9344208   16.4293414
| 32>     H       15.5035315   20.1371296   14.8525668
| 33>     H       17.0925970   20.1063892   14.0759880
| 34>     H       16.6720250   21.4168745   15.1894741
| 35>     H       17.8396614   21.2764524   16.9643653
| 36>     H       19.1954937   18.0603677   18.9518843
| 37>     H       18.5203844   16.8600208   16.9455511
| 38>     H       18.5248970   15.1456129   18.6840484
| 39>     H       17.2406911   13.7491444   20.2910658
| 40>     H       14.9205409   14.4132163   20.9282865
| 41>     H       13.3485394   15.9270617   20.7103186
| 42>     H       15.1934360   17.8808230   18.4047174
| 43> *
| 44>
| 45>                          ****END OF INPUT****

CARTESIAN COORDINATES (ANGSTROEM)
---------------------------------
  C     15.493330   13.934955   16.268089
  C     15.248778   15.342779   15.699622
  O     16.522595   15.952931   15.435825
  C     16.504855   17.290825   15.180836
  O     16.023756   17.702656   14.140835
  C     16.969991   18.155113   16.324934
  C     17.111175   19.496187   16.149664
  C     16.570222   20.339603   15.012792
  N     17.821370   20.274287   17.066348
  C     18.609942   19.767480   18.062009
  S     19.522072   20.739607   19.041092
  N     18.627240   18.402450   18.187510
  C     17.755986   17.464182   17.455248
  C     16.942563   16.596450   18.406164
  C     17.514937   15.436713   18.960862
  C     16.790662   14.646625   19.869645
  C     15.484757   15.021480   20.228790
  C     14.918418   16.184848   19.690202
  O     13.660348   16.553174   20.039156
  C     15.643764   16.973149   18.791387
  H     16.045764   13.320256   15.546727
  H     14.539912   13.437698   16.483093
  H     16.070889   13.977898   17.196019
  H     14.661272   15.281141   14.773542
  H     14.680606   15.934421   16.429341
  H     15.503531   20.137130   14.852567
  H     17.092597   20.106389   14.075988
  H     16.672025   21.416874   15.189474
  H     17.839661   21.276452   16.964365
  H     19.195494   18.060368   18.951884
  H     18.520384   16.860021   16.945551
  H     18.524897   15.145613   18.684048
  H     17.240691   13.749144   20.291066
  H     14.920541   14.413216   20.928286
  H     13.348539   15.927062   20.710319
  H     15.193436   17.880823   18.404717

 Total Charge           Charge          ....    0
 Multiplicity           Mult            ....    1
 Number of Electrons    NEL             ....  154
 Basis Dimension        Dim             ....  828

ORBITAL ENERGIES
----------------

  NO   OCC          E(Eh)            E(eV)
   0   2.0000     -91.891067     -2500.4831
   1   2.0000     -20.603874      -560.6599
   2   2.0000     -20.582981      -560.0914
   3   2.0000     -20.544348      -559.0401
   4   2.0000     -15.631751      -425.3616
   5   2.0000     -15.609032      -424.7433
   6   2.0000     -11.390855      -309.9609
   7   2.0000     -11.385384      -309.8120
   8   2.0000     -11.341070      -308.6062
   9   2.0000     -11.321337      -308.0692
  10   2.0000     -11.311426      -307.7995
  11   2.0000     -11.294069      -307.3272
  12   2.0000     -11.268240      -306.6244
  13   2.0000     -11.262391      -306.4652
  14   2.0000     -11.260141      -306.4040
  15   2.0000     -11.253395      -306.2204
  16   2.0000     -11.250259      -306.1351
  17   2.0000     -11.245422      -306.0035
  18   2.0000     -11.245257      -305.9990
  19   2.0000     -11.222626      -305.3832
  20   2.0000      -8.896116      -242.0756
  21   2.0000      -6.577684      -178.9879
  22   2.0000      -6.575689      -178.9336
  23   2.0000      -6.575094      -178.9174
  24   2.0000      -1.448188       -39.4072
  25   2.0000      -1.423530       -38.7362
  26   2.0000      -1.351787       -36.7840
  27   2.0000      -1.343380       -36.5552
  28   2.0000      -1.241435       -33.7812
  29   2.0000      -1.164030       -31.6749
  30   2.0000      -1.123232       -30.5647
  31   2.0000      -1.047773       -28.5113
  32   2.0000      -1.032942       -28.1078
  33   2.0000      -1.022563       -27.8254
  34   2.0000      -0.999689       -27.2029
  35   2.0000      -0.987158       -26.8619
  36   2.0000      -0.925786       -25.1919
  37   2.0000      -0.877887       -23.8885
  38   2.0000      -0.850743       -23.1499
  39   2.0000      -0.843898       -22.9636
  40   2.0000      -0.839472       -22.8432
  41   2.0000      -0.826996       -22.5037
  42   2.0000      -0.762769       -20.7560
  43   2.0000      -0.738964       -20.1082
  44   2.0000      -0.723842       -19.6967
  45   2.0000      -0.702015       -19.1028
  46   2.0000      -0.690258       -18.7829
  47   2.0000      -0.678089       -18.4517
  48   2.0000      -0.673307       -18.3216
  49   2.0000      -0.660059       -17.9611
  50   2.0000      -0.649646       -17.6778
  51   2.0000      -0.641752       -17.4630
  52   2.0000      -0.633234       -17.2312
  53   2.0000      -0.615605       -16.7515
  54   2.0000      -0.614187       -16.7129
  55   2.0000      -0.605683       -16.4815
  56   2.0000      -0.603752       -16.4289
  57   2.0000      -0.583419       -15.8756
  58   2.0000      -0.571999       -15.5649
  59   2.0000      -0.568051       -15.4575
  60   2.0000      -0.550784       -14.9876
  61   2.0000      -0.542190       -14.7537
  62   2.0000      -0.537090       -14.6150
  63   2.0000      -0.531131       -14.4528
  64   2.0000      -0.516726       -14.0608
  65   2.0000      -0.512165       -13.9367
  66   2.0000      -0.507963       -13.8224
  67   2.0000      -0.500741       -13.6259
  68   2.0000      -0.485654       -13.2153
  69   2.0000      -0.464753       -12.6466
  70   2.0000      -0.457157       -12.4399
  71   2.0000      -0.443900       -12.0791
  72   2.0000      -0.357188        -9.7196
  73   2.0000      -0.354809        -9.6548
  74   2.0000      -0.331493        -9.0204
  75   2.0000      -0.327478        -8.9111
  76   2.0000      -0.321275        -8.7423
  77   0.0000       0.071955         1.9580
  78   0.0000       0.098755         2.6873
  79   0.0000       0.119624         3.2551
  80   0.0000       0.125455         3.4138
  81   0.0000       0.129103         3.5131

MULLIKEN ATOMIC CHARGES
-----------------------
   0 C :   -0.274750
   1 C :    0.018523
   2 O :   -0.369751
   3 C :    0.489119
   4 O :   -0.409691
   5 C :   -0.310414
   6 C :    0.182374
   7 C :   -0.265601
   8 N :   -0.128443
   9 C :    0.219473
  10 S :   -0.440968
  11 N :   -0.224928
  12 C :    0.079170
  13 C :    0.077374
  14 C :   -0.224849
  15 C :   -0.124545
  16 C :   -0.275172
  17 C :    0.327905
  18 O :   -0.357565
  19 C :   -0.278187
  20 H :    0.102189
  21 H :    0.088623
  22 H :    0.106264
  23 H :    0.121854
  24 H :    0.091744
  25 H :    0.131339
  26 H :    0.132686
  27 H :    0.094659
  28 H :    0.199209
  29 H :    0.200931
  30 H :    0.148429
  31 H :    0.155744
  32 H :    0.164627
  33 H :    0.133760
  34 H :    0.242732
  35 H :    0.176136
Sum of atomic charges:   -0.0000000

LOEWDIN ATOMIC CHARGES
----------------------
   0 C :    0.111839
   1 C :   -0.022818
   2 O :    0.293248
   3 C :   -0.423193
   4 O :    0.114746
   5 C :   -0.101661
   6 C :   -0.051531
   7 C :    0.131386
   8 N :    0.408610
   9 C :   -0.455725
  10 S :   -0.034660
  11 N :    0.394172
  12 C :   -0.053926
  13 C :   -0.034884
  14 C :    0.013955
  15 C :    0.044350
  16 C :    0.000751
  17 C :   -0.190321
  18 O :    0.396222
  19 C :    0.033740
  20 H :   -0.027042
  21 H :   -0.025551
  22 H :   -0.029565
  23 H :   -0.029086
  24 H :   -0.036659
  25 H :   -0.004707
  26 H :   -0.003808
  27 H :   -0.023426
  28 H :   -0.056451
  29 H :   -0.065792
  30 H :   -0.011932
  31 H :   -0.029162
  32 H :   -0.019416
  33 H :   -0.034021
  34 H :   -0.151952
  35 H :   -0.025730

  Mayer bond orders larger than 0.100000
B(  0-C ,  1-C ) :   0.9751 B(  0-C , 20-H ) :   0.9788 B(  0-C , 21-H ) :   0.9769
B(  0-C , 22-H ) :   0.9727 B(  1-C ,  2-O ) :   0.8882 B(  1-C , 23-H ) :   0.9814
B(  1-C , 24-H ) :   0.9682 B(  2-O ,  3-C ) :   1.1092 B(  3-C ,  4-O ) :   2.0217
B(  3-C ,  5-C ) :   1.0615 B(  5-C ,  6-C ) :   1.6255 B(  5-C , 12-C ) :   0.9522
B(  6-C ,  7-C ) :   0.9667 B(  6-C ,  8-N ) :   1.1645 B(  7-C , 25-H ) :   0.9624
B(  7-C , 26-H ) :   0.9561 B(  7-C , 27-H ) :   0.9897 B(  8-N ,  9-C ) :   1.1853
B(  8-N , 28-H ) :   0.9464 B(  9-C , 10-S ) :   1.5993 B(  9-C , 11-N ) :   1.3133
B( 11-N , 12-C ) :   0.9463 B( 11-N , 29-H ) :   0.9471 B( 12-C , 13-C ) :   0.9743
B( 12-C , 30-H ) :   1.0007 B( 13-C , 14-C ) :   1.3558 B( 13-C , 19-C ) :   1.3422
B( 14-C , 15-C ) :   1.3914 B( 14-C , 31-H ) :   0.9742 B( 15-C , 16-C ) :   1.3584
B( 15-C , 32-H ) :   0.9700 B( 16-C , 17-C ) :   1.3377 B( 16-C , 33-H ) :   0.9841
B( 17-C , 18-O ) :   1.1069 B( 17-C , 19-C ) :   1.3505 B( 18-O , 34-H ) :   0.9784
B( 19-C , 35-H ) :   0.9589

MP2 TOTAL ENERGY:    -1274.329835208 Eh
FINAL SINGLE POINT ENERGY     -1274.329835207924

DIPOLE MOMENT
-------------
                                X             Y             Z
Electronic contribution:      7.62339      11.23860       4.65771
Nuclear contribution   :     -8.72147     -12.64391      -4.28320
                        -----------------------------------------
Total Dipole Moment    :     -1.09808      -1.40532       0.37451
                        -----------------------------------------
Magnitude (a.u.)       :      1.82235
Magnitude (Debye)      :      4.63204

Rotational constants in cm-1:     0.012817     0.008361     0.006138
Rotational constants in MHz :   384.248049   250.656677   184.019769

                             ****ORCA TERMINATED NORMALLY****
TOTAL RUN TIME: 0 days 1 hours 54 minutes 25 seconds 472 msec
