                         Program Version 4.2.0 -  RELEASE  -
|  1> ! ri-mp2 cc-pvtz cc-pvtz/c TightSCF NoKeepInts
|  2>
|  3> %scf
|  4>   MaxCore 4096
|  5> end
|  6> *xyz  0  1
|  7>     C       14.3326200   15.0162592   14.7263073
|  8>     C       15.8080453   14.7776865   15.1177176
|  9>     O       16.4340018   15.8872008   15.8090090
| 10>     C       16.1637401   17.2199354   15.6248989
| 11>     O       15.4686743   17.6474566   14.7205574
| 12>     C       16.8745003   18.0841857   16.6347486
| 13>     C       16.9902249   19.4251262   16.4491587
| 14>     C       16.2592139   20.2791471   15.4334384
| 15>     N       17.8613319   20.1882423   17.2302025
| 16>     C       18.7876696   19.6673908   18.0921217
| 17>     S       19.8535430   20.6259736   18.9173074
| 18>     N       18.8008263   18.3020285   18.2212617
| 19>     C       17.8277252   17.3751618   17.6131641
| 20>     C       17.1241124   16.5072855   18.6485441
| 21>     C       17.4149973   15.1342971   18.7499331
| 22>     C       16.7660612   14.3363738   19.7073058
| 23>     C       15.8217624   14.9172388   20.5713006
| 24>     C       15.5340131   16.2858735   20.4747657
| 25>     O       14.6241626   16.8494031   21.3088559
| 26>     C       16.1817105   17.0773892   19.5211314
| 27>     H       13.7739955   15.4674379   15.5559203
| 28>     H       13.8510176   14.0645031   14.4721307
| 29>     H       14.2497502   15.6671307   13.8473554
| 30>     H       15.8702921   13.8895682   15.7596618
| 31>     H       16.3739974   14.5598554   14.2027004
| 32>     H       16.5738052   20.0219437   14.4139910
| 33>     H       16.4287285   21.3533772   15.5720084
| 34>     H       15.1764714   20.1099980   15.4949547
| 35>     H       17.8764476   21.1904118   17.1285944
| 36>     H       19.4724216   17.9490865   18.8911260
| 37>     H       18.4994872   16.7683422   16.9897454
| 38>     H       18.1416768   14.6840329   18.0791386
| 39>     H       16.9951046   13.2745208   19.7776805
| 40>     H       15.3180961   14.3053730   21.3123647
| 41>     H       14.3050311   16.1546560   21.9040331
| 42>     H       15.9517412   18.1361069   19.4648648
| 43> *
| 44>
| 45>                          ****END OF INPUT****

CARTESIAN COORDINATES (ANGSTROEM)
---------------------------------
  C     14.332620   15.016259   14.726307
  C     15.808045   14.777686   15.117718
  O     16.434002   15.887201   15.809009
  C     16.163740   17.219935   15.624899
  O     15.468674   17.647457   14.720557
  C     16.874500   18.084186   16.634749
  C     16.990225   19.425126   16.449159
  C     16.259214   20.279147   15.433438
  N     17.861332   20.188242   17.230203
  C     18.787670   19.667391   18.092122
  S     19.853543   20.625974   18.917307
  N     18.800826   18.302028   18.221262
  C     17.827725   17.375162   17.613164
  C     17.124112   16.507285   18.648544
  C     17.414997   15.134297   18.749933
  C     16.766061   14.336374   19.707306
  C     15.821762   14.917239   20.571301
  C     15.534013   16.285874   20.474766
  O     14.624163   16.849403   21.308856
  C     16.181711   17.077389   19.521131
  H     13.773995   15.467438   15.555920
  H     13.851018   14.064503   14.472131
  H     14.249750   15.667131   13.847355
  H     15.870292   13.889568   15.759662
  H     16.373997   14.559855   14.202700
  H     16.573805   20.021944   14.413991
  H     16.428728   21.353377   15.572008
  H     15.176471   20.109998   15.494955
  H     17.876448   21.190412   17.128594
  H     19.472422   17.949086   18.891126
  H     18.499487   16.768342   16.989745
  H     18.141677   14.684033   18.079139
  H     16.995105   13.274521   19.777680
  H     15.318096   14.305373   21.312365
  H     14.305031   16.154656   21.904033
  H     15.951741   18.136107   19.464865

 Total Charge           Charge          ....    0
 Multiplicity           Mult            ....    1
 Number of Electrons    NEL             ....  154
 Basis Dimension        Dim             ....  828

ORBITAL ENERGIES
----------------

  NO   OCC          E(Eh)            E(eV)
   0   2.0000     -91.887815     -2500.3946
   1   2.0000     -20.598503      -560.5138
   2   2.0000     -20.595929      -560.4437
   3   2.0000     -20.540089      -558.9242
   4   2.0000     -15.628017      -425.2600
   5   2.0000     -15.605881      -424.6576
   6   2.0000     -11.397469      -310.1409
   7   2.0000     -11.382381      -309.7303
   8   2.0000     -11.336123      -308.4716
   9   2.0000     -11.312987      -307.8420
  10   2.0000     -11.306148      -307.6559
  11   2.0000     -11.302691      -307.5619
  12   2.0000     -11.259980      -306.3996
  13   2.0000     -11.258776      -306.3669
  14   2.0000     -11.254537      -306.2515
  15   2.0000     -11.250748      -306.1484
  16   2.0000     -11.242816      -305.9326
  17   2.0000     -11.238079      -305.8037
  18   2.0000     -11.238036      -305.8025
  19   2.0000     -11.222684      -305.3848
  20   2.0000      -8.892898      -241.9881
  21   2.0000      -6.574475      -178.9006
  22   2.0000      -6.572473      -178.8461
  23   2.0000      -6.571886      -178.8301
  24   2.0000      -1.444390       -39.3038
  25   2.0000      -1.415581       -38.5199
  26   2.0000      -1.353847       -36.8400
  27   2.0000      -1.339326       -36.4449
  28   2.0000      -1.237214       -33.6663
  29   2.0000      -1.156664       -31.4744
  30   2.0000      -1.119662       -30.4676
  31   2.0000      -1.041811       -28.3491
  32   2.0000      -1.036199       -28.1964
  33   2.0000      -1.014225       -27.5985
  34   2.0000      -0.995113       -27.0784
  35   2.0000      -0.983184       -26.7538
  36   2.0000      -0.920776       -25.0556
  37   2.0000      -0.897672       -24.4269
  38   2.0000      -0.845943       -23.0193
  39   2.0000      -0.837412       -22.7871
  40   2.0000      -0.833434       -22.6789
  41   2.0000      -0.817214       -22.2375
  42   2.0000      -0.746279       -20.3073
  43   2.0000      -0.731887       -19.9157
  44   2.0000      -0.718926       -19.5630
  45   2.0000      -0.694532       -18.8992
  46   2.0000      -0.686905       -18.6916
  47   2.0000      -0.677122       -18.4254
  48   2.0000      -0.671720       -18.2784
  49   2.0000      -0.656635       -17.8679
  50   2.0000      -0.648488       -17.6463
  51   2.0000      -0.640691       -17.4341
  52   2.0000      -0.633682       -17.2434
  53   2.0000      -0.610405       -16.6100
  54   2.0000      -0.605773       -16.4839
  55   2.0000      -0.599982       -16.3263
  56   2.0000      -0.598208       -16.2781
  57   2.0000      -0.576722       -15.6934
  58   2.0000      -0.572367       -15.5749
  59   2.0000      -0.568608       -15.4726
  60   2.0000      -0.559733       -15.2311
  61   2.0000      -0.541108       -14.7243
  62   2.0000      -0.535300       -14.5663
  63   2.0000      -0.524303       -14.2670
  64   2.0000      -0.520460       -14.1624
  65   2.0000      -0.512137       -13.9360
  66   2.0000      -0.502471       -13.6729
  67   2.0000      -0.497089       -13.5265
  68   2.0000      -0.483598       -13.1594
  69   2.0000      -0.461890       -12.5687
  70   2.0000      -0.453842       -12.3497
  71   2.0000      -0.440739       -11.9931
  72   2.0000      -0.351843        -9.5741
  73   2.0000      -0.348949        -9.4954
  74   2.0000      -0.327087        -8.9005
  75   2.0000      -0.320420        -8.7191
  76   2.0000      -0.317005        -8.6261
  77   0.0000       0.079066         2.1515
  78   0.0000       0.105793         2.8788
  79   0.0000       0.125403         3.4124
  80   0.0000       0.133585         3.6350
  81   0.0000       0.137693         3.7468

MULLIKEN ATOMIC CHARGES
-----------------------
   0 C :   -0.299519
   1 C :    0.050565
   2 O :   -0.354021
   3 C :    0.440712
   4 O :   -0.434908
   5 C :   -0.221896
   6 C :    0.173499
   7 C :   -0.268189
   8 N :   -0.126206
   9 C :    0.210772
  10 S :   -0.443940
  11 N :   -0.215227
  12 C :    0.060724
  13 C :    0.049243
  14 C :   -0.180935
  15 C :   -0.133901
  16 C :   -0.276157
  17 C :    0.317103
  18 O :   -0.357025
  19 C :   -0.250455
  20 H :    0.100714
  21 H :    0.094472
  22 H :    0.123985
  23 H :    0.099411
  24 H :    0.090799
  25 H :    0.129000
  26 H :    0.094280
  27 H :    0.132411
  28 H :    0.199492
  29 H :    0.200257
  30 H :    0.151361
  31 H :    0.151003
  32 H :    0.160144
  33 H :    0.129547
  34 H :    0.240466
  35 H :    0.162419
Sum of atomic charges:    0.0000000

LOEWDIN ATOMIC CHARGES
----------------------
   0 C :    0.103449
   1 C :   -0.008877
   2 O :    0.298674
   3 C :   -0.412996
   4 O :    0.103470
   5 C :   -0.093583
   6 C :   -0.057100
   7 C :    0.130203
   8 N :    0.406867
   9 C :   -0.456838
  10 S :   -0.038060
  11 N :    0.394684
  12 C :   -0.055027
  13 C :   -0.038730
  14 C :    0.016815
  15 C :    0.038683
  16 C :   -0.000827
  17 C :   -0.189625
  18 O :    0.394928
  19 C :    0.033096
  20 H :   -0.025792
  21 H :   -0.028452
  22 H :   -0.025482
  23 H :   -0.025291
  24 H :   -0.030040
  25 H :   -0.005397
  26 H :   -0.023899
  27 H :   -0.004721
  28 H :   -0.057343
  29 H :   -0.064534
  30 H :   -0.014405
  31 H :   -0.029618
  32 H :   -0.021614
  33 H :   -0.035597
  34 H :   -0.154104
  35 H :   -0.022917

  Mayer bond orders larger than 0.100000
B(  0-C ,  1-C ) :   0.9683 B(  0-C , 20-H ) :   0.9759 B(  0-C , 21-H ) :   0.9754
B(  0-C , 22-H ) :   0.9722 B(  1-C ,  2-O ) :   0.9037 B(  1-C , 23-H ) :   0.9807
B(  1-C , 24-H ) :   0.9821 B(  2-O ,  3-C ) :   1.1652 B(  3-C ,  4-O ) :   1.9648
B(  3-C ,  5-C ) :   1.0626 B(  5-C ,  6-C ) :   1.6442 B(  5-C , 12-C ) :   0.9570
B(  6-C ,  7-C ) :   0.9655 B(  6-C ,  8-N ) :   1.1523 B(  7-C , 25-H ) :   0.9587
B(  7-C , 26-H ) :   0.9906 B(  7-C , 27-H ) :   0.9619 B(  8-N ,  9-C ) :   1.1886
B(  8-N , 28-H ) :   0.9466 B(  9-C , 10-S ) :   1.6037 B(  9-C , 11-N ) :   1.3102
B( 11-N , 12-C ) :   0.9680 B( 11-N , 29-H ) :   0.9487 B( 12-C , 13-C ) :   0.9648
B( 12-C , 30-H ) :   1.0006 B( 13-C , 14-C ) :   1.3537 B( 13-C , 19-C ) :   1.3808
B( 14-C , 15-C ) :   1.3945 B( 14-C , 31-H ) :   0.9716 B( 15-C , 16-C ) :   1.3604
B( 15-C , 32-H ) :   0.9708 B( 16-C , 17-C ) :   1.3340 B( 16-C , 33-H ) :   0.9852
B( 17-C , 18-O ) :   1.1040 B( 17-C , 19-C ) :   1.3644 B( 18-O , 34-H ) :   0.9800
B( 19-C , 35-H ) :   0.9597

MP2 TOTAL ENERGY:    -1274.335480237 Eh
FINAL SINGLE POINT ENERGY     -1274.335480236596

DIPOLE MOMENT
-------------
                                X             Y             Z
Electronic contribution:      9.89810       9.74661       9.52829
Nuclear contribution   :    -10.94775     -11.52817      -9.94995
                        -----------------------------------------
Total Dipole Moment    :     -1.04965      -1.78155      -0.42165
                        -----------------------------------------
Magnitude (a.u.)       :      2.11033
Magnitude (Debye)      :      5.36404

Rotational constants in cm-1:     0.010985     0.008680     0.005833
Rotational constants in MHz :   329.334114   260.220653   174.872713

                             ****ORCA TERMINATED NORMALLY****
TOTAL RUN TIME: 0 days 1 hours 54 minutes 38 seconds 977 msec
