                         Program Version 4.2.0 -  RELEASE  -
|  1> ! ri-mp2 cc-pvtz cc-pvtz/c TightSCF NoKeepInts
|  2>
|  3> %scf
|  4>   MaxCore 4096
|  5> end
|  6> *xyz  0  1
|  7>     C       14.7554654   15.1000311   16.4980767
|  8>     C       15.6502338   15.1174685   15.2485447
|  9>     O       16.9208092   15.7248937   15.5555980
| 10>     C       17.0813144   17.0227421   15.1760166
| 11>     O       17.0603130   17.3303362   13.9972890
| 12>     C       17.0708359   17.9956625   16.3233590
| 13>     C       16.9198012   19.3234528   16.0793493
| 14>     C       16.3712480   19.9659868   14.8218212
| 15>     N       17.2622418   20.2794190   17.0376592
| 16>     C       17.9888880   20.0124549   18.1655085
| 17>     S       18.4743423   21.2081235   19.1998753
| 18>     N       18.3173860   18.6981750   18.3798184
| 19>     C       17.8125634   17.5523622   17.5986074
| 20>     C       17.1175616   16.5243249   18.4792425
| 21>     C       17.6622399   15.2374786   18.6456805
| 22>     C       17.0498601   14.3092483   19.5048921
| 23>     C       15.8863506   14.6726071   20.2051065
| 24>     C       15.3466188   15.9566767   20.0461845
| 25>     O       14.2245001   16.3105719   20.7214606
| 26>     C       15.9604867   16.8796360   19.1934523
| 27>     H       15.2232416   14.5201958   17.3011238
| 28>     H       13.7883317   14.6370840   16.2682906
| 29>     H       14.5661850   16.1181940   16.8579967
| 30>     H       15.8199786   14.0819306   14.9266538
| 31>     H       15.1451829   15.6418343   14.4251623
| 32>     H       15.5182677   19.3966026   14.4317443
| 33>     H       17.1371843   19.9885196   14.0357354
| 34>     H       16.0254502   20.9936165   14.9847087
| 35>     H       17.0580265   21.2518473   16.8708391
| 36>     H       18.8341809   18.5277199   19.2334838
| 37>     H       18.7707690   17.1507721   17.2393556
| 38>     H       18.5617610   14.9554428   18.1046320
| 39>     H       17.4766782   13.3149544   19.6253135
| 40>     H       15.4095677   13.9588682   20.8689268
| 41>     H       13.9799198   15.5661116   21.2916298
| 42>     H       15.5392144   17.8746549   19.0948618
| 43> *
| 44>
| 45>                          ****END OF INPUT****

CARTESIAN COORDINATES (ANGSTROEM)
---------------------------------
  C     14.755465   15.100031   16.498077
  C     15.650234   15.117468   15.248545
  O     16.920809   15.724894   15.555598
  C     17.081314   17.022742   15.176017
  O     17.060313   17.330336   13.997289
  C     17.070836   17.995663   16.323359
  C     16.919801   19.323453   16.079349
  C     16.371248   19.965987   14.821821
  N     17.262242   20.279419   17.037659
  C     17.988888   20.012455   18.165509
  S     18.474342   21.208123   19.199875
  N     18.317386   18.698175   18.379818
  C     17.812563   17.552362   17.598607
  C     17.117562   16.524325   18.479243
  C     17.662240   15.237479   18.645681
  C     17.049860   14.309248   19.504892
  C     15.886351   14.672607   20.205106
  C     15.346619   15.956677   20.046184
  O     14.224500   16.310572   20.721461
  C     15.960487   16.879636   19.193452
  H     15.223242   14.520196   17.301124
  H     13.788332   14.637084   16.268291
  H     14.566185   16.118194   16.857997
  H     15.819979   14.081931   14.926654
  H     15.145183   15.641834   14.425162
  H     15.518268   19.396603   14.431744
  H     17.137184   19.988520   14.035735
  H     16.025450   20.993617   14.984709
  H     17.058027   21.251847   16.870839
  H     18.834181   18.527720   19.233484
  H     18.770769   17.150772   17.239356
  H     18.561761   14.955443   18.104632
  H     17.476678   13.314954   19.625314
  H     15.409568   13.958868   20.868927
  H     13.979920   15.566112   21.291630
  H     15.539214   17.874655   19.094862

 Total Charge           Charge          ....    0
 Multiplicity           Mult            ....    1
 Number of Electrons    NEL             ....  154
 Basis Dimension        Dim             ....  828

ORBITAL ENERGIES
----------------

  NO   OCC          E(Eh)            E(eV)
   0   2.0000     -91.890866     -2500.4776
   1   2.0000     -20.599215      -560.5331
   2   2.0000     -20.584182      -560.1241
   3   2.0000     -20.549441      -559.1787
   4   2.0000     -15.630681      -425.3325
   5   2.0000     -15.608967      -424.7416
   6   2.0000     -11.393215      -310.0252
   7   2.0000     -11.385124      -309.8050
   8   2.0000     -11.338398      -308.5335
   9   2.0000     -11.316319      -307.9327
  10   2.0000     -11.311798      -307.8097
  11   2.0000     -11.297073      -307.4090
  12   2.0000     -11.263272      -306.4892
  13   2.0000     -11.259337      -306.3821
  14   2.0000     -11.257447      -306.3307
  15   2.0000     -11.254101      -306.2397
  16   2.0000     -11.246652      -306.0370
  17   2.0000     -11.241309      -305.8916
  18   2.0000     -11.241096      -305.8858
  19   2.0000     -11.220772      -305.3327
  20   2.0000      -8.895909      -242.0700
  21   2.0000      -6.577473      -178.9821
  22   2.0000      -6.575483      -178.9280
  23   2.0000      -6.574885      -178.9117
  24   2.0000      -1.449672       -39.4476
  25   2.0000      -1.418960       -38.6119
  26   2.0000      -1.354155       -36.8484
  27   2.0000      -1.342568       -36.5331
  28   2.0000      -1.240649       -33.7598
  29   2.0000      -1.159948       -31.5638
  30   2.0000      -1.122704       -30.5503
  31   2.0000      -1.045219       -28.4419
  32   2.0000      -1.033078       -28.1115
  33   2.0000      -1.017700       -27.6930
  34   2.0000      -0.999983       -27.2109
  35   2.0000      -0.987206       -26.8632
  36   2.0000      -0.924337       -25.1525
  37   2.0000      -0.887022       -24.1371
  38   2.0000      -0.848351       -23.0848
  39   2.0000      -0.840899       -22.8820
  40   2.0000      -0.836957       -22.7748
  41   2.0000      -0.819844       -22.3091
  42   2.0000      -0.759952       -20.6794
  43   2.0000      -0.735700       -20.0194
  44   2.0000      -0.723635       -19.6911
  45   2.0000      -0.697809       -18.9883
  46   2.0000      -0.689391       -18.7593
  47   2.0000      -0.675688       -18.3864
  48   2.0000      -0.673632       -18.3305
  49   2.0000      -0.668528       -18.1916
  50   2.0000      -0.647718       -17.6253
  51   2.0000      -0.645253       -17.5582
  52   2.0000      -0.636149       -17.3105
  53   2.0000      -0.609549       -16.5867
  54   2.0000      -0.603769       -16.4294
  55   2.0000      -0.601429       -16.3657
  56   2.0000      -0.586522       -15.9601
  57   2.0000      -0.578698       -15.7472
  58   2.0000      -0.576725       -15.6935
  59   2.0000      -0.570451       -15.5228
  60   2.0000      -0.566087       -15.4040
  61   2.0000      -0.548191       -14.9170
  62   2.0000      -0.541565       -14.7367
  63   2.0000      -0.525354       -14.2956
  64   2.0000      -0.515347       -14.0233
  65   2.0000      -0.514261       -13.9938
  66   2.0000      -0.505896       -13.7661
  67   2.0000      -0.501141       -13.6367
  68   2.0000      -0.478361       -13.0169
  69   2.0000      -0.463301       -12.6071
  70   2.0000      -0.451331       -12.2813
  71   2.0000      -0.450235       -12.2515
  72   2.0000      -0.355443        -9.6721
  73   2.0000      -0.350488        -9.5373
  74   2.0000      -0.329823        -8.9749
  75   2.0000      -0.324171        -8.8211
  76   2.0000      -0.320505        -8.7214
  77   0.0000       0.071403         1.9430
  78   0.0000       0.101052         2.7498
  79   0.0000       0.120853         3.2886
  80   0.0000       0.130280         3.5451
  81   0.0000       0.132974         3.6184

MULLIKEN ATOMIC CHARGES
-----------------------
   0 C :   -0.311572
   1 C :    0.044924
   2 O :   -0.372158
   3 C :    0.454402
   4 O :   -0.397093
   5 C :   -0.230125
   6 C :    0.159790
   7 C :   -0.268586
   8 N :   -0.127361
   9 C :    0.207741
  10 S :   -0.437674
  11 N :   -0.209674
  12 C :    0.034985
  13 C :    0.042969
  14 C :   -0.170986
  15 C :   -0.138084
  16 C :   -0.278804
  17 C :    0.328268
  18 O :   -0.359407
  19 C :   -0.266081
  20 H :    0.109038
  21 H :    0.115049
  22 H :    0.100274
  23 H :    0.106068
  24 H :    0.099234
  25 H :    0.123368
  26 H :    0.136919
  27 H :    0.094672
  28 H :    0.200141
  29 H :    0.200659
  30 H :    0.151784
  31 H :    0.151171
  32 H :    0.163573
  33 H :    0.132299
  34 H :    0.241228
  35 H :    0.169049
Sum of atomic charges:   -0.0000000

LOEWDIN ATOMIC CHARGES
----------------------
   0 C :    0.103437
   1 C :   -0.016941
   2 O :    0.294078
   3 C :   -0.424307
   4 O :    0.119048
   5 C :   -0.102596
   6 C :   -0.057397
   7 C :    0.129730
   8 N :    0.407705
   9 C :   -0.458024
  10 S :   -0.033270
  11 N :    0.395856
  12 C :   -0.053406
  13 C :   -0.040651
  14 C :    0.019310
  15 C :    0.039482
  16 C :   -0.000737
  17 C :   -0.190707
  18 O :    0.395999
  19 C :    0.035923
  20 H :   -0.024926
  21 H :   -0.026930
  22 H :   -0.031422
  23 H :   -0.024860
  24 H :   -0.028520
  25 H :   -0.006790
  26 H :   -0.004335
  27 H :   -0.022842
  28 H :   -0.056603
  29 H :   -0.063343
  30 H :   -0.012279
  31 H :   -0.027707
  32 H :   -0.020540
  33 H :   -0.034953
  34 H :   -0.153348
  35 H :   -0.023132

  Mayer bond orders larger than 0.100000
B(  0-C ,  1-C ) :   0.9684 B(  0-C , 20-H ) :   0.9722 B(  0-C , 21-H ) :   0.9777
B(  0-C , 22-H ) :   0.9723 B(  1-C ,  2-O ) :   0.8864 B(  1-C , 23-H ) :   0.9876
B(  1-C , 24-H ) :   0.9758 B(  2-O ,  3-C ) :   1.1144 B(  3-C ,  4-O ) :   2.0461
B(  3-C ,  5-C ) :   1.0398 B(  5-C ,  6-C ) :   1.6335 B(  5-C , 12-C ) :   0.9642
B(  6-C ,  7-C ) :   0.9643 B(  6-C ,  8-N ) :   1.1481 B(  7-C , 25-H ) :   0.9686
B(  7-C , 26-H ) :   0.9550 B(  7-C , 27-H ) :   0.9874 B(  8-N ,  9-C ) :   1.1863
B(  8-N , 28-H ) :   0.9474 B(  9-C , 10-S ) :   1.6132 B(  9-C , 11-N ) :   1.3031
B( 11-N , 12-C ) :   0.9753 B( 11-N , 29-H ) :   0.9481 B( 12-C , 13-C ) :   0.9576
B( 12-C , 30-H ) :   1.0048 B( 13-C , 14-C ) :   1.3609 B( 13-C , 19-C ) :   1.3572
B( 14-C , 15-C ) :   1.3939 B( 14-C , 31-H ) :   0.9713 B( 15-C , 16-C ) :   1.3550
B( 15-C , 32-H ) :   0.9708 B( 16-C , 17-C ) :   1.3348 B( 16-C , 33-H ) :   0.9848
B( 17-C , 18-O ) :   1.1054 B( 17-C , 19-C ) :   1.3534 B( 18-O , 34-H ) :   0.9793
B( 19-C , 35-H ) :   0.9608

MP2 TOTAL ENERGY:    -1274.323932028 Eh
FINAL SINGLE POINT ENERGY     -1274.323932028379

DIPOLE MOMENT
-------------
                                X             Y             Z
Electronic contribution:      8.59403       9.78885       5.80444
Nuclear contribution   :     -9.70611     -11.42430      -5.89614
                        -----------------------------------------
Total Dipole Moment    :     -1.11208      -1.63545      -0.09170
                        -----------------------------------------
Magnitude (a.u.)       :      1.97986
Magnitude (Debye)      :      5.03241

Rotational constants in cm-1:     0.012172     0.009028     0.006138
Rotational constants in MHz :   364.898224   270.665295   183.999299

                             ****ORCA TERMINATED NORMALLY****
TOTAL RUN TIME: 0 days 1 hours 44 minutes 58 seconds 106 msec
