                         Program Version 4.2.0 -  RELEASE  -
|  1> ! ri-mp2 cc-pvtz cc-pvtz/c TightSCF NoKeepInts
|  2>
|  3> %scf
|  4>   MaxCore 4096
|  5> end
|  6> *xyz  0  1
|  7>     C       14.0474461   15.4297667   14.3201811
|  8>     C       14.9547400   15.9265669   15.4574567
|  9>     O       16.2502021   16.1824106   14.8933625
| 10>     C       17.2778499   16.3272002   15.7739176
| 11>     O       18.1016694   15.4462666   15.9389500
| 12>     C       17.2413883   17.5826383   16.5926512
| 13>     C       16.9144847   18.7830293   16.0489334
| 14>     C       16.3592907   19.0470070   14.6629561
| 15>     N       17.1500265   19.9690930   16.7481502
| 16>     C       17.9101657   20.0577516   17.8837766
| 17>     S       18.2384481   21.5109101   18.6014407
| 18>     N       18.4031841   18.8780530   18.3830321
| 19>     C       18.0543782   17.5314147   17.8889259
| 20>     C       17.4289447   16.6307795   18.9449350
| 21>     C       17.9289349   15.3349673   19.1653441
| 22>     C       17.3444599   14.4982566   20.1307566
| 23>     C       16.2500063   14.9611948   20.8812370
| 24>     C       15.7469454   16.2506418   20.6602971
| 25>     O       14.6851194   16.6974248   21.3770793
| 26>     C       16.3299144   17.0807810   19.6974075
| 27>     H       14.4596440   14.5180444   13.8693091
| 28>     H       13.9553931   16.1915496   13.5361680
| 29>     H       13.0436968   15.2014797   14.6988278
| 30>     H       14.5374602   16.8328711   15.9154372
| 31>     H       15.0250763   15.1460302   16.2282097
| 32>     H       16.9206061   18.4898919   13.9017454
| 33>     H       16.4176490   20.1057209   14.3813731
| 34>     H       15.3075778   18.7457241   14.5942336
| 35>     H       16.8201277   20.8462807   16.3778053
| 36>     H       18.9499889   18.9698863   19.2301136
| 37>     H       19.0504415   17.1600302   17.6055057
| 38>     H       18.7662594   14.9706438   18.5738437
| 39>     H       17.7376656   13.4955272   20.2895075
| 40>     H       15.7949881   14.3173754   21.6266699
| 41>     H       14.4554769   16.0065808   22.0168332
| 42>     H       15.9273499   18.0762100   19.5416264
| 43> *
| 44>
| 45>                          ****END OF INPUT****

CARTESIAN COORDINATES (ANGSTROEM)
---------------------------------
  C     14.047446   15.429767   14.320181
  C     14.954740   15.926567   15.457457
  O     16.250202   16.182411   14.893363
  C     17.277850   16.327200   15.773918
  O     18.101669   15.446267   15.938950
  C     17.241388   17.582638   16.592651
  C     16.914485   18.783029   16.048933
  C     16.359291   19.047007   14.662956
  N     17.150026   19.969093   16.748150
  C     17.910166   20.057752   17.883777
  S     18.238448   21.510910   18.601441
  N     18.403184   18.878053   18.383032
  C     18.054378   17.531415   17.888926
  C     17.428945   16.630779   18.944935
  C     17.928935   15.334967   19.165344
  C     17.344460   14.498257   20.130757
  C     16.250006   14.961195   20.881237
  C     15.746945   16.250642   20.660297
  O     14.685119   16.697425   21.377079
  C     16.329914   17.080781   19.697408
  H     14.459644   14.518044   13.869309
  H     13.955393   16.191550   13.536168
  H     13.043697   15.201480   14.698828
  H     14.537460   16.832871   15.915437
  H     15.025076   15.146030   16.228210
  H     16.920606   18.489892   13.901745
  H     16.417649   20.105721   14.381373
  H     15.307578   18.745724   14.594234
  H     16.820128   20.846281   16.377805
  H     18.949989   18.969886   19.230114
  H     19.050442   17.160030   17.605506
  H     18.766259   14.970644   18.573844
  H     17.737666   13.495527   20.289507
  H     15.794988   14.317375   21.626670
  H     14.455477   16.006581   22.016833
  H     15.927350   18.076210   19.541626

 Total Charge           Charge          ....    0
 Multiplicity           Mult            ....    1
 Number of Electrons    NEL             ....  154
 Basis Dimension        Dim             ....  828

ORBITAL ENERGIES
----------------

  NO   OCC          E(Eh)            E(eV)
   0   2.0000     -91.890217     -2500.4599
   1   2.0000     -20.595866      -560.4420
   2   2.0000     -20.591851      -560.3327
   3   2.0000     -20.553708      -559.2948
   4   2.0000     -15.630785      -425.3353
   5   2.0000     -15.608096      -424.7179
   6   2.0000     -11.394160      -310.0509
   7   2.0000     -11.385235      -309.8080
   8   2.0000     -11.339650      -308.5676
   9   2.0000     -11.312264      -307.8224
  10   2.0000     -11.306954      -307.6779
  11   2.0000     -11.306332      -307.6609
  12   2.0000     -11.264382      -306.5194
  13   2.0000     -11.261099      -306.4301
  14   2.0000     -11.259503      -306.3867
  15   2.0000     -11.252184      -306.1875
  16   2.0000     -11.242099      -305.9131
  17   2.0000     -11.238374      -305.8117
  18   2.0000     -11.236270      -305.7545
  19   2.0000     -11.234771      -305.7137
  20   2.0000      -8.895299      -242.0534
  21   2.0000      -6.576873      -178.9658
  22   2.0000      -6.574870      -178.9113
  23   2.0000      -6.574280      -178.8953
  24   2.0000      -1.453617       -39.5549
  25   2.0000      -1.415605       -38.5206
  26   2.0000      -1.362265       -37.0691
  27   2.0000      -1.341998       -36.5176
  28   2.0000      -1.239173       -33.7196
  29   2.0000      -1.156729       -31.4762
  30   2.0000      -1.123673       -30.5767
  31   2.0000      -1.045788       -28.4574
  32   2.0000      -1.039955       -28.2986
  33   2.0000      -1.014427       -27.6040
  34   2.0000      -1.002883       -27.2898
  35   2.0000      -0.987621       -26.8745
  36   2.0000      -0.923991       -25.1431
  37   2.0000      -0.880152       -23.9502
  38   2.0000      -0.853530       -23.2257
  39   2.0000      -0.841902       -22.9093
  40   2.0000      -0.833908       -22.6918
  41   2.0000      -0.831973       -22.6391
  42   2.0000      -0.760600       -20.6970
  43   2.0000      -0.737869       -20.0784
  44   2.0000      -0.729905       -19.8617
  45   2.0000      -0.693560       -18.8727
  46   2.0000      -0.689248       -18.7554
  47   2.0000      -0.683257       -18.5924
  48   2.0000      -0.673838       -18.3361
  49   2.0000      -0.658832       -17.9277
  50   2.0000      -0.650689       -17.7061
  51   2.0000      -0.646081       -17.5807
  52   2.0000      -0.638262       -17.3680
  53   2.0000      -0.616016       -16.7626
  54   2.0000      -0.605981       -16.4896
  55   2.0000      -0.602885       -16.4053
  56   2.0000      -0.599171       -16.3043
  57   2.0000      -0.580856       -15.8059
  58   2.0000      -0.576285       -15.6815
  59   2.0000      -0.564672       -15.3655
  60   2.0000      -0.560742       -15.2586
  61   2.0000      -0.555642       -15.1198
  62   2.0000      -0.542050       -14.7499
  63   2.0000      -0.524628       -14.2759
  64   2.0000      -0.520963       -14.1761
  65   2.0000      -0.512832       -13.9549
  66   2.0000      -0.502348       -13.6696
  67   2.0000      -0.497602       -13.5404
  68   2.0000      -0.486205       -13.2303
  69   2.0000      -0.467806       -12.7296
  70   2.0000      -0.463208       -12.6045
  71   2.0000      -0.452740       -12.3197
  72   2.0000      -0.355978        -9.6866
  73   2.0000      -0.348445        -9.4817
  74   2.0000      -0.329334        -8.9616
  75   2.0000      -0.319928        -8.7057
  76   2.0000      -0.318961        -8.6794
  77   0.0000       0.073930         2.0117
  78   0.0000       0.106560         2.8996
  79   0.0000       0.117399         3.1946
  80   0.0000       0.132800         3.6137
  81   0.0000       0.137584         3.7438

MULLIKEN ATOMIC CHARGES
-----------------------
   0 C :   -0.258213
   1 C :    0.015044
   2 O :   -0.350692
   3 C :    0.450562
   4 O :   -0.377368
   5 C :   -0.251406
   6 C :    0.172661
   7 C :   -0.296916
   8 N :   -0.131060
   9 C :    0.205653
  10 S :   -0.439916
  11 N :   -0.214097
  12 C :    0.052846
  13 C :    0.027325
  14 C :   -0.190387
  15 C :   -0.131374
  16 C :   -0.277987
  17 C :    0.313762
  18 O :   -0.358175
  19 C :   -0.253003
  20 H :    0.108271
  21 H :    0.093404
  22 H :    0.091079
  23 H :    0.095421
  24 H :    0.110905
  25 H :    0.137312
  26 H :    0.111765
  27 H :    0.118311
  28 H :    0.198266
  29 H :    0.200333
  30 H :    0.159496
  31 H :    0.167980
  32 H :    0.162555
  33 H :    0.129985
  34 H :    0.240747
  35 H :    0.166910
Sum of atomic charges:    0.0000000

LOEWDIN ATOMIC CHARGES
----------------------
   0 C :    0.111940
   1 C :   -0.027297
   2 O :    0.301576
   3 C :   -0.423932
   4 O :    0.128451
   5 C :   -0.095795
   6 C :   -0.070709
   7 C :    0.127441
   8 N :    0.405101
   9 C :   -0.458045
  10 S :   -0.035879
  11 N :    0.396127
  12 C :   -0.049409
  13 C :   -0.042683
  14 C :    0.023291
  15 C :    0.042293
  16 C :   -0.000897
  17 C :   -0.192931
  18 O :    0.393427
  19 C :    0.027584
  20 H :   -0.021230
  21 H :   -0.028678
  22 H :   -0.024207
  23 H :   -0.038818
  24 H :   -0.025358
  25 H :   -0.005950
  26 H :   -0.018076
  27 H :   -0.013752
  28 H :   -0.058258
  29 H :   -0.063301
  30 H :   -0.006451
  31 H :   -0.022381
  32 H :   -0.019821
  33 H :   -0.035511
  34 H :   -0.153939
  35 H :   -0.023924

  Mayer bond orders larger than 0.100000
B(  0-C ,  1-C ) :   0.9789 B(  0-C , 20-H ) :   0.9769 B(  0-C , 21-H ) :   0.9779
B(  0-C , 22-H ) :   0.9756 B(  1-C ,  2-O ) :   0.8952 B(  1-C , 23-H ) :   0.9702
B(  1-C , 24-H ) :   0.9752 B(  2-O ,  3-C ) :   1.1126 B(  3-C ,  4-O ) :   2.0868
B(  3-C ,  5-C ) :   0.9725 B(  5-C ,  6-C ) :   1.6780 B(  5-C , 12-C ) :   0.9519
B(  6-C ,  7-C ) :   0.9445 B(  6-C ,  8-N ) :   1.1325 B(  7-C , 25-H ) :   0.9657
B(  7-C , 26-H ) :   0.9882 B(  7-C , 27-H ) :   0.9669 B(  8-N ,  9-C ) :   1.1859
B(  8-N , 28-H ) :   0.9477 B(  9-C , 10-S ) :   1.6122 B(  9-C , 11-N ) :   1.3005
B( 11-N , 12-C ) :   0.9830 B( 11-N , 29-H ) :   0.9486 B( 12-C , 13-C ) :   0.9711
B( 12-C , 30-H ) :   0.9934 B( 13-C , 14-C ) :   1.3821 B( 13-C , 19-C ) :   1.3606
B( 14-C , 15-C ) :   1.3952 B( 14-C , 31-H ) :   0.9607 B( 15-C , 16-C ) :   1.3603
B( 15-C , 32-H ) :   0.9704 B( 16-C , 17-C ) :   1.3317 B( 16-C , 33-H ) :   0.9855
B( 17-C , 18-O ) :   1.1057 B( 17-C , 19-C ) :   1.3672 B( 18-O , 34-H ) :   0.9799
B( 19-C , 35-H ) :   0.9589

MP2 TOTAL ENERGY:    -1274.328829773 Eh
FINAL SINGLE POINT ENERGY     -1274.328829773302

DIPOLE MOMENT
-------------
                                X             Y             Z
Electronic contribution:     10.61031       8.74216       9.87460
Nuclear contribution   :    -12.14544      -9.88699     -10.37513
                        -----------------------------------------
Total Dipole Moment    :     -1.53513      -1.14483      -0.50053
                        -----------------------------------------
Magnitude (a.u.)       :      1.97934
Magnitude (Debye)      :      5.03109

Rotational constants in cm-1:     0.009915     0.009394     0.005997
Rotational constants in MHz :   297.254037   281.623343   179.775164

                             ****ORCA TERMINATED NORMALLY****
TOTAL RUN TIME: 0 days 1 hours 44 minutes 47 seconds 37 msec
