                         Program Version 4.2.0 -  RELEASE  -
|  1> ! ri-mp2 cc-pvtz cc-pvtz/c TightSCF NoKeepInts
|  2>
|  3> %scf
|  4>   MaxCore 4096
|  5> end
|  6> *xyz  0  1
|  7>     C       14.4807805   16.2756487   15.9222220
|  8>     C       15.5716628   15.1820612   15.9946785
|  9>     O       16.8472615   15.5864273   15.4340135
| 10>     C       17.2381791   16.8767695   15.1958567
| 11>     O       17.6479765   17.1953171   14.0947649
| 12>     C       17.1229697   17.8399130   16.3424729
| 13>     C       16.9244668   19.1535228   16.0703582
| 14>     C       16.3981380   19.7333268   14.7742286
| 15>     N       17.1883514   20.1407901   17.0208998
| 16>     C       17.8875915   19.9234250   18.1771206
| 17>     S       18.2785634   21.1541190   19.2102390
| 18>     N       18.2704234   18.6286566   18.4233500
| 19>     C       17.8496882   17.4496180   17.6413987
| 20>     C       17.1953283   16.3823298   18.5026505
| 21>     C       17.7955008   15.1186081   18.6548652
| 22>     C       17.1936428   14.1370796   19.4603138
| 23>     C       15.9876930   14.4245760   20.1229029
| 24>     C       15.3958292   15.6875063   19.9828926
| 25>     O       14.2316860   15.9679875   20.6199947
| 26>     C       15.9967189   16.6625325   19.1806458
| 27>     H       14.6458842   17.0719689   16.6557059
| 28>     H       13.5006579   15.8355409   16.1431776
| 29>     H       14.4285522   16.7153816   14.9182049
| 30>     H       15.6900591   14.8572115   17.0332828
| 31>     H       15.2216821   14.3049342   15.4351807
| 32>     H       15.6768741   19.0558112   14.3008402
| 33>     H       17.2198134   19.8824416   14.0613436
| 34>     H       15.8932852   20.6959481   14.9180033
| 35>     H       16.9516595   21.1009054   16.8269924
| 36>     H       18.7718718   18.4963835   19.2928884
| 37>     H       18.8370789   17.0988783   17.3078605
| 38>     H       18.7260662   14.8931257   18.1396804
| 39>     H       17.6617857   13.1598840   19.5691161
| 40>     H       15.5196779   13.6689754   20.7457128
| 41>     H       14.0088081   15.2038744   21.1733013
| 42>     H       15.5307919   17.6385205   19.0908401
| 43> *
| 44>
| 45>                          ****END OF INPUT****

CARTESIAN COORDINATES (ANGSTROEM)
---------------------------------
  C     14.480780   16.275649   15.922222
  C     15.571663   15.182061   15.994678
  O     16.847261   15.586427   15.434014
  C     17.238179   16.876770   15.195857
  O     17.647976   17.195317   14.094765
  C     17.122970   17.839913   16.342473
  C     16.924467   19.153523   16.070358
  C     16.398138   19.733327   14.774229
  N     17.188351   20.140790   17.020900
  C     17.887591   19.923425   18.177121
  S     18.278563   21.154119   19.210239
  N     18.270423   18.628657   18.423350
  C     17.849688   17.449618   17.641399
  C     17.195328   16.382330   18.502651
  C     17.795501   15.118608   18.654865
  C     17.193643   14.137080   19.460314
  C     15.987693   14.424576   20.122903
  C     15.395829   15.687506   19.982893
  O     14.231686   15.967987   20.619995
  C     15.996719   16.662533   19.180646
  H     14.645884   17.071969   16.655706
  H     13.500658   15.835541   16.143178
  H     14.428552   16.715382   14.918205
  H     15.690059   14.857212   17.033283
  H     15.221682   14.304934   15.435181
  H     15.676874   19.055811   14.300840
  H     17.219813   19.882442   14.061344
  H     15.893285   20.695948   14.918003
  H     16.951660   21.100905   16.826992
  H     18.771872   18.496383   19.292888
  H     18.837079   17.098878   17.307861
  H     18.726066   14.893126   18.139680
  H     17.661786   13.159884   19.569116
  H     15.519678   13.668975   20.745713
  H     14.008808   15.203874   21.173301
  H     15.530792   17.638520   19.090840

 Total Charge           Charge          ....    0
 Multiplicity           Mult            ....    1
 Number of Electrons    NEL             ....  154
 Basis Dimension        Dim             ....  828

ORBITAL ENERGIES
----------------

  NO   OCC          E(Eh)            E(eV)
   0   2.0000     -91.890526     -2500.4683
   1   2.0000     -20.605330      -560.6995
   2   2.0000     -20.586414      -560.1848
   3   2.0000     -20.548715      -559.1590
   4   2.0000     -15.628240      -425.2660
   5   2.0000     -15.610341      -424.7790
   6   2.0000     -11.394038      -310.0475
   7   2.0000     -11.385326      -309.8105
   8   2.0000     -11.331942      -308.3578
   9   2.0000     -11.323582      -308.1303
  10   2.0000     -11.315438      -307.9087
  11   2.0000     -11.300341      -307.4979
  12   2.0000     -11.269353      -306.6547
  13   2.0000     -11.264272      -306.5164
  14   2.0000     -11.256760      -306.3120
  15   2.0000     -11.254267      -306.2442
  16   2.0000     -11.253745      -306.2300
  17   2.0000     -11.248322      -306.0824
  18   2.0000     -11.247776      -306.0675
  19   2.0000     -11.233331      -305.6745
  20   2.0000      -8.895591      -242.0613
  21   2.0000      -6.577162      -178.9737
  22   2.0000      -6.575165      -178.9193
  23   2.0000      -6.574573      -178.9032
  24   2.0000      -1.440742       -39.2046
  25   2.0000      -1.425107       -38.7791
  26   2.0000      -1.352863       -36.8133
  27   2.0000      -1.341244       -36.4971
  28   2.0000      -1.240669       -33.7603
  29   2.0000      -1.166544       -31.7433
  30   2.0000      -1.123631       -30.5756
  31   2.0000      -1.050379       -28.5823
  32   2.0000      -1.033264       -28.1166
  33   2.0000      -1.024488       -27.8777
  34   2.0000      -1.003153       -27.2972
  35   2.0000      -0.988925       -26.9100
  36   2.0000      -0.926774       -25.2188
  37   2.0000      -0.898482       -24.4490
  38   2.0000      -0.850241       -23.1362
  39   2.0000      -0.845000       -22.9936
  40   2.0000      -0.843477       -22.9522
  41   2.0000      -0.825525       -22.4637
  42   2.0000      -0.748386       -20.3646
  43   2.0000      -0.739798       -20.1309
  44   2.0000      -0.718330       -19.5468
  45   2.0000      -0.703538       -19.1442
  46   2.0000      -0.690385       -18.7863
  47   2.0000      -0.677921       -18.4472
  48   2.0000      -0.674681       -18.3590
  49   2.0000      -0.660541       -17.9742
  50   2.0000      -0.655553       -17.8385
  51   2.0000      -0.647592       -17.6219
  52   2.0000      -0.639411       -17.3993
  53   2.0000      -0.622014       -16.9259
  54   2.0000      -0.614634       -16.7250
  55   2.0000      -0.607557       -16.5325
  56   2.0000      -0.602773       -16.4023
  57   2.0000      -0.583662       -15.8822
  58   2.0000      -0.575847       -15.6696
  59   2.0000      -0.566834       -15.4243
  60   2.0000      -0.554967       -15.1014
  61   2.0000      -0.549722       -14.9587
  62   2.0000      -0.541214       -14.7272
  63   2.0000      -0.534509       -14.5447
  64   2.0000      -0.530711       -14.4414
  65   2.0000      -0.516801       -14.0629
  66   2.0000      -0.505356       -13.7514
  67   2.0000      -0.495090       -13.4721
  68   2.0000      -0.482644       -13.1334
  69   2.0000      -0.469880       -12.7861
  70   2.0000      -0.449641       -12.2353
  71   2.0000      -0.447384       -12.1739
  72   2.0000      -0.359363        -9.7788
  73   2.0000      -0.351767        -9.5721
  74   2.0000      -0.332681        -9.0527
  75   2.0000      -0.328818        -8.9476
  76   2.0000      -0.320058        -8.7092
  77   0.0000       0.077707         2.1145
  78   0.0000       0.096392         2.6230
  79   0.0000       0.120378         3.2757
  80   0.0000       0.126425         3.4402
  81   0.0000       0.129155         3.5145

MULLIKEN ATOMIC CHARGES
-----------------------
   0 C :   -0.332133
   1 C :    0.030838
   2 O :   -0.347351
   3 C :    0.423501
   4 O :   -0.370631
   5 C :   -0.268480
   6 C :    0.171759
   7 C :   -0.278321
   8 N :   -0.128716
   9 C :    0.207680
  10 S :   -0.439819
  11 N :   -0.208929
  12 C :    0.056643
  13 C :   -0.000040
  14 C :   -0.158712
  15 C :   -0.133700
  16 C :   -0.273311
  17 C :    0.312892
  18 O :   -0.356376
  19 C :   -0.260900
  20 H :    0.112343
  21 H :    0.117956
  22 H :    0.108953
  23 H :    0.104743
  24 H :    0.124128
  25 H :    0.119658
  26 H :    0.143737
  27 H :    0.096074
  28 H :    0.198294
  29 H :    0.199858
  30 H :    0.154286
  31 H :    0.153952
  32 H :    0.164807
  33 H :    0.135228
  34 H :    0.242305
  35 H :    0.177786
Sum of atomic charges:   -0.0000000

LOEWDIN ATOMIC CHARGES
----------------------
   0 C :    0.103003
   1 C :   -0.011224
   2 O :    0.289340
   3 C :   -0.425902
   4 O :    0.127391
   5 C :   -0.096202
   6 C :   -0.069751
   7 C :    0.129006
   8 N :    0.406420
   9 C :   -0.456522
  10 S :   -0.035056
  11 N :    0.395475
  12 C :   -0.055124
  13 C :   -0.044617
  14 C :    0.020322
  15 C :    0.043048
  16 C :    0.001365
  17 C :   -0.192290
  18 O :    0.397029
  19 C :    0.034672
  20 H :   -0.036260
  21 H :   -0.021148
  22 H :   -0.028272
  23 H :   -0.032823
  24 H :   -0.023737
  25 H :   -0.009807
  26 H :   -0.003773
  27 H :   -0.021966
  28 H :   -0.056845
  29 H :   -0.063771
  30 H :   -0.010353
  31 H :   -0.026036
  32 H :   -0.018526
  33 H :   -0.033173
  34 H :   -0.152049
  35 H :   -0.021845

  Mayer bond orders larger than 0.100000
B(  0-C ,  1-C ) :   0.9602 B(  0-C , 20-H ) :   0.9673 B(  0-C , 21-H ) :   0.9758
B(  0-C , 22-H ) :   0.9751 B(  1-C ,  2-O ) :   0.9023 B(  1-C , 23-H ) :   0.9685
B(  1-C , 24-H ) :   0.9844 B(  2-O ,  3-C ) :   1.1526 B(  3-C ,  4-O ) :   2.1081
B(  3-C ,  5-C ) :   0.9612 B(  5-C ,  6-C ) :   1.6644 B(  5-C , 12-C ) :   0.9597
B(  6-C ,  7-C ) :   0.9507 B(  6-C ,  8-N ) :   1.1393 B(  7-C , 25-H ) :   0.9734
B(  7-C , 26-H ) :   0.9558 B(  7-C , 27-H ) :   0.9849 B(  8-N ,  9-C ) :   1.1941
B(  8-N , 28-H ) :   0.9489 B(  9-C , 10-S ) :   1.6127 B(  9-C , 11-N ) :   1.2941
B( 11-N , 12-C ) :   0.9763 B( 11-N , 29-H ) :   0.9480 B( 12-C , 13-C ) :   0.9560
B( 12-C , 30-H ) :   1.0049 B( 13-C , 14-C ) :   1.3610 B( 13-C , 19-C ) :   1.3586
B( 14-C , 15-C ) :   1.3968 B( 14-C , 31-H ) :   0.9709 B( 15-C , 16-C ) :   1.3601
B( 15-C , 32-H ) :   0.9700 B( 16-C , 17-C ) :   1.3296 B( 16-C , 33-H ) :   0.9835
B( 17-C , 18-O ) :   1.1101 B( 17-C , 19-C ) :   1.3628 B( 18-O , 34-H ) :   0.9785
B( 19-C , 35-H ) :   0.9548

MP2 TOTAL ENERGY:    -1274.319833380 Eh
FINAL SINGLE POINT ENERGY     -1274.319833380114

DIPOLE MOMENT
-------------
                                X             Y             Z
Electronic contribution:      9.04810       7.00358       6.14609
Nuclear contribution   :    -10.44246      -8.67040      -5.80811
                        -----------------------------------------
Total Dipole Moment    :     -1.39436      -1.66683       0.33798
                        -----------------------------------------
Magnitude (a.u.)       :      2.19927
Magnitude (Debye)      :      5.59010

Rotational constants in cm-1:     0.012361     0.009063     0.006409
Rotational constants in MHz :   370.578046   271.688008   192.139623

                             ****ORCA TERMINATED NORMALLY****
TOTAL RUN TIME: 0 days 1 hours 51 minutes 5 seconds 56 msec
