                         Program Version 4.2.0 -  RELEASE  -
|  1> ! ri-mp2 cc-pvtz cc-pvtz/c TightSCF NoKeepInts
|  2>
|  3> %scf
|  4>   MaxCore 4096
|  5> end
|  6> *xyz  0  1
|  7>     C       13.7706255   15.7065747   14.8230970
|  8>     C       14.8457502   16.3549857   15.7100247
|  9>     O       16.1107771   16.1741038   15.0446020
| 10>     C       17.2819880   16.7065556   15.5190212
| 11>     O       18.3644193   16.2769065   15.1667845
| 12>     C       17.1534153   17.7538877   16.5737179
| 13>     C       16.7222993   18.9945267   16.2414529
| 14>     C       16.1075010   19.4270037   14.9249292
| 15>     N       16.9005658   20.0704095   17.1125529
| 16>     C       17.7142162   20.0376317   18.2148239
| 17>     S       17.9742510   21.3792753   19.1456483
| 18>     N       18.3228433   18.8374769   18.4916537
| 19>     C       18.0443714   17.5631720   17.7990594
| 20>     C       17.5690133   16.4300104   18.6948634
| 21>     C       18.0885466   15.1339880   18.5275745
| 22>     C       17.6367933   14.0748425   19.3323163
| 23>     C       16.6546112   14.3137580   20.3089208
| 24>     C       16.1298446   15.6032653   20.4718815
| 25>     O       15.1736474   15.8345046   21.4060933
| 26>     C       16.5802062   16.6557750   19.6683170
| 27>     H       12.7805683   15.7983468   15.2860706
| 28>     H       13.9837030   14.6399984   14.6770304
| 29>     H       13.7372591   16.1893945   13.8384577
| 30>     H       14.5989123   17.4134341   15.8453404
| 31>     H       14.8631904   15.8695729   16.6956453
| 32>     H       15.0397681   19.6490117   15.0413627
| 33>     H       16.2067120   18.6680554   14.1394087
| 34>     H       16.5986793   20.3312517   14.5427653
| 35>     H       16.4943775   20.9674477   16.8969524
| 36>     H       18.9166494   18.8392426   19.3117308
| 37>     H       19.0459014   17.3349077   17.4040572
| 38>     H       18.8393378   14.9463322   17.7622794
| 39>     H       18.0452327   13.0750187   19.1940578
| 40>     H       16.3020592   13.4978877   20.9313895
| 41>     H       15.0300649   15.0053206   21.8869892
| 42>     H       16.1588989   17.6461234   19.8071279
| 43> *
| 44>
| 45>                          ****END OF INPUT****

CARTESIAN COORDINATES (ANGSTROEM)
---------------------------------
  C     13.770625   15.706575   14.823097
  C     14.845750   16.354986   15.710025
  O     16.110777   16.174104   15.044602
  C     17.281988   16.706556   15.519021
  O     18.364419   16.276906   15.166784
  C     17.153415   17.753888   16.573718
  C     16.722299   18.994527   16.241453
  C     16.107501   19.427004   14.924929
  N     16.900566   20.070410   17.112553
  C     17.714216   20.037632   18.214824
  S     17.974251   21.379275   19.145648
  N     18.322843   18.837477   18.491654
  C     18.044371   17.563172   17.799059
  C     17.569013   16.430010   18.694863
  C     18.088547   15.133988   18.527574
  C     17.636793   14.074842   19.332316
  C     16.654611   14.313758   20.308921
  C     16.129845   15.603265   20.471881
  O     15.173647   15.834505   21.406093
  C     16.580206   16.655775   19.668317
  H     12.780568   15.798347   15.286071
  H     13.983703   14.639998   14.677030
  H     13.737259   16.189394   13.838458
  H     14.598912   17.413434   15.845340
  H     14.863190   15.869573   16.695645
  H     15.039768   19.649012   15.041363
  H     16.206712   18.668055   14.139409
  H     16.598679   20.331252   14.542765
  H     16.494377   20.967448   16.896952
  H     18.916649   18.839243   19.311731
  H     19.045901   17.334908   17.404057
  H     18.839338   14.946332   17.762279
  H     18.045233   13.075019   19.194058
  H     16.302059   13.497888   20.931390
  H     15.030065   15.005321   21.886989
  H     16.158899   17.646123   19.807128

 Total Charge           Charge          ....    0
 Multiplicity           Mult            ....    1
 Number of Electrons    NEL             ....  154
 Basis Dimension        Dim             ....  828

ORBITAL ENERGIES
----------------

  NO   OCC          E(Eh)            E(eV)
   0   2.0000     -91.889493     -2500.4402
   1   2.0000     -20.604692      -560.6822
   2   2.0000     -20.599999      -560.5545
   3   2.0000     -20.551575      -559.2368
   4   2.0000     -15.627084      -425.2346
   5   2.0000     -15.609613      -424.7592
   6   2.0000     -11.399115      -310.1857
   7   2.0000     -11.385616      -309.8184
   8   2.0000     -11.332354      -308.3690
   9   2.0000     -11.317455      -307.9636
  10   2.0000     -11.310712      -307.7801
  11   2.0000     -11.306112      -307.6550
  12   2.0000     -11.267897      -306.6151
  13   2.0000     -11.265287      -306.5441
  14   2.0000     -11.263163      -306.4863
  15   2.0000     -11.257913      -306.3434
  16   2.0000     -11.246497      -306.0327
  17   2.0000     -11.242475      -305.9233
  18   2.0000     -11.240329      -305.8649
  19   2.0000     -11.236066      -305.7489
  20   2.0000      -8.894605      -242.0345
  21   2.0000      -6.576188      -178.9472
  22   2.0000      -6.574173      -178.8924
  23   2.0000      -6.573593      -178.8766
  24   2.0000      -1.450339       -39.4657
  25   2.0000      -1.419703       -38.6321
  26   2.0000      -1.363778       -37.1103
  27   2.0000      -1.340415       -36.4746
  28   2.0000      -1.239073       -33.7169
  29   2.0000      -1.161835       -31.6151
  30   2.0000      -1.126624       -30.6570
  31   2.0000      -1.048982       -28.5443
  32   2.0000      -1.042658       -28.3722
  33   2.0000      -1.019611       -27.7450
  34   2.0000      -1.006210       -27.3804
  35   2.0000      -0.989625       -26.9291
  36   2.0000      -0.926675       -25.2161
  37   2.0000      -0.881873       -23.9970
  38   2.0000      -0.855945       -23.2915
  39   2.0000      -0.842633       -22.9292
  40   2.0000      -0.838402       -22.8141
  41   2.0000      -0.836630       -22.7658
  42   2.0000      -0.758901       -20.6507
  43   2.0000      -0.739987       -20.1361
  44   2.0000      -0.732956       -19.9447
  45   2.0000      -0.697442       -18.9784
  46   2.0000      -0.689666       -18.7668
  47   2.0000      -0.682628       -18.5753
  48   2.0000      -0.674566       -18.3559
  49   2.0000      -0.665559       -18.1108
  50   2.0000      -0.657630       -17.8950
  51   2.0000      -0.649157       -17.6645
  52   2.0000      -0.638614       -17.3776
  53   2.0000      -0.613377       -16.6908
  54   2.0000      -0.607763       -16.5381
  55   2.0000      -0.603487       -16.4217
  56   2.0000      -0.596548       -16.2329
  57   2.0000      -0.584168       -15.8960
  58   2.0000      -0.577969       -15.7273
  59   2.0000      -0.569893       -15.5076
  60   2.0000      -0.562167       -15.2973
  61   2.0000      -0.560270       -15.2457
  62   2.0000      -0.551678       -15.0119
  63   2.0000      -0.528027       -14.3683
  64   2.0000      -0.523079       -14.2337
  65   2.0000      -0.515477       -14.0268
  66   2.0000      -0.507582       -13.8120
  67   2.0000      -0.501885       -13.6570
  68   2.0000      -0.488971       -13.3056
  69   2.0000      -0.468411       -12.7461
  70   2.0000      -0.458352       -12.4724
  71   2.0000      -0.452225       -12.3057
  72   2.0000      -0.356286        -9.6950
  73   2.0000      -0.352133        -9.5820
  74   2.0000      -0.329059        -8.9542
  75   2.0000      -0.325182        -8.8487
  76   2.0000      -0.319499        -8.6940
  77   0.0000       0.087012         2.3677
  78   0.0000       0.104199         2.8354
  79   0.0000       0.113990         3.1018
  80   0.0000       0.127550         3.4708
  81   0.0000       0.129750         3.5307

MULLIKEN ATOMIC CHARGES
-----------------------
   0 C :   -0.257872
   1 C :    0.028201
   2 O :   -0.308204
   3 C :    0.412397
   4 O :   -0.381990
   5 C :   -0.203155
   6 C :    0.138816
   7 C :   -0.331668
   8 N :   -0.138492
   9 C :    0.209799
  10 S :   -0.443294
  11 N :   -0.222285
  12 C :    0.055922
  13 C :    0.026812
  14 C :   -0.223285
  15 C :   -0.127316
  16 C :   -0.277565
  17 C :    0.315205
  18 O :   -0.355680
  19 C :   -0.252006
  20 H :    0.090031
  21 H :    0.106557
  22 H :    0.096099
  23 H :    0.085021
  24 H :    0.114092
  25 H :    0.122904
  26 H :    0.132407
  27 H :    0.135956
  28 H :    0.196989
  29 H :    0.202315
  30 H :    0.167357
  31 H :    0.174883
  32 H :    0.164689
  33 H :    0.132001
  34 H :    0.241371
  35 H :    0.172988
Sum of atomic charges:    0.0000000

LOEWDIN ATOMIC CHARGES
----------------------
   0 C :    0.111441
   1 C :   -0.024827
   2 O :    0.306567
   3 C :   -0.415237
   4 O :    0.120913
   5 C :   -0.083664
   6 C :   -0.094209
   7 C :    0.124629
   8 N :    0.402440
   9 C :   -0.455850
  10 S :   -0.038561
  11 N :    0.396000
  12 C :   -0.050002
  13 C :   -0.044127
  14 C :    0.018725
  15 C :    0.044975
  16 C :   -0.000018
  17 C :   -0.191367
  18 O :    0.395229
  19 C :    0.027501
  20 H :   -0.024484
  21 H :   -0.022778
  22 H :   -0.026626
  23 H :   -0.037755
  24 H :   -0.027908
  25 H :   -0.017704
  26 H :   -0.007997
  27 H :   -0.009720
  28 H :   -0.057006
  29 H :   -0.063799
  30 H :   -0.003965
  31 H :   -0.021552
  32 H :   -0.018460
  33 H :   -0.034709
  34 H :   -0.153065
  35 H :   -0.023029

  Mayer bond orders larger than 0.100000
B(  0-C ,  1-C ) :   0.9800 B(  0-C , 20-H ) :   0.9767 B(  0-C , 21-H ) :   0.9780
B(  0-C , 22-H ) :   0.9771 B(  1-C ,  2-O ) :   0.9080 B(  1-C , 23-H ) :   0.9655
B(  1-C , 24-H ) :   0.9731 B(  2-O ,  3-C ) :   1.1858 B(  3-C ,  4-O ) :   2.1036
B(  3-C ,  5-C ) :   0.9145 B(  5-C ,  6-C ) :   1.7242 B(  5-C , 12-C ) :   0.9437
B(  6-C ,  7-C ) :   0.9357 B(  6-C ,  8-N ) :   1.1072 B(  7-C , 25-H ) :   0.9665
B(  7-C , 26-H ) :   0.9764 B(  7-C , 27-H ) :   0.9733 B(  8-N ,  9-C ) :   1.1977
B(  8-N , 28-H ) :   0.9513 B(  9-C , 10-S ) :   1.6100 B(  9-C , 11-N ) :   1.2905
B( 11-N , 12-C ) :   0.9836 B( 11-N , 29-H ) :   0.9473 B( 12-C , 13-C ) :   0.9670
B( 12-C , 30-H ) :   0.9896 B( 13-C , 14-C ) :   1.3831 B( 13-C , 19-C ) :   1.3549
B( 14-C , 15-C ) :   1.3941 B( 14-C , 31-H ) :   0.9603 B( 15-C , 16-C ) :   1.3623
B( 15-C , 32-H ) :   0.9696 B( 16-C , 17-C ) :   1.3306 B( 16-C , 33-H ) :   0.9848
B( 17-C , 18-O ) :   1.1093 B( 17-C , 19-C ) :   1.3657 B( 18-O , 34-H ) :   0.9792
B( 19-C , 35-H ) :   0.9565

MP2 TOTAL ENERGY:    -1274.331656832 Eh
FINAL SINGLE POINT ENERGY     -1274.331656831842

DIPOLE MOMENT
-------------
                                X             Y             Z
Electronic contribution:     11.08129       7.31316       9.26915
Nuclear contribution   :    -12.74406      -8.54607      -9.57160
                        -----------------------------------------
Total Dipole Moment    :     -1.66277      -1.23291      -0.30245
                        -----------------------------------------
Magnitude (a.u.)       :      2.09197
Magnitude (Debye)      :      5.31737

Rotational constants in cm-1:     0.010466     0.009146     0.006175
Rotational constants in MHz :   313.770012   274.199311   185.116974

                             ****ORCA TERMINATED NORMALLY****
TOTAL RUN TIME: 0 days 1 hours 42 minutes 57 seconds 306 msec
