                         Program Version 4.2.0 -  RELEASE  -
|  1> ! ri-mp2 cc-pvtz cc-pvtz/c TightSCF NoKeepInts
|  2>
|  3> %scf
|  4>   MaxCore 4096
|  5> end
|  6> *xyz  0  1
|  7>     C       14.2102410   14.8312231   15.5142073
|  8>     C       15.0896391   15.9391625   16.1156624
|  9>     O       16.3101094   15.9688484   15.3528001
| 10>     C       17.0472000   17.1141246   15.2303604
| 11>     O       17.6499255   17.3695324   14.2046336
| 12>     C       17.0650088   18.0181887   16.4214279
| 13>     C       16.8955378   19.3440785   16.2097161
| 14>     C       16.2965631   19.9693003   14.9681326
| 15>     N       17.2935463   20.2886748   17.1568693
| 16>     C       18.0992726   20.0035172   18.2269765
| 17>     S       18.6408158   21.1810644   19.2538790
| 18>     N       18.4553826   18.6870918   18.3902021
| 19>     C       17.9117825   17.5536337   17.6152541
| 20>     C       17.3113681   16.4555521   18.4770834
| 21>     C       17.7132173   15.1177860   18.3087452
| 22>     C       17.1491352   14.1002022   19.0961654
| 23>     C       16.1798596   14.4239492   20.0611974
| 24>     C       15.7821122   15.7568280   20.2339969
| 25>     O       14.8421152   16.0714411   21.1598607
| 26>     C       16.3423990   16.7678523   19.4465632
| 27>     H       13.2526602   14.7674419   16.0450393
| 28>     H       14.7113627   13.8581386   15.5910971
| 29>     H       14.0051878   15.0313941   14.4549907
| 30>     H       14.5582083   16.8970351   16.0363049
| 31>     H       15.2742670   15.7222618   17.1715807
| 32>     H       15.4985943   19.3423677   14.5515697
| 33>     H       17.0638533   20.0798592   14.1901234
| 34>     H       15.8663227   20.9589541   15.1629771
| 35>     H       17.0793073   21.2635577   17.0178284
| 36>     H       19.0445404   18.5052645   19.1934008
| 37>     H       18.8449638   17.1870920   17.1625600
| 38>     H       18.4565777   14.8640540   17.5565841
| 39>     H       17.4627925   13.0668107   18.9561945
| 40>     H       15.7418734   13.6404250   20.6711648
| 41>     H       14.6190458   15.2587863   21.6389298
| 42>     H       16.0222118   17.7945059   19.5939210
| 43> *
| 44>
| 45>                          ****END OF INPUT****

CARTESIAN COORDINATES (ANGSTROEM)
---------------------------------
  C     14.210241   14.831223   15.514207
  C     15.089639   15.939162   16.115662
  O     16.310109   15.968848   15.352800
  C     17.047200   17.114125   15.230360
  O     17.649925   17.369532   14.204634
  C     17.065009   18.018189   16.421428
  C     16.895538   19.344078   16.209716
  C     16.296563   19.969300   14.968133
  N     17.293546   20.288675   17.156869
  C     18.099273   20.003517   18.226976
  S     18.640816   21.181064   19.253879
  N     18.455383   18.687092   18.390202
  C     17.911783   17.553634   17.615254
  C     17.311368   16.455552   18.477083
  C     17.713217   15.117786   18.308745
  C     17.149135   14.100202   19.096165
  C     16.179860   14.423949   20.061197
  C     15.782112   15.756828   20.233997
  O     14.842115   16.071441   21.159861
  C     16.342399   16.767852   19.446563
  H     13.252660   14.767442   16.045039
  H     14.711363   13.858139   15.591097
  H     14.005188   15.031394   14.454991
  H     14.558208   16.897035   16.036305
  H     15.274267   15.722262   17.171581
  H     15.498594   19.342368   14.551570
  H     17.063853   20.079859   14.190123
  H     15.866323   20.958954   15.162977
  H     17.079307   21.263558   17.017828
  H     19.044540   18.505264   19.193401
  H     18.844964   17.187092   17.162560
  H     18.456578   14.864054   17.556584
  H     17.462792   13.066811   18.956194
  H     15.741873   13.640425   20.671165
  H     14.619046   15.258786   21.638930
  H     16.022212   17.794506   19.593921

 Total Charge           Charge          ....    0
 Multiplicity           Mult            ....    1
 Number of Electrons    NEL             ....  154
 Basis Dimension        Dim             ....  828

ORBITAL ENERGIES
----------------

  NO   OCC          E(Eh)            E(eV)
   0   2.0000     -91.890342     -2500.4633
   1   2.0000     -20.604467      -560.6761
   2   2.0000     -20.596732      -560.4656
   3   2.0000     -20.551882      -559.2452
   4   2.0000     -15.627281      -425.2399
   5   2.0000     -15.610982      -424.7964
   6   2.0000     -11.394955      -310.0725
   7   2.0000     -11.385634      -309.8189
   8   2.0000     -11.329670      -308.2960
   9   2.0000     -11.322970      -308.1137
  10   2.0000     -11.316745      -307.9443
  11   2.0000     -11.297737      -307.4270
  12   2.0000     -11.269662      -306.6631
  13   2.0000     -11.264183      -306.5140
  14   2.0000     -11.257430      -306.3303
  15   2.0000     -11.256521      -306.3055
  16   2.0000     -11.252929      -306.2078
  17   2.0000     -11.247486      -306.0596
  18   2.0000     -11.247395      -306.0572
  19   2.0000     -11.229685      -305.5753
  20   2.0000      -8.895413      -242.0565
  21   2.0000      -6.576986      -178.9689
  22   2.0000      -6.574986      -178.9145
  23   2.0000      -6.574396      -178.8984
  24   2.0000      -1.447959       -39.4010
  25   2.0000      -1.424245       -38.7557
  26   2.0000      -1.360928       -37.0327
  27   2.0000      -1.340385       -36.4737
  28   2.0000      -1.240125       -33.7455
  29   2.0000      -1.166412       -31.7397
  30   2.0000      -1.125319       -30.6215
  31   2.0000      -1.051082       -28.6014
  32   2.0000      -1.036674       -28.2093
  33   2.0000      -1.024402       -27.8754
  34   2.0000      -1.003082       -27.2952
  35   2.0000      -0.989273       -26.9195
  36   2.0000      -0.927237       -25.2314
  37   2.0000      -0.877254       -23.8713
  38   2.0000      -0.852929       -23.2094
  39   2.0000      -0.844343       -22.9757
  40   2.0000      -0.842906       -22.9366
  41   2.0000      -0.838172       -22.8078
  42   2.0000      -0.760458       -20.6931
  43   2.0000      -0.739615       -20.1260
  44   2.0000      -0.727983       -19.8094
  45   2.0000      -0.702920       -19.1274
  46   2.0000      -0.692332       -18.8393
  47   2.0000      -0.679603       -18.4929
  48   2.0000      -0.675823       -18.3901
  49   2.0000      -0.667707       -18.1692
  50   2.0000      -0.652609       -17.7584
  51   2.0000      -0.650310       -17.6958
  52   2.0000      -0.637585       -17.3496
  53   2.0000      -0.614446       -16.7199
  54   2.0000      -0.608681       -16.5630
  55   2.0000      -0.604277       -16.4432
  56   2.0000      -0.591976       -16.1085
  57   2.0000      -0.582446       -15.8492
  58   2.0000      -0.576443       -15.6858
  59   2.0000      -0.567110       -15.4319
  60   2.0000      -0.561650       -15.2833
  61   2.0000      -0.557315       -15.1653
  62   2.0000      -0.548036       -14.9128
  63   2.0000      -0.529921       -14.4199
  64   2.0000      -0.521568       -14.1926
  65   2.0000      -0.516560       -14.0563
  66   2.0000      -0.507438       -13.8081
  67   2.0000      -0.503618       -13.7042
  68   2.0000      -0.486678       -13.2432
  69   2.0000      -0.469173       -12.7669
  70   2.0000      -0.454200       -12.3594
  71   2.0000      -0.450985       -12.2719
  72   2.0000      -0.357900        -9.7389
  73   2.0000      -0.352610        -9.5950
  74   2.0000      -0.331815        -9.0291
  75   2.0000      -0.328975        -8.9519
  76   2.0000      -0.319942        -8.7061
  77   0.0000       0.083121         2.2618
  78   0.0000       0.096801         2.6341
  79   0.0000       0.119156         3.2424
  80   0.0000       0.126516         3.4427
  81   0.0000       0.129140         3.5141

MULLIKEN ATOMIC CHARGES
-----------------------
   0 C :   -0.258155
   1 C :    0.021167
   2 O :   -0.309348
   3 C :    0.399021
   4 O :   -0.372080
   5 C :   -0.213006
   6 C :    0.153391
   7 C :   -0.282722
   8 N :   -0.133446
   9 C :    0.212496
  10 S :   -0.439839
  11 N :   -0.215413
  12 C :    0.022331
  13 C :   -0.002410
  14 C :   -0.182788
  15 C :   -0.135934
  16 C :   -0.270315
  17 C :    0.305644
  18 O :   -0.354771
  19 C :   -0.225497
  20 H :    0.088016
  21 H :    0.098679
  22 H :    0.102500
  23 H :    0.092294
  24 H :    0.111393
  25 H :    0.112861
  26 H :    0.144824
  27 H :    0.098778
  28 H :    0.198152
  29 H :    0.200744
  30 H :    0.160909
  31 H :    0.157841
  32 H :    0.165088
  33 H :    0.135187
  34 H :    0.241707
  35 H :    0.172700
Sum of atomic charges:   -0.0000000

LOEWDIN ATOMIC CHARGES
----------------------
   0 C :    0.110538
   1 C :   -0.024189
   2 O :    0.307385
   3 C :   -0.421940
   4 O :    0.127187
   5 C :   -0.096180
   6 C :   -0.080172
   7 C :    0.129406
   8 N :    0.405230
   9 C :   -0.455258
  10 S :   -0.035429
  11 N :    0.395743
  12 C :   -0.054349
  13 C :   -0.046511
  14 C :    0.018980
  15 C :    0.043958
  16 C :    0.001610
  17 C :   -0.192049
  18 O :    0.397237
  19 C :    0.031760
  20 H :   -0.025964
  21 H :   -0.025620
  22 H :   -0.025214
  23 H :   -0.035842
  24 H :   -0.034208
  25 H :   -0.010830
  26 H :   -0.003399
  27 H :   -0.020498
  28 H :   -0.057653
  29 H :   -0.063814
  30 H :   -0.009548
  31 H :   -0.025732
  32 H :   -0.018146
  33 H :   -0.033291
  34 H :   -0.152196
  35 H :   -0.021001

  Mayer bond orders larger than 0.100000
B(  0-C ,  1-C ) :   0.9838 B(  0-C , 20-H ) :   0.9773 B(  0-C , 21-H ) :   0.9785
B(  0-C , 22-H ) :   0.9787 B(  1-C ,  2-O ) :   0.8981 B(  1-C , 23-H ) :   0.9730
B(  1-C , 24-H ) :   0.9625 B(  2-O ,  3-C ) :   1.1871 B(  3-C ,  4-O ) :   2.1248
B(  3-C ,  5-C ) :   0.9321 B(  5-C ,  6-C ) :   1.6885 B(  5-C , 12-C ) :   0.9653
B(  6-C ,  7-C ) :   0.9465 B(  6-C ,  8-N ) :   1.1276 B(  7-C , 25-H ) :   0.9777
B(  7-C , 26-H ) :   0.9566 B(  7-C , 27-H ) :   0.9849 B(  8-N ,  9-C ) :   1.1973
B(  8-N , 28-H ) :   0.9492 B(  9-C , 10-S ) :   1.6134 B(  9-C , 11-N ) :   1.2879
B( 11-N , 12-C ) :   0.9792 B( 11-N , 29-H ) :   0.9467 B( 12-C , 13-C ) :   0.9508
B( 12-C , 30-H ) :   1.0055 B( 13-C , 14-C ) :   1.3758 B( 13-C , 19-C ) :   1.3617
B( 14-C , 15-C ) :   1.3949 B( 14-C , 31-H ) :   0.9687 B( 15-C , 16-C ) :   1.3616
B( 15-C , 32-H ) :   0.9697 B( 16-C , 17-C ) :   1.3294 B( 16-C , 33-H ) :   0.9834
B( 17-C , 18-O ) :   1.1112 B( 17-C , 19-C ) :   1.3629 B( 18-O , 34-H ) :   0.9786
B( 19-C , 35-H ) :   0.9576

MP2 TOTAL ENERGY:    -1274.324882765 Eh
FINAL SINGLE POINT ENERGY     -1274.324882764604

DIPOLE MOMENT
-------------
                                X             Y             Z
Electronic contribution:     10.48219       9.44378       7.13724
Nuclear contribution   :    -12.04642     -11.01335      -6.90191
                        -----------------------------------------
Total Dipole Moment    :     -1.56422      -1.56957       0.23533
                        -----------------------------------------
Magnitude (a.u.)       :      2.22839
Magnitude (Debye)      :      5.66412

Rotational constants in cm-1:     0.011932     0.008851     0.005998
Rotational constants in MHz :   357.710110   265.340897   179.805608

                             ****ORCA TERMINATED NORMALLY****
TOTAL RUN TIME: 0 days 1 hours 46 minutes 8 seconds 760 msec
