                         Program Version 4.2.0 -  RELEASE  -
|  1> ! ri-mp2 cc-pvtz cc-pvtz/c TightSCF NoKeepInts
|  2>
|  3> %scf
|  4>   MaxCore 4096
|  5> end
|  6> *xyz  0  1
|  7>     C       14.4991467   16.5107344   16.1499446
|  8>     C       15.1111416   15.9432327   14.8497861
|  9>     O       16.5502996   16.0608271   14.6623333
| 10>     C       17.5374250   16.5154184   15.5064699
| 11>     O       18.6367300   15.9927667   15.4935074
| 12>     C       17.2132958   17.6035271   16.4754552
| 13>     C       16.8203746   18.8108515   16.0004074
| 14>     C       16.4382313   19.1384741   14.5694397
| 15>     N       16.8274170   19.9404941   16.8210872
| 16>     C       17.4595221   20.0018950   18.0349452
| 17>     S       17.5389020   21.4052395   18.9060562
| 18>     N       18.0486591   18.8427376   18.4769652
| 19>     C       17.9013388   17.5184046   17.8399796
| 20>     C       17.3254242   16.4339439   18.7386100
| 21>     C       17.8630022   15.1347345   18.7095196
| 22>     C       17.3258507   14.1210616   19.5202912
| 23>     C       16.2401132   14.4087453   20.3650968
| 24>     C       15.6991182   15.7014961   20.3922074
| 25>     O       14.6444530   15.9793889   21.1991105
| 26>     C       16.2355669   16.7088449   19.5837557
| 27>     H       15.0162722   16.1219580   17.0349843
| 28>     H       13.4525617   16.1917476   16.2285714
| 29>     H       14.4943314   17.6041394   16.1736942
| 30>     H       14.8663057   14.8734444   14.8151175
| 31>     H       14.6049068   16.4030676   13.9913029
| 32>     H       15.3921264   18.8835448   14.3666208
| 33>     H       17.0633794   18.5924527   13.8512923
| 34>     H       16.5696686   20.2041150   14.3432950
| 35>     H       16.4336079   20.8074261   16.4911385
| 36>     H       18.5085725   18.9135098   19.3760619
| 37>     H       18.9572755   17.2975075   17.6234212
| 38>     H       18.6965350   14.9090153   18.0470737
| 39>     H       17.7496588   13.1186703   19.4885493
| 40>     H       15.8214248   13.6281377   20.9916917
| 41>     H       14.4458821   15.1768911   21.7048545
| 42>     H       15.7984791   17.7015550   19.6153627
| 43> *
| 44>
| 45>                          ****END OF INPUT****

CARTESIAN COORDINATES (ANGSTROEM)
---------------------------------
  C     14.499147   16.510734   16.149945
  C     15.111142   15.943233   14.849786
  O     16.550300   16.060827   14.662333
  C     17.537425   16.515418   15.506470
  O     18.636730   15.992767   15.493507
  C     17.213296   17.603527   16.475455
  C     16.820375   18.810851   16.000407
  C     16.438231   19.138474   14.569440
  N     16.827417   19.940494   16.821087
  C     17.459522   20.001895   18.034945
  S     17.538902   21.405240   18.906056
  N     18.048659   18.842738   18.476965
  C     17.901339   17.518405   17.839980
  C     17.325424   16.433944   18.738610
  C     17.863002   15.134735   18.709520
  C     17.325851   14.121062   19.520291
  C     16.240113   14.408745   20.365097
  C     15.699118   15.701496   20.392207
  O     14.644453   15.979389   21.199110
  C     16.235567   16.708845   19.583756
  H     15.016272   16.121958   17.034984
  H     13.452562   16.191748   16.228571
  H     14.494331   17.604139   16.173694
  H     14.866306   14.873444   14.815117
  H     14.604907   16.403068   13.991303
  H     15.392126   18.883545   14.366621
  H     17.063379   18.592453   13.851292
  H     16.569669   20.204115   14.343295
  H     16.433608   20.807426   16.491139
  H     18.508572   18.913510   19.376062
  H     18.957276   17.297507   17.623421
  H     18.696535   14.909015   18.047074
  H     17.749659   13.118670   19.488549
  H     15.821425   13.628138   20.991692
  H     14.445882   15.176891   21.704854
  H     15.798479   17.701555   19.615363

 Total Charge           Charge          ....    0
 Multiplicity           Mult            ....    1
 Number of Electrons    NEL             ....  154
 Basis Dimension        Dim             ....  828

ORBITAL ENERGIES
----------------

  NO   OCC          E(Eh)            E(eV)
   0   2.0000     -91.889758     -2500.4474
   1   2.0000     -20.598966      -560.5264
   2   2.0000     -20.596992      -560.4726
   3   2.0000     -20.547551      -559.1273
   4   2.0000     -15.628339      -425.2687
   5   2.0000     -15.609027      -424.7432
   6   2.0000     -11.399566      -310.1980
   7   2.0000     -11.385282      -309.8093
   8   2.0000     -11.332397      -308.3702
   9   2.0000     -11.316206      -307.9296
  10   2.0000     -11.314243      -307.8762
  11   2.0000     -11.308853      -307.7295
  12   2.0000     -11.265851      -306.5594
  13   2.0000     -11.263810      -306.5038
  14   2.0000     -11.260864      -306.4237
  15   2.0000     -11.256566      -306.3067
  16   2.0000     -11.245305      -306.0003
  17   2.0000     -11.241100      -305.8859
  18   2.0000     -11.238366      -305.8115
  19   2.0000     -11.238226      -305.8077
  20   2.0000      -8.894856      -242.0413
  21   2.0000      -6.576436      -178.9539
  22   2.0000      -6.574426      -178.8992
  23   2.0000      -6.573842      -178.8833
  24   2.0000      -1.441577       -39.2273
  25   2.0000      -1.418711       -38.6051
  26   2.0000      -1.355261       -36.8785
  27   2.0000      -1.340645       -36.4808
  28   2.0000      -1.238774       -33.7088
  29   2.0000      -1.160260       -31.5723
  30   2.0000      -1.125491       -30.6262
  31   2.0000      -1.047597       -28.5066
  32   2.0000      -1.041612       -28.3437
  33   2.0000      -1.018283       -27.7089
  34   2.0000      -1.005126       -27.3509
  35   2.0000      -0.990410       -26.9504
  36   2.0000      -0.926468       -25.2105
  37   2.0000      -0.902351       -24.5542
  38   2.0000      -0.852184       -23.1891
  39   2.0000      -0.841230       -22.8910
  40   2.0000      -0.835770       -22.7425
  41   2.0000      -0.826654       -22.4944
  42   2.0000      -0.745765       -20.2933
  43   2.0000      -0.734059       -19.9748
  44   2.0000      -0.729861       -19.8605
  45   2.0000      -0.695774       -18.9330
  46   2.0000      -0.686981       -18.6937
  47   2.0000      -0.677611       -18.4387
  48   2.0000      -0.673093       -18.3158
  49   2.0000      -0.664454       -18.0807
  50   2.0000      -0.658057       -17.9066
  51   2.0000      -0.650946       -17.7132
  52   2.0000      -0.640199       -17.4207
  53   2.0000      -0.615143       -16.7389
  54   2.0000      -0.605939       -16.4884
  55   2.0000      -0.603988       -16.4354
  56   2.0000      -0.602060       -16.3829
  57   2.0000      -0.589658       -16.0454
  58   2.0000      -0.577008       -15.7012
  59   2.0000      -0.572153       -15.5691
  60   2.0000      -0.563739       -15.3401
  61   2.0000      -0.557201       -15.1622
  62   2.0000      -0.545494       -14.8436
  63   2.0000      -0.531898       -14.4737
  64   2.0000      -0.522399       -14.2152
  65   2.0000      -0.513345       -13.9688
  66   2.0000      -0.500974       -13.6322
  67   2.0000      -0.495645       -13.4872
  68   2.0000      -0.484983       -13.1971
  69   2.0000      -0.468028       -12.7357
  70   2.0000      -0.456352       -12.4180
  71   2.0000      -0.448501       -12.2043
  72   2.0000      -0.354498        -9.6464
  73   2.0000      -0.349383        -9.5072
  74   2.0000      -0.329188        -8.9576
  75   2.0000      -0.323967        -8.8156
  76   2.0000      -0.319194        -8.6857
  77   0.0000       0.082429         2.2430
  78   0.0000       0.105455         2.8696
  79   0.0000       0.115819         3.1516
  80   0.0000       0.127083         3.4581
  81   0.0000       0.130568         3.5529

MULLIKEN ATOMIC CHARGES
-----------------------
   0 C :   -0.337226
   1 C :    0.038041
   2 O :   -0.345133
   3 C :    0.437603
   4 O :   -0.381664
   5 C :   -0.222284
   6 C :    0.136218
   7 C :   -0.313893
   8 N :   -0.140103
   9 C :    0.209057
  10 S :   -0.442432
  11 N :   -0.227527
  12 C :    0.086400
  13 C :    0.009810
  14 C :   -0.218718
  15 C :   -0.130797
  16 C :   -0.276864
  17 C :    0.321477
  18 O :   -0.356786
  19 C :   -0.261493
  20 H :    0.128469
  21 H :    0.125558
  22 H :    0.104564
  23 H :    0.121214
  24 H :    0.098817
  25 H :    0.115721
  26 H :    0.140530
  27 H :    0.118306
  28 H :    0.198347
  29 H :    0.204091
  30 H :    0.167532
  31 H :    0.180002
  32 H :    0.164491
  33 H :    0.132131
  34 H :    0.241141
  35 H :    0.175403
Sum of atomic charges:   -0.0000000

LOEWDIN ATOMIC CHARGES
----------------------
   0 C :    0.102582
   1 C :   -0.012228
   2 O :    0.288543
   3 C :   -0.417804
   4 O :    0.119551
   5 C :   -0.085701
   6 C :   -0.085027
   7 C :    0.128832
   8 N :    0.403411
   9 C :   -0.457005
  10 S :   -0.037969
  11 N :    0.396563
  12 C :   -0.048165
  13 C :   -0.044369
  14 C :    0.019605
  15 C :    0.044408
  16 C :   -0.000725
  17 C :   -0.192290
  18 O :    0.395264
  19 C :    0.027408
  20 H :   -0.023686
  21 H :   -0.020368
  22 H :   -0.034580
  23 H :   -0.021361
  24 H :   -0.029193
  25 H :   -0.017585
  26 H :   -0.005001
  27 H :   -0.014656
  28 H :   -0.058803
  29 H :   -0.063656
  30 H :   -0.004290
  31 H :   -0.021052
  32 H :   -0.018625
  33 H :   -0.034985
  34 H :   -0.153386
  35 H :   -0.023659

  Mayer bond orders larger than 0.100000
B(  0-C ,  1-C ) :   0.9627 B(  0-C , 20-H ) :   0.9633 B(  0-C , 21-H ) :   0.9769
B(  0-C , 22-H ) :   0.9726 B(  1-C ,  2-O ) :   0.9038 B(  1-C , 23-H ) :   0.9791
B(  1-C , 24-H ) :   0.9781 B(  2-O ,  3-C ) :   1.1505 B(  3-C ,  4-O ) :   2.0797
B(  3-C ,  5-C ) :   0.9399 B(  5-C ,  6-C ) :   1.7232 B(  5-C , 12-C ) :   0.9263
B(  6-C ,  7-C ) :   0.9416 B(  6-C ,  8-N ) :   1.1010 B(  7-C , 25-H ) :   0.9660
B(  7-C , 26-H ) :   0.9683 B(  7-C , 27-H ) :   0.9862 B(  8-N ,  9-C ) :   1.1955
B(  8-N , 28-H ) :   0.9487 B(  9-C , 10-S ) :   1.6087 B(  9-C , 11-N ) :   1.2927
B( 11-N , 12-C ) :   0.9750 B( 11-N , 29-H ) :   0.9472 B( 12-C , 13-C ) :   0.9699
B( 12-C , 30-H ) :   0.9893 B( 13-C , 14-C ) :   1.3876 B( 13-C , 19-C ) :   1.3469
B( 14-C , 15-C ) :   1.3969 B( 14-C , 31-H ) :   0.9570 B( 15-C , 16-C ) :   1.3601
B( 15-C , 32-H ) :   0.9700 B( 16-C , 17-C ) :   1.3323 B( 16-C , 33-H ) :   0.9845
B( 17-C , 18-O ) :   1.1087 B( 17-C , 19-C ) :   1.3617 B( 18-O , 34-H ) :   0.9795
B( 19-C , 35-H ) :   0.9576

MP2 TOTAL ENERGY:    -1274.318965295 Eh
FINAL SINGLE POINT ENERGY     -1274.318965294844

DIPOLE MOMENT
-------------
                                X             Y             Z
Electronic contribution:      8.79160       6.37287       7.36117
Nuclear contribution   :    -10.43396      -7.67738      -7.91069
                        -----------------------------------------
Total Dipole Moment    :     -1.64236      -1.30451      -0.54953
                        -----------------------------------------
Magnitude (a.u.)       :      2.16820
Magnitude (Debye)      :      5.51111

Rotational constants in cm-1:     0.011320     0.009273     0.006458
Rotational constants in MHz :   339.368351   278.001582   193.610423

                             ****ORCA TERMINATED NORMALLY****
TOTAL RUN TIME: 0 days 1 hours 47 minutes 14 seconds 117 msec
