                         Program Version 4.2.0 -  RELEASE  -
|  1> ! ri-mp2 cc-pvtz cc-pvtz/c TightSCF NoKeepInts
|  2>
|  3> %scf
|  4>   MaxCore 4096
|  5> end
|  6> *xyz  0  1
|  7>     C       14.2438652   15.0507349   15.2815958
|  8>     C       15.3219916   15.6311544   16.2113413
|  9>     O       16.4737868   15.9202448   15.3968176
| 10>     C       16.8900551   17.2069441   15.2015309
| 11>     O       17.1402868   17.6046770   14.0788057
| 12>     C       17.0099628   18.0644190   16.4304512
| 13>     C       16.8629622   19.4065077   16.2999769
| 14>     C       16.1908646   20.1302354   15.1519510
| 15>     N       17.3294058   20.2879285   17.2764547
| 16>     C       18.1747086   19.9296244   18.2912290
| 17>     S       18.7961423   21.0389857   19.3484602
| 18>     N       18.5008375   18.5990034   18.3709271
| 19>     C       17.8910911   17.5197474   17.5699515
| 20>     C       17.2961750   16.4215999   18.4361866
| 21>     C       17.8491956   15.1277440   18.4322309
| 22>     C       17.3005732   14.1167947   19.2392312
| 23>     C       16.1961549   14.4044389   20.0598472
| 24>     C       15.6520766   15.6961327   20.0740553
| 25>     O       14.5851356   15.9766986   20.8630487
| 26>     C       16.1988755   16.7003167   19.2688613
| 27>     H       13.9631077   15.7801323   14.5113896
| 28>     H       13.3443981   14.7869902   15.8510036
| 29>     H       14.6120825   14.1461379   14.7814150
| 30>     H       14.9334111   16.5251135   16.7163689
| 31>     H       15.5740925   14.8784008   16.9682370
| 32>     H       15.3608317   19.5405521   14.7431745
| 33>     H       16.9049569   20.2962611   14.3345217
| 34>     H       15.7819573   21.1032851   15.4490200
| 35>     H       17.1322446   21.2731855   17.1991914
| 36>     H       19.1147914   18.3622480   19.1404625
| 37>     H       18.7933064   17.1454086   17.0647112
| 38>     H       18.7008147   14.9021705   17.7949416
| 39>     H       17.7311810   13.1165781   19.2270114
| 40>     H       15.7695863   13.6259898   20.6843593
| 41>     H       14.3943493   15.1859991   21.3905732
| 42>     H       15.7717416   17.6976153   19.2986651
| 43> *
| 44>
| 45>                          ****END OF INPUT****

CARTESIAN COORDINATES (ANGSTROEM)
---------------------------------
  C     14.243865   15.050735   15.281596
  C     15.321992   15.631154   16.211341
  O     16.473787   15.920245   15.396818
  C     16.890055   17.206944   15.201531
  O     17.140287   17.604677   14.078806
  C     17.009963   18.064419   16.430451
  C     16.862962   19.406508   16.299977
  C     16.190865   20.130235   15.151951
  N     17.329406   20.287928   17.276455
  C     18.174709   19.929624   18.291229
  S     18.796142   21.038986   19.348460
  N     18.500837   18.599003   18.370927
  C     17.891091   17.519747   17.569951
  C     17.296175   16.421600   18.436187
  C     17.849196   15.127744   18.432231
  C     17.300573   14.116795   19.239231
  C     16.196155   14.404439   20.059847
  C     15.652077   15.696133   20.074055
  O     14.585136   15.976699   20.863049
  C     16.198875   16.700317   19.268861
  H     13.963108   15.780132   14.511390
  H     13.344398   14.786990   15.851004
  H     14.612082   14.146138   14.781415
  H     14.933411   16.525113   16.716369
  H     15.574092   14.878401   16.968237
  H     15.360832   19.540552   14.743174
  H     16.904957   20.296261   14.334522
  H     15.781957   21.103285   15.449020
  H     17.132245   21.273186   17.199191
  H     19.114791   18.362248   19.140463
  H     18.793306   17.145409   17.064711
  H     18.700815   14.902170   17.794942
  H     17.731181   13.116578   19.227011
  H     15.769586   13.625990   20.684359
  H     14.394349   15.185999   21.390573
  H     15.771742   17.697615   19.298665

 Total Charge           Charge          ....    0
 Multiplicity           Mult            ....    1
 Number of Electrons    NEL             ....  154
 Basis Dimension        Dim             ....  828

ORBITAL ENERGIES
----------------

  NO   OCC          E(Eh)            E(eV)
   0   2.0000     -91.891160     -2500.4856
   1   2.0000     -20.605088      -560.6929
   2   2.0000     -20.591770      -560.3305
   3   2.0000     -20.547982      -559.1390
   4   2.0000     -15.629469      -425.2995
   5   2.0000     -15.610852      -424.7929
   6   2.0000     -11.393518      -310.0334
   7   2.0000     -11.385957      -309.8276
   8   2.0000     -11.334575      -308.4295
   9   2.0000     -11.323256      -308.1215
  10   2.0000     -11.316115      -307.9271
  11   2.0000     -11.295953      -307.3785
  12   2.0000     -11.268973      -306.6444
  13   2.0000     -11.264282      -306.5167
  14   2.0000     -11.258714      -306.3652
  15   2.0000     -11.255057      -306.2657
  16   2.0000     -11.253721      -306.2293
  17   2.0000     -11.247942      -306.0721
  18   2.0000     -11.247667      -306.0646
  19   2.0000     -11.225560      -305.4630
  20   2.0000      -8.896218      -242.0784
  21   2.0000      -6.577786      -178.9907
  22   2.0000      -6.575791      -178.9364
  23   2.0000      -6.575196      -178.9202
  24   2.0000      -1.446196       -39.3530
  25   2.0000      -1.424871       -38.7727
  26   2.0000      -1.357005       -36.9260
  27   2.0000      -1.342262       -36.5248
  28   2.0000      -1.241458       -33.7818
  29   2.0000      -1.166383       -31.7389
  30   2.0000      -1.124320       -30.5943
  31   2.0000      -1.050552       -28.5870
  32   2.0000      -1.033504       -28.1231
  33   2.0000      -1.024421       -27.8759
  34   2.0000      -1.002295       -27.2738
  35   2.0000      -0.988908       -26.9096
  36   2.0000      -0.927252       -25.2318
  37   2.0000      -0.879365       -23.9287
  38   2.0000      -0.852429       -23.1958
  39   2.0000      -0.845048       -22.9949
  40   2.0000      -0.843283       -22.9469
  41   2.0000      -0.836227       -22.7549
  42   2.0000      -0.759278       -20.6610
  43   2.0000      -0.739945       -20.1349
  44   2.0000      -0.721996       -19.6465
  45   2.0000      -0.703929       -19.1549
  46   2.0000      -0.692522       -18.8445
  47   2.0000      -0.676657       -18.4128
  48   2.0000      -0.673147       -18.3173
  49   2.0000      -0.671808       -18.2808
  50   2.0000      -0.649726       -17.6800
  51   2.0000      -0.648390       -17.6436
  52   2.0000      -0.637895       -17.3580
  53   2.0000      -0.614840       -16.7306
  54   2.0000      -0.609066       -16.5735
  55   2.0000      -0.604034       -16.4366
  56   2.0000      -0.589246       -16.0342
  57   2.0000      -0.583892       -15.8885
  58   2.0000      -0.576775       -15.6949
  59   2.0000      -0.571810       -15.5597
  60   2.0000      -0.563362       -15.3299
  61   2.0000      -0.550877       -14.9901
  62   2.0000      -0.544510       -14.8169
  63   2.0000      -0.531069       -14.4511
  64   2.0000      -0.521048       -14.1784
  65   2.0000      -0.515823       -14.0363
  66   2.0000      -0.505443       -13.7538
  67   2.0000      -0.499870       -13.6021
  68   2.0000      -0.487895       -13.2763
  69   2.0000      -0.468340       -12.7442
  70   2.0000      -0.452435       -12.3114
  71   2.0000      -0.447131       -12.1670
  72   2.0000      -0.358943        -9.7673
  73   2.0000      -0.353400        -9.6165
  74   2.0000      -0.332782        -9.0554
  75   2.0000      -0.329223        -8.9586
  76   2.0000      -0.321114        -8.7380
  77   0.0000       0.077721         2.1149
  78   0.0000       0.094200         2.5633
  79   0.0000       0.118564         3.2263
  80   0.0000       0.126698         3.4476
  81   0.0000       0.128290         3.4909

MULLIKEN ATOMIC CHARGES
-----------------------
   0 C :   -0.252774
   1 C :    0.004120
   2 O :   -0.331833
   3 C :    0.420246
   4 O :   -0.374800
   5 C :   -0.259403
   6 C :    0.169370
   7 C :   -0.271994
   8 N :   -0.130149
   9 C :    0.209545
  10 S :   -0.438738
  11 N :   -0.208097
  12 C :    0.034652
  13 C :   -0.013644
  14 C :   -0.160086
  15 C :   -0.141632
  16 C :   -0.269651
  17 C :    0.299557
  18 O :   -0.355419
  19 C :   -0.208863
  20 H :    0.095157
  21 H :    0.088165
  22 H :    0.101243
  23 H :    0.100981
  24 H :    0.116041
  25 H :    0.118196
  26 H :    0.141242
  27 H :    0.096115
  28 H :    0.199340
  29 H :    0.200019
  30 H :    0.154904
  31 H :    0.153582
  32 H :    0.165520
  33 H :    0.135602
  34 H :    0.242198
  35 H :    0.171286
Sum of atomic charges:   -0.0000000

LOEWDIN ATOMIC CHARGES
----------------------
   0 C :    0.106704
   1 C :   -0.027539
   2 O :    0.306121
   3 C :   -0.425697
   4 O :    0.124275
   5 C :   -0.103116
   6 C :   -0.068372
   7 C :    0.129172
   8 N :    0.406534
   9 C :   -0.456485
  10 S :   -0.033955
  11 N :    0.395323
  12 C :   -0.054340
  13 C :   -0.043745
  14 C :    0.019206
  15 C :    0.042260
  16 C :    0.001698
  17 C :   -0.192009
  18 O :    0.396771
  19 C :    0.036199
  20 H :   -0.027345
  21 H :   -0.027816
  22 H :   -0.024565
  23 H :   -0.036268
  24 H :   -0.026124
  25 H :   -0.008280
  26 H :   -0.003853
  27 H :   -0.021926
  28 H :   -0.056405
  29 H :   -0.063531
  30 H :   -0.010879
  31 H :   -0.026471
  32 H :   -0.018676
  33 H :   -0.033150
  34 H :   -0.151990
  35 H :   -0.021725

  Mayer bond orders larger than 0.100000
B(  0-C ,  1-C ) :   0.9813 B(  0-C , 20-H ) :   0.9785 B(  0-C , 21-H ) :   0.9777
B(  0-C , 22-H ) :   0.9802 B(  1-C ,  2-O ) :   0.8837 B(  1-C , 23-H ) :   0.9624
B(  1-C , 24-H ) :   0.9744 B(  2-O ,  3-C ) :   1.1667 B(  3-C ,  4-O ) :   2.1012
B(  3-C ,  5-C ) :   0.9730 B(  5-C ,  6-C ) :   1.6616 B(  5-C , 12-C ) :   0.9626
B(  6-C ,  7-C ) :   0.9554 B(  6-C ,  8-N ) :   1.1445 B(  7-C , 25-H ) :   0.9737
B(  7-C , 26-H ) :   0.9546 B(  7-C , 27-H ) :   0.9851 B(  8-N ,  9-C ) :   1.1918
B(  8-N , 28-H ) :   0.9483 B(  9-C , 10-S ) :   1.6129 B(  9-C , 11-N ) :   1.2969
B( 11-N , 12-C ) :   0.9736 B( 11-N , 29-H ) :   0.9479 B( 12-C , 13-C ) :   0.9655
B( 12-C , 30-H ) :   1.0074 B( 13-C , 14-C ) :   1.3607 B( 13-C , 19-C ) :   1.3586
B( 14-C , 15-C ) :   1.3948 B( 14-C , 31-H ) :   0.9723 B( 15-C , 16-C ) :   1.3624
B( 15-C , 32-H ) :   0.9699 B( 16-C , 17-C ) :   1.3283 B( 16-C , 33-H ) :   0.9832
B( 17-C , 18-O ) :   1.1099 B( 17-C , 19-C ) :   1.3673 B( 18-O , 34-H ) :   0.9784
B( 19-C , 35-H ) :   0.9591

MP2 TOTAL ENERGY:    -1274.325437652 Eh
FINAL SINGLE POINT ENERGY     -1274.325437652285

DIPOLE MOMENT
-------------
                                X             Y             Z
Electronic contribution:     10.19729       9.08989       7.11343
Nuclear contribution   :    -11.53103     -10.67886      -6.69804
                        -----------------------------------------
Total Dipole Moment    :     -1.33374      -1.58897       0.41539
                        -----------------------------------------
Magnitude (a.u.)       :      2.11571
Magnitude (Debye)      :      5.37771

Rotational constants in cm-1:     0.011943     0.008863     0.006057
Rotational constants in MHz :   358.056674   265.720862   181.572464

                             ****ORCA TERMINATED NORMALLY****
TOTAL RUN TIME: 0 days 2 hours 3 minutes 36 seconds 44 msec
