                         Program Version 4.2.0 -  RELEASE  -
|  1> ! ri-mp2 cc-pvtz cc-pvtz/c TightSCF NoKeepInts
|  2>
|  3> %scf
|  4>   MaxCore 4096
|  5> end
|  6> *xyz  0  1
|  7>     C       14.1694242   16.6452428   15.6084426
|  8>     C       15.2576955   15.5974883   15.9143100
|  9>     O       16.4277501   15.8221958   15.0990608
| 10>     C       17.4125010   16.7409695   15.3623138
| 11>     O       18.4541931   16.7574526   14.7348175
| 12>     C       17.1439006   17.7215950   16.4484467
| 13>     C       16.8053035   18.9790438   16.0848928
| 14>     C       16.3582759   19.4080185   14.7035984
| 15>     N       16.9334920   20.0486233   16.9722151
| 16>     C       17.6275700   19.9819453   18.1519205
| 17>     S       17.8477178   21.3097976   19.1125752
| 18>     N       18.1569001   18.7578192   18.4827271
| 19>     C       17.9000199   17.4965668   17.7587034
| 20>     C       17.3486021   16.3666102   18.6119599
| 21>     C       17.8925485   15.0734331   18.5109256
| 22>     C       17.3676054   14.0181015   19.2753111
| 23>     C       16.2899716   14.2585010   20.1451134
| 24>     C       15.7450300   15.5460596   20.2451439
| 25>     O       14.6983406   15.7787157   21.0759659
| 26>     C       16.2677955   16.5945614   19.4813410
| 27>     H       14.4037742   17.6162294   16.0563708
| 28>     H       13.2077235   16.3185240   16.0228199
| 29>     H       14.0445259   16.7725379   14.5258215
| 30>     H       15.4967525   15.5817013   16.9827283
| 31>     H       14.8542856   14.6087161   15.6600577
| 32>     H       15.8525230   18.5973563   14.1655163
| 33>     H       17.2257810   19.7055686   14.0999144
| 34>     H       15.6629598   20.2553094   14.7409916
| 35>     H       16.5983420   20.9630794   16.7131001
| 36>     H       18.6645309   18.7369267   19.3584855
| 37>     H       18.9271739   17.2510382   17.4490091
| 38>     H       18.7209553   14.8843649   17.8315453
| 39>     H       17.7953127   13.0201170   19.1912957
| 40>     H       15.8816325   13.4457246   20.7371011
| 41>     H       14.5165538   14.9562276   21.5556228
| 42>     H       15.8295360   17.5838376   19.5678349
| 43> *
| 44>
| 45>                          ****END OF INPUT****

CARTESIAN COORDINATES (ANGSTROEM)
---------------------------------
  C     14.169424   16.645243   15.608443
  C     15.257695   15.597488   15.914310
  O     16.427750   15.822196   15.099061
  C     17.412501   16.740969   15.362314
  O     18.454193   16.757453   14.734818
  C     17.143901   17.721595   16.448447
  C     16.805304   18.979044   16.084893
  C     16.358276   19.408018   14.703598
  N     16.933492   20.048623   16.972215
  C     17.627570   19.981945   18.151920
  S     17.847718   21.309798   19.112575
  N     18.156900   18.757819   18.482727
  C     17.900020   17.496567   17.758703
  C     17.348602   16.366610   18.611960
  C     17.892549   15.073433   18.510926
  C     17.367605   14.018101   19.275311
  C     16.289972   14.258501   20.145113
  C     15.745030   15.546060   20.245144
  O     14.698341   15.778716   21.075966
  C     16.267795   16.594561   19.481341
  H     14.403774   17.616229   16.056371
  H     13.207723   16.318524   16.022820
  H     14.044526   16.772538   14.525821
  H     15.496752   15.581701   16.982728
  H     14.854286   14.608716   15.660058
  H     15.852523   18.597356   14.165516
  H     17.225781   19.705569   14.099914
  H     15.662960   20.255309   14.740992
  H     16.598342   20.963079   16.713100
  H     18.664531   18.736927   19.358486
  H     18.927174   17.251038   17.449009
  H     18.720955   14.884365   17.831545
  H     17.795313   13.020117   19.191296
  H     15.881633   13.445725   20.737101
  H     14.516554   14.956228   21.555623
  H     15.829536   17.583838   19.567835

 Total Charge           Charge          ....    0
 Multiplicity           Mult            ....    1
 Number of Electrons    NEL             ....  154
 Basis Dimension        Dim             ....  828

ORBITAL ENERGIES
----------------

  NO   OCC          E(Eh)            E(eV)
   0   2.0000     -91.889272     -2500.4342
   1   2.0000     -20.605440      -560.7025
   2   2.0000     -20.600537      -560.5691
   3   2.0000     -20.552401      -559.2593
   4   2.0000     -15.625449      -425.1901
   5   2.0000     -15.610623      -424.7866
   6   2.0000     -11.398708      -310.1746
   7   2.0000     -11.385165      -309.8061
   8   2.0000     -11.326468      -308.2089
   9   2.0000     -11.324215      -308.1476
  10   2.0000     -11.315379      -307.9071
  11   2.0000     -11.302884      -307.5671
  12   2.0000     -11.271204      -306.7051
  13   2.0000     -11.265375      -306.5464
  14   2.0000     -11.260756      -306.4207
  15   2.0000     -11.257758      -306.3392
  16   2.0000     -11.253274      -306.2172
  17   2.0000     -11.248276      -306.0812
  18   2.0000     -11.248131      -306.0772
  19   2.0000     -11.233202      -305.6710
  20   2.0000      -8.894365      -242.0280
  21   2.0000      -6.575945      -178.9406
  22   2.0000      -6.573936      -178.8859
  23   2.0000      -6.573354      -178.8700
  24   2.0000      -1.446586       -39.3636
  25   2.0000      -1.425149       -38.7803
  26   2.0000      -1.361687       -37.0534
  27   2.0000      -1.339149       -36.4401
  28   2.0000      -1.239038       -33.7159
  29   2.0000      -1.167712       -31.7750
  30   2.0000      -1.127271       -30.6746
  31   2.0000      -1.052555       -28.6415
  32   2.0000      -1.037544       -28.2330
  33   2.0000      -1.025576       -27.9074
  34   2.0000      -1.005332       -27.3565
  35   2.0000      -0.990525       -26.9536
  36   2.0000      -0.927953       -25.2509
  37   2.0000      -0.894150       -24.3310
  38   2.0000      -0.852458       -23.1966
  39   2.0000      -0.844771       -22.9874
  40   2.0000      -0.843481       -22.9523
  41   2.0000      -0.834246       -22.7010
  42   2.0000      -0.756193       -20.5771
  43   2.0000      -0.739617       -20.1260
  44   2.0000      -0.726636       -19.7728
  45   2.0000      -0.703648       -19.1472
  46   2.0000      -0.694026       -18.8854
  47   2.0000      -0.680645       -18.5213
  48   2.0000      -0.677122       -18.4254
  49   2.0000      -0.665916       -18.1205
  50   2.0000      -0.652958       -17.7679
  51   2.0000      -0.641663       -17.4605
  52   2.0000      -0.634953       -17.2780
  53   2.0000      -0.620391       -16.8817
  54   2.0000      -0.613813       -16.7027
  55   2.0000      -0.608416       -16.5558
  56   2.0000      -0.606589       -16.5061
  57   2.0000      -0.584901       -15.9160
  58   2.0000      -0.580367       -15.7926
  59   2.0000      -0.573934       -15.6175
  60   2.0000      -0.567033       -15.4298
  61   2.0000      -0.555112       -15.1054
  62   2.0000      -0.538316       -14.6483
  63   2.0000      -0.537800       -14.6343
  64   2.0000      -0.528121       -14.3709
  65   2.0000      -0.517908       -14.0930
  66   2.0000      -0.505465       -13.7544
  67   2.0000      -0.502864       -13.6836
  68   2.0000      -0.490741       -13.3538
  69   2.0000      -0.464123       -12.6294
  70   2.0000      -0.454496       -12.3675
  71   2.0000      -0.452059       -12.3011
  72   2.0000      -0.358054        -9.7431
  73   2.0000      -0.353089        -9.6080
  74   2.0000      -0.332811        -9.0563
  75   2.0000      -0.328423        -8.9368
  76   2.0000      -0.318954        -8.6792
  77   0.0000       0.089551         2.4368
  78   0.0000       0.097754         2.6600
  79   0.0000       0.119906         3.2628
  80   0.0000       0.125998         3.4286
  81   0.0000       0.127443         3.4679

MULLIKEN ATOMIC CHARGES
-----------------------
   0 C :   -0.322956
   1 C :    0.035988
   2 O :   -0.315012
   3 C :    0.424758
   4 O :   -0.381822
   5 C :   -0.204479
   6 C :    0.129598
   7 C :   -0.306293
   8 N :   -0.137214
   9 C :    0.213129
  10 S :   -0.443232
  11 N :   -0.222134
  12 C :    0.034335
  13 C :    0.005563
  14 C :   -0.210894
  15 C :   -0.132113
  16 C :   -0.271579
  17 C :    0.308412
  18 O :   -0.353510
  19 C :   -0.230628
  20 H :    0.104100
  21 H :    0.115405
  22 H :    0.107327
  23 H :    0.104819
  24 H :    0.123352
  25 H :    0.118965
  26 H :    0.149662
  27 H :    0.103178
  28 H :    0.197252
  29 H :    0.201891
  30 H :    0.168013
  31 H :    0.167411
  32 H :    0.165820
  33 H :    0.135378
  34 H :    0.241964
  35 H :    0.175549
Sum of atomic charges:    0.0000000

LOEWDIN ATOMIC CHARGES
----------------------
   0 C :    0.101914
   1 C :   -0.016612
   2 O :    0.302939
   3 C :   -0.416232
   4 O :    0.124470
   5 C :   -0.087522
   6 C :   -0.093851
   7 C :    0.128344
   8 N :    0.403907
   9 C :   -0.454432
  10 S :   -0.038216
  11 N :    0.395808
  12 C :   -0.054619
  13 C :   -0.047109
  14 C :    0.015622
  15 C :    0.046152
  16 C :    0.001743
  17 C :   -0.190591
  18 O :    0.397570
  19 C :    0.029387
  20 H :   -0.034961
  21 H :   -0.023321
  22 H :   -0.027807
  23 H :   -0.033641
  24 H :   -0.020110
  25 H :   -0.010299
  26 H :   -0.004374
  27 H :   -0.017984
  28 H :   -0.058279
  29 H :   -0.064395
  30 H :   -0.005519
  31 H :   -0.023935
  32 H :   -0.017481
  33 H :   -0.033333
  34 H :   -0.152032
  35 H :   -0.021202

  Mayer bond orders larger than 0.100000
B(  0-C ,  1-C ) :   0.9569 B(  0-C , 20-H ) :   0.9743 B(  0-C , 21-H ) :   0.9780
B(  0-C , 22-H ) :   0.9760 B(  1-C ,  2-O ) :   0.9016 B(  1-C , 23-H ) :   0.9624
B(  1-C , 24-H ) :   0.9853 B(  2-O ,  3-C ) :   1.1914 B(  3-C ,  4-O ) :   2.1197
B(  3-C ,  5-C ) :   0.8967 B(  5-C ,  6-C ) :   1.7369 B(  5-C , 12-C ) :   0.9495
B(  6-C ,  7-C ) :   0.9452 B(  6-C ,  8-N ) :   1.1052 B(  7-C , 25-H ) :   0.9777
B(  7-C , 26-H ) :   0.9613 B(  7-C , 27-H ) :   0.9791 B(  8-N ,  9-C ) :   1.2020
B(  8-N , 28-H ) :   0.9492 B(  9-C , 10-S ) :   1.6102 B(  9-C , 11-N ) :   1.2854
B( 11-N , 12-C ) :   0.9796 B( 11-N , 29-H ) :   0.9467 B( 12-C , 13-C ) :   0.9656
B( 12-C , 30-H ) :   0.9962 B( 13-C , 14-C ) :   1.3804 B( 13-C , 19-C ) :   1.3547
B( 14-C , 15-C ) :   1.3948 B( 14-C , 31-H ) :   0.9658 B( 15-C , 16-C ) :   1.3653
B( 15-C , 32-H ) :   0.9692 B( 16-C , 17-C ) :   1.3290 B( 16-C , 33-H ) :   0.9833
B( 17-C , 18-O ) :   1.1135 B( 17-C , 19-C ) :   1.3616 B( 18-O , 34-H ) :   0.9784
B( 19-C , 35-H ) :   0.9569

MP2 TOTAL ENERGY:    -1274.325358769 Eh
FINAL SINGLE POINT ENERGY     -1274.325358768788

DIPOLE MOMENT
-------------
                                X             Y             Z
Electronic contribution:      9.47354       6.13333       7.37111
Nuclear contribution   :    -11.01808      -7.83580      -7.28527
                        -----------------------------------------
Total Dipole Moment    :     -1.54454      -1.70247       0.08585
                        -----------------------------------------
Magnitude (a.u.)       :      2.30030
Magnitude (Debye)      :      5.84689

Rotational constants in cm-1:     0.011766     0.009046     0.006455
Rotational constants in MHz :   352.721731   271.186360   193.501315

                             ****ORCA TERMINATED NORMALLY****
TOTAL RUN TIME: 0 days 1 hours 44 minutes 3 seconds 190 msec
