                         Program Version 4.2.0 -  RELEASE  -
|  1> ! ri-mp2 cc-pvtz cc-pvtz/c TightSCF NoKeepInts
|  2>
|  3> %scf
|  4>   MaxCore 4096
|  5> end
|  6> *xyz  0  1
|  7>     C       14.5676558   15.0121950   14.5166009
|  8>     C       15.6163337   14.8686084   15.6396887
|  9>     O       16.5686892   15.9577846   15.7158289
| 10>     C       16.2631470   17.2847328   15.5552880
| 11>     O       15.5252841   17.7033179   14.6812805
| 12>     C       16.8936377   18.1419862   16.6219283
| 13>     C       16.9371028   19.4938758   16.4966191
| 14>     C       16.1937905   20.3466994   15.4890136
| 15>     N       17.7367365   20.2699687   17.3388942
| 16>     C       18.6625877   19.7646303   18.2107164
| 17>     S       19.6422659   20.7444155   19.1140582
| 18>     N       18.7513150   18.3977286   18.2822776
| 19>     C       17.8553589   17.4449552   17.6004638
| 20>     C       17.1717232   16.4896193   18.5703893
| 21>     C       17.5763492   15.1444847   18.6538096
| 22>     C       16.9402601   14.2619416   19.5429994
| 23>     C       15.8943170   14.7298204   20.3570063
| 24>     C       15.4938075   16.0710485   20.2797103
| 25>     O       14.4852953   16.5256000   21.0652343
| 26>     C       16.1280282   16.9465792   19.3927855
| 27>     H       13.8411591   15.8008115   14.7485975
| 28>     H       14.0102928   14.0757340   14.3952390
| 29>     H       15.0496829   15.2471537   13.5591959
| 30>     H       15.0867375   14.7917596   16.5986433
| 31>     H       16.1683617   13.9308203   15.4976522
| 32>     H       15.1177691   20.1326215   15.5215475
| 33>     H       16.5398125   20.1312520   14.4700086
| 34>     H       16.3175108   21.4224905   15.6601252
| 35>     H       17.6971078   21.2749311   17.2801169
| 36>     H       19.4214310   18.0544964   18.9586523
| 37>     H       18.5797910   16.9065959   16.9728472
| 38>     H       18.3823988   14.7814760   18.0215147
| 39>     H       17.2590583   13.2225541   19.6009250
| 40>     H       15.4008929   14.0526446   21.0465427
| 41>     H       14.2025939   15.7920759   21.6317935
| 42>     H       15.8087147   17.9825908   19.3500057
| 43> *
| 44>
| 45>                          ****END OF INPUT****

CARTESIAN COORDINATES (ANGSTROEM)
---------------------------------
  C     14.567656   15.012195   14.516601
  C     15.616334   14.868608   15.639689
  O     16.568689   15.957785   15.715829
  C     16.263147   17.284733   15.555288
  O     15.525284   17.703318   14.681280
  C     16.893638   18.141986   16.621928
  C     16.937103   19.493876   16.496619
  C     16.193790   20.346699   15.489014
  N     17.736736   20.269969   17.338894
  C     18.662588   19.764630   18.210716
  S     19.642266   20.744415   19.114058
  N     18.751315   18.397729   18.282278
  C     17.855359   17.444955   17.600464
  C     17.171723   16.489619   18.570389
  C     17.576349   15.144485   18.653810
  C     16.940260   14.261942   19.542999
  C     15.894317   14.729820   20.357006
  C     15.493808   16.071048   20.279710
  O     14.485295   16.525600   21.065234
  C     16.128028   16.946579   19.392785
  H     13.841159   15.800811   14.748598
  H     14.010293   14.075734   14.395239
  H     15.049683   15.247154   13.559196
  H     15.086737   14.791760   16.598643
  H     16.168362   13.930820   15.497652
  H     15.117769   20.132621   15.521548
  H     16.539813   20.131252   14.470009
  H     16.317511   21.422490   15.660125
  H     17.697108   21.274931   17.280117
  H     19.421431   18.054496   18.958652
  H     18.579791   16.906596   16.972847
  H     18.382399   14.781476   18.021515
  H     17.259058   13.222554   19.600925
  H     15.400893   14.052645   21.046543
  H     14.202594   15.792076   21.631794
  H     15.808715   17.982591   19.350006

 Total Charge           Charge          ....    0
 Multiplicity           Mult            ....    1
 Number of Electrons    NEL             ....  154
 Basis Dimension        Dim             ....  828

ORBITAL ENERGIES
----------------

  NO   OCC          E(Eh)            E(eV)
   0   2.0000     -91.888784     -2500.4209
   1   2.0000     -20.598588      -560.5161
   2   2.0000     -20.590713      -560.3018
   3   2.0000     -20.542279      -558.9838
   4   2.0000     -15.629088      -425.2891
   5   2.0000     -15.606809      -424.6829
   6   2.0000     -11.395977      -310.1003
   7   2.0000     -11.383369      -309.7572
   8   2.0000     -11.336941      -308.4938
   9   2.0000     -11.316007      -307.9242
  10   2.0000     -11.307181      -307.6840
  11   2.0000     -11.300783      -307.5099
  12   2.0000     -11.262505      -306.4683
  13   2.0000     -11.257689      -306.3373
  14   2.0000     -11.257323      -306.3273
  15   2.0000     -11.251578      -306.1710
  16   2.0000     -11.245618      -306.0088
  17   2.0000     -11.240761      -305.8767
  18   2.0000     -11.240377      -305.8662
  19   2.0000     -11.219946      -305.3103
  20   2.0000      -8.893858      -242.0142
  21   2.0000      -6.575432      -178.9266
  22   2.0000      -6.573433      -178.8722
  23   2.0000      -6.572843      -178.8561
  24   2.0000      -1.442453       -39.2511
  25   2.0000      -1.418251       -38.5926
  26   2.0000      -1.353312       -36.8255
  27   2.0000      -1.340219       -36.4692
  28   2.0000      -1.238159       -33.6920
  29   2.0000      -1.159165       -31.5425
  30   2.0000      -1.120499       -30.4903
  31   2.0000      -1.043692       -28.4003
  32   2.0000      -1.033892       -28.1336
  33   2.0000      -1.016998       -27.6739
  34   2.0000      -0.995933       -27.1007
  35   2.0000      -0.984103       -26.7788
  36   2.0000      -0.922153       -25.0931
  37   2.0000      -0.893139       -24.3036
  38   2.0000      -0.847149       -23.0521
  39   2.0000      -0.839508       -22.8442
  40   2.0000      -0.835965       -22.7478
  41   2.0000      -0.820321       -22.3221
  42   2.0000      -0.747011       -20.3272
  43   2.0000      -0.733195       -19.9512
  44   2.0000      -0.717415       -19.5219
  45   2.0000      -0.696858       -18.9625
  46   2.0000      -0.688005       -18.7216
  47   2.0000      -0.677315       -18.4307
  48   2.0000      -0.668016       -18.1776
  49   2.0000      -0.661133       -17.9903
  50   2.0000      -0.648392       -17.6437
  51   2.0000      -0.644816       -17.5463
  52   2.0000      -0.635268       -17.2865
  53   2.0000      -0.608736       -16.5645
  54   2.0000      -0.603035       -16.4094
  55   2.0000      -0.600568       -16.3423
  56   2.0000      -0.599226       -16.3058
  57   2.0000      -0.579127       -15.7588
  58   2.0000      -0.573568       -15.6076
  59   2.0000      -0.569167       -15.4878
  60   2.0000      -0.561926       -15.2908
  61   2.0000      -0.540422       -14.7056
  62   2.0000      -0.534760       -14.5516
  63   2.0000      -0.524950       -14.2846
  64   2.0000      -0.522798       -14.2261
  65   2.0000      -0.512999       -13.9594
  66   2.0000      -0.500209       -13.6114
  67   2.0000      -0.495810       -13.4917
  68   2.0000      -0.484261       -13.1774
  69   2.0000      -0.463182       -12.6038
  70   2.0000      -0.452490       -12.3129
  71   2.0000      -0.439667       -11.9639
  72   2.0000      -0.353000        -9.6056
  73   2.0000      -0.351118        -9.5544
  74   2.0000      -0.328204        -8.9309
  75   2.0000      -0.323271        -8.7967
  76   2.0000      -0.318078        -8.6554
  77   0.0000       0.074946         2.0394
  78   0.0000       0.103375         2.8130
  79   0.0000       0.124653         3.3920
  80   0.0000       0.131946         3.5904
  81   0.0000       0.135899         3.6980

MULLIKEN ATOMIC CHARGES
-----------------------
   0 C :   -0.277053
   1 C :    0.038789
   2 O :   -0.376890
   3 C :    0.452777
   4 O :   -0.424989
   5 C :   -0.242131
   6 C :    0.180447
   7 C :   -0.266113
   8 N :   -0.126586
   9 C :    0.211676
  10 S :   -0.442472
  11 N :   -0.217265
  12 C :    0.076169
  13 C :    0.027808
  14 C :   -0.180210
  15 C :   -0.132162
  16 C :   -0.278090
  17 C :    0.314837
  18 O :   -0.356075
  19 C :   -0.247050
  20 H :    0.106521
  21 H :    0.093700
  22 H :    0.106432
  23 H :    0.098327
  24 H :    0.098229
  25 H :    0.132393
  26 H :    0.129810
  27 H :    0.094574
  28 H :    0.199492
  29 H :    0.200493
  30 H :    0.151399
  31 H :    0.154488
  32 H :    0.161915
  33 H :    0.131654
  34 H :    0.240929
  35 H :    0.164227
Sum of atomic charges:   -0.0000000

LOEWDIN ATOMIC CHARGES
----------------------
   0 C :    0.103048
   1 C :   -0.014135
   2 O :    0.291559
   3 C :   -0.412641
   4 O :    0.111841
   5 C :   -0.097468
   6 C :   -0.055909
   7 C :    0.130794
   8 N :    0.407185
   9 C :   -0.456344
  10 S :   -0.036880
  11 N :    0.394372
  12 C :   -0.054746
  13 C :   -0.038835
  14 C :    0.017493
  15 C :    0.038981
  16 C :   -0.001651
  17 C :   -0.190196
  18 O :    0.395482
  19 C :    0.032062
  20 H :   -0.027304
  21 H :   -0.029095
  22 H :   -0.023769
  23 H :   -0.029675
  24 H :   -0.024726
  25 H :   -0.004761
  26 H :   -0.004837
  27 H :   -0.023761
  28 H :   -0.057228
  29 H :   -0.064663
  30 H :   -0.013233
  31 H :   -0.028632
  32 H :   -0.020935
  33 H :   -0.035162
  34 H :   -0.153595
  35 H :   -0.022635

  Mayer bond orders larger than 0.100000
B(  0-C ,  1-C ) :   0.9835 B(  0-C , 20-H ) :   0.9735 B(  0-C , 21-H ) :   0.9747
B(  0-C , 22-H ) :   0.9744 B(  1-C ,  2-O ) :   0.8959 B(  1-C , 23-H ) :   0.9710
B(  1-C , 24-H ) :   0.9805 B(  2-O ,  3-C ) :   1.1021 B(  3-C ,  4-O ) :   1.9852
B(  3-C ,  5-C ) :   1.0782 B(  5-C ,  6-C ) :   1.6349 B(  5-C , 12-C ) :   0.9569
B(  6-C ,  7-C ) :   0.9648 B(  6-C ,  8-N ) :   1.1525 B(  7-C , 25-H ) :   0.9611
B(  7-C , 26-H ) :   0.9587 B(  7-C , 27-H ) :   0.9908 B(  8-N ,  9-C ) :   1.1873
B(  8-N , 28-H ) :   0.9463 B(  9-C , 10-S ) :   1.6047 B(  9-C , 11-N ) :   1.3106
B( 11-N , 12-C ) :   0.9650 B( 11-N , 29-H ) :   0.9485 B( 12-C , 13-C ) :   0.9610
B( 12-C , 30-H ) :   1.0003 B( 13-C , 14-C ) :   1.3529 B( 13-C , 19-C ) :   1.3807
B( 14-C , 15-C ) :   1.3929 B( 14-C , 31-H ) :   0.9723 B( 15-C , 16-C ) :   1.3589
B( 15-C , 32-H ) :   0.9705 B( 16-C , 17-C ) :   1.3333 B( 16-C , 33-H ) :   0.9847
B( 17-C , 18-O ) :   1.1060 B( 17-C , 19-C ) :   1.3649 B( 18-O , 34-H ) :   0.9795
B( 19-C , 35-H ) :   0.9593

MP2 TOTAL ENERGY:    -1274.330538665 Eh
FINAL SINGLE POINT ENERGY     -1274.330538665061

DIPOLE MOMENT
-------------
                                X             Y             Z
Electronic contribution:      9.64426       9.88396       9.23944
Nuclear contribution   :    -10.67884     -11.62790      -9.43090
                        -----------------------------------------
Total Dipole Moment    :     -1.03458      -1.74393      -0.19146
                        -----------------------------------------
Magnitude (a.u.)       :      2.03674
Magnitude (Debye)      :      5.17699

Rotational constants in cm-1:     0.011483     0.008618     0.005900
Rotational constants in MHz :   344.265214   258.366559   176.878476

                             ****ORCA TERMINATED NORMALLY****
TOTAL RUN TIME: 0 days 1 hours 44 minutes 16 seconds 894 msec
