                         Program Version 4.2.0 -  RELEASE  -
|  1> ! ri-mp2 cc-pvtz cc-pvtz/c TightSCF NoKeepInts
|  2>
|  3> %scf
|  4>   MaxCore 4096
|  5> end
|  6> *xyz  0  1
|  7>     C       14.9386716   14.5731489   15.0393898
|  8>     C       14.7317842   16.0340335   14.5842004
|  9>     O       15.8937463   16.8886517   14.7321698
| 10>     C       16.8827331   16.6954559   15.6572844
| 11>     O       17.5011712   15.6501376   15.7639079
| 12>     C       17.0816328   17.8450910   16.6037851
| 13>     C       16.8885259   19.1408747   16.2411086
| 14>     C       16.2541634   19.6682384   14.9690114
| 15>     N       17.3380582   20.1833509   17.0557562
| 16>     C       18.1735958   20.0240077   18.1281872
| 17>     S       18.7514542   21.3162653   18.9835231
| 18>     N       18.5232314   18.7354084   18.4427836
| 19>     C       17.9588839   17.5224255   17.8197187
| 20>     C       17.2842189   16.5900868   18.8174626
| 21>     C       17.6611596   15.2377414   18.9029082
| 22>     C       17.0347114   14.3775883   19.8202534
| 23>     C       16.0232306   14.8744750   20.6600897
| 24>     C       15.6439421   16.2212302   20.5752906
| 25>     O       14.6638700   16.7023201   21.3810608
| 26>     C       16.2686462   17.0746398   19.6601886
| 27>     H       15.7694784   14.1073207   14.4941994
| 28>     H       14.0356909   13.9825809   14.8437385
| 29>     H       15.1472402   14.5161161   16.1155186
| 30>     H       14.4139425   16.0446106   13.5336552
| 31>     H       13.9098578   16.4571345   15.1761876
| 32>     H       15.1924477   19.3966377   14.9226993
| 33>     H       16.7504219   19.2507309   14.0837243
| 34>     H       16.3159800   20.7600135   14.8834254
| 35>     H       17.1094708   21.1365778   16.8234169
| 36>     H       19.1246987   18.6433425   19.2516929
| 37>     H       18.8736641   17.0630566   17.4173070
| 38>     H       18.4326879   14.8494647   18.2418764
| 39>     H       17.3309847   13.3314657   19.8728949
| 40>     H       15.5360180   14.2133066   21.3689275
| 41>     H       14.3837349   15.9780220   21.9605319
| 42>     H       15.9632506   18.1144483   19.6101241
| 43> *
| 44>
| 45>                          ****END OF INPUT****

CARTESIAN COORDINATES (ANGSTROEM)
---------------------------------
  C     14.938672   14.573149   15.039390
  C     14.731784   16.034033   14.584200
  O     15.893746   16.888652   14.732170
  C     16.882733   16.695456   15.657284
  O     17.501171   15.650138   15.763908
  C     17.081633   17.845091   16.603785
  C     16.888526   19.140875   16.241109
  C     16.254163   19.668238   14.969011
  N     17.338058   20.183351   17.055756
  C     18.173596   20.024008   18.128187
  S     18.751454   21.316265   18.983523
  N     18.523231   18.735408   18.442784
  C     17.958884   17.522426   17.819719
  C     17.284219   16.590087   18.817463
  C     17.661160   15.237741   18.902908
  C     17.034711   14.377588   19.820253
  C     16.023231   14.874475   20.660090
  C     15.643942   16.221230   20.575291
  O     14.663870   16.702320   21.381061
  C     16.268646   17.074640   19.660189
  H     15.769478   14.107321   14.494199
  H     14.035691   13.982581   14.843738
  H     15.147240   14.516116   16.115519
  H     14.413942   16.044611   13.533655
  H     13.909858   16.457134   15.176188
  H     15.192448   19.396638   14.922699
  H     16.750422   19.250731   14.083724
  H     16.315980   20.760013   14.883425
  H     17.109471   21.136578   16.823417
  H     19.124699   18.643342   19.251693
  H     18.873664   17.063057   17.417307
  H     18.432688   14.849465   18.241876
  H     17.330985   13.331466   19.872895
  H     15.536018   14.213307   21.368927
  H     14.383735   15.978022   21.960532
  H     15.963251   18.114448   19.610124

 Total Charge           Charge          ....    0
 Multiplicity           Mult            ....    1
 Number of Electrons    NEL             ....  154
 Basis Dimension        Dim             ....  828

ORBITAL ENERGIES
----------------

  NO   OCC          E(Eh)            E(eV)
   0   2.0000     -91.888074     -2500.4016
   1   2.0000     -20.593370      -560.3741
   2   2.0000     -20.591130      -560.3131
   3   2.0000     -20.548323      -559.1483
   4   2.0000     -15.628465      -425.2721
   5   2.0000     -15.605785      -424.6550
   6   2.0000     -11.396710      -310.1202
   7   2.0000     -11.382662      -309.7380
   8   2.0000     -11.337548      -308.5104
   9   2.0000     -11.309532      -307.7480
  10   2.0000     -11.307559      -307.6943
  11   2.0000     -11.304025      -307.5981
  12   2.0000     -11.259391      -306.3836
  13   2.0000     -11.258776      -306.3669
  14   2.0000     -11.256578      -306.3071
  15   2.0000     -11.249644      -306.1184
  16   2.0000     -11.239745      -305.8490
  17   2.0000     -11.235751      -305.7403
  18   2.0000     -11.232420      -305.6497
  19   2.0000     -11.225448      -305.4600
  20   2.0000      -8.893161      -241.9952
  21   2.0000      -6.574739      -178.9077
  22   2.0000      -6.572735      -178.8532
  23   2.0000      -6.572148      -178.8372
  24   2.0000      -1.445571       -39.3360
  25   2.0000      -1.413123       -38.4530
  26   2.0000      -1.356299       -36.9068
  27   2.0000      -1.339726       -36.4558
  28   2.0000      -1.236974       -33.6598
  29   2.0000      -1.153760       -31.3954
  30   2.0000      -1.120444       -30.4888
  31   2.0000      -1.042773       -28.3753
  32   2.0000      -1.033544       -28.1242
  33   2.0000      -1.011408       -27.5218
  34   2.0000      -0.998970       -27.1834
  35   2.0000      -0.983787       -26.7702
  36   2.0000      -0.921531       -25.0761
  37   2.0000      -0.894854       -24.3502
  38   2.0000      -0.848475       -23.0882
  39   2.0000      -0.836594       -22.7649
  40   2.0000      -0.829687       -22.5769
  41   2.0000      -0.820932       -22.3387
  42   2.0000      -0.743682       -20.2366
  43   2.0000      -0.728039       -19.8109
  44   2.0000      -0.725115       -19.7314
  45   2.0000      -0.690853       -18.7991
  46   2.0000      -0.684143       -18.6165
  47   2.0000      -0.678797       -18.4710
  48   2.0000      -0.674762       -18.3612
  49   2.0000      -0.665504       -18.1093
  50   2.0000      -0.646863       -17.6020
  51   2.0000      -0.643799       -17.5187
  52   2.0000      -0.633440       -17.2368
  53   2.0000      -0.613581       -16.6964
  54   2.0000      -0.603975       -16.4350
  55   2.0000      -0.599384       -16.3101
  56   2.0000      -0.596737       -16.2380
  57   2.0000      -0.574939       -15.6449
  58   2.0000      -0.573267       -15.5994
  59   2.0000      -0.567446       -15.4410
  60   2.0000      -0.556308       -15.1379
  61   2.0000      -0.547218       -14.8905
  62   2.0000      -0.538053       -14.6412
  63   2.0000      -0.526974       -14.3397
  64   2.0000      -0.516619       -14.0579
  65   2.0000      -0.510524       -13.8921
  66   2.0000      -0.497995       -13.5511
  67   2.0000      -0.493688       -13.4339
  68   2.0000      -0.479638       -13.0516
  69   2.0000      -0.463215       -12.6047
  70   2.0000      -0.455186       -12.3862
  71   2.0000      -0.447661       -12.1815
  72   2.0000      -0.352770        -9.5993
  73   2.0000      -0.346002        -9.4152
  74   2.0000      -0.327207        -8.9037
  75   2.0000      -0.317299        -8.6342
  76   2.0000      -0.316236        -8.6052
  77   0.0000       0.074749         2.0340
  78   0.0000       0.109100         2.9688
  79   0.0000       0.121694         3.3115
  80   0.0000       0.134503         3.6600
  81   0.0000       0.138069         3.7570

MULLIKEN ATOMIC CHARGES
-----------------------
   0 C :   -0.290290
   1 C :    0.047634
   2 O :   -0.377012
   3 C :    0.434882
   4 O :   -0.401290
   5 C :   -0.176487
   6 C :    0.154961
   7 C :   -0.281079
   8 N :   -0.128187
   9 C :    0.207244
  10 S :   -0.442460
  11 N :   -0.212138
  12 C :    0.045707
  13 C :    0.031711
  14 C :   -0.179527
  15 C :   -0.134399
  16 C :   -0.278064
  17 C :    0.314374
  18 O :   -0.358603
  19 C :   -0.253369
  20 H :    0.115490
  21 H :    0.097972
  22 H :    0.108703
  23 H :    0.099939
  24 H :    0.084198
  25 H :    0.124514
  26 H :    0.128509
  27 H :    0.102555
  28 H :    0.198731
  29 H :    0.199841
  30 H :    0.157230
  31 H :    0.163009
  32 H :    0.161366
  33 H :    0.129242
  34 H :    0.240143
  35 H :    0.164950
Sum of atomic charges:    0.0000000

LOEWDIN ATOMIC CHARGES
----------------------
   0 C :    0.105168
   1 C :   -0.013120
   2 O :    0.287904
   3 C :   -0.414711
   4 O :    0.122239
   5 C :   -0.095189
   6 C :   -0.064908
   7 C :    0.125264
   8 N :    0.405439
   9 C :   -0.458475
  10 S :   -0.037823
  11 N :    0.396264
  12 C :   -0.048611
  13 C :   -0.041357
  14 C :    0.023798
  15 C :    0.040260
  16 C :   -0.001469
  17 C :   -0.192752
  18 O :    0.393245
  19 C :    0.029090
  20 H :   -0.022771
  21 H :   -0.026885
  22 H :   -0.025111
  23 H :   -0.024506
  24 H :   -0.033086
  25 H :   -0.010256
  26 H :   -0.007818
  27 H :   -0.021140
  28 H :   -0.058686
  29 H :   -0.063413
  30 H :   -0.008034
  31 H :   -0.023547
  32 H :   -0.020741
  33 H :   -0.035972
  34 H :   -0.154632
  35 H :   -0.023656

  Mayer bond orders larger than 0.100000
B(  0-C ,  1-C ) :   0.9810 B(  0-C , 20-H ) :   0.9720 B(  0-C , 21-H ) :   0.9722
B(  0-C , 22-H ) :   0.9721 B(  1-C ,  2-O ) :   0.9085 B(  1-C , 23-H ) :   0.9787
B(  1-C , 24-H ) :   0.9752 B(  2-O ,  3-C ) :   1.0777 B(  3-C ,  4-O ) :   2.0190
B(  3-C ,  5-C ) :   1.0244 B(  5-C ,  6-C ) :   1.6636 B(  5-C , 12-C ) :   0.9485
B(  6-C ,  7-C ) :   0.9537 B(  6-C ,  8-N ) :   1.1366 B(  7-C , 25-H ) :   0.9655
B(  7-C , 26-H ) :   0.9646 B(  7-C , 27-H ) :   0.9909 B(  8-N ,  9-C ) :   1.1858
B(  8-N , 28-H ) :   0.9471 B(  9-C , 10-S ) :   1.6085 B(  9-C , 11-N ) :   1.3051
B( 11-N , 12-C ) :   0.9764 B( 11-N , 29-H ) :   0.9486 B( 12-C , 13-C ) :   0.9694
B( 12-C , 30-H ) :   0.9965 B( 13-C , 14-C ) :   1.3763 B( 13-C , 19-C ) :   1.3649
B( 14-C , 15-C ) :   1.3962 B( 14-C , 31-H ) :   0.9625 B( 15-C , 16-C ) :   1.3590
B( 15-C , 32-H ) :   0.9707 B( 16-C , 17-C ) :   1.3328 B( 16-C , 33-H ) :   0.9857
B( 17-C , 18-O ) :   1.1044 B( 17-C , 19-C ) :   1.3668 B( 18-O , 34-H ) :   0.9804
B( 19-C , 35-H ) :   0.9597

MP2 TOTAL ENERGY:    -1274.325741913 Eh
FINAL SINGLE POINT ENERGY     -1274.325741912614

DIPOLE MOMENT
-------------
                                X             Y             Z
Electronic contribution:      9.26929      10.46666       9.51525
Nuclear contribution   :    -10.84820     -11.71033     -10.43271
                        -----------------------------------------
Total Dipole Moment    :     -1.57891      -1.24367      -0.91747
                        -----------------------------------------
Magnitude (a.u.)       :      2.20939
Magnitude (Debye)      :      5.61582

Rotational constants in cm-1:     0.010508     0.009171     0.005812
Rotational constants in MHz :   315.029030   274.928514   174.248998

                             ****ORCA TERMINATED NORMALLY****
TOTAL RUN TIME: 0 days 1 hours 56 minutes 5 seconds 265 msec
