                         Program Version 4.2.0 -  RELEASE  -
|  1> ! ri-mp2 cc-pvtz cc-pvtz/c TightSCF NoKeepInts
|  2>
|  3> %scf
|  4>   MaxCore 4096
|  5> end
|  6> *xyz  0  1
|  7>     C       14.3799243   15.2249614   15.0197565
|  8>     C       15.4510581   15.3753690   16.1157784
|  9>     O       16.6581325   15.8748670   15.5088947
| 10>     C       16.7464735   17.2110386   15.2550249
| 11>     O       16.5884729   17.6297201   14.1229944
| 12>     C       16.9902072   18.0685326   16.4707831
| 13>     C       16.8947036   19.4197641   16.3667020
| 14>     C       16.2043397   20.2060145   15.2711106
| 15>     N       17.4422301   20.2621391   17.3363001
| 16>     C       18.3069839   19.8519339   18.3136173
| 17>     S       19.0202913   20.9171555   19.3582553
| 18>     N       18.5716389   18.5072581   18.3659314
| 19>     C       17.8826612   17.4688765   17.5761728
| 20>     C       17.2466479   16.4080669   18.4621689
| 21>     C       17.7462081   15.0927143   18.4783641
| 22>     C       17.1569638   14.1168891   19.2996954
| 23>     C       16.0661064   14.4617651   20.1162257
| 24>     C       15.5759977   15.7749847   20.1117083
| 25>     O       14.5232758   16.1110783   20.8982568
| 26>     C       16.1627914   16.7436962   19.2914144
| 27>     H       14.1218311   16.1989473   14.5852235
| 28>     H       13.4656409   14.7824724   15.4332216
| 29>     H       14.7421866   14.5746656   14.2135614
| 30>     H       15.0851771   16.0462391   16.9028360
| 31>     H       15.6463632   14.3921078   16.5630012
| 32>     H       15.2670913   19.7204893   14.9712142
| 33>     H       16.8420505   20.2640452   14.3793487
| 34>     H       15.9546252   21.2298310   15.5737220
| 35>     H       17.2844263   21.2559411   17.2832101
| 36>     H       19.1983830   18.2314803   19.1116845
| 37>     H       18.7474888   17.0489891   17.0425186
| 38>     H       18.5870528   14.8236179   17.8437791
| 39>     H       17.5466170   13.1000121   19.3027767
| 40>     H       15.6086411   13.7111949   20.7528196
| 41>     H       14.2982303   15.3355054   21.4344424
| 42>     H       15.7760864   17.7576366   19.3054851
| 43> *
| 44>
| 45>                          ****END OF INPUT****

CARTESIAN COORDINATES (ANGSTROEM)
---------------------------------
  C     14.379924   15.224961   15.019756
  C     15.451058   15.375369   16.115778
  O     16.658133   15.874867   15.508895
  C     16.746474   17.211039   15.255025
  O     16.588473   17.629720   14.122994
  C     16.990207   18.068533   16.470783
  C     16.894704   19.419764   16.366702
  C     16.204340   20.206014   15.271111
  N     17.442230   20.262139   17.336300
  C     18.306984   19.851934   18.313617
  S     19.020291   20.917155   19.358255
  N     18.571639   18.507258   18.365931
  C     17.882661   17.468877   17.576173
  C     17.246648   16.408067   18.462169
  C     17.746208   15.092714   18.478364
  C     17.156964   14.116889   19.299695
  C     16.066106   14.461765   20.116226
  C     15.575998   15.774985   20.111708
  O     14.523276   16.111078   20.898257
  C     16.162791   16.743696   19.291414
  H     14.121831   16.198947   14.585223
  H     13.465641   14.782472   15.433222
  H     14.742187   14.574666   14.213561
  H     15.085177   16.046239   16.902836
  H     15.646363   14.392108   16.563001
  H     15.267091   19.720489   14.971214
  H     16.842050   20.264045   14.379349
  H     15.954625   21.229831   15.573722
  H     17.284426   21.255941   17.283210
  H     19.198383   18.231480   19.111684
  H     18.747489   17.048989   17.042519
  H     18.587053   14.823618   17.843779
  H     17.546617   13.100012   19.302777
  H     15.608641   13.711195   20.752820
  H     14.298230   15.335505   21.434442
  H     15.776086   17.757637   19.305485

 Total Charge           Charge          ....    0
 Multiplicity           Mult            ....    1
 Number of Electrons    NEL             ....  154
 Basis Dimension        Dim             ....  828

ORBITAL ENERGIES
----------------

  NO   OCC          E(Eh)            E(eV)
   0   2.0000     -91.891633     -2500.4985
   1   2.0000     -20.603074      -560.6381
   2   2.0000     -20.583324      -560.1007
   3   2.0000     -20.548523      -559.1537
   4   2.0000     -15.631361      -425.3510
   5   2.0000     -15.610175      -424.7745
   6   2.0000     -11.392586      -310.0080
   7   2.0000     -11.385985      -309.8284
   8   2.0000     -11.339004      -308.5500
   9   2.0000     -11.320966      -308.0591
  10   2.0000     -11.313593      -307.8585
  11   2.0000     -11.296336      -307.3889
  12   2.0000     -11.266997      -306.5906
  13   2.0000     -11.261928      -306.4526
  14   2.0000     -11.259683      -306.3915
  15   2.0000     -11.254277      -306.2445
  16   2.0000     -11.251045      -306.1565
  17   2.0000     -11.245478      -306.0050
  18   2.0000     -11.245208      -305.9977
  19   2.0000     -11.221596      -305.3552
  20   2.0000      -8.896681      -242.0910
  21   2.0000      -6.578246      -179.0032
  22   2.0000      -6.576254      -178.9490
  23   2.0000      -6.575656      -178.9327
  24   2.0000      -1.446794       -39.3693
  25   2.0000      -1.422835       -38.7173
  26   2.0000      -1.354998       -36.8714
  27   2.0000      -1.343435       -36.5567
  28   2.0000      -1.241807       -33.7913
  29   2.0000      -1.163998       -31.6740
  30   2.0000      -1.123312       -30.5669
  31   2.0000      -1.048353       -28.5271
  32   2.0000      -1.030578       -28.0435
  33   2.0000      -1.022049       -27.8114
  34   2.0000      -1.000593       -27.2275
  35   2.0000      -0.988145       -26.8888
  36   2.0000      -0.926188       -25.2029
  37   2.0000      -0.883151       -24.0318
  38   2.0000      -0.851207       -23.1625
  39   2.0000      -0.843954       -22.9652
  40   2.0000      -0.841045       -22.8860
  41   2.0000      -0.831759       -22.6333
  42   2.0000      -0.755563       -20.5599
  43   2.0000      -0.738035       -20.0830
  44   2.0000      -0.718848       -19.5609
  45   2.0000      -0.701444       -19.0873
  46   2.0000      -0.690981       -18.8026
  47   2.0000      -0.679108       -18.4795
  48   2.0000      -0.670263       -18.2388
  49   2.0000      -0.668419       -18.1886
  50   2.0000      -0.649779       -17.6814
  51   2.0000      -0.647595       -17.6219
  52   2.0000      -0.638148       -17.3649
  53   2.0000      -0.613022       -16.6812
  54   2.0000      -0.607998       -16.5445
  55   2.0000      -0.603271       -16.4158
  56   2.0000      -0.597081       -16.2474
  57   2.0000      -0.581797       -15.8315
  58   2.0000      -0.573857       -15.6155
  59   2.0000      -0.570864       -15.5340
  60   2.0000      -0.561687       -15.2843
  61   2.0000      -0.546142       -14.8613
  62   2.0000      -0.540105       -14.6970
  63   2.0000      -0.529038       -14.3958
  64   2.0000      -0.520526       -14.1642
  65   2.0000      -0.516461       -14.0536
  66   2.0000      -0.504129       -13.7180
  67   2.0000      -0.496326       -13.5057
  68   2.0000      -0.483003       -13.1432
  69   2.0000      -0.466489       -12.6938
  70   2.0000      -0.456885       -12.4325
  71   2.0000      -0.445156       -12.1133
  72   2.0000      -0.356931        -9.7126
  73   2.0000      -0.354064        -9.6346
  74   2.0000      -0.331250        -9.0138
  75   2.0000      -0.328159        -8.9297
  76   2.0000      -0.321518        -8.7490
  77   0.0000       0.072439         1.9712
  78   0.0000       0.096024         2.6129
  79   0.0000       0.121389         3.3031
  80   0.0000       0.128107         3.4860
  81   0.0000       0.129706         3.5295

MULLIKEN ATOMIC CHARGES
-----------------------
   0 C :   -0.260722
   1 C :    0.011581
   2 O :   -0.366986
   3 C :    0.466699
   4 O :   -0.386717
   5 C :   -0.276145
   6 C :    0.172079
   7 C :   -0.268056
   8 N :   -0.128001
   9 C :    0.208580
  10 S :   -0.437403
  11 N :   -0.208915
  12 C :    0.048581
  13 C :    0.009281
  14 C :   -0.164263
  15 C :   -0.144691
  16 C :   -0.269601
  17 C :    0.311123
  18 O :   -0.355956
  19 C :   -0.242136
  20 H :    0.094702
  21 H :    0.090290
  22 H :    0.102844
  23 H :    0.102296
  24 H :    0.115504
  25 H :    0.124780
  26 H :    0.137413
  27 H :    0.094459
  28 H :    0.199989
  29 H :    0.200334
  30 H :    0.152690
  31 H :    0.152365
  32 H :    0.166779
  33 H :    0.134796
  34 H :    0.241772
  35 H :    0.170652
Sum of atomic charges:   -0.0000000

LOEWDIN ATOMIC CHARGES
----------------------
   0 C :    0.106558
   1 C :   -0.026509
   2 O :    0.295139
   3 C :   -0.425599
   4 O :    0.124058
   5 C :   -0.105328
   6 C :   -0.057048
   7 C :    0.130073
   8 N :    0.407631
   9 C :   -0.457909
  10 S :   -0.032907
  11 N :    0.395232
  12 C :   -0.053704
  13 C :   -0.042117
  14 C :    0.021413
  15 C :    0.041886
  16 C :    0.000526
  17 C :   -0.192025
  18 O :    0.396295
  19 C :    0.033107
  20 H :   -0.028626
  21 H :   -0.029018
  22 H :   -0.023656
  23 H :   -0.035853
  24 H :   -0.022565
  25 H :   -0.006446
  26 H :   -0.003897
  27 H :   -0.022849
  28 H :   -0.056256
  29 H :   -0.063429
  30 H :   -0.011430
  31 H :   -0.026577
  32 H :   -0.019459
  33 H :   -0.033864
  34 H :   -0.152449
  35 H :   -0.022398

  Mayer bond orders larger than 0.100000
B(  0-C ,  1-C ) :   0.9828 B(  0-C , 20-H ) :   0.9747 B(  0-C , 21-H ) :   0.9769
B(  0-C , 22-H ) :   0.9790 B(  1-C ,  2-O ) :   0.8821 B(  1-C , 23-H ) :   0.9630
B(  1-C , 24-H ) :   0.9775 B(  2-O ,  3-C ) :   1.1134 B(  3-C ,  4-O ) :   2.0628
B(  3-C ,  5-C ) :   1.0246 B(  5-C ,  6-C ) :   1.6416 B(  5-C , 12-C ) :   0.9589
B(  6-C ,  7-C ) :   0.9642 B(  6-C ,  8-N ) :   1.1526 B(  7-C , 25-H ) :   0.9685
B(  7-C , 26-H ) :   0.9541 B(  7-C , 27-H ) :   0.9872 B(  8-N ,  9-C ) :   1.1867
B(  8-N , 28-H ) :   0.9472 B(  9-C , 10-S ) :   1.6129 B(  9-C , 11-N ) :   1.3029
B( 11-N , 12-C ) :   0.9725 B( 11-N , 29-H ) :   0.9483 B( 12-C , 13-C ) :   0.9673
B( 12-C , 30-H ) :   1.0043 B( 13-C , 14-C ) :   1.3473 B( 13-C , 19-C ) :   1.3627
B( 14-C , 15-C ) :   1.3952 B( 14-C , 31-H ) :   0.9752 B( 15-C , 16-C ) :   1.3597
B( 15-C , 32-H ) :   0.9692 B( 16-C , 17-C ) :   1.3304 B( 16-C , 33-H ) :   0.9833
B( 17-C , 18-O ) :   1.1083 B( 17-C , 19-C ) :   1.3640 B( 18-O , 34-H ) :   0.9787
B( 19-C , 35-H ) :   0.9595

MP2 TOTAL ENERGY:    -1274.324869788 Eh
FINAL SINGLE POINT ENERGY     -1274.324869788248

DIPOLE MOMENT
-------------
                                X             Y             Z
Electronic contribution:     10.08601       8.84723       7.73117
Nuclear contribution   :    -11.27005     -10.39888      -7.43637
                        -----------------------------------------
Total Dipole Moment    :     -1.18404      -1.55165       0.29480
                        -----------------------------------------
Magnitude (a.u.)       :      1.97395
Magnitude (Debye)      :      5.01737

Rotational constants in cm-1:     0.011793     0.008974     0.006044
Rotational constants in MHz :   353.556417   269.037966   181.187366

                             ****ORCA TERMINATED NORMALLY****
TOTAL RUN TIME: 0 days 1 hours 57 minutes 55 seconds 937 msec
