                         Program Version 4.2.0 -  RELEASE  -
|  1> ! ri-mp2 cc-pvtz cc-pvtz/c TightSCF NoKeepInts
|  2>
|  3> %scf
|  4>   MaxCore 4096
|  5> end
|  6> *xyz  0  1
|  7>     C       14.8819377   14.8344658   15.6355134
|  8>     C       14.8485233   16.0305588   14.6560875
|  9>     O       16.0640071   16.8192491   14.6326492
| 10>     C       17.0470053   16.6922020   15.5712024
| 11>     O       17.7255808   15.6841224   15.6706823
| 12>     C       17.1447604   17.8380567   16.5349079
| 13>     C       16.9036188   19.1247382   16.1722483
| 14>     C       16.3096545   19.6259825   14.8708110
| 15>     N       17.2581064   20.1803787   17.0160626
| 16>     C       18.0422265   20.0507016   18.1309003
| 17>     S       18.5070467   21.3605985   19.0272234
| 18>     N       18.4388829   18.7775017   18.4541610
| 19>     C       17.9734312   17.5444038   17.7898545
| 20>     C       17.2901435   16.5657646   18.7357517
| 21>     C       17.7189630   15.2286913   18.8154273
| 22>     C       17.0786072   14.3228366   19.6774285
| 23>     C       16.0003511   14.7581057   20.4668269
| 24>     C       15.5691270   16.0894115   20.3872044
| 25>     O       14.5236778   16.5106004   21.1426606
| 26>     C       16.2076893   16.9883548   19.5269463
| 27>     H       15.6632489   14.1169423   15.3540598
| 28>     H       13.9225403   14.3036843   15.6175653
| 29>     H       15.0616258   15.1637687   16.6672828
| 30>     H       14.6412681   15.6620449   13.6430552
| 31>     H       14.0138410   16.6834161   14.9422069
| 32>     H       15.2602761   19.3205215   14.7791018
| 33>     H       16.8570575   19.2205245   14.0103353
| 34>     H       16.3420257   20.7187963   14.7821269
| 35>     H       16.9950348   21.1235446   16.7789646
| 36>     H       19.0008824   18.7072131   19.2931175
| 37>     H       18.9299083   17.1358231   17.4319283
| 38>     H       18.5419272   14.8873587   18.1914537
| 39>     H       17.4157906   13.2889244   19.7258693
| 40>     H       15.5020960   14.0613004   21.1325929
| 41>     H       14.2460240   15.7644554   21.6950757
| 42>     H       15.8601129   18.0149571   19.4787145
| 43> *
| 44>
| 45>                          ****END OF INPUT****

CARTESIAN COORDINATES (ANGSTROEM)
---------------------------------
  C     14.881938   14.834466   15.635513
  C     14.848523   16.030559   14.656087
  O     16.064007   16.819249   14.632649
  C     17.047005   16.692202   15.571202
  O     17.725581   15.684122   15.670682
  C     17.144760   17.838057   16.534908
  C     16.903619   19.124738   16.172248
  C     16.309655   19.625982   14.870811
  N     17.258106   20.180379   17.016063
  C     18.042227   20.050702   18.130900
  S     18.507047   21.360598   19.027223
  N     18.438883   18.777502   18.454161
  C     17.973431   17.544404   17.789855
  C     17.290143   16.565765   18.735752
  C     17.718963   15.228691   18.815427
  C     17.078607   14.322837   19.677429
  C     16.000351   14.758106   20.466827
  C     15.569127   16.089412   20.387204
  O     14.523678   16.510600   21.142661
  C     16.207689   16.988355   19.526946
  H     15.663249   14.116942   15.354060
  H     13.922540   14.303684   15.617565
  H     15.061626   15.163769   16.667283
  H     14.641268   15.662045   13.643055
  H     14.013841   16.683416   14.942207
  H     15.260276   19.320522   14.779102
  H     16.857057   19.220524   14.010335
  H     16.342026   20.718796   14.782127
  H     16.995035   21.123545   16.778965
  H     19.000882   18.707213   19.293118
  H     18.929908   17.135823   17.431928
  H     18.541927   14.887359   18.191454
  H     17.415791   13.288924   19.725869
  H     15.502096   14.061300   21.132593
  H     14.246024   15.764455   21.695076
  H     15.860113   18.014957   19.478714

 Total Charge           Charge          ....    0
 Multiplicity           Mult            ....    1
 Number of Electrons    NEL             ....  154
 Basis Dimension        Dim             ....  828

ORBITAL ENERGIES
----------------

  NO   OCC          E(Eh)            E(eV)
   0   2.0000     -91.888829     -2500.4222
   1   2.0000     -20.594756      -560.4118
   2   2.0000     -20.586886      -560.1976
   3   2.0000     -20.549927      -559.1919
   4   2.0000     -15.629300      -425.2949
   5   2.0000     -15.606591      -424.6769
   6   2.0000     -11.395161      -310.0781
   7   2.0000     -11.383571      -309.7627
   8   2.0000     -11.338102      -308.5254
   9   2.0000     -11.311102      -307.7907
  10   2.0000     -11.307496      -307.6926
  11   2.0000     -11.304791      -307.6190
  12   2.0000     -11.259707      -306.3922
  13   2.0000     -11.259253      -306.3799
  14   2.0000     -11.257881      -306.3425
  15   2.0000     -11.251008      -306.1555
  16   2.0000     -11.241209      -305.8888
  17   2.0000     -11.237242      -305.7809
  18   2.0000     -11.233652      -305.6832
  19   2.0000     -11.228018      -305.5299
  20   2.0000      -8.893907      -242.0155
  21   2.0000      -6.575483      -178.9280
  22   2.0000      -6.573481      -178.8735
  23   2.0000      -6.572892      -178.8575
  24   2.0000      -1.445874       -39.3442
  25   2.0000      -1.414532       -38.4914
  26   2.0000      -1.355468       -36.8842
  27   2.0000      -1.340371       -36.4734
  28   2.0000      -1.237659       -33.6784
  29   2.0000      -1.155285       -31.4369
  30   2.0000      -1.121479       -30.5170
  31   2.0000      -1.043649       -28.3991
  32   2.0000      -1.032917       -28.1071
  33   2.0000      -1.012867       -27.5615
  34   2.0000      -1.000317       -27.2200
  35   2.0000      -0.985272       -26.8106
  36   2.0000      -0.922615       -25.1056
  37   2.0000      -0.896314       -24.3899
  38   2.0000      -0.849219       -23.1084
  39   2.0000      -0.837674       -22.7943
  40   2.0000      -0.831085       -22.6150
  41   2.0000      -0.821284       -22.3483
  42   2.0000      -0.743470       -20.2308
  43   2.0000      -0.729070       -19.8390
  44   2.0000      -0.725738       -19.7483
  45   2.0000      -0.691859       -18.8264
  46   2.0000      -0.685350       -18.6493
  47   2.0000      -0.677128       -18.4256
  48   2.0000      -0.676342       -18.4042
  49   2.0000      -0.664859       -18.0917
  50   2.0000      -0.648749       -17.6534
  51   2.0000      -0.645369       -17.5614
  52   2.0000      -0.633701       -17.2439
  53   2.0000      -0.621880       -16.9222
  54   2.0000      -0.605108       -16.4658
  55   2.0000      -0.600641       -16.3443
  56   2.0000      -0.598180       -16.2773
  57   2.0000      -0.576823       -15.6962
  58   2.0000      -0.574319       -15.6280
  59   2.0000      -0.564651       -15.3649
  60   2.0000      -0.552091       -15.0232
  61   2.0000      -0.547432       -14.8964
  62   2.0000      -0.538834       -14.6624
  63   2.0000      -0.527927       -14.3656
  64   2.0000      -0.517821       -14.0906
  65   2.0000      -0.510764       -13.8986
  66   2.0000      -0.498727       -13.5711
  67   2.0000      -0.494227       -13.4486
  68   2.0000      -0.481022       -13.0893
  69   2.0000      -0.464155       -12.6303
  70   2.0000      -0.456821       -12.4307
  71   2.0000      -0.448648       -12.2083
  72   2.0000      -0.353521        -9.6198
  73   2.0000      -0.347454        -9.4547
  74   2.0000      -0.327936        -8.9236
  75   2.0000      -0.318190        -8.6584
  76   2.0000      -0.317631        -8.6432
  77   0.0000       0.073624         2.0034
  78   0.0000       0.107719         2.9312
  79   0.0000       0.121318         3.3012
  80   0.0000       0.133342         3.6284
  81   0.0000       0.138465         3.7678

MULLIKEN ATOMIC CHARGES
-----------------------
   0 C :   -0.309819
   1 C :    0.055127
   2 O :   -0.383371
   3 C :    0.447603
   4 O :   -0.396331
   5 C :   -0.193821
   6 C :    0.149333
   7 C :   -0.281852
   8 N :   -0.126847
   9 C :    0.207760
  10 S :   -0.441292
  11 N :   -0.213093
  12 C :    0.052459
  13 C :    0.015814
  14 C :   -0.176649
  15 C :   -0.133472
  16 C :   -0.277003
  17 C :    0.311906
  18 O :   -0.358317
  19 C :   -0.245623
  20 H :    0.120145
  21 H :    0.104564
  22 H :    0.111629
  23 H :    0.103241
  24 H :    0.083302
  25 H :    0.123712
  26 H :    0.129988
  27 H :    0.102939
  28 H :    0.198537
  29 H :    0.199688
  30 H :    0.157552
  31 H :    0.164336
  32 H :    0.161353
  33 H :    0.130145
  34 H :    0.240355
  35 H :    0.166002
Sum of atomic charges:    0.0000000

LOEWDIN ATOMIC CHARGES
----------------------
   0 C :    0.107062
   1 C :   -0.012058
   2 O :    0.286545
   3 C :   -0.420272
   4 O :    0.122946
   5 C :   -0.097011
   6 C :   -0.065844
   7 C :    0.126117
   8 N :    0.405530
   9 C :   -0.457924
  10 S :   -0.037053
  11 N :    0.396135
  12 C :   -0.048560
  13 C :   -0.042456
  14 C :    0.024144
  15 C :    0.041021
  16 C :   -0.001335
  17 C :   -0.193342
  18 O :    0.393565
  19 C :    0.028217
  20 H :   -0.022386
  21 H :   -0.024791
  22 H :   -0.024409
  23 H :   -0.024957
  24 H :   -0.033857
  25 H :   -0.010499
  26 H :   -0.007022
  27 H :   -0.020708
  28 H :   -0.058491
  29 H :   -0.063557
  30 H :   -0.007543
  31 H :   -0.023212
  32 H :   -0.020401
  33 H :   -0.035682
  34 H :   -0.154353
  35 H :   -0.023559

  Mayer bond orders larger than 0.100000
B(  0-C ,  1-C ) :   0.9737 B(  0-C , 20-H ) :   0.9710 B(  0-C , 21-H ) :   0.9734
B(  0-C , 22-H ) :   0.9687 B(  1-C ,  2-O ) :   0.9047 B(  1-C , 23-H ) :   0.9798
B(  1-C , 24-H ) :   0.9765 B(  2-O ,  3-C ) :   1.0702 B(  3-C ,  4-O ) :   2.0306
B(  3-C ,  5-C ) :   1.0197 B(  5-C ,  6-C ) :   1.6676 B(  5-C , 12-C ) :   0.9450
B(  6-C ,  7-C ) :   0.9534 B(  6-C ,  8-N ) :   1.1419 B(  7-C , 25-H ) :   0.9664
B(  7-C , 26-H ) :   0.9649 B(  7-C , 27-H ) :   0.9896 B(  8-N ,  9-C ) :   1.1845
B(  8-N , 28-H ) :   0.9472 B(  9-C , 10-S ) :   1.6101 B(  9-C , 11-N ) :   1.3036
B( 11-N , 12-C ) :   0.9796 B( 11-N , 29-H ) :   0.9486 B( 12-C , 13-C ) :   0.9673
B( 12-C , 30-H ) :   0.9963 B( 13-C , 14-C ) :   1.3831 B( 13-C , 19-C ) :   1.3629
B( 14-C , 15-C ) :   1.3963 B( 14-C , 31-H ) :   0.9614 B( 15-C , 16-C ) :   1.3590
B( 15-C , 32-H ) :   0.9709 B( 16-C , 17-C ) :   1.3326 B( 16-C , 33-H ) :   0.9852
B( 17-C , 18-O ) :   1.1057 B( 17-C , 19-C ) :   1.3669 B( 18-O , 34-H ) :   0.9802
B( 19-C , 35-H ) :   0.9592

MP2 TOTAL ENERGY:    -1274.325528597 Eh
FINAL SINGLE POINT ENERGY     -1274.325528596948

DIPOLE MOMENT
-------------
                                X             Y             Z
Electronic contribution:      9.14132       9.97033       8.19797
Nuclear contribution   :    -10.67557     -11.22388      -9.00513
                        -----------------------------------------
Total Dipole Moment    :     -1.53425      -1.25355      -0.80716
                        -----------------------------------------
Magnitude (a.u.)       :      2.13935
Magnitude (Debye)      :      5.43780

Rotational constants in cm-1:     0.011054     0.009191     0.006044
Rotational constants in MHz :   331.394612   275.541214   181.208726

                             ****ORCA TERMINATED NORMALLY****
TOTAL RUN TIME: 0 days 2 hours 0 minutes 5 seconds 88 msec
