                         Program Version 4.2.0 -  RELEASE  -
|  1> ! ri-mp2 cc-pvtz cc-pvtz/c TightSCF NoKeepInts
|  2>
|  3> %scf
|  4>   MaxCore 4096
|  5> end
|  6> *xyz  0  1
|  7>     C       14.2989614   15.2228420   15.9512654
|  8>     C       14.9883130   16.4152113   15.2676485
|  9>     O       16.3389547   16.0031227   14.9696753
| 10>     C       17.4726755   16.5310940   15.5362008
| 11>     O       18.5590415   16.0072303   15.3749883
| 12>     C       17.2914262   17.6818400   16.4673599
| 13>     C       16.9920151   18.9066430   15.9736295
| 14>     C       16.5595572   19.2319975   14.5579679
| 15>     N       17.1308417   20.0489515   16.7636934
| 16>     C       17.7897092   20.0735644   17.9653468
| 17>     S       18.0168344   21.4800528   18.8046160
| 18>     N       18.2714084   18.8717952   18.4257713
| 19>     C       18.0003386   17.5554668   17.8130030
| 20>     C       17.3272916   16.5414345   18.7248392
| 21>     C       17.7710032   15.2071524   18.7442191
| 22>     C       17.1333386   14.2547917   19.5565079
| 23>     C       16.0402505   14.6396809   20.3517729
| 24>     C       15.5913575   15.9673380   20.3276821
| 25>     O       14.5285809   16.3387132   21.0847837
| 26>     C       16.2274356   16.9134113   19.5174214
| 27>     H       14.7958563   14.9828159   16.9004489
| 28>     H       14.3346882   14.3338907   15.3088920
| 29>     H       13.2477732   15.4526961   16.1633263
| 30>     H       14.4626294   16.6481406   14.3325744
| 31>     H       14.9238807   17.2897793   15.9238436
| 32>     H       16.8642891   18.4592898   13.8410179
| 33>     H       17.0124652   20.1691467   14.2094344
| 34>     H       15.4704425   19.3420581   14.4934532
| 35>     H       16.8161180   20.9429355   16.4205205
| 36>     H       18.7499581   18.9169995   19.3168443
| 37>     H       19.0263048   17.2325033   17.5803113
| 38>     H       18.6069458   14.9056884   18.1159141
| 39>     H       17.4841312   13.2240613   19.5627591
| 40>     H       15.5437138   13.9064755   20.9788247
| 41>     H       14.2570775   15.5663564   21.6035322
| 42>     H       15.8613912   17.9348294   19.5079109
| 43> *
| 44>
| 45>                          ****END OF INPUT****

CARTESIAN COORDINATES (ANGSTROEM)
---------------------------------
  C     14.298961   15.222842   15.951265
  C     14.988313   16.415211   15.267648
  O     16.338955   16.003123   14.969675
  C     17.472675   16.531094   15.536201
  O     18.559041   16.007230   15.374988
  C     17.291426   17.681840   16.467360
  C     16.992015   18.906643   15.973629
  C     16.559557   19.231997   14.557968
  N     17.130842   20.048951   16.763693
  C     17.789709   20.073564   17.965347
  S     18.016834   21.480053   18.804616
  N     18.271408   18.871795   18.425771
  C     18.000339   17.555467   17.813003
  C     17.327292   16.541435   18.724839
  C     17.771003   15.207152   18.744219
  C     17.133339   14.254792   19.556508
  C     16.040250   14.639681   20.351773
  C     15.591357   15.967338   20.327682
  O     14.528581   16.338713   21.084784
  C     16.227436   16.913411   19.517421
  H     14.795856   14.982816   16.900449
  H     14.334688   14.333891   15.308892
  H     13.247773   15.452696   16.163326
  H     14.462629   16.648141   14.332574
  H     14.923881   17.289779   15.923844
  H     16.864289   18.459290   13.841018
  H     17.012465   20.169147   14.209434
  H     15.470442   19.342058   14.493453
  H     16.816118   20.942936   16.420520
  H     18.749958   18.916999   19.316844
  H     19.026305   17.232503   17.580311
  H     18.606946   14.905688   18.115914
  H     17.484131   13.224061   19.562759
  H     15.543714   13.906476   20.978825
  H     14.257077   15.566356   21.603532
  H     15.861391   17.934829   19.507911

 Total Charge           Charge          ....    0
 Multiplicity           Mult            ....    1
 Number of Electrons    NEL             ....  154
 Basis Dimension        Dim             ....  828

ORBITAL ENERGIES
----------------

  NO   OCC          E(Eh)            E(eV)
   0   2.0000     -91.889871     -2500.4505
   1   2.0000     -20.605371      -560.7006
   2   2.0000     -20.600231      -560.5608
   3   2.0000     -20.549622      -559.1836
   4   2.0000     -15.627721      -425.2519
   5   2.0000     -15.610057      -424.7712
   6   2.0000     -11.399934      -310.2080
   7   2.0000     -11.386018      -309.8293
   8   2.0000     -11.332227      -308.3656
   9   2.0000     -11.317780      -307.9725
  10   2.0000     -11.311060      -307.7896
  11   2.0000     -11.306226      -307.6580
  12   2.0000     -11.268322      -306.6266
  13   2.0000     -11.265529      -306.5506
  14   2.0000     -11.263173      -306.4865
  15   2.0000     -11.258148      -306.3498
  16   2.0000     -11.246819      -306.0415
  17   2.0000     -11.242892      -305.9346
  18   2.0000     -11.240485      -305.8691
  19   2.0000     -11.230409      -305.5950
  20   2.0000      -8.894977      -242.0446
  21   2.0000      -6.576559      -178.9573
  22   2.0000      -6.574545      -178.9025
  23   2.0000      -6.573964      -178.8867
  24   2.0000      -1.448635       -39.4194
  25   2.0000      -1.419948       -38.6387
  26   2.0000      -1.362214       -37.0677
  27   2.0000      -1.340687       -36.4820
  28   2.0000      -1.239331       -33.7239
  29   2.0000      -1.162252       -31.6265
  30   2.0000      -1.127276       -30.6747
  31   2.0000      -1.049457       -28.5572
  32   2.0000      -1.040100       -28.3025
  33   2.0000      -1.019892       -27.7527
  34   2.0000      -1.006432       -27.3864
  35   2.0000      -0.990240       -26.9458
  36   2.0000      -0.927118       -25.2282
  37   2.0000      -0.886689       -24.1280
  38   2.0000      -0.855149       -23.2698
  39   2.0000      -0.842431       -22.9237
  40   2.0000      -0.837881       -22.7999
  41   2.0000      -0.836116       -22.7519
  42   2.0000      -0.755629       -20.5617
  43   2.0000      -0.740939       -20.1620
  44   2.0000      -0.732346       -19.9282
  45   2.0000      -0.698041       -18.9947
  46   2.0000      -0.690534       -18.7904
  47   2.0000      -0.683096       -18.5880
  48   2.0000      -0.675262       -18.3748
  49   2.0000      -0.662858       -18.0373
  50   2.0000      -0.654650       -17.8139
  51   2.0000      -0.644083       -17.5264
  52   2.0000      -0.637936       -17.3591
  53   2.0000      -0.613977       -16.7072
  54   2.0000      -0.610383       -16.6094
  55   2.0000      -0.607084       -16.5196
  56   2.0000      -0.603276       -16.4160
  57   2.0000      -0.584694       -15.9103
  58   2.0000      -0.578606       -15.7447
  59   2.0000      -0.568810       -15.4781
  60   2.0000      -0.561546       -15.2805
  61   2.0000      -0.556317       -15.1381
  62   2.0000      -0.548210       -14.9175
  63   2.0000      -0.532743       -14.4967
  64   2.0000      -0.520276       -14.1574
  65   2.0000      -0.513607       -13.9760
  66   2.0000      -0.506815       -13.7911
  67   2.0000      -0.501982       -13.6596
  68   2.0000      -0.488792       -13.3007
  69   2.0000      -0.470778       -12.8105
  70   2.0000      -0.452782       -12.3208
  71   2.0000      -0.452294       -12.3075
  72   2.0000      -0.356030        -9.6881
  73   2.0000      -0.352669        -9.5966
  74   2.0000      -0.329397        -8.9634
  75   2.0000      -0.325433        -8.8555
  76   2.0000      -0.319507        -8.6942
  77   0.0000       0.086376         2.3504
  78   0.0000       0.103020         2.8033
  79   0.0000       0.115267         3.1366
  80   0.0000       0.128665         3.5012
  81   0.0000       0.129708         3.5295

MULLIKEN ATOMIC CHARGES
-----------------------
   0 C :   -0.261612
   1 C :    0.024250
   2 O :   -0.313433
   3 C :    0.410703
   4 O :   -0.384851
   5 C :   -0.212757
   6 C :    0.147904
   7 C :   -0.324610
   8 N :   -0.139380
   9 C :    0.210183
  10 S :   -0.442606
  11 N :   -0.223273
  12 C :    0.061033
  13 C :    0.022196
  14 C :   -0.220626
  15 C :   -0.128394
  16 C :   -0.277779
  17 C :    0.313199
  18 O :   -0.356289
  19 C :   -0.247747
  20 H :    0.108769
  21 H :    0.104303
  22 H :    0.087005
  23 H :    0.106670
  24 H :    0.096615
  25 H :    0.132925
  26 H :    0.128998
  27 H :    0.123327
  28 H :    0.198243
  29 H :    0.202194
  30 H :    0.168227
  31 H :    0.174749
  32 H :    0.164811
  33 H :    0.132204
  34 H :    0.241466
  35 H :    0.173383
Sum of atomic charges:   -0.0000000

LOEWDIN ATOMIC CHARGES
----------------------
   0 C :    0.108057
   1 C :   -0.021145
   2 O :    0.311319
   3 C :   -0.417540
   4 O :    0.118237
   5 C :   -0.085501
   6 C :   -0.094015
   7 C :    0.127394
   8 N :    0.402172
   9 C :   -0.455639
  10 S :   -0.038210
  11 N :    0.396034
  12 C :   -0.049865
  13 C :   -0.044262
  14 C :    0.019583
  15 C :    0.044863
  16 C :   -0.000251
  17 C :   -0.191062
  18 O :    0.395429
  19 C :    0.027112
  20 H :   -0.022989
  21 H :   -0.024216
  22 H :   -0.026716
  23 H :   -0.029862
  24 H :   -0.039024
  25 H :   -0.006419
  26 H :   -0.011026
  27 H :   -0.016381
  28 H :   -0.057748
  29 H :   -0.063813
  30 H :   -0.003867
  31 H :   -0.021369
  32 H :   -0.018356
  33 H :   -0.034619
  34 H :   -0.153044
  35 H :   -0.023263

  Mayer bond orders larger than 0.100000
B(  0-C ,  1-C ) :   0.9818 B(  0-C , 20-H ) :   0.9717 B(  0-C , 21-H ) :   0.9796
B(  0-C , 22-H ) :   0.9756 B(  1-C ,  2-O ) :   0.9007 B(  1-C , 23-H ) :   0.9776
B(  1-C , 24-H ) :   0.9583 B(  2-O ,  3-C ) :   1.1878 B(  3-C ,  4-O ) :   2.0984
B(  3-C ,  5-C ) :   0.9221 B(  5-C ,  6-C ) :   1.7195 B(  5-C , 12-C ) :   0.9387
B(  6-C ,  7-C ) :   0.9369 B(  6-C ,  8-N ) :   1.1073 B(  7-C , 25-H ) :   0.9753
B(  7-C , 26-H ) :   0.9789 B(  7-C , 27-H ) :   0.9650 B(  8-N ,  9-C ) :   1.1971
B(  8-N , 28-H ) :   0.9506 B(  9-C , 10-S ) :   1.6101 B(  9-C , 11-N ) :   1.2899
B( 11-N , 12-C ) :   0.9844 B( 11-N , 29-H ) :   0.9475 B( 12-C , 13-C ) :   0.9669
B( 12-C , 30-H ) :   0.9893 B( 13-C , 14-C ) :   1.3848 B( 13-C , 19-C ) :   1.3546
B( 14-C , 15-C ) :   1.3936 B( 14-C , 31-H ) :   0.9603 B( 15-C , 16-C ) :   1.3615
B( 15-C , 32-H ) :   0.9698 B( 16-C , 17-C ) :   1.3303 B( 16-C , 33-H ) :   0.9849
B( 17-C , 18-O ) :   1.1094 B( 17-C , 19-C ) :   1.3666 B( 18-O , 34-H ) :   0.9792
B( 19-C , 35-H ) :   0.9561

MP2 TOTAL ENERGY:    -1274.331164548 Eh
FINAL SINGLE POINT ENERGY     -1274.331164547958

DIPOLE MOMENT
-------------
                                X             Y             Z
Electronic contribution:      9.83475       8.40924       7.21904
Nuclear contribution   :    -11.53639      -9.51410      -7.63143
                        -----------------------------------------
Total Dipole Moment    :     -1.70164      -1.10487      -0.41239
                        -----------------------------------------
Magnitude (a.u.)       :      2.07036
Magnitude (Debye)      :      5.26244

Rotational constants in cm-1:     0.011505     0.009021     0.006372
Rotational constants in MHz :   344.921834   270.455881   191.019812

                             ****ORCA TERMINATED NORMALLY****
TOTAL RUN TIME: 0 days 1 hours 42 minutes 30 seconds 979 msec
