                         Program Version 4.2.0 -  RELEASE  -
|  1> ! ri-mp2 cc-pvtz cc-pvtz/c TightSCF NoKeepInts
|  2>
|  3> %scf
|  4>   MaxCore 4096
|  5> end
|  6> *xyz  0  1
|  7>     C       14.4878045   15.3462701   16.1836871
|  8>     C       14.9745704   16.4075173   15.1809969
|  9>     O       16.3325253   16.0788132   14.8198601
| 10>     C       17.4434616   16.5278207   15.4901994
| 11>     O       18.5132885   15.9575904   15.3840471
| 12>     C       17.2530444   17.6691183   16.4344309
| 13>     C       16.9642948   18.9025378   15.9522538
| 14>     C       16.5688231   19.2581886   14.5322003
| 15>     N       17.1001819   20.0353100   16.7566480
| 16>     C       17.7569950   20.0475402   17.9590967
| 17>     S       17.9878118   21.4456497   18.8112576
| 18>     N       18.2367259   18.8408284   18.4066954
| 19>     C       17.9570296   17.5312738   17.7839860
| 20>     C       17.2874897   16.5144199   18.6951337
| 21>     C       17.7257673   15.1781818   18.7026247
| 22>     C       17.0940875   14.2245184   19.5180283
| 23>     C       16.0132814   14.6103092   20.3294779
| 24>     C       15.5708547   15.9403054   20.3188238
| 25>     O       14.5201079   16.3126740   21.0919825
| 26>     C       16.2007087   16.8876640   19.5051820
| 27>     H       15.0726574   15.3847925   17.1106559
| 28>     H       14.5850476   14.3392588   15.7587014
| 29>     H       13.4339912   15.5106489   16.4390680
| 30>     H       14.3450724   16.3499783   14.2835168
| 31>     H       14.8610785   17.4107303   15.6043038
| 32>     H       16.8572043   18.4841707   13.8102942
| 33>     H       17.0633290   20.1812049   14.2029083
| 34>     H       15.4862788   19.4115075   14.4485955
| 35>     H       16.7891047   20.9334897   16.4212202
| 36>     H       18.7157221   18.8759368   19.2979829
| 37>     H       18.9824736   17.2070688   17.5508908
| 38>     H       18.5528947   14.8764134   18.0628025
| 39>     H       17.4403752   13.1922471   19.5146283
| 40>     H       15.5214957   13.8761165   20.9591255
| 41>     H       14.2517246   15.5389527   21.6103221
| 42>     H       15.8396963   17.9109515   19.5063717
| 43> *
| 44>
| 45>                          ****END OF INPUT****

CARTESIAN COORDINATES (ANGSTROEM)
---------------------------------
  C     14.487804   15.346270   16.183687
  C     14.974570   16.407517   15.180997
  O     16.332525   16.078813   14.819860
  C     17.443462   16.527821   15.490199
  O     18.513288   15.957590   15.384047
  C     17.253044   17.669118   16.434431
  C     16.964295   18.902538   15.952254
  C     16.568823   19.258189   14.532200
  N     17.100182   20.035310   16.756648
  C     17.756995   20.047540   17.959097
  S     17.987812   21.445650   18.811258
  N     18.236726   18.840828   18.406695
  C     17.957030   17.531274   17.783986
  C     17.287490   16.514420   18.695134
  C     17.725767   15.178182   18.702625
  C     17.094088   14.224518   19.518028
  C     16.013281   14.610309   20.329478
  C     15.570855   15.940305   20.318824
  O     14.520108   16.312674   21.091983
  C     16.200709   16.887664   19.505182
  H     15.072657   15.384792   17.110656
  H     14.585048   14.339259   15.758701
  H     13.433991   15.510649   16.439068
  H     14.345072   16.349978   14.283517
  H     14.861078   17.410730   15.604304
  H     16.857204   18.484171   13.810294
  H     17.063329   20.181205   14.202908
  H     15.486279   19.411507   14.448595
  H     16.789105   20.933490   16.421220
  H     18.715722   18.875937   19.297983
  H     18.982474   17.207069   17.550891
  H     18.552895   14.876413   18.062802
  H     17.440375   13.192247   19.514628
  H     15.521496   13.876117   20.959125
  H     14.251725   15.538953   21.610322
  H     15.839696   17.910951   19.506372

 Total Charge           Charge          ....    0
 Multiplicity           Mult            ....    1
 Number of Electrons    NEL             ....  154
 Basis Dimension        Dim             ....  828

ORBITAL ENERGIES
----------------

  NO   OCC          E(Eh)            E(eV)
   0   2.0000     -91.890154     -2500.4582
   1   2.0000     -20.603711      -560.6555
   2   2.0000     -20.600102      -560.5573
   3   2.0000     -20.550059      -559.1955
   4   2.0000     -15.628275      -425.2670
   5   2.0000     -15.610002      -424.7698
   6   2.0000     -11.399944      -310.2083
   7   2.0000     -11.386102      -309.8316
   8   2.0000     -11.334165      -308.4183
   9   2.0000     -11.317685      -307.9699
  10   2.0000     -11.310680      -307.7793
  11   2.0000     -11.306345      -307.6613
  12   2.0000     -11.267855      -306.6139
  13   2.0000     -11.265148      -306.5403
  14   2.0000     -11.264261      -306.5161
  15   2.0000     -11.258053      -306.3472
  16   2.0000     -11.246847      -306.0423
  17   2.0000     -11.242658      -305.9283
  18   2.0000     -11.240110      -305.8589
  19   2.0000     -11.228657      -305.5473
  20   2.0000      -8.895257      -242.0522
  21   2.0000      -6.576837      -178.9648
  22   2.0000      -6.574825      -178.9101
  23   2.0000      -6.574242      -178.8942
  24   2.0000      -1.448562       -39.4174
  25   2.0000      -1.419834       -38.6356
  26   2.0000      -1.362010       -37.0622
  27   2.0000      -1.341362       -36.5003
  28   2.0000      -1.239732       -33.7348
  29   2.0000      -1.162086       -31.6220
  30   2.0000      -1.127064       -30.6690
  31   2.0000      -1.049235       -28.5511
  32   2.0000      -1.037782       -28.2395
  33   2.0000      -1.019811       -27.7505
  34   2.0000      -1.006612       -27.3913
  35   2.0000      -0.990374       -26.9494
  36   2.0000      -0.927143       -25.2288
  37   2.0000      -0.890123       -24.2215
  38   2.0000      -0.854749       -23.2589
  39   2.0000      -0.842437       -22.9239
  40   2.0000      -0.837464       -22.7886
  41   2.0000      -0.834749       -22.7147
  42   2.0000      -0.751867       -20.4593
  43   2.0000      -0.740875       -20.1602
  44   2.0000      -0.732303       -19.9270
  45   2.0000      -0.697711       -18.9857
  46   2.0000      -0.690011       -18.7762
  47   2.0000      -0.682621       -18.5751
  48   2.0000      -0.675664       -18.3857
  49   2.0000      -0.662707       -18.0332
  50   2.0000      -0.654481       -17.8093
  51   2.0000      -0.643706       -17.5161
  52   2.0000      -0.637556       -17.3488
  53   2.0000      -0.618099       -16.8193
  54   2.0000      -0.611544       -16.6409
  55   2.0000      -0.607853       -16.5405
  56   2.0000      -0.603139       -16.4122
  57   2.0000      -0.585951       -15.9445
  58   2.0000      -0.577956       -15.7270
  59   2.0000      -0.567874       -15.4526
  60   2.0000      -0.562749       -15.3132
  61   2.0000      -0.553918       -15.0729
  62   2.0000      -0.545853       -14.8534
  63   2.0000      -0.534555       -14.5460
  64   2.0000      -0.520668       -14.1681
  65   2.0000      -0.512558       -13.9474
  66   2.0000      -0.506050       -13.7703
  67   2.0000      -0.501878       -13.6568
  68   2.0000      -0.486486       -13.2380
  69   2.0000      -0.469927       -12.7874
  70   2.0000      -0.454725       -12.3737
  71   2.0000      -0.450324       -12.2539
  72   2.0000      -0.356957        -9.7133
  73   2.0000      -0.352582        -9.5942
  74   2.0000      -0.329652        -8.9703
  75   2.0000      -0.325450        -8.8559
  76   2.0000      -0.320141        -8.7115
  77   0.0000       0.084562         2.3011
  78   0.0000       0.103465         2.8154
  79   0.0000       0.115581         3.1451
  80   0.0000       0.128915         3.5080
  81   0.0000       0.129143         3.5142

MULLIKEN ATOMIC CHARGES
-----------------------
   0 C :   -0.277957
   1 C :    0.025581
   2 O :   -0.323064
   3 C :    0.419253
   4 O :   -0.383138
   5 C :   -0.215246
   6 C :    0.141190
   7 C :   -0.324682
   8 N :   -0.137769
   9 C :    0.209354
  10 S :   -0.442117
  11 N :   -0.223196
  12 C :    0.061837
  13 C :   -0.008274
  14 C :   -0.203902
  15 C :   -0.132748
  16 C :   -0.270985
  17 C :    0.306964
  18 O :   -0.357019
  19 C :   -0.227289
  20 H :    0.111692
  21 H :    0.108108
  22 H :    0.092144
  23 H :    0.116258
  24 H :    0.090106
  25 H :    0.135492
  26 H :    0.129870
  27 H :    0.123064
  28 H :    0.197889
  29 H :    0.202854
  30 H :    0.167918
  31 H :    0.176517
  32 H :    0.164142
  33 H :    0.132678
  34 H :    0.241361
  35 H :    0.173116
Sum of atomic charges:   -0.0000000

LOEWDIN ATOMIC CHARGES
----------------------
   0 C :    0.107817
   1 C :   -0.022579
   2 O :    0.307166
   3 C :   -0.416487
   4 O :    0.119442
   5 C :   -0.086048
   6 C :   -0.091495
   7 C :    0.126541
   8 N :    0.402629
   9 C :   -0.456635
  10 S :   -0.037729
  11 N :    0.396246
  12 C :   -0.049415
  13 C :   -0.045917
  14 C :    0.019459
  15 C :    0.044957
  16 C :    0.000105
  17 C :   -0.191280
  18 O :    0.395769
  19 C :    0.027161
  20 H :   -0.025629
  21 H :   -0.023292
  22 H :   -0.026520
  23 H :   -0.024385
  24 H :   -0.039762
  25 H :   -0.006744
  26 H :   -0.011029
  27 H :   -0.017101
  28 H :   -0.057268
  29 H :   -0.063544
  30 H :   -0.004092
  31 H :   -0.021247
  32 H :   -0.018331
  33 H :   -0.034517
  34 H :   -0.153031
  35 H :   -0.023213

  Mayer bond orders larger than 0.100000
B(  0-C ,  1-C ) :   0.9788 B(  0-C , 20-H ) :   0.9676 B(  0-C , 21-H ) :   0.9784
B(  0-C , 22-H ) :   0.9760 B(  1-C ,  2-O ) :   0.8955 B(  1-C , 23-H ) :   0.9808
B(  1-C , 24-H ) :   0.9621 B(  2-O ,  3-C ) :   1.1736 B(  3-C ,  4-O ) :   2.0951
B(  3-C ,  5-C ) :   0.9223 B(  5-C ,  6-C ) :   1.7213 B(  5-C , 12-C ) :   0.9363
B(  6-C ,  7-C ) :   0.9366 B(  6-C ,  8-N ) :   1.1091 B(  7-C , 25-H ) :   0.9738
B(  7-C , 26-H ) :   0.9782 B(  7-C , 27-H ) :   0.9655 B(  8-N ,  9-C ) :   1.1958
B(  8-N , 28-H ) :   0.9505 B(  9-C , 10-S ) :   1.6108 B(  9-C , 11-N ) :   1.2912
B( 11-N , 12-C ) :   0.9831 B( 11-N , 29-H ) :   0.9474 B( 12-C , 13-C ) :   0.9686
B( 12-C , 30-H ) :   0.9896 B( 13-C , 14-C ) :   1.3905 B( 13-C , 19-C ) :   1.3567
B( 14-C , 15-C ) :   1.3928 B( 14-C , 31-H ) :   0.9586 B( 15-C , 16-C ) :   1.3608
B( 15-C , 32-H ) :   0.9703 B( 16-C , 17-C ) :   1.3318 B( 16-C , 33-H ) :   0.9845
B( 17-C , 18-O ) :   1.1100 B( 17-C , 19-C ) :   1.3658 B( 18-O , 34-H ) :   0.9792
B( 19-C , 35-H ) :   0.9566

MP2 TOTAL ENERGY:    -1274.332049211 Eh
FINAL SINGLE POINT ENERGY     -1274.332049210560

DIPOLE MOMENT
-------------
                                X             Y             Z
Electronic contribution:      9.30234       8.11959       6.70999
Nuclear contribution   :    -10.97561      -9.20887      -7.12652
                        -----------------------------------------
Total Dipole Moment    :     -1.67326      -1.08928      -0.41653
                        -----------------------------------------
Magnitude (a.u.)       :      2.03957
Magnitude (Debye)      :      5.18418

Rotational constants in cm-1:     0.011638     0.009124     0.006400
Rotational constants in MHz :   348.908854   273.538856   191.872478

                             ****ORCA TERMINATED NORMALLY****
TOTAL RUN TIME: 0 days 1 hours 44 minutes 53 seconds 881 msec
