                         Program Version 4.2.0 -  RELEASE  -
|  1> ! ri-mp2 cc-pvtz cc-pvtz/c TightSCF NoKeepInts
|  2>
|  3> %scf
|  4>   MaxCore 4096
|  5> end
|  6> *xyz  0  1
|  7>     C       14.5586999   16.0297365   16.4919250
|  8>     C       15.2311193   15.9110307   15.1088354
|  9>     O       16.6414173   15.6374421   15.2351400
| 10>     C       17.5942517   16.5974145   15.4519875
| 11>     O       18.7205120   16.4963174   15.0044381
| 12>     C       17.2318253   17.6744302   16.4092914
| 13>     C       16.9042121   18.8925841   15.9223689
| 14>     C       16.5359333   19.2160736   14.4889719
| 15>     N       16.9158676   20.0205889   16.7444036
| 16>     C       17.5031475   20.0565529   17.9823015
| 17>     S       17.5960174   21.4528590   18.8633281
| 18>     N       18.0329596   18.8755021   18.4436849
| 19>     C       17.8632432   17.5584753   17.7962718
| 20>     C       17.2389276   16.4794560   18.6686706
| 21>     C       17.7063530   15.1551021   18.5903937
| 22>     C       17.1250421   14.1450331   19.3747351
| 23>     C       16.0667445   14.4619059   20.2434656
| 24>     C       15.5972306   15.7802253   20.3214376
| 25>     O       14.5690431   16.0868472   21.1516359
| 26>     C       16.1774103   16.7841716   19.5394356
| 27>     H       14.9016189   15.2291860   17.1598776
| 28>     H       13.4703440   15.9394209   16.3915813
| 29>     H       14.7623188   16.9949311   16.9675027
| 30>     H       14.7695628   15.0657532   14.5818019
| 31>     H       15.0510065   16.8102764   14.5073256
| 32>     H       16.9745536   18.5056575   13.7767697
| 33>     H       16.9038888   20.2081092   14.1972792
| 34>     H       15.4480672   19.2078514   14.3518317
| 35>     H       16.5667146   20.9011990   16.4003683
| 36>     H       18.4617037   18.9292290   19.3592657
| 37>     H       18.9179791   17.3076477   17.6069682
| 38>     H       18.5182139   14.9064373   17.9101475
| 39>     H       17.4930903   13.1227497   19.3043398
| 40>     H       15.6138154   13.6841874   20.8495636
| 41>     H       14.3307836   15.2789494   21.6309711
| 42>     H       15.7933814   17.7966663   19.6096838
| 43> *
| 44>
| 45>                          ****END OF INPUT****

CARTESIAN COORDINATES (ANGSTROEM)
---------------------------------
  C     14.558700   16.029736   16.491925
  C     15.231119   15.911031   15.108835
  O     16.641417   15.637442   15.235140
  C     17.594252   16.597414   15.451987
  O     18.720512   16.496317   15.004438
  C     17.231825   17.674430   16.409291
  C     16.904212   18.892584   15.922369
  C     16.535933   19.216074   14.488972
  N     16.915868   20.020589   16.744404
  C     17.503148   20.056553   17.982301
  S     17.596017   21.452859   18.863328
  N     18.032960   18.875502   18.443685
  C     17.863243   17.558475   17.796272
  C     17.238928   16.479456   18.668671
  C     17.706353   15.155102   18.590394
  C     17.125042   14.145033   19.374735
  C     16.066744   14.461906   20.243466
  C     15.597231   15.780225   20.321438
  O     14.569043   16.086847   21.151636
  C     16.177410   16.784172   19.539436
  H     14.901619   15.229186   17.159878
  H     13.470344   15.939421   16.391581
  H     14.762319   16.994931   16.967503
  H     14.769563   15.065753   14.581802
  H     15.051006   16.810276   14.507326
  H     16.974554   18.505657   13.776770
  H     16.903889   20.208109   14.197279
  H     15.448067   19.207851   14.351832
  H     16.566715   20.901199   16.400368
  H     18.461704   18.929229   19.359266
  H     18.917979   17.307648   17.606968
  H     18.518214   14.906437   17.910148
  H     17.493090   13.122750   19.304340
  H     15.613815   13.684187   20.849564
  H     14.330784   15.278949   21.630971
  H     15.793381   17.796666   19.609684

 Total Charge           Charge          ....    0
 Multiplicity           Mult            ....    1
 Number of Electrons    NEL             ....  154
 Basis Dimension        Dim             ....  828

ORBITAL ENERGIES
----------------

  NO   OCC          E(Eh)            E(eV)
   0   2.0000     -91.888611     -2500.4162
   1   2.0000     -20.600538      -560.5691
   2   2.0000     -20.598938      -560.5256
   3   2.0000     -20.557736      -559.4044
   4   2.0000     -15.624512      -425.1646
   5   2.0000     -15.609936      -424.7680
   6   2.0000     -11.399787      -310.2040
   7   2.0000     -11.384755      -309.7949
   8   2.0000     -11.325759      -308.1896
   9   2.0000     -11.318239      -307.9849
  10   2.0000     -11.314652      -307.8873
  11   2.0000     -11.309363      -307.7434
  12   2.0000     -11.266669      -306.5817
  13   2.0000     -11.265966      -306.5625
  14   2.0000     -11.260327      -306.4091
  15   2.0000     -11.259516      -306.3870
  16   2.0000     -11.247562      -306.0617
  17   2.0000     -11.242718      -305.9299
  18   2.0000     -11.242411      -305.9216
  19   2.0000     -11.228102      -305.5322
  20   2.0000      -8.893720      -242.0104
  21   2.0000      -6.575305      -178.9232
  22   2.0000      -6.573289      -178.8683
  23   2.0000      -6.572712      -178.8526
  24   2.0000      -1.449931       -39.4546
  25   2.0000      -1.420268       -38.6474
  26   2.0000      -1.364835       -37.1390
  27   2.0000      -1.338605       -36.4253
  28   2.0000      -1.238253       -33.6946
  29   2.0000      -1.162732       -31.6395
  30   2.0000      -1.126609       -30.6566
  31   2.0000      -1.049328       -28.5537
  32   2.0000      -1.037668       -28.2364
  33   2.0000      -1.020674       -27.7739
  34   2.0000      -1.006159       -27.3790
  35   2.0000      -0.989903       -26.9366
  36   2.0000      -0.926937       -25.2232
  37   2.0000      -0.894629       -24.3441
  38   2.0000      -0.852183       -23.1891
  39   2.0000      -0.842056       -22.9135
  40   2.0000      -0.838206       -22.8087
  41   2.0000      -0.831735       -22.6327
  42   2.0000      -0.753791       -20.5117
  43   2.0000      -0.738556       -20.0971
  44   2.0000      -0.732585       -19.9347
  45   2.0000      -0.698568       -19.0090
  46   2.0000      -0.691886       -18.8272
  47   2.0000      -0.681381       -18.5413
  48   2.0000      -0.674971       -18.3669
  49   2.0000      -0.666086       -18.1251
  50   2.0000      -0.651770       -17.7356
  51   2.0000      -0.644072       -17.5261
  52   2.0000      -0.637445       -17.3458
  53   2.0000      -0.614708       -16.7271
  54   2.0000      -0.609603       -16.5881
  55   2.0000      -0.606766       -16.5109
  56   2.0000      -0.604156       -16.4399
  57   2.0000      -0.588273       -16.0077
  58   2.0000      -0.580370       -15.7927
  59   2.0000      -0.577332       -15.7100
  60   2.0000      -0.564173       -15.3519
  61   2.0000      -0.559688       -15.2299
  62   2.0000      -0.540581       -14.7100
  63   2.0000      -0.528833       -14.3903
  64   2.0000      -0.520161       -14.1543
  65   2.0000      -0.513564       -13.9748
  66   2.0000      -0.503805       -13.7092
  67   2.0000      -0.502563       -13.6754
  68   2.0000      -0.490142       -13.3374
  69   2.0000      -0.463465       -12.6115
  70   2.0000      -0.456835       -12.4311
  71   2.0000      -0.454487       -12.3672
  72   2.0000      -0.355736        -9.6801
  73   2.0000      -0.350012        -9.5243
  74   2.0000      -0.328313        -8.9339
  75   2.0000      -0.326295        -8.8789
  76   2.0000      -0.318329        -8.6622
  77   0.0000       0.092934         2.5289
  78   0.0000       0.104461         2.8425
  79   0.0000       0.115710         3.1486
  80   0.0000       0.128601         3.4994
  81   0.0000       0.128817         3.5053

MULLIKEN ATOMIC CHARGES
-----------------------
   0 C :   -0.314566
   1 C :    0.024795
   2 O :   -0.320660
   3 C :    0.410122
   4 O :   -0.370930
   5 C :   -0.198730
   6 C :    0.153602
   7 C :   -0.335911
   8 N :   -0.139360
   9 C :    0.215121
  10 S :   -0.444679
  11 N :   -0.236125
  12 C :    0.063638
  13 C :    0.023810
  14 C :   -0.214764
  15 C :   -0.133213
  16 C :   -0.278588
  17 C :    0.317244
  18 O :   -0.355757
  19 C :   -0.247144
  20 H :    0.120949
  21 H :    0.111964
  22 H :    0.105854
  23 H :    0.127843
  24 H :    0.084855
  25 H :    0.130445
  26 H :    0.124759
  27 H :    0.123860
  28 H :    0.196685
  29 H :    0.205154
  30 H :    0.170331
  31 H :    0.162426
  32 H :    0.164197
  33 H :    0.132898
  34 H :    0.241360
  35 H :    0.178515
Sum of atomic charges:   -0.0000000

LOEWDIN ATOMIC CHARGES
----------------------
   0 C :    0.102688
   1 C :   -0.019868
   2 O :    0.302682
   3 C :   -0.419761
   4 O :    0.131296
   5 C :   -0.078491
   6 C :   -0.098916
   7 C :    0.124298
   8 N :    0.401719
   9 C :   -0.454859
  10 S :   -0.039826
  11 N :    0.396647
  12 C :   -0.049847
  13 C :   -0.041898
  14 C :    0.018735
  15 C :    0.044816
  16 C :   -0.000631
  17 C :   -0.190711
  18 O :    0.396616
  19 C :    0.030944
  20 H :   -0.019878
  21 H :   -0.026697
  22 H :   -0.036016
  23 H :   -0.019152
  24 H :   -0.036793
  25 H :   -0.007732
  26 H :   -0.011826
  27 H :   -0.018453
  28 H :   -0.058730
  29 H :   -0.064246
  30 H :   -0.003367
  31 H :   -0.023428
  32 H :   -0.018307
  33 H :   -0.034485
  34 H :   -0.153031
  35 H :   -0.023489

  Mayer bond orders larger than 0.100000
B(  0-C ,  1-C ) :   0.9579 B(  0-C , 20-H ) :   0.9694 B(  0-C , 21-H ) :   0.9768
B(  0-C , 22-H ) :   0.9712 B(  1-C ,  2-O ) :   0.9057 B(  1-C , 23-H ) :   0.9847
B(  1-C , 24-H ) :   0.9780 B(  2-O ,  3-C ) :   1.1508 B(  3-C ,  4-O ) :   2.1235
B(  3-C ,  5-C ) :   0.9022 B(  5-C ,  6-C ) :   1.7278 B(  5-C , 12-C ) :   0.9358
B(  6-C ,  7-C ) :   0.9252 B(  6-C ,  8-N ) :   1.1032 B(  7-C , 25-H ) :   0.9763
B(  7-C , 26-H ) :   0.9793 B(  7-C , 27-H ) :   0.9683 B(  8-N ,  9-C ) :   1.2048
B(  8-N , 28-H ) :   0.9519 B(  9-C , 10-S ) :   1.6062 B(  9-C , 11-N ) :   1.2845
B( 11-N , 12-C ) :   0.9722 B( 11-N , 29-H ) :   0.9458 B( 12-C , 13-C ) :   0.9660
B( 12-C , 30-H ) :   0.9908 B( 13-C , 14-C ) :   1.3798 B( 13-C , 19-C ) :   1.3454
B( 14-C , 15-C ) :   1.4022 B( 14-C , 31-H ) :   0.9675 B( 15-C , 16-C ) :   1.3584
B( 15-C , 32-H ) :   0.9697 B( 16-C , 17-C ) :   1.3316 B( 16-C , 33-H ) :   0.9846
B( 17-C , 18-O ) :   1.1106 B( 17-C , 19-C ) :   1.3644 B( 18-O , 34-H ) :   0.9792
B( 19-C , 35-H ) :   0.9554

MP2 TOTAL ENERGY:    -1274.320448873 Eh
FINAL SINGLE POINT ENERGY     -1274.320448873088

DIPOLE MOMENT
-------------
                                X             Y             Z
Electronic contribution:      8.72866       7.09538       6.67012
Nuclear contribution   :    -10.36100      -8.58516      -7.16634
                        -----------------------------------------
Total Dipole Moment    :     -1.63234      -1.48978      -0.49622
                        -----------------------------------------
Magnitude (a.u.)       :      2.26499
Magnitude (Debye)      :      5.75716

Rotational constants in cm-1:     0.011953     0.009223     0.006448
Rotational constants in MHz :   358.338988   276.495741   193.293760

                             ****ORCA TERMINATED NORMALLY****
TOTAL RUN TIME: 0 days 1 hours 43 minutes 49 seconds 764 msec
