                         Program Version 4.2.0 -  RELEASE  -
|  1> ! ri-mp2 cc-pvtz cc-pvtz/c TightSCF NoKeepInts
|  2>
|  3> %scf
|  4>   MaxCore 4096
|  5> end
|  6> *xyz  0  1
|  7>     C       15.0621449   14.2501997   16.5292699
|  8>     C       15.1585579   15.5768382   15.7570245
|  9>     O       16.5271104   15.7867334   15.3696540
| 10>     C       16.9023057   17.0612901   15.0662227
| 11>     O       17.0072494   17.3872861   13.8983545
| 12>     C       17.0851174   17.9989796   16.2313274
| 13>     C       17.1381751   19.3364062   15.9942808
| 14>     C       16.6335623   20.0685911   14.7673020
| 15>     N       17.6697595   20.2213300   16.9337520
| 16>     C       18.4011510   19.8365577   18.0229705
| 17>     S       19.1225752   20.9330737   19.0291618
| 18>     N       18.5302501   18.4858078   18.2194751
| 19>     C       17.8088247   17.4385700   17.4713022
| 20>     C       17.0120943   16.5475741   18.4106794
| 21>     C       17.5914435   15.3769164   18.9349136
| 22>     C       16.8923282   14.5902778   19.8665166
| 23>     C       15.6063162   14.9801372   20.2789441
| 24>     C       15.0354741   16.1554840   19.7714695
| 25>     O       13.7979935   16.5394552   20.1729713
| 26>     C       15.7374448   16.9417600   18.8524639
| 27>     H       15.2798141   13.4061589   15.8633364
| 28>     H       14.0530026   14.1139407   16.9361979
| 29>     H       15.7726897   14.2152871   17.3577877
| 30>     H       14.5139668   15.5485836   14.8683995
| 31>     H       14.8090443   16.3911883   16.4038218
| 32>     H       17.3766255   20.0227910   13.9603240
| 33>     H       16.4132186   21.1246289   14.9635053
| 34>     H       15.7108764   19.6122059   14.3875851
| 35>     H       17.6157447   21.2147102   16.7737769
| 36>     H       19.0563117   18.2322564   19.0463352
| 37>     H       18.6706515   16.8891396   17.0657457
| 38>     H       18.5882385   15.0772074   18.6215993
| 39>     H       17.3464209   13.6840786   20.2643727
| 40>     H       15.0614292   14.3739660   20.9954072
| 41>     H       13.5064399   15.9160770   20.8558229
| 42>     H       15.2926474   17.8645122   18.4959268
| 43> *
| 44>
| 45>                          ****END OF INPUT****

CARTESIAN COORDINATES (ANGSTROEM)
---------------------------------
  C     15.062145   14.250200   16.529270
  C     15.158558   15.576838   15.757024
  O     16.527110   15.786733   15.369654
  C     16.902306   17.061290   15.066223
  O     17.007249   17.387286   13.898354
  C     17.085117   17.998980   16.231327
  C     17.138175   19.336406   15.994281
  C     16.633562   20.068591   14.767302
  N     17.669760   20.221330   16.933752
  C     18.401151   19.836558   18.022970
  S     19.122575   20.933074   19.029162
  N     18.530250   18.485808   18.219475
  C     17.808825   17.438570   17.471302
  C     17.012094   16.547574   18.410679
  C     17.591444   15.376916   18.934914
  C     16.892328   14.590278   19.866517
  C     15.606316   14.980137   20.278944
  C     15.035474   16.155484   19.771469
  O     13.797993   16.539455   20.172971
  C     15.737445   16.941760   18.852464
  H     15.279814   13.406159   15.863336
  H     14.053003   14.113941   16.936198
  H     15.772690   14.215287   17.357788
  H     14.513967   15.548584   14.868400
  H     14.809044   16.391188   16.403822
  H     17.376625   20.022791   13.960324
  H     16.413219   21.124629   14.963505
  H     15.710876   19.612206   14.387585
  H     17.615745   21.214710   16.773777
  H     19.056312   18.232256   19.046335
  H     18.670652   16.889140   17.065746
  H     18.588238   15.077207   18.621599
  H     17.346421   13.684079   20.264373
  H     15.061429   14.373966   20.995407
  H     13.506440   15.916077   20.855823
  H     15.292647   17.864512   18.495927

 Total Charge           Charge          ....    0
 Multiplicity           Mult            ....    1
 Number of Electrons    NEL             ....  154
 Basis Dimension        Dim             ....  828

ORBITAL ENERGIES
----------------

  NO   OCC          E(Eh)            E(eV)
   0   2.0000     -91.891326     -2500.4901
   1   2.0000     -20.605167      -560.6951
   2   2.0000     -20.583424      -560.1034
   3   2.0000     -20.548427      -559.1511
   4   2.0000     -15.630961      -425.3401
   5   2.0000     -15.609873      -424.7662
   6   2.0000     -11.391328      -309.9738
   7   2.0000     -11.385582      -309.8174
   8   2.0000     -11.338794      -308.5443
   9   2.0000     -11.322722      -308.1069
  10   2.0000     -11.314502      -307.8832
  11   2.0000     -11.296702      -307.3989
  12   2.0000     -11.269246      -306.6518
  13   2.0000     -11.263492      -306.4952
  14   2.0000     -11.259919      -306.3980
  15   2.0000     -11.254260      -306.2440
  16   2.0000     -11.252009      -306.1827
  17   2.0000     -11.247301      -306.0546
  18   2.0000     -11.247071      -306.0483
  19   2.0000     -11.222111      -305.3692
  20   2.0000      -8.896371      -242.0826
  21   2.0000      -6.577937      -178.9948
  22   2.0000      -6.575944      -178.9405
  23   2.0000      -6.575348      -178.9243
  24   2.0000      -1.447224       -39.3810
  25   2.0000      -1.424825       -38.7715
  26   2.0000      -1.354274       -36.8517
  27   2.0000      -1.343549       -36.5598
  28   2.0000      -1.242109       -33.7995
  29   2.0000      -1.165462       -31.7138
  30   2.0000      -1.123740       -30.5785
  31   2.0000      -1.049349       -28.5542
  32   2.0000      -1.032060       -28.0838
  33   2.0000      -1.023813       -27.8594
  34   2.0000      -1.001741       -27.2588
  35   2.0000      -0.988094       -26.8874
  36   2.0000      -0.926882       -25.2218
  37   2.0000      -0.875739       -23.8301
  38   2.0000      -0.851892       -23.1812
  39   2.0000      -0.845519       -23.0077
  40   2.0000      -0.841384       -22.8952
  41   2.0000      -0.832910       -22.6646
  42   2.0000      -0.762241       -20.7416
  43   2.0000      -0.739893       -20.1335
  44   2.0000      -0.725293       -19.7362
  45   2.0000      -0.703674       -19.1479
  46   2.0000      -0.691684       -18.8217
  47   2.0000      -0.680280       -18.5114
  48   2.0000      -0.673880       -18.3372
  49   2.0000      -0.659993       -17.9593
  50   2.0000      -0.648959       -17.6591
  51   2.0000      -0.643044       -17.4981
  52   2.0000      -0.627341       -17.0708
  53   2.0000      -0.625179       -17.0120
  54   2.0000      -0.614952       -16.7337
  55   2.0000      -0.606724       -16.5098
  56   2.0000      -0.603604       -16.4249
  57   2.0000      -0.584181       -15.8964
  58   2.0000      -0.574162       -15.6237
  59   2.0000      -0.568110       -15.4591
  60   2.0000      -0.553588       -15.0639
  61   2.0000      -0.543366       -14.7857
  62   2.0000      -0.536818       -14.6076
  63   2.0000      -0.531382       -14.4596
  64   2.0000      -0.520259       -14.1570
  65   2.0000      -0.514930       -14.0120
  66   2.0000      -0.506083       -13.7712
  67   2.0000      -0.497758       -13.5447
  68   2.0000      -0.485138       -13.2013
  69   2.0000      -0.464170       -12.6307
  70   2.0000      -0.459537       -12.5046
  71   2.0000      -0.446770       -12.1572
  72   2.0000      -0.358350        -9.7512
  73   2.0000      -0.355139        -9.6638
  74   2.0000      -0.332612        -9.0508
  75   2.0000      -0.328567        -8.9408
  76   2.0000      -0.321537        -8.7495
  77   0.0000       0.073402         1.9974
  78   0.0000       0.096986         2.6391
  79   0.0000       0.118926         3.2362
  80   0.0000       0.125703         3.4206
  81   0.0000       0.127478         3.4688

MULLIKEN ATOMIC CHARGES
-----------------------
   0 C :   -0.289406
   1 C :    0.020154
   2 O :   -0.355389
   3 C :    0.457399
   4 O :   -0.379195
   5 C :   -0.305509
   6 C :    0.184208
   7 C :   -0.268981
   8 N :   -0.129438
   9 C :    0.213946
  10 S :   -0.439933
  11 N :   -0.218547
  12 C :    0.061915
  13 C :    0.038265
  14 C :   -0.191094
  15 C :   -0.128587
  16 C :   -0.271089
  17 C :    0.322794
  18 O :   -0.359395
  19 C :   -0.262722
  20 H :    0.109956
  21 H :    0.090428
  22 H :    0.112611
  23 H :    0.114913
  24 H :    0.094934
  25 H :    0.138726
  26 H :    0.094617
  27 H :    0.122836
  28 H :    0.199616
  29 H :    0.201644
  30 H :    0.149749
  31 H :    0.153964
  32 H :    0.164849
  33 H :    0.133942
  34 H :    0.243178
  35 H :    0.174640
Sum of atomic charges:   -0.0000000

LOEWDIN ATOMIC CHARGES
----------------------
   0 C :    0.111853
   1 C :   -0.024320
   2 O :    0.294516
   3 C :   -0.425539
   4 O :    0.127032
   5 C :   -0.105106
   6 C :   -0.057791
   7 C :    0.129299
   8 N :    0.408079
   9 C :   -0.456518
  10 S :   -0.033845
  11 N :    0.395110
  12 C :   -0.054283
  13 C :   -0.038381
  14 C :    0.014984
  15 C :    0.044235
  16 C :    0.002941
  17 C :   -0.189543
  18 O :    0.396387
  19 C :    0.035495
  20 H :   -0.027229
  21 H :   -0.025693
  22 H :   -0.028420
  23 H :   -0.030484
  24 H :   -0.040015
  25 H :   -0.003993
  26 H :   -0.022667
  27 H :   -0.006858
  28 H :   -0.055990
  29 H :   -0.064446
  30 H :   -0.011612
  31 H :   -0.028158
  32 H :   -0.019098
  33 H :   -0.033679
  34 H :   -0.151696
  35 H :   -0.024568

  Mayer bond orders larger than 0.100000
B(  0-C ,  1-C ) :   0.9757 B(  0-C , 20-H ) :   0.9808 B(  0-C , 21-H ) :   0.9757
B(  0-C , 22-H ) :   0.9712 B(  1-C ,  2-O ) :   0.8948 B(  1-C , 23-H ) :   0.9794
B(  1-C , 24-H ) :   0.9650 B(  2-O ,  3-C ) :   1.1213 B(  3-C ,  4-O ) :   2.0879
B(  3-C ,  5-C ) :   1.0162 B(  5-C ,  6-C ) :   1.6309 B(  5-C , 12-C ) :   0.9673
B(  6-C ,  7-C ) :   0.9625 B(  6-C ,  8-N ) :   1.1583 B(  7-C , 25-H ) :   0.9539
B(  7-C , 26-H ) :   0.9863 B(  7-C , 27-H ) :   0.9699 B(  8-N ,  9-C ) :   1.1884
B(  8-N , 28-H ) :   0.9477 B(  9-C , 10-S ) :   1.6048 B(  9-C , 11-N ) :   1.3086
B( 11-N , 12-C ) :   0.9510 B( 11-N , 29-H ) :   0.9473 B( 12-C , 13-C ) :   0.9732
B( 12-C , 30-H ) :   1.0058 B( 13-C , 14-C ) :   1.3551 B( 13-C , 19-C ) :   1.3498
B( 14-C , 15-C ) :   1.3878 B( 14-C , 31-H ) :   0.9739 B( 15-C , 16-C ) :   1.3647
B( 15-C , 32-H ) :   0.9700 B( 16-C , 17-C ) :   1.3320 B( 16-C , 33-H ) :   0.9840
B( 17-C , 18-O ) :   1.1061 B( 17-C , 19-C ) :   1.3593 B( 18-O , 34-H ) :   0.9780
B( 19-C , 35-H ) :   0.9577

MP2 TOTAL ENERGY:    -1274.324477871 Eh
FINAL SINGLE POINT ENERGY     -1274.324477871343

DIPOLE MOMENT
-------------
                                X             Y             Z
Electronic contribution:      8.60377      10.29883       4.09420
Nuclear contribution   :     -9.96676     -11.61123      -3.57628
                        -----------------------------------------
Total Dipole Moment    :     -1.36299      -1.31239       0.51791
                        -----------------------------------------
Magnitude (a.u.)       :      1.96172
Magnitude (Debye)      :      4.98630

Rotational constants in cm-1:     0.012661     0.008657     0.006143
Rotational constants in MHz :   379.563823   259.518227   184.174516

                             ****ORCA TERMINATED NORMALLY****
TOTAL RUN TIME: 0 days 1 hours 46 minutes 48 seconds 545 msec
