                         Program Version 4.2.0 -  RELEASE  -
|  1> ! ri-mp2 cc-pvtz cc-pvtz/c TightSCF NoKeepInts
|  2>
|  3> %scf
|  4>   MaxCore 4096
|  5> end
|  6> *xyz  0  1
|  7>     C       14.4594258   14.7539339   14.7586621
|  8>     C       14.7239009   16.1845612   15.2583447
|  9>     O       16.0145476   16.5869796   14.7725995
| 10>     C       17.0445123   16.5308609   15.6599310
| 11>     O       17.7170283   15.5237246   15.7883265
| 12>     C       17.1764975   17.7275788   16.5550022
| 13>     C       16.9504222   18.9915901   16.1127004
| 14>     C       16.3475806   19.4138943   14.7875311
| 15>     N       17.3394226   20.0938984   16.8776757
| 16>     C       18.1511297   20.0235030   17.9780872
| 17>     S       18.6591679   21.3806448   18.7748367
| 18>     N       18.5377611   18.7672879   18.3726794
| 19>     C       18.0319881   17.5018489   17.8055368
| 20>     C       17.3598851   16.5996054   18.8315494
| 21>     C       17.7569126   15.2580375   18.9742431
| 22>     C       17.1297949   14.4233115   19.9143084
| 23>     C       16.0966641   14.9347042   20.7183321
| 24>     C       15.6966210   16.2704224   20.5755396
| 25>     O       14.6942955   16.7649957   21.3447704
| 26>     C       16.3218689   17.0985524   19.6378168
| 27>     H       15.2091883   14.0602294   15.1608341
| 28>     H       14.5040492   14.7113305   13.6632499
| 29>     H       13.4681875   14.4096930   15.0774248
| 30>     H       13.9535572   16.8523213   14.8518006
| 31>     H       14.6735119   16.2250536   16.3557984
| 32>     H       16.8482391   18.9094555   13.9510559
| 33>     H       16.4385264   20.4918771   14.6056405
| 34>     H       15.2812277   19.1624890   14.7447167
| 35>     H       17.0863104   21.0242437   16.5850060
| 36>     H       19.1232670   18.7421280   19.1981626
| 37>     H       18.9718053   17.0532462   17.4510595
| 38>     H       18.5453060   14.8574648   18.3407214
| 39>     H       17.4422731   13.3850501   20.0118378
| 40>     H       15.6087968   14.2927413   21.4442785
| 41>     H       14.4232717   16.0624026   21.9547701
| 42>     H       16.0000554   18.1303384   19.5431702
| 43> *
| 44>
| 45>                          ****END OF INPUT****

CARTESIAN COORDINATES (ANGSTROEM)
---------------------------------
  C     14.459426   14.753934   14.758662
  C     14.723901   16.184561   15.258345
  O     16.014548   16.586980   14.772599
  C     17.044512   16.530861   15.659931
  O     17.717028   15.523725   15.788327
  C     17.176497   17.727579   16.555002
  C     16.950422   18.991590   16.112700
  C     16.347581   19.413894   14.787531
  N     17.339423   20.093898   16.877676
  C     18.151130   20.023503   17.978087
  S     18.659168   21.380645   18.774837
  N     18.537761   18.767288   18.372679
  C     18.031988   17.501849   17.805537
  C     17.359885   16.599605   18.831549
  C     17.756913   15.258038   18.974243
  C     17.129795   14.423312   19.914308
  C     16.096664   14.934704   20.718332
  C     15.696621   16.270422   20.575540
  O     14.694296   16.764996   21.344770
  C     16.321869   17.098552   19.637817
  H     15.209188   14.060229   15.160834
  H     14.504049   14.711331   13.663250
  H     13.468187   14.409693   15.077425
  H     13.953557   16.852321   14.851801
  H     14.673512   16.225054   16.355798
  H     16.848239   18.909455   13.951056
  H     16.438526   20.491877   14.605640
  H     15.281228   19.162489   14.744717
  H     17.086310   21.024244   16.585006
  H     19.123267   18.742128   19.198163
  H     18.971805   17.053246   17.451059
  H     18.545306   14.857465   18.340721
  H     17.442273   13.385050   20.011838
  H     15.608797   14.292741   21.444278
  H     14.423272   16.062403   21.954770
  H     16.000055   18.130338   19.543170

 Total Charge           Charge          ....    0
 Multiplicity           Mult            ....    1
 Number of Electrons    NEL             ....  154
 Basis Dimension        Dim             ....  828

ORBITAL ENERGIES
----------------

  NO   OCC          E(Eh)            E(eV)
   0   2.0000     -91.890211     -2500.4598
   1   2.0000     -20.595509      -560.4323
   2   2.0000     -20.587608      -560.2173
   3   2.0000     -20.553837      -559.2983
   4   2.0000     -15.631119      -425.3444
   5   2.0000     -15.607886      -424.7122
   6   2.0000     -11.394629      -310.0636
   7   2.0000     -11.385053      -309.8030
   8   2.0000     -11.340452      -308.5894
   9   2.0000     -11.311869      -307.8116
  10   2.0000     -11.306283      -307.6596
  11   2.0000     -11.305968      -307.6510
  12   2.0000     -11.262718      -306.4741
  13   2.0000     -11.260694      -306.4191
  14   2.0000     -11.258979      -306.3724
  15   2.0000     -11.251701      -306.1743
  16   2.0000     -11.241754      -305.9037
  17   2.0000     -11.238113      -305.8046
  18   2.0000     -11.234448      -305.7049
  19   2.0000     -11.225912      -305.4726
  20   2.0000      -8.895285      -242.0530
  21   2.0000      -6.576857      -178.9654
  22   2.0000      -6.574857      -178.9110
  23   2.0000      -6.574265      -178.8948
  24   2.0000      -1.453094       -39.5407
  25   2.0000      -1.415267       -38.5114
  26   2.0000      -1.360789       -37.0289
  27   2.0000      -1.342094       -36.5202
  28   2.0000      -1.239152       -33.7190
  29   2.0000      -1.156246       -31.4631
  30   2.0000      -1.123185       -30.5634
  31   2.0000      -1.044839       -28.4315
  32   2.0000      -1.034556       -28.1517
  33   2.0000      -1.013873       -27.5889
  34   2.0000      -1.002029       -27.2666
  35   2.0000      -0.986694       -26.8493
  36   2.0000      -0.923614       -25.1328
  37   2.0000      -0.882869       -24.0241
  38   2.0000      -0.852496       -23.1976
  39   2.0000      -0.840514       -22.8715
  40   2.0000      -0.832305       -22.6482
  41   2.0000      -0.831040       -22.6138
  42   2.0000      -0.754747       -20.5377
  43   2.0000      -0.735815       -20.0225
  44   2.0000      -0.729419       -19.8485
  45   2.0000      -0.693745       -18.8778
  46   2.0000      -0.687261       -18.7013
  47   2.0000      -0.680287       -18.5115
  48   2.0000      -0.673966       -18.3395
  49   2.0000      -0.665433       -18.1074
  50   2.0000      -0.650439       -17.6993
  51   2.0000      -0.645522       -17.5655
  52   2.0000      -0.636981       -17.3331
  53   2.0000      -0.607753       -16.5378
  54   2.0000      -0.602278       -16.3888
  55   2.0000      -0.599051       -16.3010
  56   2.0000      -0.592662       -16.1271
  57   2.0000      -0.585856       -15.9419
  58   2.0000      -0.576907       -15.6984
  59   2.0000      -0.571455       -15.5501
  60   2.0000      -0.562338       -15.3020
  61   2.0000      -0.553835       -15.0706
  62   2.0000      -0.540857       -14.7175
  63   2.0000      -0.520505       -14.1637
  64   2.0000      -0.516481       -14.0542
  65   2.0000      -0.512304       -13.9405
  66   2.0000      -0.501805       -13.6548
  67   2.0000      -0.496942       -13.5225
  68   2.0000      -0.483738       -13.1632
  69   2.0000      -0.466615       -12.6973
  70   2.0000      -0.458319       -12.4715
  71   2.0000      -0.451394       -12.2831
  72   2.0000      -0.355775        -9.6811
  73   2.0000      -0.348236        -9.4760
  74   2.0000      -0.329258        -8.9596
  75   2.0000      -0.319665        -8.6985
  76   2.0000      -0.318576        -8.6689
  77   0.0000       0.072257         1.9662
  78   0.0000       0.106712         2.9038
  79   0.0000       0.119829         3.2607
  80   0.0000       0.133165         3.6236
  81   0.0000       0.138457         3.7676

MULLIKEN ATOMIC CHARGES
-----------------------
   0 C :   -0.256437
   1 C :    0.029902
   2 O :   -0.370930
   3 C :    0.461527
   4 O :   -0.388634
   5 C :   -0.227535
   6 C :    0.157993
   7 C :   -0.287217
   8 N :   -0.128213
   9 C :    0.205981
  10 S :   -0.439426
  11 N :   -0.212203
  12 C :    0.050655
  13 C :    0.031970
  14 C :   -0.182911
  15 C :   -0.131782
  16 C :   -0.277697
  17 C :    0.314654
  18 O :   -0.358324
  19 C :   -0.258314
  20 H :    0.110547
  21 H :    0.095703
  22 H :    0.087082
  23 H :    0.096309
  24 H :    0.095257
  25 H :    0.133006
  26 H :    0.107008
  27 H :    0.120988
  28 H :    0.198769
  29 H :    0.199927
  30 H :    0.157805
  31 H :    0.165291
  32 H :    0.161934
  33 H :    0.129920
  34 H :    0.240685
  35 H :    0.166711
Sum of atomic charges:   -0.0000000

LOEWDIN ATOMIC CHARGES
----------------------
   0 C :    0.108287
   1 C :   -0.022646
   2 O :    0.298406
   3 C :   -0.424956
   4 O :    0.127318
   5 C :   -0.098082
   6 C :   -0.066688
   7 C :    0.127066
   8 N :    0.405702
   9 C :   -0.458159
  10 S :   -0.035465
  11 N :    0.396146
  12 C :   -0.049187
  13 C :   -0.042423
  14 C :    0.023821
  15 C :    0.042163
  16 C :   -0.000834
  17 C :   -0.193406
  18 O :    0.393342
  19 C :    0.027453
  20 H :   -0.021886
  21 H :   -0.025645
  22 H :   -0.028947
  23 H :   -0.030180
  24 H :   -0.029120
  25 H :   -0.006166
  26 H :   -0.019456
  27 H :   -0.011623
  28 H :   -0.058143
  29 H :   -0.063282
  30 H :   -0.007036
  31 H :   -0.022822
  32 H :   -0.020067
  33 H :   -0.035568
  34 H :   -0.154057
  35 H :   -0.023862

  Mayer bond orders larger than 0.100000
B(  0-C ,  1-C ) :   0.9861 B(  0-C , 20-H ) :   0.9745 B(  0-C , 21-H ) :   0.9774
B(  0-C , 22-H ) :   0.9757 B(  1-C ,  2-O ) :   0.8907 B(  1-C , 23-H ) :   0.9795
B(  1-C , 24-H ) :   0.9668 B(  2-O ,  3-C ) :   1.0785 B(  3-C ,  4-O ) :   2.0476
B(  3-C ,  5-C ) :   1.0130 B(  5-C ,  6-C ) :   1.6723 B(  5-C , 12-C ) :   0.9512
B(  6-C ,  7-C ) :   0.9486 B(  6-C ,  8-N ) :   1.1369 B(  7-C , 25-H ) :   0.9647
B(  7-C , 26-H ) :   0.9894 B(  7-C , 27-H ) :   0.9673 B(  8-N ,  9-C ) :   1.1844
B(  8-N , 28-H ) :   0.9472 B(  9-C , 10-S ) :   1.6125 B(  9-C , 11-N ) :   1.3026
B( 11-N , 12-C ) :   0.9820 B( 11-N , 29-H ) :   0.9486 B( 12-C , 13-C ) :   0.9696
B( 12-C , 30-H ) :   0.9947 B( 13-C , 14-C ) :   1.3819 B( 13-C , 19-C ) :   1.3600
B( 14-C , 15-C ) :   1.3961 B( 14-C , 31-H ) :   0.9614 B( 15-C , 16-C ) :   1.3600
B( 15-C , 32-H ) :   0.9706 B( 16-C , 17-C ) :   1.3326 B( 16-C , 33-H ) :   0.9853
B( 17-C , 18-O ) :   1.1056 B( 17-C , 19-C ) :   1.3654 B( 18-O , 34-H ) :   0.9800
B( 19-C , 35-H ) :   0.9593

MP2 TOTAL ENERGY:    -1274.326397092 Eh
FINAL SINGLE POINT ENERGY     -1274.326397091611

DIPOLE MOMENT
-------------
                                X             Y             Z
Electronic contribution:     10.33062       9.87986       9.13523
Nuclear contribution   :    -11.89270     -10.91343      -9.68198
                        -----------------------------------------
Total Dipole Moment    :     -1.56208      -1.03357      -0.54675
                        -----------------------------------------
Magnitude (a.u.)       :      1.95123
Magnitude (Debye)      :      4.95962

Rotational constants in cm-1:     0.010482     0.009212     0.005924
Rotational constants in MHz :   314.243332   276.155822   177.605110

                             ****ORCA TERMINATED NORMALLY****
TOTAL RUN TIME: 0 days 1 hours 36 minutes 39 seconds 925 msec
