                         Program Version 4.2.0 -  RELEASE  -
|  1> ! ri-mp2 cc-pvtz cc-pvtz/c TightSCF NoKeepInts
|  2>
|  3> %scf
|  4>   MaxCore 4096
|  5> end
|  6> *xyz  0  1
|  7>     C       14.4535525   15.0297931   14.9458184
|  8>     C       15.4800695   15.2813365   16.0662340
|  9>     O       16.6254792   15.9550967   15.5104534
| 10>     C       16.5413846   17.3007454   15.3088698
| 11>     O       16.1160334   17.7393461   14.2558490
| 12>     C       16.9400057   18.1306069   16.5038637
| 13>     C       16.8970031   19.4873531   16.4330480
| 14>     C       16.1760508   20.3318331   15.4021525
| 15>     N       17.5509687   20.2822313   17.3768926
| 16>     C       18.4556376   19.8121221   18.2887800
| 17>     S       19.2860542   20.8213707   19.3021227
| 18>     N       18.6573048   18.4558941   18.3012765
| 19>     C       17.8740569   17.4681027   17.5356441
| 20>     C       17.2304312   16.4275453   18.4403086
| 21>     C       17.7374440   15.1162252   18.4976820
| 22>     C       17.1407327   14.1575659   19.3337337
| 23>     C       16.0344150   14.5158864   20.1232241
| 24>     C       15.5365327   15.8254226   20.0774312
| 25>     O       14.4692868   16.1745819   20.8383579
| 26>     C       16.1307933   16.7768717   19.2424917
| 27>     H       14.0546398   15.9750255   14.5568786
| 28>     H       13.6122837   14.4351608   15.3215939
| 29>     H       14.9160439   14.4837903   14.1140441
| 30>     H       15.0219875   15.8695481   16.8718409
| 31>     H       15.7943984   14.3156885   16.4827309
| 32>     H       15.1625126   19.9498827   15.2254703
| 33>     H       16.7077522   20.3054879   14.4421238
| 34>     H       16.0776162   21.3821961   15.7006610
| 35>     H       17.4356022   21.2829461   17.3544761
| 36>     H       19.3137492   18.1357267   19.0022486
| 37>     H       18.6812011   17.0156125   16.9417277
| 38>     H       18.5909994   14.8373274   17.8848071
| 39>     H       17.5367852   13.1438172   19.3696774
| 40>     H       15.5712155   13.7788810   20.7714003
| 41>     H       14.2390998   15.4107395   21.3889524
| 42>     H       15.7378768   17.7882386   19.2251328
| 43> *
| 44>
| 45>                          ****END OF INPUT****

CARTESIAN COORDINATES (ANGSTROEM)
---------------------------------
  C     14.453553   15.029793   14.945818
  C     15.480070   15.281337   16.066234
  O     16.625479   15.955097   15.510453
  C     16.541385   17.300745   15.308870
  O     16.116033   17.739346   14.255849
  C     16.940006   18.130607   16.503864
  C     16.897003   19.487353   16.433048
  C     16.176051   20.331833   15.402152
  N     17.550969   20.282231   17.376893
  C     18.455638   19.812122   18.288780
  S     19.286054   20.821371   19.302123
  N     18.657305   18.455894   18.301276
  C     17.874057   17.468103   17.535644
  C     17.230431   16.427545   18.440309
  C     17.737444   15.116225   18.497682
  C     17.140733   14.157566   19.333734
  C     16.034415   14.515886   20.123224
  C     15.536533   15.825423   20.077431
  O     14.469287   16.174582   20.838358
  C     16.130793   16.776872   19.242492
  H     14.054640   15.975025   14.556879
  H     13.612284   14.435161   15.321594
  H     14.916044   14.483790   14.114044
  H     15.021987   15.869548   16.871841
  H     15.794398   14.315689   16.482731
  H     15.162513   19.949883   15.225470
  H     16.707752   20.305488   14.442124
  H     16.077616   21.382196   15.700661
  H     17.435602   21.282946   17.354476
  H     19.313749   18.135727   19.002249
  H     18.681201   17.015612   16.941728
  H     18.590999   14.837327   17.884807
  H     17.536785   13.143817   19.369677
  H     15.571215   13.778881   20.771400
  H     14.239100   15.410740   21.388952
  H     15.737877   17.788239   19.225133

 Total Charge           Charge          ....    0
 Multiplicity           Mult            ....    1
 Number of Electrons    NEL             ....  154
 Basis Dimension        Dim             ....  828

ORBITAL ENERGIES
----------------

  NO   OCC          E(Eh)            E(eV)
   0   2.0000     -91.891359     -2500.4910
   1   2.0000     -20.602822      -560.6313
   2   2.0000     -20.581428      -560.0491
   3   2.0000     -20.547331      -559.1213
   4   2.0000     -15.631652      -425.3589
   5   2.0000     -15.609559      -424.7577
   6   2.0000     -11.392598      -310.0084
   7   2.0000     -11.385643      -309.8191
   8   2.0000     -11.340071      -308.5790
   9   2.0000     -11.320661      -308.0508
  10   2.0000     -11.311926      -307.8131
  11   2.0000     -11.295982      -307.3793
  12   2.0000     -11.266537      -306.5780
  13   2.0000     -11.261783      -306.4487
  14   2.0000     -11.259835      -306.3957
  15   2.0000     -11.253752      -306.2302
  16   2.0000     -11.250624      -306.1450
  17   2.0000     -11.245041      -305.9931
  18   2.0000     -11.244892      -305.9891
  19   2.0000     -11.218462      -305.2699
  20   2.0000      -8.896408      -242.0836
  21   2.0000      -6.577974      -178.9958
  22   2.0000      -6.575982      -178.9416
  23   2.0000      -6.575384      -178.9253
  24   2.0000      -1.446413       -39.3589
  25   2.0000      -1.422561       -38.7099
  26   2.0000      -1.353788       -36.8384
  27   2.0000      -1.343393       -36.5556
  28   2.0000      -1.241486       -33.7825
  29   2.0000      -1.163666       -31.6650
  30   2.0000      -1.122990       -30.5581
  31   2.0000      -1.047799       -28.5120
  32   2.0000      -1.029836       -28.0233
  33   2.0000      -1.021725       -27.8025
  34   2.0000      -0.999369       -27.1942
  35   2.0000      -0.987418       -26.8690
  36   2.0000      -0.925699       -25.1896
  37   2.0000      -0.882390       -24.0110
  38   2.0000      -0.850646       -23.1472
  39   2.0000      -0.843635       -22.9565
  40   2.0000      -0.840515       -22.8716
  41   2.0000      -0.829850       -22.5814
  42   2.0000      -0.755124       -20.5480
  43   2.0000      -0.737736       -20.0748
  44   2.0000      -0.719146       -19.5690
  45   2.0000      -0.701229       -19.0814
  46   2.0000      -0.690865       -18.7994
  47   2.0000      -0.678901       -18.4738
  48   2.0000      -0.670454       -18.2440
  49   2.0000      -0.664250       -18.0752
  50   2.0000      -0.649295       -17.6682
  51   2.0000      -0.647154       -17.6100
  52   2.0000      -0.638610       -17.3775
  53   2.0000      -0.612910       -16.6781
  54   2.0000      -0.607477       -16.5303
  55   2.0000      -0.603331       -16.4175
  56   2.0000      -0.593606       -16.1529
  57   2.0000      -0.581755       -15.8304
  58   2.0000      -0.572946       -15.5907
  59   2.0000      -0.571861       -15.5611
  60   2.0000      -0.563520       -15.3342
  61   2.0000      -0.543953       -14.8017
  62   2.0000      -0.537679       -14.6310
  63   2.0000      -0.528995       -14.3947
  64   2.0000      -0.518750       -14.1159
  65   2.0000      -0.515373       -14.0240
  66   2.0000      -0.503657       -13.7052
  67   2.0000      -0.495571       -13.4852
  68   2.0000      -0.483260       -13.1502
  69   2.0000      -0.465078       -12.6554
  70   2.0000      -0.457387       -12.4461
  71   2.0000      -0.442848       -12.0505
  72   2.0000      -0.356038        -9.6883
  73   2.0000      -0.354975        -9.6593
  74   2.0000      -0.331108        -9.0099
  75   2.0000      -0.327733        -8.9181
  76   2.0000      -0.321086        -8.7372
  77   0.0000       0.071270         1.9394
  78   0.0000       0.096596         2.6285
  79   0.0000       0.122096         3.3224
  80   0.0000       0.128724         3.5028
  81   0.0000       0.130425         3.5491

MULLIKEN ATOMIC CHARGES
-----------------------
   0 C :   -0.262166
   1 C :    0.014138
   2 O :   -0.377460
   3 C :    0.486668
   4 O :   -0.398561
   5 C :   -0.292043
   6 C :    0.182160
   7 C :   -0.266622
   8 N :   -0.127398
   9 C :    0.209912
  10 S :   -0.438348
  11 N :   -0.212664
  12 C :    0.059039
  13 C :    0.017042
  14 C :   -0.172889
  15 C :   -0.137329
  16 C :   -0.271240
  17 C :    0.315183
  18 O :   -0.356383
  19 C :   -0.248217
  20 H :    0.101036
  21 H :    0.088531
  22 H :    0.100030
  23 H :    0.100258
  24 H :    0.111882
  25 H :    0.128111
  26 H :    0.134846
  27 H :    0.094235
  28 H :    0.199833
  29 H :    0.200957
  30 H :    0.152762
  31 H :    0.152675
  32 H :    0.166733
  33 H :    0.134440
  34 H :    0.241851
  35 H :    0.168994
Sum of atomic charges:   -0.0000000

LOEWDIN ATOMIC CHARGES
----------------------
   0 C :    0.106280
   1 C :   -0.025502
   2 O :    0.291493
   3 C :   -0.422602
   4 O :    0.121218
   5 C :   -0.104215
   6 C :   -0.053857
   7 C :    0.130742
   8 N :    0.407901
   9 C :   -0.457680
  10 S :   -0.033466
  11 N :    0.394923
  12 C :   -0.054274
  13 C :   -0.040626
  14 C :    0.020443
  15 C :    0.041800
  16 C :    0.000293
  17 C :   -0.191645
  18 O :    0.396287
  19 C :    0.032888
  20 H :   -0.027946
  21 H :   -0.030046
  22 H :   -0.024500
  23 H :   -0.034139
  24 H :   -0.023368
  25 H :   -0.005416
  26 H :   -0.003867
  27 H :   -0.023259
  28 H :   -0.056421
  29 H :   -0.063826
  30 H :   -0.011617
  31 H :   -0.027051
  32 H :   -0.019661
  33 H :   -0.033961
  34 H :   -0.152483
  35 H :   -0.022839

  Mayer bond orders larger than 0.100000
B(  0-C ,  1-C ) :   0.9843 B(  0-C , 20-H ) :   0.9740 B(  0-C , 21-H ) :   0.9767
B(  0-C , 22-H ) :   0.9786 B(  1-C ,  2-O ) :   0.8829 B(  1-C , 23-H ) :   0.9649
B(  1-C , 24-H ) :   0.9777 B(  2-O ,  3-C ) :   1.0921 B(  3-C ,  4-O ) :   2.0342
B(  3-C ,  5-C ) :   1.0574 B(  5-C ,  6-C ) :   1.6332 B(  5-C , 12-C ) :   0.9558
B(  6-C ,  7-C ) :   0.9666 B(  6-C ,  8-N ) :   1.1567 B(  7-C , 25-H ) :   0.9650
B(  7-C , 26-H ) :   0.9550 B(  7-C , 27-H ) :   0.9887 B(  8-N ,  9-C ) :   1.1855
B(  8-N , 28-H ) :   0.9465 B(  9-C , 10-S ) :   1.6098 B(  9-C , 11-N ) :   1.3079
B( 11-N , 12-C ) :   0.9652 B( 11-N , 29-H ) :   0.9484 B( 12-C , 13-C ) :   0.9698
B( 12-C , 30-H ) :   1.0024 B( 13-C , 14-C ) :   1.3421 B( 13-C , 19-C ) :   1.3672
B( 14-C , 15-C ) :   1.3929 B( 14-C , 31-H ) :   0.9761 B( 15-C , 16-C ) :   1.3599
B( 15-C , 32-H ) :   0.9689 B( 16-C , 17-C ) :   1.3309 B( 16-C , 33-H ) :   0.9834
B( 17-C , 18-O ) :   1.1072 B( 17-C , 19-C ) :   1.3623 B( 18-O , 34-H ) :   0.9787
B( 19-C , 35-H ) :   0.9599

MP2 TOTAL ENERGY:    -1274.325943352 Eh
FINAL SINGLE POINT ENERGY     -1274.325943351948

DIPOLE MOMENT
-------------
                                X             Y             Z
Electronic contribution:      9.96358       9.33713       7.72698
Nuclear contribution   :    -11.04031     -10.88867      -7.45651
                        -----------------------------------------
Total Dipole Moment    :     -1.07673      -1.55154       0.27047
                        -----------------------------------------
Magnitude (a.u.)       :      1.90782
Magnitude (Debye)      :      4.84928

Rotational constants in cm-1:     0.011914     0.008813     0.006025
Rotational constants in MHz :   357.179374   264.209577   180.612955

                             ****ORCA TERMINATED NORMALLY****
TOTAL RUN TIME: 0 days 1 hours 48 minutes 16 seconds 228 msec
