                         Program Version 4.2.0 -  RELEASE  -
|  1> ! ri-mp2 cc-pvtz cc-pvtz/c TightSCF NoKeepInts
|  2>
|  3> %scf
|  4>   MaxCore 4096
|  5> end
|  6> *xyz  0  1
|  7>     C       14.3508028   15.8224320   15.9140020
|  8>     C       15.2055399   15.6610735   14.6398890
|  9>     O       16.1931528   16.7056589   14.5927473
| 10>     C       17.1968558   16.6670221   15.5125374
| 11>     O       17.9241075   15.6953126   15.6257142
| 12>     C       17.1722025   17.7899966   16.5069865
| 13>     C       16.8260260   19.0570177   16.1620782
| 14>     C       16.2166283   19.5260791   14.8559500
| 15>     N       17.0679696   20.1231216   17.0318292
| 16>     C       17.8392716   20.0410175   18.1601058
| 17>     S       18.1698391   21.3687413   19.0891461
| 18>     N       18.3413855   18.8015784   18.4682535
| 19>     C       17.9982095   17.5451501   17.7737659
| 20>     C       17.3834921   16.4949365   18.6890113
| 21>     C       17.9354459   15.2041196   18.7718469
| 22>     C       17.3582364   14.2324969   19.6064803
| 23>     C       16.2191376   14.5546433   20.3641512
| 24>     C       15.6652640   15.8395164   20.2808091
| 25>     O       14.5606313   16.1509573   21.0045335
| 26>     C       16.2419025   16.8043530   19.4487989
| 27>     H       14.9475559   15.6379418   16.8167080
| 28>     H       13.5217248   15.1044593   15.9099089
| 29>     H       13.9276385   16.8326195   15.9758310
| 30>     H       15.6852757   14.6725054   14.6255956
| 31>     H       14.5565519   15.7371910   13.7580383
| 32>     H       15.1997128   19.1316787   14.7384416
| 33>     H       16.8126355   19.1822977   14.0010469
| 34>     H       16.1555169   20.6188210   14.7836069
| 35>     H       16.7261070   21.0435992   16.8062620
| 36>     H       18.8907413   18.7648029   19.3176677
| 37>     H       18.9935860   17.2284052   17.4293123
| 38>     H       18.8058140   14.9493253   18.1714246
| 39>     H       17.7907932   13.2348661   19.6578383
| 40>     H       15.7690582   13.8064119   21.0080665
| 41>     H       14.3384236   15.3761017   21.5423414
| 42>     H       15.7997640   17.7937487   19.3972739
| 43> *
| 44>
| 45>                          ****END OF INPUT****

CARTESIAN COORDINATES (ANGSTROEM)
---------------------------------
  C     14.350803   15.822432   15.914002
  C     15.205540   15.661073   14.639889
  O     16.193153   16.705659   14.592747
  C     17.196856   16.667022   15.512537
  O     17.924108   15.695313   15.625714
  C     17.172203   17.789997   16.506987
  C     16.826026   19.057018   16.162078
  C     16.216628   19.526079   14.855950
  N     17.067970   20.123122   17.031829
  C     17.839272   20.041017   18.160106
  S     18.169839   21.368741   19.089146
  N     18.341385   18.801578   18.468253
  C     17.998210   17.545150   17.773766
  C     17.383492   16.494937   18.689011
  C     17.935446   15.204120   18.771847
  C     17.358236   14.232497   19.606480
  C     16.219138   14.554643   20.364151
  C     15.665264   15.839516   20.280809
  O     14.560631   16.150957   21.004533
  C     16.241902   16.804353   19.448799
  H     14.947556   15.637942   16.816708
  H     13.521725   15.104459   15.909909
  H     13.927639   16.832619   15.975831
  H     15.685276   14.672505   14.625596
  H     14.556552   15.737191   13.758038
  H     15.199713   19.131679   14.738442
  H     16.812635   19.182298   14.001047
  H     16.155517   20.618821   14.783607
  H     16.726107   21.043599   16.806262
  H     18.890741   18.764803   19.317668
  H     18.993586   17.228405   17.429312
  H     18.805814   14.949325   18.171425
  H     17.790793   13.234866   19.657838
  H     15.769058   13.806412   21.008066
  H     14.338424   15.376102   21.542341
  H     15.799764   17.793749   19.397274

 Total Charge           Charge          ....    0
 Multiplicity           Mult            ....    1
 Number of Electrons    NEL             ....  154
 Basis Dimension        Dim             ....  828

ORBITAL ENERGIES
----------------

  NO   OCC          E(Eh)            E(eV)
   0   2.0000     -91.889251     -2500.4336
   1   2.0000     -20.594858      -560.4146
   2   2.0000     -20.589299      -560.2633
   3   2.0000     -20.550795      -559.2156
   4   2.0000     -15.629776      -425.3078
   5   2.0000     -15.607053      -424.6895
   6   2.0000     -11.394002      -310.0466
   7   2.0000     -11.384053      -309.7758
   8   2.0000     -11.338353      -308.5323
   9   2.0000     -11.311170      -307.7926
  10   2.0000     -11.305628      -307.6418
  11   2.0000     -11.302099      -307.5458
  12   2.0000     -11.260160      -306.4045
  13   2.0000     -11.259559      -306.3882
  14   2.0000     -11.258019      -306.3463
  15   2.0000     -11.251223      -306.1613
  16   2.0000     -11.241381      -305.8935
  17   2.0000     -11.237273      -305.7817
  18   2.0000     -11.234089      -305.6951
  19   2.0000     -11.229566      -305.5720
  20   2.0000      -8.894326      -242.0269
  21   2.0000      -6.575900      -178.9393
  22   2.0000      -6.573900      -178.8849
  23   2.0000      -6.573309      -178.8688
  24   2.0000      -1.452212       -39.5167
  25   2.0000      -1.414649       -38.4946
  26   2.0000      -1.357358       -36.9356
  27   2.0000      -1.340868       -36.4869
  28   2.0000      -1.238137       -33.6914
  29   2.0000      -1.155623       -31.4461
  30   2.0000      -1.122282       -30.5388
  31   2.0000      -1.044134       -28.4123
  32   2.0000      -1.032935       -28.1076
  33   2.0000      -1.013059       -27.5667
  34   2.0000      -1.001128       -27.2421
  35   2.0000      -0.986376       -26.8407
  36   2.0000      -0.922909       -25.1136
  37   2.0000      -0.894291       -24.3349
  38   2.0000      -0.848664       -23.0933
  39   2.0000      -0.837563       -22.7913
  40   2.0000      -0.831312       -22.6212
  41   2.0000      -0.817710       -22.2510
  42   2.0000      -0.753415       -20.5015
  43   2.0000      -0.736201       -20.0331
  44   2.0000      -0.728272       -19.8173
  45   2.0000      -0.693108       -18.8604
  46   2.0000      -0.686304       -18.6753
  47   2.0000      -0.678400       -18.4602
  48   2.0000      -0.671900       -18.2833
  49   2.0000      -0.661390       -17.9973
  50   2.0000      -0.653298       -17.7772
  51   2.0000      -0.645931       -17.5767
  52   2.0000      -0.635040       -17.2803
  53   2.0000      -0.609748       -16.5921
  54   2.0000      -0.603216       -16.4143
  55   2.0000      -0.600594       -16.3430
  56   2.0000      -0.598442       -16.2844
  57   2.0000      -0.581631       -15.8270
  58   2.0000      -0.575232       -15.6529
  59   2.0000      -0.562816       -15.3150
  60   2.0000      -0.558477       -15.1969
  61   2.0000      -0.551149       -14.9975
  62   2.0000      -0.543243       -14.7824
  63   2.0000      -0.527984       -14.3672
  64   2.0000      -0.519179       -14.1276
  65   2.0000      -0.511360       -13.9148
  66   2.0000      -0.498498       -13.5648
  67   2.0000      -0.494599       -13.4587
  68   2.0000      -0.482145       -13.1198
  69   2.0000      -0.464030       -12.6269
  70   2.0000      -0.458768       -12.4837
  71   2.0000      -0.450705       -12.2643
  72   2.0000      -0.354059        -9.6344
  73   2.0000      -0.347467        -9.4551
  74   2.0000      -0.328323        -8.9341
  75   2.0000      -0.318649        -8.6709
  76   2.0000      -0.317951        -8.6519
  77   0.0000       0.073631         2.0036
  78   0.0000       0.107492         2.9250
  79   0.0000       0.119250         3.2449
  80   0.0000       0.133286         3.6269
  81   0.0000       0.139697         3.8014

MULLIKEN ATOMIC CHARGES
-----------------------
   0 C :   -0.313344
   1 C :    0.034247
   2 O :   -0.371972
   3 C :    0.443363
   4 O :   -0.400787
   5 C :   -0.194315
   6 C :    0.146722
   7 C :   -0.281719
   8 N :   -0.127052
   9 C :    0.207721
  10 S :   -0.440504
  11 N :   -0.211151
  12 C :    0.056991
  13 C :    0.019529
  14 C :   -0.168316
  15 C :   -0.135390
  16 C :   -0.277352
  17 C :    0.318676
  18 O :   -0.359362
  19 C :   -0.258934
  20 H :    0.120851
  21 H :    0.109000
  22 H :    0.094662
  23 H :    0.110852
  24 H :    0.107835
  25 H :    0.123793
  26 H :    0.128438
  27 H :    0.102600
  28 H :    0.198101
  29 H :    0.199279
  30 H :    0.156105
  31 H :    0.163328
  32 H :    0.161397
  33 H :    0.130419
  34 H :    0.240420
  35 H :    0.165872
Sum of atomic charges:    0.0000000

LOEWDIN ATOMIC CHARGES
----------------------
   0 C :    0.104565
   1 C :   -0.020543
   2 O :    0.295806
   3 C :   -0.419723
   4 O :    0.118453
   5 C :   -0.095253
   6 C :   -0.066708
   7 C :    0.126322
   8 N :    0.405807
   9 C :   -0.457798
  10 S :   -0.036458
  11 N :    0.396163
  12 C :   -0.048168
  13 C :   -0.042887
  14 C :    0.024198
  15 C :    0.041671
  16 C :   -0.001078
  17 C :   -0.193776
  18 O :    0.393723
  19 C :    0.029647
  20 H :   -0.024056
  21 H :   -0.024630
  22 H :   -0.029644
  23 H :   -0.026147
  24 H :   -0.024079
  25 H :   -0.011364
  26 H :   -0.007365
  27 H :   -0.020595
  28 H :   -0.058414
  29 H :   -0.063479
  30 H :   -0.007229
  31 H :   -0.023052
  32 H :   -0.020266
  33 H :   -0.035602
  34 H :   -0.154296
  35 H :   -0.023744

  Mayer bond orders larger than 0.100000
B(  0-C ,  1-C ) :   0.9598 B(  0-C , 20-H ) :   0.9678 B(  0-C , 21-H ) :   0.9775
B(  0-C , 22-H ) :   0.9756 B(  1-C ,  2-O ) :   0.8993 B(  1-C , 23-H ) :   0.9805
B(  1-C , 24-H ) :   0.9841 B(  2-O ,  3-C ) :   1.0849 B(  3-C ,  4-O ) :   2.0261
B(  3-C ,  5-C ) :   1.0193 B(  5-C ,  6-C ) :   1.6735 B(  5-C , 12-C ) :   0.9467
B(  6-C ,  7-C ) :   0.9546 B(  6-C ,  8-N ) :   1.1396 B(  7-C , 25-H ) :   0.9643
B(  7-C , 26-H ) :   0.9657 B(  7-C , 27-H ) :   0.9897 B(  8-N ,  9-C ) :   1.1844
B(  8-N , 28-H ) :   0.9471 B(  9-C , 10-S ) :   1.6118 B(  9-C , 11-N ) :   1.3027
B( 11-N , 12-C ) :   0.9810 B( 11-N , 29-H ) :   0.9488 B( 12-C , 13-C ) :   0.9656
B( 12-C , 30-H ) :   0.9952 B( 13-C , 14-C ) :   1.3813 B( 13-C , 19-C ) :   1.3626
B( 14-C , 15-C ) :   1.3971 B( 14-C , 31-H ) :   0.9615 B( 15-C , 16-C ) :   1.3598
B( 15-C , 32-H ) :   0.9710 B( 16-C , 17-C ) :   1.3322 B( 16-C , 33-H ) :   0.9850
B( 17-C , 18-O ) :   1.1053 B( 17-C , 19-C ) :   1.3632 B( 18-O , 34-H ) :   0.9802
B( 19-C , 35-H ) :   0.9609

MP2 TOTAL ENERGY:    -1274.331481171 Eh
FINAL SINGLE POINT ENERGY     -1274.331481170572

DIPOLE MOMENT
-------------
                                X             Y             Z
Electronic contribution:      9.50105       8.41801       7.57742
Nuclear contribution   :    -10.86003      -9.72522      -8.40565
                        -----------------------------------------
Total Dipole Moment    :     -1.35898      -1.30721      -0.82823
                        -----------------------------------------
Magnitude (a.u.)       :      2.05951
Magnitude (Debye)      :      5.23486

Rotational constants in cm-1:     0.011085     0.009286     0.006273
Rotational constants in MHz :   332.322225   278.395442   188.050424

                             ****ORCA TERMINATED NORMALLY****
TOTAL RUN TIME: 0 days 1 hours 43 minutes 33 seconds 995 msec
