                         Program Version 4.2.0 -  RELEASE  -
|  1> ! ri-mp2 cc-pvtz cc-pvtz/c TightSCF NoKeepInts
|  2>
|  3> %scf
|  4>   MaxCore 4096
|  5> end
|  6> *xyz  0  1
|  7>     C       14.1268786   15.3722670   13.9862972
|  8>     C       14.9393280   15.6065101   15.2705017
|  9>     O       16.1296752   16.3166317   14.9027303
| 10>     C       17.1217285   16.3467774   15.8315761
| 11>     O       17.7806250   15.3544736   16.0870512
| 12>     C       17.1925909   17.6098884   16.6394827
| 13>     C       16.9125379   18.8292461   16.1094285
| 14>     C       16.2886203   19.1340776   14.7617547
| 15>     N       17.2487118   19.9986899   16.7958940
| 16>     C       18.0569307   20.0426730   17.8999799
| 17>     S       18.5016653   21.4740142   18.5988894
| 18>     N       18.4960752   18.8360335   18.3834743
| 19>     C       18.0489838   17.5125582   17.9070891
| 20>     C       17.4145537   16.6601101   18.9979368
| 21>     C       17.8927715   15.3646714   19.2646547
| 22>     C       17.3039552   14.5781963   20.2689660
| 23>     C       16.2281244   15.0920009   21.0132533
| 24>     C       15.7478743   16.3817429   20.7475620
| 25>     O       14.7053484   16.8781823   21.4601614
| 26>     C       16.3353354   17.1617390   19.7463069
| 27>     H       14.7102217   14.7887545   13.2627857
| 28>     H       13.8526926   16.3269350   13.5207152
| 29>     H       13.2056281   14.8201341   14.2086496
| 30>     H       14.3545429   16.1832682   15.9993710
| 31>     H       15.1959759   14.6350474   15.7162725
| 32>     H       16.8395171   18.6349050   13.9543360
| 33>     H       16.2838633   20.2057819   14.5280912
| 34>     H       15.2488759   18.7865278   14.7260594
| 35>     H       16.9551816   20.8937004   16.4382386
| 36>     H       19.0757348   18.8953939   19.2112767
| 37>     H       19.0098925   17.0825534   17.5882558
| 38>     H       18.7148804   14.9608586   18.6780162
| 39>     H       17.6790519   13.5747120   20.4622904
| 40>     H       15.7697650   14.4872353   21.7886465
| 41>     H       14.4666128   16.2147401   22.1249282
| 42>     H       15.9522494   18.1589692   19.5570764
| 43> *
| 44>
| 45>                          ****END OF INPUT****

CARTESIAN COORDINATES (ANGSTROEM)
---------------------------------
  C     14.126879   15.372267   13.986297
  C     14.939328   15.606510   15.270502
  O     16.129675   16.316632   14.902730
  C     17.121728   16.346777   15.831576
  O     17.780625   15.354474   16.087051
  C     17.192591   17.609888   16.639483
  C     16.912538   18.829246   16.109428
  C     16.288620   19.134078   14.761755
  N     17.248712   19.998690   16.795894
  C     18.056931   20.042673   17.899980
  S     18.501665   21.474014   18.598889
  N     18.496075   18.836033   18.383474
  C     18.048984   17.512558   17.907089
  C     17.414554   16.660110   18.997937
  C     17.892771   15.364671   19.264655
  C     17.303955   14.578196   20.268966
  C     16.228124   15.092001   21.013253
  C     15.747874   16.381743   20.747562
  O     14.705348   16.878182   21.460161
  C     16.335335   17.161739   19.746307
  H     14.710222   14.788754   13.262786
  H     13.852693   16.326935   13.520715
  H     13.205628   14.820134   14.208650
  H     14.354543   16.183268   15.999371
  H     15.195976   14.635047   15.716273
  H     16.839517   18.634905   13.954336
  H     16.283863   20.205782   14.528091
  H     15.248876   18.786528   14.726059
  H     16.955182   20.893700   16.438239
  H     19.075735   18.895394   19.211277
  H     19.009892   17.082553   17.588256
  H     18.714880   14.960859   18.678016
  H     17.679052   13.574712   20.462290
  H     15.769765   14.487235   21.788646
  H     14.466613   16.214740   22.124928
  H     15.952249   18.158969   19.557076

 Total Charge           Charge          ....    0
 Multiplicity           Mult            ....    1
 Number of Electrons    NEL             ....  154
 Basis Dimension        Dim             ....  828

ORBITAL ENERGIES
----------------

  NO   OCC          E(Eh)            E(eV)
   0   2.0000     -91.889696     -2500.4457
   1   2.0000     -20.593925      -560.3892
   2   2.0000     -20.589007      -560.2554
   3   2.0000     -20.551729      -559.2410
   4   2.0000     -15.630829      -425.3365
   5   2.0000     -15.607135      -424.6917
   6   2.0000     -11.393174      -310.0240
   7   2.0000     -11.384386      -309.7849
   8   2.0000     -11.340418      -308.5885
   9   2.0000     -11.310011      -307.7610
  10   2.0000     -11.305177      -307.6295
  11   2.0000     -11.303630      -307.5874
  12   2.0000     -11.261893      -306.4517
  13   2.0000     -11.260431      -306.4119
  14   2.0000     -11.257195      -306.3239
  15   2.0000     -11.249900      -306.1253
  16   2.0000     -11.240069      -305.8578
  17   2.0000     -11.236385      -305.7576
  18   2.0000     -11.234756      -305.7132
  19   2.0000     -11.232824      -305.6607
  20   2.0000      -8.894769      -242.0390
  21   2.0000      -6.576342      -178.9514
  22   2.0000      -6.574342      -178.8969
  23   2.0000      -6.573750      -178.8808
  24   2.0000      -1.454220       -39.5713
  25   2.0000      -1.413670       -38.4679
  26   2.0000      -1.359266       -36.9875
  27   2.0000      -1.341674       -36.5088
  28   2.0000      -1.238597       -33.7039
  29   2.0000      -1.154520       -31.4161
  30   2.0000      -1.122340       -30.5404
  31   2.0000      -1.044786       -28.4301
  32   2.0000      -1.037722       -28.2378
  33   2.0000      -1.012135       -27.5416
  34   2.0000      -1.000927       -27.2366
  35   2.0000      -0.985937       -26.8287
  36   2.0000      -0.922457       -25.1013
  37   2.0000      -0.881898       -23.9977
  38   2.0000      -0.850179       -23.1345
  39   2.0000      -0.838758       -22.8238
  40   2.0000      -0.830303       -22.5937
  41   2.0000      -0.828994       -22.5581
  42   2.0000      -0.761047       -20.7091
  43   2.0000      -0.736848       -20.0507
  44   2.0000      -0.728156       -19.8141
  45   2.0000      -0.691880       -18.8270
  46   2.0000      -0.688657       -18.7393
  47   2.0000      -0.681341       -18.5402
  48   2.0000      -0.673606       -18.3297
  49   2.0000      -0.654757       -17.8168
  50   2.0000      -0.649666       -17.6783
  51   2.0000      -0.641639       -17.4599
  52   2.0000      -0.630609       -17.1597
  53   2.0000      -0.624367       -16.9899
  54   2.0000      -0.605047       -16.4642
  55   2.0000      -0.600843       -16.3498
  56   2.0000      -0.597245       -16.2519
  57   2.0000      -0.578834       -15.7509
  58   2.0000      -0.575022       -15.6472
  59   2.0000      -0.563793       -15.3416
  60   2.0000      -0.560244       -15.2450
  61   2.0000      -0.550562       -14.9815
  62   2.0000      -0.537151       -14.6166
  63   2.0000      -0.525091       -14.2885
  64   2.0000      -0.518310       -14.1039
  65   2.0000      -0.511445       -13.9171
  66   2.0000      -0.505334       -13.7508
  67   2.0000      -0.495879       -13.4936
  68   2.0000      -0.481292       -13.0966
  69   2.0000      -0.463658       -12.6168
  70   2.0000      -0.462195       -12.5770
  71   2.0000      -0.453069       -12.3286
  72   2.0000      -0.355010        -9.6603
  73   2.0000      -0.346602        -9.4315
  74   2.0000      -0.328698        -8.9443
  75   2.0000      -0.318903        -8.6778
  76   2.0000      -0.316698        -8.6178
  77   0.0000       0.071980         1.9587
  78   0.0000       0.108324         2.9476
  79   0.0000       0.118880         3.2349
  80   0.0000       0.134239         3.6528
  81   0.0000       0.138234         3.7615

MULLIKEN ATOMIC CHARGES
-----------------------
   0 C :   -0.262763
   1 C :    0.026203
   2 O :   -0.367173
   3 C :    0.469841
   4 O :   -0.392679
   5 C :   -0.229222
   6 C :    0.159657
   7 C :   -0.285685
   8 N :   -0.128155
   9 C :    0.206104
  10 S :   -0.439879
  11 N :   -0.211207
  12 C :    0.044058
  13 C :    0.032732
  14 C :   -0.174430
  15 C :   -0.133417
  16 C :   -0.277491
  17 C :    0.313513
  18 O :   -0.359007
  19 C :   -0.254452
  20 H :    0.105424
  21 H :    0.091085
  22 H :    0.091786
  23 H :    0.093020
  24 H :    0.110841
  25 H :    0.131470
  26 H :    0.106068
  27 H :    0.121070
  28 H :    0.198946
  29 H :    0.199934
  30 H :    0.156642
  31 H :    0.162023
  32 H :    0.161158
  33 H :    0.129001
  34 H :    0.240419
  35 H :    0.164564
Sum of atomic charges:   -0.0000000

LOEWDIN ATOMIC CHARGES
----------------------
   0 C :    0.110361
   1 C :   -0.023705
   2 O :    0.300245
   3 C :   -0.422970
   4 O :    0.123685
   5 C :   -0.097591
   6 C :   -0.064938
   7 C :    0.125991
   8 N :    0.405916
   9 C :   -0.458335
  10 S :   -0.035771
  11 N :    0.396220
  12 C :   -0.048828
  13 C :   -0.041405
  14 C :    0.024637
  15 C :    0.041641
  16 C :   -0.001060
  17 C :   -0.193060
  18 O :    0.392989
  19 C :    0.028145
  20 H :   -0.022448
  21 H :   -0.029947
  22 H :   -0.024268
  23 H :   -0.035410
  24 H :   -0.024880
  25 H :   -0.006831
  26 H :   -0.020227
  27 H :   -0.011161
  28 H :   -0.058284
  29 H :   -0.063204
  30 H :   -0.007388
  31 H :   -0.023296
  32 H :   -0.020475
  33 H :   -0.035869
  34 H :   -0.154397
  35 H :   -0.024081

  Mayer bond orders larger than 0.100000
B(  0-C ,  1-C ) :   0.9776 B(  0-C , 20-H ) :   0.9768 B(  0-C , 21-H ) :   0.9791
B(  0-C , 22-H ) :   0.9756 B(  1-C ,  2-O ) :   0.8959 B(  1-C , 23-H ) :   0.9711
B(  1-C , 24-H ) :   0.9761 B(  2-O ,  3-C ) :   1.0838 B(  3-C ,  4-O ) :   2.0499
B(  3-C ,  5-C ) :   1.0196 B(  5-C ,  6-C ) :   1.6590 B(  5-C , 12-C ) :   0.9536
B(  6-C ,  7-C ) :   0.9520 B(  6-C ,  8-N ) :   1.1396 B(  7-C , 25-H ) :   0.9649
B(  7-C , 26-H ) :   0.9897 B(  7-C , 27-H ) :   0.9665 B(  8-N ,  9-C ) :   1.1834
B(  8-N , 28-H ) :   0.9470 B(  9-C , 10-S ) :   1.6115 B(  9-C , 11-N ) :   1.3049
B( 11-N , 12-C ) :   0.9788 B( 11-N , 29-H ) :   0.9486 B( 12-C , 13-C ) :   0.9720
B( 12-C , 30-H ) :   0.9958 B( 13-C , 14-C ) :   1.3792 B( 13-C , 19-C ) :   1.3624
B( 14-C , 15-C ) :   1.3972 B( 14-C , 31-H ) :   0.9625 B( 15-C , 16-C ) :   1.3594
B( 15-C , 32-H ) :   0.9708 B( 16-C , 17-C ) :   1.3329 B( 16-C , 33-H ) :   0.9858
B( 17-C , 18-O ) :   1.1042 B( 17-C , 19-C ) :   1.3675 B( 18-O , 34-H ) :   0.9802
B( 19-C , 35-H ) :   0.9601

MP2 TOTAL ENERGY:    -1274.328155832 Eh
FINAL SINGLE POINT ENERGY     -1274.328155831590

DIPOLE MOMENT
-------------
                                X             Y             Z
Electronic contribution:     10.65551       9.30993      10.70705
Nuclear contribution   :    -12.14439     -10.52739     -11.35875
                        -----------------------------------------
Total Dipole Moment    :     -1.48887      -1.21745      -0.65170
                        -----------------------------------------
Magnitude (a.u.)       :      2.03068
Magnitude (Debye)      :      5.16157

Rotational constants in cm-1:     0.009628     0.009416     0.005782
Rotational constants in MHz :   288.627140   282.292690   173.332984

                             ****ORCA TERMINATED NORMALLY****
TOTAL RUN TIME: 0 days 1 hours 41 minutes 32 seconds 798 msec
