                         Program Version 4.2.0 -  RELEASE  -
|  1> ! ri-mp2 cc-pvtz cc-pvtz/c TightSCF NoKeepInts
|  2>
|  3> %scf
|  4>   MaxCore 4096
|  5> end
|  6> *xyz  0  1
|  7>     C       13.7042312   15.9168452   14.1585975
|  8>     C       14.8905567   15.5990321   15.0840237
|  9>     O       15.8766892   16.6218832   14.8887717
| 10>     C       16.9634690   16.5799753   15.7056308
| 11>     O       17.6711187   15.5898837   15.7727315
| 12>     C       17.0770195   17.7320894   16.6613853
| 13>     C       16.6923392   18.9927991   16.3309218
| 14>     C       15.9058142   19.4342926   15.1124059
| 15>     N       17.0603288   20.0814921   17.1254677
| 16>     C       17.9873475   20.0273866   18.1312941
| 17>     S       18.4554809   21.3798663   18.9600674
| 18>     N       18.5242255   18.7938568   18.4006416
| 19>     C       18.0755654   17.5199976   17.8054093
| 20>     C       17.6044312   16.5046483   18.8380836
| 21>     C       18.1684299   15.2171768   18.8872763
| 22>     C       17.7313490   14.2813793   19.8397368
| 23>     C       16.7222542   14.6366171   20.7512839
| 24>     C       16.1568092   15.9182803   20.7027578
| 25>     O       15.1785835   16.2622420   21.5779422
| 26>     C       16.5932891   16.8472035   19.7527218
| 27>     H       13.2700353   16.8935385   14.4049937
| 28>     H       12.9208730   15.1562721   14.2632170
| 29>     H       14.0270330   15.9345857   13.1100554
| 30>     H       14.5541520   15.5847517   16.1297251
| 31>     H       15.3089816   14.6134735   14.8372336
| 32>     H       16.3822032   19.0788637   14.1898650
| 33>     H       15.8254159   20.5250721   15.0299173
| 34>     H       14.8856519   19.0322227   15.1421349
| 35>     H       16.6930795   20.9977186   16.9237729
| 36>     H       19.1911874   18.7777897   19.1619610
| 37>     H       19.0093359   17.1851368   17.3303399
| 38>     H       18.9381343   14.9369800   18.1717679
| 39>     H       18.1712247   13.2859454   19.8642510
| 40>     H       16.3809749   13.9164411   21.4874220
| 41>     H       15.0430912   15.5087273   22.1719227
| 42>     H       16.1462944   17.8355339   19.7322701
| 43> *
| 44>
| 45>                          ****END OF INPUT****

CARTESIAN COORDINATES (ANGSTROEM)
---------------------------------
  C     13.704231   15.916845   14.158597
  C     14.890557   15.599032   15.084024
  O     15.876689   16.621883   14.888772
  C     16.963469   16.579975   15.705631
  O     17.671119   15.589884   15.772732
  C     17.077019   17.732089   16.661385
  C     16.692339   18.992799   16.330922
  C     15.905814   19.434293   15.112406
  N     17.060329   20.081492   17.125468
  C     17.987347   20.027387   18.131294
  S     18.455481   21.379866   18.960067
  N     18.524226   18.793857   18.400642
  C     18.075565   17.519998   17.805409
  C     17.604431   16.504648   18.838084
  C     18.168430   15.217177   18.887276
  C     17.731349   14.281379   19.839737
  C     16.722254   14.636617   20.751284
  C     16.156809   15.918280   20.702758
  O     15.178584   16.262242   21.577942
  C     16.593289   16.847203   19.752722
  H     13.270035   16.893538   14.404994
  H     12.920873   15.156272   14.263217
  H     14.027033   15.934586   13.110055
  H     14.554152   15.584752   16.129725
  H     15.308982   14.613473   14.837234
  H     16.382203   19.078864   14.189865
  H     15.825416   20.525072   15.029917
  H     14.885652   19.032223   15.142135
  H     16.693079   20.997719   16.923773
  H     19.191187   18.777790   19.161961
  H     19.009336   17.185137   17.330340
  H     18.938134   14.936980   18.171768
  H     18.171225   13.285945   19.864251
  H     16.380975   13.916441   21.487422
  H     15.043091   15.508727   22.171923
  H     16.146294   17.835534   19.732270

 Total Charge           Charge          ....    0
 Multiplicity           Mult            ....    1
 Number of Electrons    NEL             ....  154
 Basis Dimension        Dim             ....  828

ORBITAL ENERGIES
----------------

  NO   OCC          E(Eh)            E(eV)
   0   2.0000     -91.889242     -2500.4334
   1   2.0000     -20.593378      -560.3743
   2   2.0000     -20.591184      -560.3146
   3   2.0000     -20.550128      -559.1974
   4   2.0000     -15.630237      -425.3204
   5   2.0000     -15.606732      -424.6808
   6   2.0000     -11.393292      -310.0272
   7   2.0000     -11.383894      -309.7715
   8   2.0000     -11.339702      -308.5690
   9   2.0000     -11.309423      -307.7451
  10   2.0000     -11.304949      -307.6233
  11   2.0000     -11.302071      -307.5450
  12   2.0000     -11.260689      -306.4189
  13   2.0000     -11.260335      -306.4093
  14   2.0000     -11.256583      -306.3072
  15   2.0000     -11.249310      -306.1093
  16   2.0000     -11.239534      -305.8433
  17   2.0000     -11.235894      -305.7442
  18   2.0000     -11.235801      -305.7417
  19   2.0000     -11.232292      -305.6462
  20   2.0000      -8.894316      -242.0267
  21   2.0000      -6.575890      -178.9391
  22   2.0000      -6.573890      -178.8846
  23   2.0000      -6.573299      -178.8686
  24   2.0000      -1.454533       -39.5798
  25   2.0000      -1.413128       -38.4532
  26   2.0000      -1.358219       -36.9590
  27   2.0000      -1.341157       -36.4947
  28   2.0000      -1.238138       -33.6914
  29   2.0000      -1.153928       -31.4000
  30   2.0000      -1.121942       -30.5296
  31   2.0000      -1.044817       -28.4309
  32   2.0000      -1.037597       -28.2344
  33   2.0000      -1.011494       -27.5242
  34   2.0000      -1.000225       -27.2175
  35   2.0000      -0.985461       -26.8157
  36   2.0000      -0.921876       -25.0855
  37   2.0000      -0.884169       -24.0595
  38   2.0000      -0.848725       -23.0950
  39   2.0000      -0.837246       -22.7826
  40   2.0000      -0.829593       -22.5744
  41   2.0000      -0.826032       -22.4775
  42   2.0000      -0.761115       -20.7110
  43   2.0000      -0.736622       -20.0445
  44   2.0000      -0.727551       -19.7977
  45   2.0000      -0.691143       -18.8070
  46   2.0000      -0.687015       -18.6946
  47   2.0000      -0.681351       -18.5405
  48   2.0000      -0.675093       -18.3702
  49   2.0000      -0.653658       -17.7869
  50   2.0000      -0.652766       -17.7627
  51   2.0000      -0.640719       -17.4348
  52   2.0000      -0.632317       -17.2062
  53   2.0000      -0.617822       -16.8118
  54   2.0000      -0.604533       -16.4502
  55   2.0000      -0.600201       -16.3323
  56   2.0000      -0.596714       -16.2374
  57   2.0000      -0.576799       -15.6955
  58   2.0000      -0.574396       -15.6301
  59   2.0000      -0.564434       -15.3590
  60   2.0000      -0.559930       -15.2365
  61   2.0000      -0.548490       -14.9252
  62   2.0000      -0.543129       -14.7793
  63   2.0000      -0.523231       -14.2378
  64   2.0000      -0.517723       -14.0880
  65   2.0000      -0.511213       -13.9108
  66   2.0000      -0.506674       -13.7873
  67   2.0000      -0.495421       -13.4811
  68   2.0000      -0.480910       -13.0862
  69   2.0000      -0.463078       -12.6010
  70   2.0000      -0.461542       -12.5592
  71   2.0000      -0.452085       -12.3019
  72   2.0000      -0.354397        -9.6436
  73   2.0000      -0.346053        -9.4166
  74   2.0000      -0.328251        -8.9322
  75   2.0000      -0.318415        -8.6645
  76   2.0000      -0.316070        -8.6007
  77   0.0000       0.072513         1.9732
  78   0.0000       0.109175         2.9708
  79   0.0000       0.120366         3.2753
  80   0.0000       0.134630         3.6635
  81   0.0000       0.137832         3.7506

MULLIKEN ATOMIC CHARGES
-----------------------
   0 C :   -0.273807
   1 C :    0.041782
   2 O :   -0.360021
   3 C :    0.446086
   4 O :   -0.399385
   5 C :   -0.198472
   6 C :    0.151294
   7 C :   -0.283737
   8 N :   -0.127416
   9 C :    0.206969
  10 S :   -0.440440
  11 N :   -0.210579
  12 C :    0.042325
  13 C :    0.034257
  14 C :   -0.171660
  15 C :   -0.133449
  16 C :   -0.277592
  17 C :    0.313671
  18 O :   -0.359017
  19 C :   -0.255130
  20 H :    0.090476
  21 H :    0.098555
  22 H :    0.101747
  23 H :    0.085059
  24 H :    0.110854
  25 H :    0.128968
  26 H :    0.104620
  27 H :    0.123940
  28 H :    0.198987
  29 H :    0.199853
  30 H :    0.156246
  31 H :    0.160799
  32 H :    0.160760
  33 H :    0.128829
  34 H :    0.240277
  35 H :    0.164351
Sum of atomic charges:    0.0000000

LOEWDIN ATOMIC CHARGES
----------------------
   0 C :    0.109199
   1 C :   -0.021188
   2 O :    0.299727
   3 C :   -0.421045
   4 O :    0.119432
   5 C :   -0.096380
   6 C :   -0.064485
   7 C :    0.125989
   8 N :    0.405889
   9 C :   -0.458306
  10 S :   -0.036215
  11 N :    0.396233
  12 C :   -0.048499
  13 C :   -0.041167
  14 C :    0.024892
  15 C :    0.041532
  16 C :   -0.001170
  17 C :   -0.193121
  18 O :    0.392988
  19 C :    0.028356
  20 H :   -0.030395
  21 H :   -0.023091
  22 H :   -0.024516
  23 H :   -0.031410
  24 H :   -0.026239
  25 H :   -0.007448
  26 H :   -0.020634
  27 H :   -0.011103
  28 H :   -0.058347
  29 H :   -0.063212
  30 H :   -0.007602
  31 H :   -0.023502
  32 H :   -0.020638
  33 H :   -0.035963
  34 H :   -0.154559
  35 H :   -0.024002

  Mayer bond orders larger than 0.100000
B(  0-C ,  1-C ) :   0.9743 B(  0-C , 20-H ) :   0.9787 B(  0-C , 21-H ) :   0.9768
B(  0-C , 22-H ) :   0.9766 B(  1-C ,  2-O ) :   0.9050 B(  1-C , 23-H ) :   0.9701
B(  1-C , 24-H ) :   0.9799 B(  2-O ,  3-C ) :   1.0837 B(  3-C ,  4-O ) :   2.0309
B(  3-C ,  5-C ) :   1.0316 B(  5-C ,  6-C ) :   1.6572 B(  5-C , 12-C ) :   0.9506
B(  6-C ,  7-C ) :   0.9534 B(  6-C ,  8-N ) :   1.1391 B(  7-C , 25-H ) :   0.9649
B(  7-C , 26-H ) :   0.9908 B(  7-C , 27-H ) :   0.9644 B(  8-N ,  9-C ) :   1.1838
B(  8-N , 28-H ) :   0.9470 B(  9-C , 10-S ) :   1.6107 B(  9-C , 11-N ) :   1.3052
B( 11-N , 12-C ) :   0.9783 B( 11-N , 29-H ) :   0.9485 B( 12-C , 13-C ) :   0.9718
B( 12-C , 30-H ) :   0.9961 B( 13-C , 14-C ) :   1.3788 B( 13-C , 19-C ) :   1.3627
B( 14-C , 15-C ) :   1.3974 B( 14-C , 31-H ) :   0.9629 B( 15-C , 16-C ) :   1.3591
B( 15-C , 32-H ) :   0.9709 B( 16-C , 17-C ) :   1.3331 B( 16-C , 33-H ) :   0.9858
B( 17-C , 18-O ) :   1.1041 B( 17-C , 19-C ) :   1.3673 B( 18-O , 34-H ) :   0.9803
B( 19-C , 35-H ) :   0.9601

MP2 TOTAL ENERGY:    -1274.330332669 Eh
FINAL SINGLE POINT ENERGY     -1274.330332669040

DIPOLE MOMENT
-------------
                                X             Y             Z
Electronic contribution:     11.48380       8.22190      10.70884
Nuclear contribution   :    -12.95380      -9.49436     -11.45576
                        -----------------------------------------
Total Dipole Moment    :     -1.47000      -1.27246      -0.74692
                        -----------------------------------------
Magnitude (a.u.)       :      2.08277
Magnitude (Debye)      :      5.29399

Rotational constants in cm-1:     0.009569     0.009401     0.005770
Rotational constants in MHz :   286.868425   281.826445   172.970365

                             ****ORCA TERMINATED NORMALLY****
TOTAL RUN TIME: 0 days 1 hours 34 minutes 49 seconds 192 msec
