                         Program Version 4.2.0 -  RELEASE  -
|  1> ! ri-mp2 cc-pvtz cc-pvtz/c TightSCF NoKeepInts
|  2>
|  3> %scf
|  4>   MaxCore 4096
|  5> end
|  6> *xyz  0  1
|  7>     C       14.3761854   15.1702389   15.8893832
|  8>     C       14.9431981   16.4534936   15.2592610
|  9>     O       16.2884156   16.1577622   14.8279912
| 10>     C       17.4052993   16.5135216   15.5403212
| 11>     O       18.4290333   15.8589827   15.4706478
| 12>     C       17.2757525   17.6793851   16.4659221
| 13>     C       16.9808967   18.9103184   15.9819525
| 14>     C       16.5337354   19.2516485   14.5743895
| 15>     N       17.1504935   20.0476128   16.7737031
| 16>     C       17.8307098   20.0601515   17.9632607
| 17>     S       18.0909711   21.4610379   18.8022612
| 18>     N       18.3043127   18.8510306   18.4115613
| 19>     C       18.0056532   17.5401889   17.8003164
| 20>     C       17.3282673   16.5403099   18.7251600
| 21>     C       17.7641212   15.2038095   18.7619571
| 22>     C       17.1225763   14.2661621   19.5881821
| 23>     C       16.0335952   14.6681004   20.3806042
| 24>     C       15.5927151   15.9980057   20.3397606
| 25>     O       14.5341644   16.3860227   21.0944521
| 26>     C       16.2325811   16.9292700   19.5154515
| 27>     H       14.9473409   14.8951961   16.7858160
| 28>     H       14.4254359   14.3349316   15.1794150
| 29>     H       13.3287400   15.3127227   16.1815653
| 30>     H       14.3337435   16.7125779   14.3838286
| 31>     H       14.8781588   17.2808051   15.9751413
| 32>     H       16.9171008   18.5352638   13.8367660
| 33>     H       16.9016500   20.2374868   14.2623931
| 34>     H       15.4401563   19.2646869   14.4982092
| 35>     H       16.8399121   20.9466673   16.4402756
| 36>     H       18.7976555   18.8871020   19.2949519
| 37>     H       19.0228436   17.2012081   17.5527168
| 38>     H       18.5966337   14.8888552   18.1357134
| 39>     H       17.4673655   13.2335784   19.6072661
| 40>     H       15.5341619   13.9463254   21.0185101
| 41>     H       14.2600708   15.6226355   21.6249873
| 42>     H       15.8733535   17.9529039   19.4939056
| 43> *
| 44>
| 45>                          ****END OF INPUT****

CARTESIAN COORDINATES (ANGSTROEM)
---------------------------------
  C     14.376185   15.170239   15.889383
  C     14.943198   16.453494   15.259261
  O     16.288416   16.157762   14.827991
  C     17.405299   16.513522   15.540321
  O     18.429033   15.858983   15.470648
  C     17.275752   17.679385   16.465922
  C     16.980897   18.910318   15.981952
  C     16.533735   19.251648   14.574390
  N     17.150493   20.047613   16.773703
  C     17.830710   20.060151   17.963261
  S     18.090971   21.461038   18.802261
  N     18.304313   18.851031   18.411561
  C     18.005653   17.540189   17.800316
  C     17.328267   16.540310   18.725160
  C     17.764121   15.203810   18.761957
  C     17.122576   14.266162   19.588182
  C     16.033595   14.668100   20.380604
  C     15.592715   15.998006   20.339761
  O     14.534164   16.386023   21.094452
  C     16.232581   16.929270   19.515451
  H     14.947341   14.895196   16.785816
  H     14.425436   14.334932   15.179415
  H     13.328740   15.312723   16.181565
  H     14.333744   16.712578   14.383829
  H     14.878159   17.280805   15.975141
  H     16.917101   18.535264   13.836766
  H     16.901650   20.237487   14.262393
  H     15.440156   19.264687   14.498209
  H     16.839912   20.946667   16.440276
  H     18.797656   18.887102   19.294952
  H     19.022844   17.201208   17.552717
  H     18.596634   14.888855   18.135713
  H     17.467365   13.233578   19.607266
  H     15.534162   13.946325   21.018510
  H     14.260071   15.622635   21.624987
  H     15.873354   17.952904   19.493906

 Total Charge           Charge          ....    0
 Multiplicity           Mult            ....    1
 Number of Electrons    NEL             ....  154
 Basis Dimension        Dim             ....  828

ORBITAL ENERGIES
----------------

  NO   OCC          E(Eh)            E(eV)
   0   2.0000     -91.890313     -2500.4625
   1   2.0000     -20.603464      -560.6488
   2   2.0000     -20.599450      -560.5395
   3   2.0000     -20.549528      -559.1811
   4   2.0000     -15.629000      -425.2867
   5   2.0000     -15.609840      -424.7653
   6   2.0000     -11.398858      -310.1787
   7   2.0000     -11.386184      -309.8338
   8   2.0000     -11.334830      -308.4364
   9   2.0000     -11.316759      -307.9447
  10   2.0000     -11.309766      -307.7544
  11   2.0000     -11.306384      -307.6623
  12   2.0000     -11.267155      -306.5949
  13   2.0000     -11.264274      -306.5165
  14   2.0000     -11.263258      -306.4888
  15   2.0000     -11.256916      -306.3163
  16   2.0000     -11.245953      -306.0180
  17   2.0000     -11.242139      -305.9142
  18   2.0000     -11.239079      -305.8309
  19   2.0000     -11.230069      -305.5857
  20   2.0000      -8.895412      -242.0565
  21   2.0000      -6.576991      -178.9690
  22   2.0000      -6.574981      -178.9143
  23   2.0000      -6.574397      -178.8984
  24   2.0000      -1.449091       -39.4318
  25   2.0000      -1.419177       -38.6178
  26   2.0000      -1.361800       -37.0565
  27   2.0000      -1.341433       -36.5022
  28   2.0000      -1.239612       -33.7316
  29   2.0000      -1.161202       -31.5979
  30   2.0000      -1.126626       -30.6570
  31   2.0000      -1.048581       -28.5333
  32   2.0000      -1.038815       -28.2676
  33   2.0000      -1.018847       -27.7242
  34   2.0000      -1.005852       -27.3706
  35   2.0000      -0.990039       -26.9403
  36   2.0000      -0.926660       -25.2157
  37   2.0000      -0.887540       -24.1512
  38   2.0000      -0.855129       -23.2693
  39   2.0000      -0.842348       -22.9215
  40   2.0000      -0.836930       -22.7740
  41   2.0000      -0.835253       -22.7284
  42   2.0000      -0.752993       -20.4900
  43   2.0000      -0.740678       -20.1549
  44   2.0000      -0.731857       -19.9148
  45   2.0000      -0.697206       -18.9720
  46   2.0000      -0.689292       -18.7566
  47   2.0000      -0.682194       -18.5634
  48   2.0000      -0.675849       -18.3908
  49   2.0000      -0.661492       -18.0001
  50   2.0000      -0.656354       -17.8603
  51   2.0000      -0.645581       -17.5672
  52   2.0000      -0.638228       -17.3671
  53   2.0000      -0.613495       -16.6940
  54   2.0000      -0.607952       -16.5432
  55   2.0000      -0.606986       -16.5169
  56   2.0000      -0.602597       -16.3975
  57   2.0000      -0.583805       -15.8861
  58   2.0000      -0.577717       -15.7205
  59   2.0000      -0.568530       -15.4705
  60   2.0000      -0.562058       -15.2944
  61   2.0000      -0.555499       -15.1159
  62   2.0000      -0.549738       -14.9591
  63   2.0000      -0.530957       -14.4481
  64   2.0000      -0.519418       -14.1341
  65   2.0000      -0.513671       -13.9777
  66   2.0000      -0.505014       -13.7421
  67   2.0000      -0.501351       -13.6425
  68   2.0000      -0.488307       -13.2875
  69   2.0000      -0.470773       -12.8104
  70   2.0000      -0.455472       -12.3940
  71   2.0000      -0.450118       -12.2483
  72   2.0000      -0.356345        -9.6966
  73   2.0000      -0.351975        -9.5777
  74   2.0000      -0.329711        -8.9719
  75   2.0000      -0.324300        -8.8247
  76   2.0000      -0.319864        -8.7039
  77   0.0000       0.081939         2.2297
  78   0.0000       0.103282         2.8105
  79   0.0000       0.116509         3.1704
  80   0.0000       0.129501         3.5239
  81   0.0000       0.130967         3.5638

MULLIKEN ATOMIC CHARGES
-----------------------
   0 C :   -0.264641
   1 C :    0.015359
   2 O :   -0.323737
   3 C :    0.416728
   4 O :   -0.383311
   5 C :   -0.230352
   6 C :    0.159070
   7 C :   -0.319013
   8 N :   -0.137433
   9 C :    0.208448
  10 S :   -0.441509
  11 N :   -0.221768
  12 C :    0.065869
  13 C :    0.020084
  14 C :   -0.217387
  15 C :   -0.128576
  16 C :   -0.277646
  17 C :    0.312944
  18 O :   -0.356495
  19 C :   -0.247524
  20 H :    0.107415
  21 H :    0.105559
  22 H :    0.089445
  23 H :    0.109943
  24 H :    0.101617
  25 H :    0.139064
  26 H :    0.123748
  27 H :    0.121342
  28 H :    0.198579
  29 H :    0.201850
  30 H :    0.166517
  31 H :    0.175379
  32 H :    0.164714
  33 H :    0.131898
  34 H :    0.241354
  35 H :    0.172468
Sum of atomic charges:   -0.0000000

LOEWDIN ATOMIC CHARGES
----------------------
   0 C :    0.107865
   1 C :   -0.023303
   2 O :    0.308067
   3 C :   -0.417460
   4 O :    0.119460
   5 C :   -0.088857
   6 C :   -0.087298
   7 C :    0.128396
   8 N :    0.402905
   9 C :   -0.456455
  10 S :   -0.037284
  11 N :    0.396038
  12 C :   -0.049582
  13 C :   -0.044370
  14 C :    0.020442
  15 C :    0.043952
  16 C :   -0.000373
  17 C :   -0.191506
  18 O :    0.394951
  19 C :    0.026835
  20 H :   -0.023608
  21 H :   -0.023425
  22 H :   -0.026598
  23 H :   -0.028200
  24 H :   -0.038608
  25 H :   -0.005992
  26 H :   -0.012809
  27 H :   -0.015957
  28 H :   -0.057748
  29 H :   -0.063632
  30 H :   -0.004463
  31 H :   -0.021262
  32 H :   -0.018634
  33 H :   -0.034778
  34 H :   -0.153199
  35 H :   -0.023510

  Mayer bond orders larger than 0.100000
B(  0-C ,  1-C ) :   0.9840 B(  0-C , 20-H ) :   0.9715 B(  0-C , 21-H ) :   0.9786
B(  0-C , 22-H ) :   0.9759 B(  1-C ,  2-O ) :   0.8935 B(  1-C , 23-H ) :   0.9783
B(  1-C , 24-H ) :   0.9588 B(  2-O ,  3-C ) :   1.1730 B(  3-C ,  4-O ) :   2.0927
B(  3-C ,  5-C ) :   0.9316 B(  5-C ,  6-C ) :   1.7115 B(  5-C , 12-C ) :   0.9380
B(  6-C ,  7-C ) :   0.9364 B(  6-C ,  8-N ) :   1.1141 B(  7-C , 25-H ) :   0.9721
B(  7-C , 26-H ) :   0.9823 B(  7-C , 27-H ) :   0.9646 B(  8-N ,  9-C ) :   1.1938
B(  8-N , 28-H ) :   0.9497 B(  9-C , 10-S ) :   1.6110 B(  9-C , 11-N ) :   1.2923
B( 11-N , 12-C ) :   0.9848 B( 11-N , 29-H ) :   0.9479 B( 12-C , 13-C ) :   0.9670
B( 12-C , 30-H ) :   0.9902 B( 13-C , 14-C ) :   1.3852 B( 13-C , 19-C ) :   1.3551
B( 14-C , 15-C ) :   1.3928 B( 14-C , 31-H ) :   0.9595 B( 15-C , 16-C ) :   1.3610
B( 15-C , 32-H ) :   0.9700 B( 16-C , 17-C ) :   1.3308 B( 16-C , 33-H ) :   0.9850
B( 17-C , 18-O ) :   1.1088 B( 17-C , 19-C ) :   1.3669 B( 18-O , 34-H ) :   0.9793
B( 19-C , 35-H ) :   0.9564

MP2 TOTAL ENERGY:    -1274.332415292 Eh
FINAL SINGLE POINT ENERGY     -1274.332415292409

DIPOLE MOMENT
-------------
                                X             Y             Z
Electronic contribution:      9.75334       8.53801       7.18651
Nuclear contribution   :    -11.42637      -9.58432      -7.60378
                        -----------------------------------------
Total Dipole Moment    :     -1.67303      -1.04632      -0.41727
                        -----------------------------------------
Magnitude (a.u.)       :      2.01691
Magnitude (Debye)      :      5.12658

Rotational constants in cm-1:     0.011440     0.009086     0.006352
Rotational constants in MHz :   342.956621   272.385888   190.422479

                             ****ORCA TERMINATED NORMALLY****
TOTAL RUN TIME: 0 days 1 hours 41 minutes 27 seconds 240 msec
