                         Program Version 4.2.0 -  RELEASE  -
|  1> ! ri-mp2 cc-pvtz cc-pvtz/c TightSCF NoKeepInts
|  2>
|  3> %scf
|  4>   MaxCore 4096
|  5> end
|  6> *xyz  0  1
|  7>     C       14.8932964   14.3515148   15.8497620
|  8>     C       15.9311610   14.9694355   14.8964479
|  9>     O       16.6229603   15.9996665   15.6243155
| 10>     C       16.2947388   17.3153788   15.4459519
| 11>     O       15.5938094   17.6944916   14.5229305
| 12>     C       16.8587565   18.2007183   16.5250906
| 13>     C       16.8808373   19.5505960   16.3793258
| 14>     C       16.1651375   20.3699971   15.3252943
| 15>     N       17.6275384   20.3557073   17.2425843
| 16>     C       18.5228482   19.8821149   18.1629990
| 17>     S       19.4433495   20.8953481   19.0913880
| 18>     N       18.6338289   18.5183279   18.2615222
| 19>     C       17.7879565   17.5372289   17.5560043
| 20>     C       17.0790889   16.5833333   18.5089557
| 21>     C       17.5010076   15.2462543   18.6277164
| 22>     C       16.8443831   14.3659484   19.5041702
| 23>     C       15.7590177   14.8275762   20.2685441
| 24>     C       15.3402327   16.1606080   20.1550196
| 25>     O       14.2935768   16.6090706   20.8928658
| 26>     C       15.9965180   17.0346424   19.2828193
| 27>     H       15.3782818   13.9669016   16.7556429
| 28>     H       14.3665549   13.5227259   15.3617123
| 29>     H       14.1502979   15.1015914   16.1487862
| 30>     H       16.6474059   14.1920141   14.6015218
| 31>     H       15.4490072   15.3486862   13.9852413
| 32>     H       15.0944330   20.1288205   15.3106184
| 33>     H       16.5643567   20.1500552   14.3269874
| 34>     H       16.2533937   21.4507629   15.4869034
| 35>     H       17.5711870   21.3586597   17.1659585
| 36>     H       19.2775436   18.1987282   18.9741464
| 37>     H       18.5499866   17.0034027   16.9706831
| 38>     H       18.3352791   14.8868991   18.0313039
| 39>     H       17.1756953   13.3324048   19.5879276
| 40>     H       15.2483068   14.1516277   20.9464118
| 41>     H       13.9925181   15.8743610   21.4481621
| 42>     H       15.6627088   18.0644002   19.2122857
| 43> *
| 44>
| 45>                          ****END OF INPUT****

CARTESIAN COORDINATES (ANGSTROEM)
---------------------------------
  C     14.893296   14.351515   15.849762
  C     15.931161   14.969435   14.896448
  O     16.622960   15.999666   15.624315
  C     16.294739   17.315379   15.445952
  O     15.593809   17.694492   14.522930
  C     16.858756   18.200718   16.525091
  C     16.880837   19.550596   16.379326
  C     16.165138   20.369997   15.325294
  N     17.627538   20.355707   17.242584
  C     18.522848   19.882115   18.162999
  S     19.443350   20.895348   19.091388
  N     18.633829   18.518328   18.261522
  C     17.787956   17.537229   17.556004
  C     17.079089   16.583333   18.508956
  C     17.501008   15.246254   18.627716
  C     16.844383   14.365948   19.504170
  C     15.759018   14.827576   20.268544
  C     15.340233   16.160608   20.155020
  O     14.293577   16.609071   20.892866
  C     15.996518   17.034642   19.282819
  H     15.378282   13.966902   16.755643
  H     14.366555   13.522726   15.361712
  H     14.150298   15.101591   16.148786
  H     16.647406   14.192014   14.601522
  H     15.449007   15.348686   13.985241
  H     15.094433   20.128820   15.310618
  H     16.564357   20.150055   14.326987
  H     16.253394   21.450763   15.486903
  H     17.571187   21.358660   17.165958
  H     19.277544   18.198728   18.974146
  H     18.549987   17.003403   16.970683
  H     18.335279   14.886899   18.031304
  H     17.175695   13.332405   19.587928
  H     15.248307   14.151628   20.946412
  H     13.992518   15.874361   21.448162
  H     15.662709   18.064400   19.212286

 Total Charge           Charge          ....    0
 Multiplicity           Mult            ....    1
 Number of Electrons    NEL             ....  154
 Basis Dimension        Dim             ....  828

ORBITAL ENERGIES
----------------

  NO   OCC          E(Eh)            E(eV)
   0   2.0000     -91.888797     -2500.4213
   1   2.0000     -20.600344      -560.5639
   2   2.0000     -20.597110      -560.4759
   3   2.0000     -20.540766      -558.9426
   4   2.0000     -15.629156      -425.2910
   5   2.0000     -15.607028      -424.6888
   6   2.0000     -11.395240      -310.0802
   7   2.0000     -11.383516      -309.7612
   8   2.0000     -11.337305      -308.5037
   9   2.0000     -11.314399      -307.8805
  10   2.0000     -11.307558      -307.6943
  11   2.0000     -11.294472      -307.3382
  12   2.0000     -11.261216      -306.4333
  13   2.0000     -11.259185      -306.3780
  14   2.0000     -11.255650      -306.2818
  15   2.0000     -11.251547      -306.1701
  16   2.0000     -11.244260      -305.9719
  17   2.0000     -11.239440      -305.8407
  18   2.0000     -11.239049      -305.8301
  19   2.0000     -11.223760      -305.4140
  20   2.0000      -8.893868      -242.0144
  21   2.0000      -6.575441      -178.9268
  22   2.0000      -6.573442      -178.8725
  23   2.0000      -6.572852      -178.8564
  24   2.0000      -1.450545       -39.4713
  25   2.0000      -1.416780       -38.5525
  26   2.0000      -1.354211       -36.8500
  27   2.0000      -1.340286       -36.4710
  28   2.0000      -1.238231       -33.6940
  29   2.0000      -1.158106       -31.5137
  30   2.0000      -1.121224       -30.5101
  31   2.0000      -1.043215       -28.3873
  32   2.0000      -1.036964       -28.2172
  33   2.0000      -1.015642       -27.6370
  34   2.0000      -0.996025       -27.1032
  35   2.0000      -0.984597       -26.7922
  36   2.0000      -0.921953       -25.0876
  37   2.0000      -0.891250       -24.2521
  38   2.0000      -0.846427       -23.0324
  39   2.0000      -0.838351       -22.8127
  40   2.0000      -0.834624       -22.7113
  41   2.0000      -0.814825       -22.1725
  42   2.0000      -0.761001       -20.7079
  43   2.0000      -0.733885       -19.9700
  44   2.0000      -0.721927       -19.6446
  45   2.0000      -0.696170       -18.9438
  46   2.0000      -0.689007       -18.7488
  47   2.0000      -0.679388       -18.4871
  48   2.0000      -0.670487       -18.2449
  49   2.0000      -0.661466       -17.9994
  50   2.0000      -0.646426       -17.5901
  51   2.0000      -0.640860       -17.4387
  52   2.0000      -0.634378       -17.2623
  53   2.0000      -0.607516       -16.5313
  54   2.0000      -0.602885       -16.4053
  55   2.0000      -0.599414       -16.3109
  56   2.0000      -0.598258       -16.2794
  57   2.0000      -0.577800       -15.7227
  58   2.0000      -0.569418       -15.4946
  59   2.0000      -0.566317       -15.4103
  60   2.0000      -0.560758       -15.2590
  61   2.0000      -0.547332       -14.8937
  62   2.0000      -0.537113       -14.6156
  63   2.0000      -0.529012       -14.3951
  64   2.0000      -0.524645       -14.2763
  65   2.0000      -0.513223       -13.9655
  66   2.0000      -0.500710       -13.6250
  67   2.0000      -0.497486       -13.5373
  68   2.0000      -0.482288       -13.1237
  69   2.0000      -0.463091       -12.6014
  70   2.0000      -0.452627       -12.3166
  71   2.0000      -0.448337       -12.1999
  72   2.0000      -0.353254        -9.6125
  73   2.0000      -0.350296        -9.5320
  74   2.0000      -0.328040        -8.9264
  75   2.0000      -0.321593        -8.7510
  76   2.0000      -0.318129        -8.6567
  77   0.0000       0.077786         2.1167
  78   0.0000       0.103915         2.8277
  79   0.0000       0.124479         3.3872
  80   0.0000       0.132731         3.6118
  81   0.0000       0.137515         3.7420

MULLIKEN ATOMIC CHARGES
-----------------------
   0 C :   -0.280161
   1 C :    0.009966
   2 O :   -0.347175
   3 C :    0.441234
   4 O :   -0.437014
   5 C :   -0.234454
   6 C :    0.177165
   7 C :   -0.268108
   8 N :   -0.126611
   9 C :    0.211369
  10 S :   -0.442403
  11 N :   -0.216953
  12 C :    0.066185
  13 C :    0.053369
  14 C :   -0.190785
  15 C :   -0.137306
  16 C :   -0.274172
  17 C :    0.316752
  18 O :   -0.356645
  19 C :   -0.248059
  20 H :    0.099770
  21 H :    0.098344
  22 H :    0.099834
  23 H :    0.101542
  24 H :    0.124956
  25 H :    0.133481
  26 H :    0.129180
  27 H :    0.094448
  28 H :    0.199645
  29 H :    0.200732
  30 H :    0.151843
  31 H :    0.151396
  32 H :    0.163704
  33 H :    0.130909
  34 H :    0.240668
  35 H :    0.163353
Sum of atomic charges:   -0.0000000

LOEWDIN ATOMIC CHARGES
----------------------
   0 C :    0.104600
   1 C :   -0.015441
   2 O :    0.310883
   3 C :   -0.414751
   4 O :    0.094151
   5 C :   -0.095109
   6 C :   -0.056718
   7 C :    0.131132
   8 N :    0.407146
   9 C :   -0.456075
  10 S :   -0.036802
  11 N :    0.394486
  12 C :   -0.054455
  13 C :   -0.038934
  14 C :    0.016412
  15 C :    0.039556
  16 C :   -0.000731
  17 C :   -0.189208
  18 O :    0.395319
  19 C :    0.033775
  20 H :   -0.027265
  21 H :   -0.027680
  22 H :   -0.025823
  23 H :   -0.028559
  24 H :   -0.028360
  25 H :   -0.004282
  26 H :   -0.004975
  27 H :   -0.023697
  28 H :   -0.057153
  29 H :   -0.064551
  30 H :   -0.013823
  31 H :   -0.029518
  32 H :   -0.021520
  33 H :   -0.035289
  34 H :   -0.153881
  35 H :   -0.022861

  Mayer bond orders larger than 0.100000
B(  0-C ,  1-C ) :   0.9676 B(  0-C , 20-H ) :   0.9724 B(  0-C , 21-H ) :   0.9772
B(  0-C , 22-H ) :   0.9780 B(  1-C ,  2-O ) :   0.8904 B(  1-C , 23-H ) :   0.9848
B(  1-C , 24-H ) :   0.9747 B(  2-O ,  3-C ) :   1.1706 B(  3-C ,  4-O ) :   1.9648
B(  3-C ,  5-C ) :   1.0635 B(  5-C ,  6-C ) :   1.6393 B(  5-C , 12-C ) :   0.9543
B(  6-C ,  7-C ) :   0.9651 B(  6-C ,  8-N ) :   1.1549 B(  7-C , 25-H ) :   0.9612
B(  7-C , 26-H ) :   0.9589 B(  7-C , 27-H ) :   0.9905 B(  8-N ,  9-C ) :   1.1877
B(  8-N , 28-H ) :   0.9464 B(  9-C , 10-S ) :   1.6046 B(  9-C , 11-N ) :   1.3104
B( 11-N , 12-C ) :   0.9656 B( 11-N , 29-H ) :   0.9484 B( 12-C , 13-C ) :   0.9640
B( 12-C , 30-H ) :   1.0005 B( 13-C , 14-C ) :   1.3492 B( 13-C , 19-C ) :   1.3801
B( 14-C , 15-C ) :   1.3915 B( 14-C , 31-H ) :   0.9725 B( 15-C , 16-C ) :   1.3556
B( 15-C , 32-H ) :   0.9706 B( 16-C , 17-C ) :   1.3340 B( 16-C , 33-H ) :   0.9850
B( 17-C , 18-O ) :   1.1050 B( 17-C , 19-C ) :   1.3640 B( 18-O , 34-H ) :   0.9797
B( 19-C , 35-H ) :   0.9593

MP2 TOTAL ENERGY:    -1274.344672590 Eh
FINAL SINGLE POINT ENERGY     -1274.344672590174

DIPOLE MOMENT
-------------
                                X             Y             Z
Electronic contribution:      8.31978      11.35463       7.40264
Nuclear contribution   :     -9.17892     -13.13566      -7.80967
                        -----------------------------------------
Total Dipole Moment    :     -0.85914      -1.78103      -0.40703
                        -----------------------------------------
Magnitude (a.u.)       :      2.01888
Magnitude (Debye)      :      5.13158

Rotational constants in cm-1:     0.012029     0.008462     0.005987
Rotational constants in MHz :   360.624702   253.680012   179.489706

                             ****ORCA TERMINATED NORMALLY****
TOTAL RUN TIME: 0 days 1 hours 39 minutes 10 seconds 174 msec
