                         Program Version 4.2.0 -  RELEASE  -
|  1> ! ri-mp2 cc-pvtz cc-pvtz/c TightSCF NoKeepInts
|  2>
|  3> %scf
|  4>   MaxCore 4096
|  5> end
|  6> *xyz  0  1
|  7>     C       14.0073939   15.5748013   14.4021600
|  8>     C       14.9849454   15.9674773   15.5218471
|  9>     O       16.2943931   16.0608136   14.9352169
| 10>     C       17.3471893   16.2990476   15.7686999
| 11>     O       18.2589025   15.5009592   15.8847085
| 12>     C       17.2521399   17.5526056   16.5835843
| 13>     C       16.9013726   18.7362968   16.0199817
| 14>     C       16.3794483   18.9655367   14.6148705
| 15>     N       17.0856556   19.9362330   16.7104719
| 16>     C       17.8238888   20.0596432   17.8575470
| 17>     S       18.0943428   21.5292653   18.5656171
| 18>     N       18.3462368   18.9008623   18.3764477
| 19>     C       18.0460811   17.5390761   17.8914343
| 20>     C       17.4342823   16.6237178   18.9422372
| 21>     C       17.9466767   15.3298282   19.1445496
| 22>     C       17.3738327   14.4763447   20.1021816
| 23>     C       16.2780773   14.9201532   20.8622701
| 24>     C       15.7620548   16.2073236   20.6585749
| 25>     O       14.6984365   16.6353180   21.3840488
| 26>     C       16.3334034   17.0542817   19.7033597
| 27>     H       14.2997037   14.6163089   13.9546677
| 28>     H       13.9961410   16.3353910   13.6117181
| 29>     H       12.9891891   15.4724642   14.7969063
| 30>     H       14.6763631   16.9198721   15.9715328
| 31>     H       14.9771188   15.1952383   16.3036073
| 32>     H       16.9227474   18.3522313   13.8844511
| 33>     H       16.4976076   20.0074716   14.2920171
| 34>     H       15.3149266   18.7156519   14.5402381
| 35>     H       16.7357866   20.7989774   16.3246166
| 36>     H       18.8785357   19.0182612   19.2296290
| 37>     H       19.0574518   17.1966274   17.6259969
| 38>     H       18.7855231   14.9805560   18.5459081
| 39>     H       17.7771760   13.4756053   20.2478055
| 40>     H       15.8320491   14.2633290   21.6018060
| 41>     H       14.4780369   15.9352610   22.0170473
| 42>     H       15.9198895   18.0471681   19.5602433
| 43> *
| 44>
| 45>                          ****END OF INPUT****

CARTESIAN COORDINATES (ANGSTROEM)
---------------------------------
  C     14.007394   15.574801   14.402160
  C     14.984945   15.967477   15.521847
  O     16.294393   16.060814   14.935217
  C     17.347189   16.299048   15.768700
  O     18.258903   15.500959   15.884708
  C     17.252140   17.552606   16.583584
  C     16.901373   18.736297   16.019982
  C     16.379448   18.965537   14.614870
  N     17.085656   19.936233   16.710472
  C     17.823889   20.059643   17.857547
  S     18.094343   21.529265   18.565617
  N     18.346237   18.900862   18.376448
  C     18.046081   17.539076   17.891434
  C     17.434282   16.623718   18.942237
  C     17.946677   15.329828   19.144550
  C     17.373833   14.476345   20.102182
  C     16.278077   14.920153   20.862270
  C     15.762055   16.207324   20.658575
  O     14.698436   16.635318   21.384049
  C     16.333403   17.054282   19.703360
  H     14.299704   14.616309   13.954668
  H     13.996141   16.335391   13.611718
  H     12.989189   15.472464   14.796906
  H     14.676363   16.919872   15.971533
  H     14.977119   15.195238   16.303607
  H     16.922747   18.352231   13.884451
  H     16.497608   20.007472   14.292017
  H     15.314927   18.715652   14.540238
  H     16.735787   20.798977   16.324617
  H     18.878536   19.018261   19.229629
  H     19.057452   17.196627   17.625997
  H     18.785523   14.980556   18.545908
  H     17.777176   13.475605   20.247805
  H     15.832049   14.263329   21.601806
  H     14.478037   15.935261   22.017047
  H     15.919889   18.047168   19.560243

 Total Charge           Charge          ....    0
 Multiplicity           Mult            ....    1
 Number of Electrons    NEL             ....  154
 Basis Dimension        Dim             ....  828

ORBITAL ENERGIES
----------------

  NO   OCC          E(Eh)            E(eV)
   0   2.0000     -91.890246     -2500.4607
   1   2.0000     -20.596775      -560.4667
   2   2.0000     -20.595673      -560.4367
   3   2.0000     -20.553418      -559.2869
   4   2.0000     -15.630282      -425.3216
   5   2.0000     -15.608525      -424.7296
   6   2.0000     -11.395257      -310.0807
   7   2.0000     -11.385484      -309.8148
   8   2.0000     -11.338366      -308.5326
   9   2.0000     -11.313379      -307.8527
  10   2.0000     -11.307141      -307.6830
  11   2.0000     -11.307105      -307.6820
  12   2.0000     -11.265325      -306.5451
  13   2.0000     -11.261711      -306.4467
  14   2.0000     -11.260718      -306.4197
  15   2.0000     -11.253357      -306.2194
  16   2.0000     -11.243032      -305.9384
  17   2.0000     -11.239282      -305.8364
  18   2.0000     -11.237362      -305.7842
  19   2.0000     -11.235775      -305.7410
  20   2.0000      -8.895334      -242.0544
  21   2.0000      -6.576910      -178.9668
  22   2.0000      -6.574905      -178.9123
  23   2.0000      -6.574317      -178.8962
  24   2.0000      -1.452813       -39.5331
  25   2.0000      -1.416506       -38.5451
  26   2.0000      -1.362998       -37.0890
  27   2.0000      -1.341848       -36.5136
  28   2.0000      -1.239263       -33.7221
  29   2.0000      -1.157823       -31.5060
  30   2.0000      -1.124414       -30.5969
  31   2.0000      -1.046361       -28.4729
  32   2.0000      -1.041369       -28.3371
  33   2.0000      -1.015546       -27.6344
  34   2.0000      -1.003675       -27.3114
  35   2.0000      -0.988386       -26.8953
  36   2.0000      -0.924651       -25.1610
  37   2.0000      -0.880627       -23.9631
  38   2.0000      -0.854475       -23.2515
  39   2.0000      -0.842545       -22.9268
  40   2.0000      -0.835166       -22.7260
  41   2.0000      -0.832976       -22.6664
  42   2.0000      -0.760235       -20.6870
  43   2.0000      -0.738546       -20.0968
  44   2.0000      -0.730693       -19.8832
  45   2.0000      -0.694275       -18.8922
  46   2.0000      -0.688782       -18.7427
  47   2.0000      -0.684412       -18.6238
  48   2.0000      -0.673998       -18.3404
  49   2.0000      -0.660321       -17.9682
  50   2.0000      -0.652175       -17.7466
  51   2.0000      -0.646520       -17.5927
  52   2.0000      -0.639359       -17.3979
  53   2.0000      -0.615102       -16.7378
  54   2.0000      -0.606099       -16.4928
  55   2.0000      -0.603874       -16.4322
  56   2.0000      -0.600049       -16.3282
  57   2.0000      -0.581754       -15.8303
  58   2.0000      -0.576457       -15.6862
  59   2.0000      -0.565626       -15.3915
  60   2.0000      -0.560556       -15.2535
  61   2.0000      -0.556957       -15.1556
  62   2.0000      -0.543455       -14.7882
  63   2.0000      -0.528145       -14.3715
  64   2.0000      -0.522227       -14.2105
  65   2.0000      -0.513533       -13.9739
  66   2.0000      -0.501754       -13.6534
  67   2.0000      -0.498876       -13.5751
  68   2.0000      -0.487939       -13.2775
  69   2.0000      -0.468131       -12.7385
  70   2.0000      -0.463655       -12.6167
  71   2.0000      -0.452133       -12.3032
  72   2.0000      -0.356096        -9.6899
  73   2.0000      -0.349243        -9.5034
  74   2.0000      -0.329447        -8.9647
  75   2.0000      -0.320839        -8.7305
  76   2.0000      -0.319451        -8.6927
  77   0.0000       0.075719         2.0604
  78   0.0000       0.105860         2.8806
  79   0.0000       0.117235         3.1901
  80   0.0000       0.132146         3.5959
  81   0.0000       0.135421         3.6850

MULLIKEN ATOMIC CHARGES
-----------------------
   0 C :   -0.260069
   1 C :    0.012088
   2 O :   -0.339470
   3 C :    0.439936
   4 O :   -0.375993
   5 C :   -0.250557
   6 C :    0.170398
   7 C :   -0.303629
   8 N :   -0.132970
   9 C :    0.206151
  10 S :   -0.440453
  11 N :   -0.216196
  12 C :    0.055674
  13 C :    0.025768
  14 C :   -0.200036
  15 C :   -0.130068
  16 C :   -0.277986
  17 C :    0.313700
  18 O :   -0.357653
  19 C :   -0.251690
  20 H :    0.108551
  21 H :    0.093754
  22 H :    0.092250
  23 H :    0.096956
  24 H :    0.114043
  25 H :    0.139663
  26 H :    0.115551
  27 H :    0.117725
  28 H :    0.198171
  29 H :    0.200891
  30 H :    0.161617
  31 H :    0.170910
  32 H :    0.163190
  33 H :    0.130385
  34 H :    0.240895
  35 H :    0.168507
Sum of atomic charges:   -0.0000000

LOEWDIN ATOMIC CHARGES
----------------------
   0 C :    0.111478
   1 C :   -0.027055
   2 O :    0.302599
   3 C :   -0.420912
   4 O :    0.127604
   5 C :   -0.093744
   6 C :   -0.075281
   7 C :    0.128017
   8 N :    0.404428
   9 C :   -0.457770
  10 S :   -0.036314
  11 N :    0.396090
  12 C :   -0.049537
  13 C :   -0.043165
  14 C :    0.022391
  15 C :    0.042805
  16 C :   -0.000766
  17 C :   -0.192630
  18 O :    0.393752
  19 C :    0.027308
  20 H :   -0.021648
  21 H :   -0.029019
  22 H :   -0.023810
  23 H :   -0.039174
  24 H :   -0.026286
  25 H :   -0.005919
  26 H :   -0.016609
  27 H :   -0.015014
  28 H :   -0.058192
  29 H :   -0.063367
  30 H :   -0.005884
  31 H :   -0.021970
  32 H :   -0.019498
  33 H :   -0.035347
  34 H :   -0.153733
  35 H :   -0.023827

  Mayer bond orders larger than 0.100000
B(  0-C ,  1-C ) :   0.9783 B(  0-C , 20-H ) :   0.9772 B(  0-C , 21-H ) :   0.9774
B(  0-C , 22-H ) :   0.9756 B(  1-C ,  2-O ) :   0.8968 B(  1-C , 23-H ) :   0.9679
B(  1-C , 24-H ) :   0.9767 B(  2-O ,  3-C ) :   1.1298 B(  3-C ,  4-O ) :   2.0956
B(  3-C ,  5-C ) :   0.9556 B(  5-C ,  6-C ) :   1.6902 B(  5-C , 12-C ) :   0.9484
B(  6-C ,  7-C ) :   0.9408 B(  6-C ,  8-N ) :   1.1260 B(  7-C , 25-H ) :   0.9668
B(  7-C , 26-H ) :   0.9875 B(  7-C , 27-H ) :   0.9658 B(  8-N ,  9-C ) :   1.1882
B(  8-N , 28-H ) :   0.9483 B(  9-C , 10-S ) :   1.6118 B(  9-C , 11-N ) :   1.2980
B( 11-N , 12-C ) :   0.9840 B( 11-N , 29-H ) :   0.9485 B( 12-C , 13-C ) :   0.9702
B( 12-C , 30-H ) :   0.9923 B( 13-C , 14-C ) :   1.3834 B( 13-C , 19-C ) :   1.3591
B( 14-C , 15-C ) :   1.3944 B( 14-C , 31-H ) :   0.9601 B( 15-C , 16-C ) :   1.3607
B( 15-C , 32-H ) :   0.9703 B( 16-C , 17-C ) :   1.3313 B( 16-C , 33-H ) :   0.9854
B( 17-C , 18-O ) :   1.1065 B( 17-C , 19-C ) :   1.3672 B( 18-O , 34-H ) :   0.9798
B( 19-C , 35-H ) :   0.9581

MP2 TOTAL ENERGY:    -1274.330139865 Eh
FINAL SINGLE POINT ENERGY     -1274.330139864633

DIPOLE MOMENT
-------------
                                X             Y             Z
Electronic contribution:     10.51282       8.34363       9.71076
Nuclear contribution   :    -12.06861      -9.49501     -10.14985
                        -----------------------------------------
Total Dipole Moment    :     -1.55579      -1.15138      -0.43908
                        -----------------------------------------
Magnitude (a.u.)       :      1.98468
Magnitude (Debye)      :      5.04465

Rotational constants in cm-1:     0.010034     0.009335     0.006078
Rotational constants in MHz :   300.800276   279.862463   182.225233

                             ****ORCA TERMINATED NORMALLY****
TOTAL RUN TIME: 0 days 1 hours 43 minutes 20 seconds 709 msec
