                         Program Version 4.2.0 -  RELEASE  -
|  1> ! ri-mp2 cc-pvtz cc-pvtz/c TightSCF NoKeepInts
|  2>
|  3> %scf
|  4>   MaxCore 4096
|  5> end
|  6> *xyz  0  1
|  7>     C       15.3775583   13.9955914   15.0324774
|  8>     C       14.9183333   15.3610397   15.5699600
|  9>     O       16.0791950   16.2042158   15.6428282
| 10>     C       15.9135343   17.5572773   15.5793623
| 11>     O       15.0943999   18.0713298   14.8373270
| 12>     C       16.7469012   18.2917643   16.5948226
| 13>     C       16.9085836   19.6376927   16.5190835
| 14>     C       16.1369979   20.6041478   15.6444103
| 15>     N       17.8784832   20.2900690   17.2837098
| 16>     C       18.8506611   19.6539969   18.0072842
| 17>     S       20.0273853   20.4882890   18.8165523
| 18>     N       18.8115964   18.2826103   18.0098293
| 19>     C       17.7465849   17.4555403   17.4117359
| 20>     C       17.0939852   16.5189249   18.4204188
| 21>     C       17.3178667   15.1311476   18.3580475
| 22>     C       16.7083671   14.2676853   19.2837465
| 23>     C       15.8722836   14.7973328   20.2817115
| 24>     C       15.6524259   16.1802390   20.3489539
| 25>     O       14.8460682   16.6941456   21.3115068
| 26>     C       16.2590700   17.0367981   19.4249311
| 27>     H       14.5259156   13.3098220   14.9474752
| 28>     H       16.1168081   13.5444163   15.7056930
| 29>     H       15.8316006   14.1045039   14.0395759
| 30>     H       14.1707376   15.7758608   14.8798584
| 31>     H       14.4597065   15.2560837   16.5621863
| 32>     H       15.0571860   20.4949430   15.8081931
| 33>     H       16.3291575   20.4033197   14.5826917
| 34>     H       16.3913511   21.6535904   15.8340328
| 35>     H       17.9319049   21.2960835   17.2723776
| 36>     H       19.5234900   17.8421952   18.5787753
| 37>     H       18.3299721   16.8851038   16.6749403
| 38>     H       17.9592515   14.7208287   17.5824732
| 39>     H       16.8850591   13.1949883   19.2266565
| 40>     H       15.4001405   14.1348130   20.9997325
| 41>     H       14.5528169   15.9587273   21.8701726
| 42>     H       16.0816211   18.1048827   19.4944667
| 43> *
| 44>
| 45>                          ****END OF INPUT****

CARTESIAN COORDINATES (ANGSTROEM)
---------------------------------
  C     15.377558   13.995591   15.032477
  C     14.918333   15.361040   15.569960
  O     16.079195   16.204216   15.642828
  C     15.913534   17.557277   15.579362
  O     15.094400   18.071330   14.837327
  C     16.746901   18.291764   16.594823
  C     16.908584   19.637693   16.519084
  C     16.136998   20.604148   15.644410
  N     17.878483   20.290069   17.283710
  C     18.850661   19.653997   18.007284
  S     20.027385   20.488289   18.816552
  N     18.811596   18.282610   18.009829
  C     17.746585   17.455540   17.411736
  C     17.093985   16.518925   18.420419
  C     17.317867   15.131148   18.358048
  C     16.708367   14.267685   19.283746
  C     15.872284   14.797333   20.281712
  C     15.652426   16.180239   20.348954
  O     14.846068   16.694146   21.311507
  C     16.259070   17.036798   19.424931
  H     14.525916   13.309822   14.947475
  H     16.116808   13.544416   15.705693
  H     15.831601   14.104504   14.039576
  H     14.170738   15.775861   14.879858
  H     14.459706   15.256084   16.562186
  H     15.057186   20.494943   15.808193
  H     16.329158   20.403320   14.582692
  H     16.391351   21.653590   15.834033
  H     17.931905   21.296084   17.272378
  H     19.523490   17.842195   18.578775
  H     18.329972   16.885104   16.674940
  H     17.959252   14.720829   17.582473
  H     16.885059   13.194988   19.226657
  H     15.400140   14.134813   20.999733
  H     14.552817   15.958727   21.870173
  H     16.081621   18.104883   19.494467

 Total Charge           Charge          ....    0
 Multiplicity           Mult            ....    1
 Number of Electrons    NEL             ....  154
 Basis Dimension        Dim             ....  828

ORBITAL ENERGIES
----------------

  NO   OCC          E(Eh)            E(eV)
   0   2.0000     -91.889672     -2500.4451
   1   2.0000     -20.598365      -560.5100
   2   2.0000     -20.593843      -560.3870
   3   2.0000     -20.542680      -558.9948
   4   2.0000     -15.630073      -425.3159
   5   2.0000     -15.607816      -424.7103
   6   2.0000     -11.393340      -310.0285
   7   2.0000     -11.384348      -309.7839
   8   2.0000     -11.338017      -308.5231
   9   2.0000     -11.315849      -307.9199
  10   2.0000     -11.308424      -307.7179
  11   2.0000     -11.294601      -307.3417
  12   2.0000     -11.262670      -306.4728
  13   2.0000     -11.258472      -306.3586
  14   2.0000     -11.257258      -306.3256
  15   2.0000     -11.252204      -306.1880
  16   2.0000     -11.245657      -306.0099
  17   2.0000     -11.240979      -305.8826
  18   2.0000     -11.240579      -305.8717
  19   2.0000     -11.228698      -305.5484
  20   2.0000      -8.894734      -242.0380
  21   2.0000      -6.576304      -178.9503
  22   2.0000      -6.574308      -178.8960
  23   2.0000      -6.573715      -178.8799
  24   2.0000      -1.450379       -39.4668
  25   2.0000      -1.418044       -38.5869
  26   2.0000      -1.354017       -36.8447
  27   2.0000      -1.341088       -36.4929
  28   2.0000      -1.239027       -33.7156
  29   2.0000      -1.159458       -31.5505
  30   2.0000      -1.121821       -30.5263
  31   2.0000      -1.044336       -28.4178
  32   2.0000      -1.038619       -28.2622
  33   2.0000      -1.017132       -27.6776
  34   2.0000      -0.996991       -27.1295
  35   2.0000      -0.985496       -26.8167
  36   2.0000      -0.922880       -25.1128
  37   2.0000      -0.884843       -24.0778
  38   2.0000      -0.847197       -23.0534
  39   2.0000      -0.839418       -22.8417
  40   2.0000      -0.836088       -22.7511
  41   2.0000      -0.821225       -22.3467
  42   2.0000      -0.764243       -20.7961
  43   2.0000      -0.735280       -20.0080
  44   2.0000      -0.722779       -19.6678
  45   2.0000      -0.697000       -18.9663
  46   2.0000      -0.688106       -18.7243
  47   2.0000      -0.678720       -18.4689
  48   2.0000      -0.674957       -18.3665
  49   2.0000      -0.657056       -17.8794
  50   2.0000      -0.648471       -17.6458
  51   2.0000      -0.640498       -17.4288
  52   2.0000      -0.631295       -17.1784
  53   2.0000      -0.614005       -16.7079
  54   2.0000      -0.608531       -16.5590
  55   2.0000      -0.601705       -16.3732
  56   2.0000      -0.600279       -16.3344
  57   2.0000      -0.578904       -15.7528
  58   2.0000      -0.570547       -15.5254
  59   2.0000      -0.565440       -15.3864
  60   2.0000      -0.559916       -15.2361
  61   2.0000      -0.542453       -14.7609
  62   2.0000      -0.536388       -14.5959
  63   2.0000      -0.525779       -14.3072
  64   2.0000      -0.524717       -14.2783
  65   2.0000      -0.514211       -13.9924
  66   2.0000      -0.502618       -13.6769
  67   2.0000      -0.497568       -13.5395
  68   2.0000      -0.486741       -13.2449
  69   2.0000      -0.465287       -12.6611
  70   2.0000      -0.457238       -12.4421
  71   2.0000      -0.445974       -12.1356
  72   2.0000      -0.353768        -9.6265
  73   2.0000      -0.351594        -9.5674
  74   2.0000      -0.328876        -8.9492
  75   2.0000      -0.323208        -8.7949
  76   2.0000      -0.318899        -8.6777
  77   0.0000       0.074125         2.0170
  78   0.0000       0.102538         2.7902
  79   0.0000       0.124741         3.3944
  80   0.0000       0.131318         3.5733
  81   0.0000       0.135355         3.6832

MULLIKEN ATOMIC CHARGES
-----------------------
   0 C :   -0.265278
   1 C :    0.011907
   2 O :   -0.360953
   3 C :    0.462056
   4 O :   -0.427219
   5 C :   -0.251378
   6 C :    0.174423
   7 C :   -0.267071
   8 N :   -0.125911
   9 C :    0.210481
  10 S :   -0.440508
  11 N :   -0.215918
  12 C :    0.067661
  13 C :    0.028026
  14 C :   -0.181297
  15 C :   -0.132001
  16 C :   -0.276976
  17 C :    0.314831
  18 O :   -0.356027
  19 C :   -0.246501
  20 H :    0.090357
  21 H :    0.089257
  22 H :    0.100005
  23 H :    0.126612
  24 H :    0.105494
  25 H :    0.133821
  26 H :    0.129525
  27 H :    0.094643
  28 H :    0.199765
  29 H :    0.200642
  30 H :    0.152510
  31 H :    0.156562
  32 H :    0.162015
  33 H :    0.131604
  34 H :    0.240847
  35 H :    0.163994
Sum of atomic charges:   -0.0000000

LOEWDIN ATOMIC CHARGES
----------------------
   0 C :    0.107271
   1 C :   -0.017219
   2 O :    0.306091
   3 C :   -0.416375
   4 O :    0.101494
   5 C :   -0.097993
   6 C :   -0.055502
   7 C :    0.131684
   8 N :    0.407409
   9 C :   -0.456321
  10 S :   -0.035480
  11 N :    0.394480
  12 C :   -0.054621
  13 C :   -0.039656
  14 C :    0.017683
  15 C :    0.038633
  16 C :   -0.001022
  17 C :   -0.190037
  18 O :    0.395469
  19 C :    0.032786
  20 H :   -0.025368
  21 H :   -0.031494
  22 H :   -0.025178
  23 H :   -0.027504
  24 H :   -0.030920
  25 H :   -0.004120
  26 H :   -0.004639
  27 H :   -0.023557
  28 H :   -0.057022
  29 H :   -0.064381
  30 H :   -0.012979
  31 H :   -0.029417
  32 H :   -0.021089
  33 H :   -0.035082
  34 H :   -0.153634
  35 H :   -0.022390

  Mayer bond orders larger than 0.100000
B(  0-C ,  1-C ) :   0.9756 B(  0-C , 20-H ) :   0.9768 B(  0-C , 21-H ) :   0.9794
B(  0-C , 22-H ) :   0.9778 B(  1-C ,  2-O ) :   0.8833 B(  1-C , 23-H ) :   0.9771
B(  1-C , 24-H ) :   0.9706 B(  2-O ,  3-C ) :   1.1351 B(  3-C ,  4-O ) :   1.9901
B(  3-C ,  5-C ) :   1.0681 B(  5-C ,  6-C ) :   1.6332 B(  5-C , 12-C ) :   0.9550
B(  6-C ,  7-C ) :   0.9653 B(  6-C ,  8-N ) :   1.1555 B(  7-C , 25-H ) :   0.9607
B(  7-C , 26-H ) :   0.9589 B(  7-C , 27-H ) :   0.9905 B(  8-N ,  9-C ) :   1.1863
B(  8-N , 28-H ) :   0.9463 B(  9-C , 10-S ) :   1.6075 B(  9-C , 11-N ) :   1.3090
B( 11-N , 12-C ) :   0.9688 B( 11-N , 29-H ) :   0.9484 B( 12-C , 13-C ) :   0.9604
B( 12-C , 30-H ) :   1.0009 B( 13-C , 14-C ) :   1.3590 B( 13-C , 19-C ) :   1.3795
B( 14-C , 15-C ) :   1.3894 B( 14-C , 31-H ) :   0.9706 B( 15-C , 16-C ) :   1.3600
B( 15-C , 32-H ) :   0.9701 B( 16-C , 17-C ) :   1.3336 B( 16-C , 33-H ) :   0.9845
B( 17-C , 18-O ) :   1.1060 B( 17-C , 19-C ) :   1.3651 B( 18-O , 34-H ) :   0.9795
B( 19-C , 35-H ) :   0.9592

MP2 TOTAL ENERGY:    -1274.338793365 Eh
FINAL SINGLE POINT ENERGY     -1274.338793364974

DIPOLE MOMENT
-------------
                                X             Y             Z
Electronic contribution:      8.83505      11.29058       7.88193
Nuclear contribution   :    -10.00241     -12.87971      -8.02443
                        -----------------------------------------
Total Dipole Moment    :     -1.16736      -1.58914      -0.14249
                        -----------------------------------------
Magnitude (a.u.)       :      1.97696
Magnitude (Debye)      :      5.02504

Rotational constants in cm-1:     0.011783     0.008341     0.005956
Rotational constants in MHz :   353.249265   250.047140   178.562862

                             ****ORCA TERMINATED NORMALLY****
TOTAL RUN TIME: 0 days 1 hours 45 minutes 47 seconds 396 msec
