                         Program Version 4.2.0 -  RELEASE  -
|  1> ! ri-mp2 cc-pvtz cc-pvtz/c TightSCF NoKeepInts
|  2>
|  3> %scf
|  4>   MaxCore 4096
|  5> end
|  6> *xyz  0  1
|  7>     C       14.2185673   15.3866295   13.6945886
|  8>     C       14.9855871   15.3482106   15.0268558
|  9>     O       15.9795542   16.3832700   14.9794939
| 10>     C       16.9733021   16.3485139   15.9102663
| 11>     O       17.5581515   15.3152033   16.1878099
| 12>     C       17.1376054   17.6142743   16.7019097
| 13>     C       16.9164818   18.8443070   16.1673396
| 14>     C       16.2727753   19.1783039   14.8358238
| 15>     N       17.3399754   19.9974478   16.8330148
| 16>     C       18.1792055   20.0034426   17.9143655
| 17>     S       18.7285737   21.4119650   18.5849056
| 18>     N       18.5587104   18.7773132   18.3986413
| 19>     C       18.0200710   17.4789129   17.9490518
| 20>     C       17.3693299   16.6775261   19.0688160
| 21>     C       17.7923794   15.3664266   19.3521012
| 22>     C       17.1912586   14.6291656   20.3860629
| 23>     C       16.1590811   15.2085893   21.1438667
| 24>     C       15.7341528   16.5142959   20.8621461
| 25>     O       14.7346125   17.0744960   21.5890269
| 26>     C       16.3339065   17.2452520   19.8316279
| 27>     H       14.9007542   15.2181132   12.8518492
| 28>     H       13.7296032   16.3588447   13.5564785
| 29>     H       13.4471945   14.6072026   13.6723712
| 30>     H       14.3035488   15.5076790   15.8725030
| 31>     H       15.4573347   14.3619111   15.1383955
| 32>     H       16.7844880   18.6613913   14.0141160
| 33>     H       16.3013008   20.2503444   14.6057332
| 34>     H       15.2199311   18.8699695   14.8254427
| 35>     H       17.0888735   20.9049736   16.4748360
| 36>     H       19.1614756   18.8094574   19.2112216
| 37>     H       18.9450061   16.9899817   17.6097991
| 38>     H       18.5803799   14.9124780   18.7556330
| 39>     H       17.5229345   13.6130442   20.5919775
| 40>     H       15.6913408   14.6421981   21.9422381
| 41>     H       14.4752964   16.4331431   22.2674736
| 42>     H       15.9942564   18.2557227   19.6302174
| 43> *
| 44>
| 45>                          ****END OF INPUT****

CARTESIAN COORDINATES (ANGSTROEM)
---------------------------------
  C     14.218567   15.386629   13.694589
  C     14.985587   15.348211   15.026856
  O     15.979554   16.383270   14.979494
  C     16.973302   16.348514   15.910266
  O     17.558151   15.315203   16.187810
  C     17.137605   17.614274   16.701910
  C     16.916482   18.844307   16.167340
  C     16.272775   19.178304   14.835824
  N     17.339975   19.997448   16.833015
  C     18.179205   20.003443   17.914365
  S     18.728574   21.411965   18.584906
  N     18.558710   18.777313   18.398641
  C     18.020071   17.478913   17.949052
  C     17.369330   16.677526   19.068816
  C     17.792379   15.366427   19.352101
  C     17.191259   14.629166   20.386063
  C     16.159081   15.208589   21.143867
  C     15.734153   16.514296   20.862146
  O     14.734613   17.074496   21.589027
  C     16.333907   17.245252   19.831628
  H     14.900754   15.218113   12.851849
  H     13.729603   16.358845   13.556478
  H     13.447195   14.607203   13.672371
  H     14.303549   15.507679   15.872503
  H     15.457335   14.361911   15.138395
  H     16.784488   18.661391   14.014116
  H     16.301301   20.250344   14.605733
  H     15.219931   18.869969   14.825443
  H     17.088873   20.904974   16.474836
  H     19.161476   18.809457   19.211222
  H     18.945006   16.989982   17.609799
  H     18.580380   14.912478   18.755633
  H     17.522934   13.613044   20.591977
  H     15.691341   14.642198   21.942238
  H     14.475296   16.433143   22.267474
  H     15.994256   18.255723   19.630217

 Total Charge           Charge          ....    0
 Multiplicity           Mult            ....    1
 Number of Electrons    NEL             ....  154
 Basis Dimension        Dim             ....  828

ORBITAL ENERGIES
----------------

  NO   OCC          E(Eh)            E(eV)
   0   2.0000     -91.888676     -2500.4180
   1   2.0000     -20.594836      -560.4140
   2   2.0000     -20.592610      -560.3534
   3   2.0000     -20.548618      -559.1563
   4   2.0000     -15.629514      -425.3007
   5   2.0000     -15.606190      -424.6660
   6   2.0000     -11.394169      -310.0511
   7   2.0000     -11.383270      -309.7545
   8   2.0000     -11.339005      -308.5500
   9   2.0000     -11.308609      -307.7229
  10   2.0000     -11.304520      -307.6116
  11   2.0000     -11.300438      -307.5005
  12   2.0000     -11.260272      -306.4076
  13   2.0000     -11.259932      -306.3983
  14   2.0000     -11.255810      -306.2862
  15   2.0000     -11.248583      -306.0895
  16   2.0000     -11.238798      -305.8232
  17   2.0000     -11.234989      -305.7196
  18   2.0000     -11.234168      -305.6973
  19   2.0000     -11.231609      -305.6276
  20   2.0000      -8.893754      -242.0114
  21   2.0000      -6.575329      -178.9238
  22   2.0000      -6.573328      -178.8693
  23   2.0000      -6.572738      -178.8533
  24   2.0000      -1.454223       -39.5714
  25   2.0000      -1.412356       -38.4322
  26   2.0000      -1.357817       -36.9481
  27   2.0000      -1.340557       -36.4784
  28   2.0000      -1.237587       -33.6765
  29   2.0000      -1.153155       -31.3789
  30   2.0000      -1.121388       -30.5145
  31   2.0000      -1.044596       -28.4249
  32   2.0000      -1.036936       -28.2165
  33   2.0000      -1.010710       -27.5028
  34   2.0000      -0.999436       -27.1960
  35   2.0000      -0.984578       -26.7917
  36   2.0000      -0.921239       -25.0682
  37   2.0000      -0.884849       -24.0780
  38   2.0000      -0.847994       -23.0751
  39   2.0000      -0.836136       -22.7524
  40   2.0000      -0.828826       -22.5535
  41   2.0000      -0.823525       -22.4092
  42   2.0000      -0.761233       -20.7142
  43   2.0000      -0.736392       -20.0382
  44   2.0000      -0.726892       -19.7797
  45   2.0000      -0.690532       -18.7903
  46   2.0000      -0.686525       -18.6813
  47   2.0000      -0.680527       -18.5181
  48   2.0000      -0.674341       -18.3497
  49   2.0000      -0.653241       -17.7756
  50   2.0000      -0.651823       -17.7370
  51   2.0000      -0.640100       -17.4180
  52   2.0000      -0.631097       -17.1730
  53   2.0000      -0.617592       -16.8055
  54   2.0000      -0.603854       -16.4317
  55   2.0000      -0.599358       -16.3094
  56   2.0000      -0.595915       -16.2157
  57   2.0000      -0.577454       -15.7133
  58   2.0000      -0.573862       -15.6156
  59   2.0000      -0.562937       -15.3183
  60   2.0000      -0.560654       -15.2562
  61   2.0000      -0.547714       -14.9041
  62   2.0000      -0.538517       -14.6538
  63   2.0000      -0.527089       -14.3428
  64   2.0000      -0.516843       -14.0640
  65   2.0000      -0.509976       -13.8772
  66   2.0000      -0.504188       -13.7197
  67   2.0000      -0.494711       -13.4618
  68   2.0000      -0.480940       -13.0870
  69   2.0000      -0.462752       -12.5921
  70   2.0000      -0.462369       -12.5817
  71   2.0000      -0.451150       -12.2764
  72   2.0000      -0.353745        -9.6259
  73   2.0000      -0.345286        -9.3957
  74   2.0000      -0.327707        -8.9173
  75   2.0000      -0.317843        -8.6490
  76   2.0000      -0.315259        -8.5786
  77   0.0000       0.073751         2.0069
  78   0.0000       0.110258         3.0003
  79   0.0000       0.120487         3.2786
  80   0.0000       0.135023         3.6742
  81   0.0000       0.137878         3.7519

MULLIKEN ATOMIC CHARGES
-----------------------
   0 C :   -0.268483
   1 C :    0.034006
   2 O :   -0.358239
   3 C :    0.447601
   4 O :   -0.407606
   5 C :   -0.190510
   6 C :    0.151834
   7 C :   -0.282557
   8 N :   -0.127882
   9 C :    0.207415
  10 S :   -0.441285
  11 N :   -0.210518
  12 C :    0.040179
  13 C :    0.033563
  14 C :   -0.169729
  15 C :   -0.133995
  16 C :   -0.277395
  17 C :    0.313561
  18 O :   -0.359091
  19 C :   -0.253027
  20 H :    0.101228
  21 H :    0.090504
  22 H :    0.094158
  23 H :    0.088411
  24 H :    0.113822
  25 H :    0.127480
  26 H :    0.103248
  27 H :    0.125870
  28 H :    0.198930
  29 H :    0.199888
  30 H :    0.155931
  31 H :    0.159856
  32 H :    0.160389
  33 H :    0.128494
  34 H :    0.240107
  35 H :    0.163843
Sum of atomic charges:   -0.0000000

LOEWDIN ATOMIC CHARGES
----------------------
   0 C :    0.108035
   1 C :   -0.018486
   2 O :    0.301432
   3 C :   -0.417619
   4 O :    0.114321
   5 C :   -0.094825
   6 C :   -0.064323
   7 C :    0.125597
   8 N :    0.405742
   9 C :   -0.458427
  10 S :   -0.036825
  11 N :    0.396284
  12 C :   -0.048411
  13 C :   -0.040850
  14 C :    0.024896
  15 C :    0.041215
  16 C :   -0.001226
  17 C :   -0.192860
  18 O :    0.392986
  19 C :    0.028922
  20 H :   -0.024400
  21 H :   -0.030201
  22 H :   -0.023960
  23 H :   -0.032438
  24 H :   -0.026170
  25 H :   -0.008210
  26 H :   -0.020889
  27 H :   -0.010396
  28 H :   -0.058500
  29 H :   -0.063198
  30 H :   -0.007862
  31 H :   -0.023736
  32 H :   -0.020851
  33 H :   -0.036082
  34 H :   -0.154717
  35 H :   -0.023963

  Mayer bond orders larger than 0.100000
B(  0-C ,  1-C ) :   0.9757 B(  0-C , 20-H ) :   0.9772 B(  0-C , 21-H ) :   0.9793
B(  0-C , 22-H ) :   0.9765 B(  1-C ,  2-O ) :   0.9016 B(  1-C , 23-H ) :   0.9723
B(  1-C , 24-H ) :   0.9767 B(  2-O ,  3-C ) :   1.0949 B(  3-C ,  4-O ) :   2.0179
B(  3-C ,  5-C ) :   1.0367 B(  5-C ,  6-C ) :   1.6568 B(  5-C , 12-C ) :   0.9488
B(  6-C ,  7-C ) :   0.9545 B(  6-C ,  8-N ) :   1.1382 B(  7-C , 25-H ) :   0.9650
B(  7-C , 26-H ) :   0.9909 B(  7-C , 27-H ) :   0.9640 B(  8-N ,  9-C ) :   1.1842
B(  8-N , 28-H ) :   0.9469 B(  9-C , 10-S ) :   1.6096 B(  9-C , 11-N ) :   1.3058
B( 11-N , 12-C ) :   0.9769 B( 11-N , 29-H ) :   0.9485 B( 12-C , 13-C ) :   0.9721
B( 12-C , 30-H ) :   0.9966 B( 13-C , 14-C ) :   1.3780 B( 13-C , 19-C ) :   1.3639
B( 14-C , 15-C ) :   1.3975 B( 14-C , 31-H ) :   0.9633 B( 15-C , 16-C ) :   1.3589
B( 15-C , 32-H ) :   0.9710 B( 16-C , 17-C ) :   1.3332 B( 16-C , 33-H ) :   0.9859
B( 17-C , 18-O ) :   1.1038 B( 17-C , 19-C ) :   1.3676 B( 18-O , 34-H ) :   0.9805
B( 19-C , 35-H ) :   0.9602

MP2 TOTAL ENERGY:    -1274.332986086 Eh
FINAL SINGLE POINT ENERGY     -1274.332986086397

DIPOLE MOMENT
-------------
                                X             Y             Z
Electronic contribution:     10.42093       9.56202      11.71129
Nuclear contribution   :    -11.89982     -10.87899     -12.52748
                        -----------------------------------------
Total Dipole Moment    :     -1.47888      -1.31697      -0.81619
                        -----------------------------------------
Magnitude (a.u.)       :      2.14189
Magnitude (Debye)      :      5.44424

Rotational constants in cm-1:     0.009701     0.009093     0.005596
Rotational constants in MHz :   290.830296   272.602351   167.778244

                             ****ORCA TERMINATED NORMALLY****
TOTAL RUN TIME: 0 days 1 hours 41 minutes 32 seconds 165 msec
