                         Program Version 4.2.0 -  RELEASE  -
|  1> ! ri-mp2 cc-pvtz cc-pvtz/c TightSCF NoKeepInts
|  2>
|  3> %scf
|  4>   MaxCore 4096
|  5> end
|  6> *xyz  0  1
|  7>     C       14.4669267   14.5567023   15.7631842
|  8>     C       15.0595388   15.9484821   16.0352440
|  9>     O       16.3342548   16.0055449   15.3688863
| 10>     C       16.9479709   17.2102880   15.1822500
| 11>     O       17.3767849   17.5329867   14.0900324
| 12>     C       17.0326369   18.0876174   16.3940159
| 13>     C       16.9168041   19.4269588   16.2272790
| 14>     C       16.3092055   20.1262043   15.0298194
| 15>     N       17.3733587   20.3222803   17.1957336
| 16>     C       18.1859758   19.9703875   18.2399762
| 17>     S       18.7988633   21.0914277   19.2897622
| 18>     N       18.4865219   18.6357603   18.3569022
| 19>     C       17.8769799   17.5503547   17.5627230
| 20>     C       17.2496370   16.4589597   18.4161109
| 21>     C       17.5877563   15.1088094   18.2100812
| 22>     C       16.9992779   14.0992913   18.9898872
| 23>     C       16.0702301   14.4432549   19.9867926
| 24>     C       15.7373297   15.7881383   20.1989017
| 25>     O       14.8370632   16.1227758   21.1567200
| 26>     C       16.3220837   16.7912195   19.4191409
| 27>     H       13.4731039   14.4648004   16.2176645
| 28>     H       15.1116019   13.7760851   16.1861349
| 29>     H       14.3712941   14.3803159   14.6843792
| 30>     H       14.3852511   16.7089558   15.6190358
| 31>     H       15.1401552   16.1145848   17.1126339
| 32>     H       15.4906736   19.5371981   14.5980295
| 33>     H       17.0637387   20.2595343   14.2431670
| 34>     H       15.9027356   21.1129523   15.2818292
| 35>     H       17.1979551   21.3091629   17.0913702
| 36>     H       19.0807760   18.4043926   19.1434464
| 37>     H       18.7850382   17.1550498   17.0842700
| 38>     H       18.2987344   14.8396697   17.4324950
| 39>     H       17.2630725   13.0566757   18.8193398
| 40>     H       15.6133846   13.6662320   20.5911531
| 41>     H       14.5886075   15.3096938   21.6222732
| 42>     H       16.0516776   17.8272528   19.5973354
| 43> *
| 44>
| 45>                          ****END OF INPUT****

CARTESIAN COORDINATES (ANGSTROEM)
---------------------------------
  C     14.466927   14.556702   15.763184
  C     15.059539   15.948482   16.035244
  O     16.334255   16.005545   15.368886
  C     16.947971   17.210288   15.182250
  O     17.376785   17.532987   14.090032
  C     17.032637   18.087617   16.394016
  C     16.916804   19.426959   16.227279
  C     16.309206   20.126204   15.029819
  N     17.373359   20.322280   17.195734
  C     18.185976   19.970387   18.239976
  S     18.798863   21.091428   19.289762
  N     18.486522   18.635760   18.356902
  C     17.876980   17.550355   17.562723
  C     17.249637   16.458960   18.416111
  C     17.587756   15.108809   18.210081
  C     16.999278   14.099291   18.989887
  C     16.070230   14.443255   19.986793
  C     15.737330   15.788138   20.198902
  O     14.837063   16.122776   21.156720
  C     16.322084   16.791220   19.419141
  H     13.473104   14.464800   16.217665
  H     15.111602   13.776085   16.186135
  H     14.371294   14.380316   14.684379
  H     14.385251   16.708956   15.619036
  H     15.140155   16.114585   17.112634
  H     15.490674   19.537198   14.598030
  H     17.063739   20.259534   14.243167
  H     15.902736   21.112952   15.281829
  H     17.197955   21.309163   17.091370
  H     19.080776   18.404393   19.143446
  H     18.785038   17.155050   17.084270
  H     18.298734   14.839670   17.432495
  H     17.263072   13.056676   18.819340
  H     15.613385   13.666232   20.591153
  H     14.588607   15.309694   21.622273
  H     16.051678   17.827253   19.597335

 Total Charge           Charge          ....    0
 Multiplicity           Mult            ....    1
 Number of Electrons    NEL             ....  154
 Basis Dimension        Dim             ....  828

ORBITAL ENERGIES
----------------

  NO   OCC          E(Eh)            E(eV)
   0   2.0000     -91.890972     -2500.4805
   1   2.0000     -20.603579      -560.6519
   2   2.0000     -20.592562      -560.3521
   3   2.0000     -20.552697      -559.2673
   4   2.0000     -15.628467      -425.2722
   5   2.0000     -15.611070      -424.7988
   6   2.0000     -11.393758      -310.0399
   7   2.0000     -11.386015      -309.8292
   8   2.0000     -11.332258      -308.3664
   9   2.0000     -11.321906      -308.0847
  10   2.0000     -11.316441      -307.9360
  11   2.0000     -11.297960      -307.4331
  12   2.0000     -11.268947      -306.6436
  13   2.0000     -11.262972      -306.4810
  14   2.0000     -11.257069      -306.3204
  15   2.0000     -11.256163      -306.2958
  16   2.0000     -11.251830      -306.1779
  17   2.0000     -11.246681      -306.0377
  18   2.0000     -11.246267      -306.0265
  19   2.0000     -11.229321      -305.5654
  20   2.0000      -8.896033      -242.0734
  21   2.0000      -6.577602      -178.9856
  22   2.0000      -6.575605      -178.9313
  23   2.0000      -6.575011      -178.9152
  24   2.0000      -1.448410       -39.4132
  25   2.0000      -1.423375       -38.7320
  26   2.0000      -1.360173       -37.0122
  27   2.0000      -1.341307       -36.4988
  28   2.0000      -1.240756       -33.7627
  29   2.0000      -1.165295       -31.7093
  30   2.0000      -1.124512       -30.5995
  31   2.0000      -1.049997       -28.5719
  32   2.0000      -1.036302       -28.1992
  33   2.0000      -1.023427       -27.8489
  34   2.0000      -1.002239       -27.2723
  35   2.0000      -0.989050       -26.9134
  36   2.0000      -0.926838       -25.2205
  37   2.0000      -0.876184       -23.8422
  38   2.0000      -0.852316       -23.1927
  39   2.0000      -0.844056       -22.9679
  40   2.0000      -0.841946       -22.9105
  41   2.0000      -0.837659       -22.7939
  42   2.0000      -0.761761       -20.7286
  43   2.0000      -0.739232       -20.1155
  44   2.0000      -0.727774       -19.8037
  45   2.0000      -0.701991       -19.1022
  46   2.0000      -0.691569       -18.8186
  47   2.0000      -0.681315       -18.5395
  48   2.0000      -0.675396       -18.3785
  49   2.0000      -0.661568       -18.0022
  50   2.0000      -0.652223       -17.7479
  51   2.0000      -0.649546       -17.6750
  52   2.0000      -0.638917       -17.3858
  53   2.0000      -0.614360       -16.7176
  54   2.0000      -0.608402       -16.5555
  55   2.0000      -0.603746       -16.4288
  56   2.0000      -0.598970       -16.2988
  57   2.0000      -0.582483       -15.8502
  58   2.0000      -0.576006       -15.6739
  59   2.0000      -0.566224       -15.4077
  60   2.0000      -0.556999       -15.1567
  61   2.0000      -0.551788       -15.0149
  62   2.0000      -0.546179       -14.8623
  63   2.0000      -0.529057       -14.3964
  64   2.0000      -0.519532       -14.1372
  65   2.0000      -0.517187       -14.0734
  66   2.0000      -0.508104       -13.8262
  67   2.0000      -0.502952       -13.6860
  68   2.0000      -0.485327       -13.2064
  69   2.0000      -0.468207       -12.7406
  70   2.0000      -0.455764       -12.4020
  71   2.0000      -0.453154       -12.3309
  72   2.0000      -0.357682        -9.7330
  73   2.0000      -0.352455        -9.5908
  74   2.0000      -0.330829        -9.0023
  75   2.0000      -0.328921        -8.9504
  76   2.0000      -0.320884        -8.7317
  77   0.0000       0.079915         2.1746
  78   0.0000       0.097170         2.6441
  79   0.0000       0.121016         3.2930
  80   0.0000       0.125838         3.4242
  81   0.0000       0.128276         3.4906

MULLIKEN ATOMIC CHARGES
-----------------------
   0 C :   -0.261506
   1 C :    0.013623
   2 O :   -0.324598
   3 C :    0.396603
   4 O :   -0.366604
   5 C :   -0.211388
   6 C :    0.146528
   7 C :   -0.277091
   8 N :   -0.132150
   9 C :    0.210703
  10 S :   -0.438399
  11 N :   -0.215074
  12 C :    0.032292
  13 C :   -0.004372
  14 C :   -0.162237
  15 C :   -0.150514
  16 C :   -0.266761
  17 C :    0.304001
  18 O :   -0.354718
  19 C :   -0.230736
  20 H :    0.088368
  21 H :    0.096610
  22 H :    0.106520
  23 H :    0.097968
  24 H :    0.115724
  25 H :    0.116285
  26 H :    0.141994
  27 H :    0.097705
  28 H :    0.198834
  29 H :    0.201126
  30 H :    0.157357
  31 H :    0.155562
  32 H :    0.167959
  33 H :    0.135218
  34 H :    0.241487
  35 H :    0.173680
Sum of atomic charges:   -0.0000000

LOEWDIN ATOMIC CHARGES
----------------------
   0 C :    0.111679
   1 C :   -0.024516
   2 O :    0.304238
   3 C :   -0.425380
   4 O :    0.129756
   5 C :   -0.099073
   6 C :   -0.073039
   7 C :    0.129379
   8 N :    0.406044
   9 C :   -0.456055
  10 S :   -0.034188
  11 N :    0.395600
  12 C :   -0.053493
  13 C :   -0.045787
  14 C :    0.021061
  15 C :    0.044348
  16 C :    0.001473
  17 C :   -0.192296
  18 O :    0.396921
  19 C :    0.030731
  20 H :   -0.025454
  21 H :   -0.027714
  22 H :   -0.024243
  23 H :   -0.034796
  24 H :   -0.037049
  25 H :   -0.009754
  26 H :   -0.003912
  27 H :   -0.021160
  28 H :   -0.056965
  29 H :   -0.063610
  30 H :   -0.010543
  31 H :   -0.026096
  32 H :   -0.018790
  33 H :   -0.033603
  34 H :   -0.152412
  35 H :   -0.021303

  Mayer bond orders larger than 0.100000
B(  0-C ,  1-C ) :   0.9829 B(  0-C , 20-H ) :   0.9770 B(  0-C , 21-H ) :   0.9773
B(  0-C , 22-H ) :   0.9780 B(  1-C ,  2-O ) :   0.8877 B(  1-C , 23-H ) :   0.9812
B(  1-C , 24-H ) :   0.9586 B(  2-O ,  3-C ) :   1.1647 B(  3-C ,  4-O ) :   2.1280
B(  3-C ,  5-C ) :   0.9450 B(  5-C ,  6-C ) :   1.6777 B(  5-C , 12-C ) :   0.9572
B(  6-C ,  7-C ) :   0.9524 B(  6-C ,  8-N ) :   1.1346 B(  7-C , 25-H ) :   0.9757
B(  7-C , 26-H ) :   0.9554 B(  7-C , 27-H ) :   0.9846 B(  8-N ,  9-C ) :   1.1946
B(  8-N , 28-H ) :   0.9489 B(  9-C , 10-S ) :   1.6148 B(  9-C , 11-N ) :   1.2899
B( 11-N , 12-C ) :   0.9798 B( 11-N , 29-H ) :   0.9465 B( 12-C , 13-C ) :   0.9600
B( 12-C , 30-H ) :   1.0055 B( 13-C , 14-C ) :   1.3762 B( 13-C , 19-C ) :   1.3567
B( 14-C , 15-C ) :   1.3918 B( 14-C , 31-H ) :   0.9690 B( 15-C , 16-C ) :   1.3593
B( 15-C , 32-H ) :   0.9688 B( 16-C , 17-C ) :   1.3322 B( 16-C , 33-H ) :   0.9830
B( 17-C , 18-O ) :   1.1106 B( 17-C , 19-C ) :   1.3633 B( 18-O , 34-H ) :   0.9788
B( 19-C , 35-H ) :   0.9577

MP2 TOTAL ENERGY:    -1274.324650533 Eh
FINAL SINGLE POINT ENERGY     -1274.324650532702

DIPOLE MOMENT
-------------
                                X             Y             Z
Electronic contribution:     10.17018       9.90706       6.62919
Nuclear contribution   :    -11.70105     -11.43885      -6.42435
                        -----------------------------------------
Total Dipole Moment    :     -1.53088      -1.53179       0.20484
                        -----------------------------------------
Magnitude (a.u.)       :      2.17530
Magnitude (Debye)      :      5.52916

Rotational constants in cm-1:     0.012264     0.008816     0.005957
Rotational constants in MHz :   367.672179   264.284873   178.588253

                             ****ORCA TERMINATED NORMALLY****
TOTAL RUN TIME: 0 days 1 hours 44 minutes 54 seconds 749 msec
