                         Program Version 4.2.0 -  RELEASE  -
|  1> ! ri-mp2 cc-pvtz cc-pvtz/c TightSCF NoKeepInts
|  2>
|  3> %scf
|  4>   MaxCore 4096
|  5> end
|  6> *xyz  0  1
|  7>     C       14.5003104   16.5150958   16.1607203
|  8>     C       15.4209220   15.3038100   15.8866190
|  9>     O       16.7054009   15.6084877   15.2779270
| 10>     C       17.4471516   16.7656200   15.2860171
| 11>     O       18.3056512   16.9559058   14.4448907
| 12>     C       17.1606814   17.7741380   16.3444470
| 13>     C       16.9220800   19.0502924   15.9653786
| 14>     C       16.5499315   19.4994107   14.5688668
| 15>     N       17.0487557   20.1096114   16.8651720
| 16>     C       17.6516615   20.0020441   18.0908225
| 17>     S       17.8789100   21.3133592   19.0723942
| 18>     N       18.0825565   18.7489670   18.4539174
| 19>     C       17.8034007   17.5037237   17.7108728
| 20>     C       17.1728362   16.3992058   18.5463247
| 21>     C       17.6915934   15.0921628   18.4957632
| 22>     C       17.1178735   14.0661761   19.2651666
| 23>     C       16.0201787   14.3508392   20.0953478
| 24>     C       15.5082882   15.6542337   20.1557435
| 25>     O       14.4480373   15.9320116   20.9548565
| 26>     C       16.0819362   16.6737675   19.3894558
| 27>     H       14.7985596   17.0812520   17.0472592
| 28>     H       13.4780632   16.1627894   16.3452348
| 29>     H       14.4642333   17.1870267   15.2952089
| 30>     H       15.5826868   14.7735258   16.8329983
| 31>     H       14.8923275   14.6054980   15.2248982
| 32>     H       15.9512945   18.7417077   14.0490646
| 33>     H       17.4557095   19.6633279   13.9700186
| 34>     H       15.9695295   20.4297380   14.5708559
| 35>     H       16.7839441   21.0414435   16.5875732
| 36>     H       18.5206280   18.6990061   19.3653591
| 37>     H       18.8347476   17.2081475   17.4673264
| 38>     H       18.5373872   14.8684247   17.8495280
| 39>     H       17.5242492   13.0569990   19.2164651
| 40>     H       15.5737435   13.5612354   20.6911940
| 41>     H       14.2284469   15.1235694   21.4424330
| 42>     H       15.6732928   17.6774466   19.4518789
| 43> *
| 44>
| 45>                          ****END OF INPUT****

CARTESIAN COORDINATES (ANGSTROEM)
---------------------------------
  C     14.500310   16.515096   16.160720
  C     15.420922   15.303810   15.886619
  O     16.705401   15.608488   15.277927
  C     17.447152   16.765620   15.286017
  O     18.305651   16.955906   14.444891
  C     17.160681   17.774138   16.344447
  C     16.922080   19.050292   15.965379
  C     16.549931   19.499411   14.568867
  N     17.048756   20.109611   16.865172
  C     17.651661   20.002044   18.090823
  S     17.878910   21.313359   19.072394
  N     18.082556   18.748967   18.453917
  C     17.803401   17.503724   17.710873
  C     17.172836   16.399206   18.546325
  C     17.691593   15.092163   18.495763
  C     17.117874   14.066176   19.265167
  C     16.020179   14.350839   20.095348
  C     15.508288   15.654234   20.155743
  O     14.448037   15.932012   20.954857
  C     16.081936   16.673768   19.389456
  H     14.798560   17.081252   17.047259
  H     13.478063   16.162789   16.345235
  H     14.464233   17.187027   15.295209
  H     15.582687   14.773526   16.832998
  H     14.892327   14.605498   15.224898
  H     15.951294   18.741708   14.049065
  H     17.455710   19.663328   13.970019
  H     15.969530   20.429738   14.570856
  H     16.783944   21.041443   16.587573
  H     18.520628   18.699006   19.365359
  H     18.834748   17.208147   17.467326
  H     18.537387   14.868425   17.849528
  H     17.524249   13.056999   19.216465
  H     15.573744   13.561235   20.691194
  H     14.228447   15.123569   21.442433
  H     15.673293   17.677447   19.451879

 Total Charge           Charge          ....    0
 Multiplicity           Mult            ....    1
 Number of Electrons    NEL             ....  154
 Basis Dimension        Dim             ....  828

ORBITAL ENERGIES
----------------

  NO   OCC          E(Eh)            E(eV)
   0   2.0000     -91.889490     -2500.4401
   1   2.0000     -20.605553      -560.7056
   2   2.0000     -20.595076      -560.4205
   3   2.0000     -20.549831      -559.1893
   4   2.0000     -15.625346      -425.1873
   5   2.0000     -15.610896      -424.7941
   6   2.0000     -11.397868      -310.1518
   7   2.0000     -11.385103      -309.8044
   8   2.0000     -11.324791      -308.1632
   9   2.0000     -11.324135      -308.1454
  10   2.0000     -11.316775      -307.9451
  11   2.0000     -11.305434      -307.6365
  12   2.0000     -11.271671      -306.7178
  13   2.0000     -11.264846      -306.5320
  14   2.0000     -11.256870      -306.3150
  15   2.0000     -11.255421      -306.2756
  16   2.0000     -11.253835      -306.2324
  17   2.0000     -11.249148      -306.1049
  18   2.0000     -11.248514      -306.0876
  19   2.0000     -11.234033      -305.6936
  20   2.0000      -8.894577      -242.0337
  21   2.0000      -6.576155      -178.9463
  22   2.0000      -6.574149      -178.8917
  23   2.0000      -6.573564      -178.8758
  24   2.0000      -1.440752       -39.2049
  25   2.0000      -1.425325       -38.7851
  26   2.0000      -1.355461       -36.8840
  27   2.0000      -1.338782       -36.4301
  28   2.0000      -1.239150       -33.7190
  29   2.0000      -1.167443       -31.7677
  30   2.0000      -1.125117       -30.6160
  31   2.0000      -1.051622       -28.6161
  32   2.0000      -1.036257       -28.1980
  33   2.0000      -1.025842       -27.9146
  34   2.0000      -1.004301       -27.3284
  35   2.0000      -0.989805       -26.9340
  36   2.0000      -0.927205       -25.2305
  37   2.0000      -0.900699       -24.5093
  38   2.0000      -0.851266       -23.1641
  39   2.0000      -0.844995       -22.9935
  40   2.0000      -0.843398       -22.9500
  41   2.0000      -0.827636       -22.5211
  42   2.0000      -0.749258       -20.3883
  43   2.0000      -0.739761       -20.1299
  44   2.0000      -0.721979       -19.6461
  45   2.0000      -0.704170       -19.1614
  46   2.0000      -0.690641       -18.7933
  47   2.0000      -0.677493       -18.4355
  48   2.0000      -0.676083       -18.3972
  49   2.0000      -0.660571       -17.9750
  50   2.0000      -0.656637       -17.8680
  51   2.0000      -0.650138       -17.6912
  52   2.0000      -0.638591       -17.3770
  53   2.0000      -0.617208       -16.7951
  54   2.0000      -0.612322       -16.6621
  55   2.0000      -0.607163       -16.5218
  56   2.0000      -0.604505       -16.4494
  57   2.0000      -0.584619       -15.9083
  58   2.0000      -0.577953       -15.7269
  59   2.0000      -0.570862       -15.5339
  60   2.0000      -0.566082       -15.4039
  61   2.0000      -0.554922       -15.1002
  62   2.0000      -0.540929       -14.7194
  63   2.0000      -0.533728       -14.5235
  64   2.0000      -0.525450       -14.2982
  65   2.0000      -0.515742       -14.0341
  66   2.0000      -0.505253       -13.7486
  67   2.0000      -0.499392       -13.5892
  68   2.0000      -0.491570       -13.3763
  69   2.0000      -0.465155       -12.6575
  70   2.0000      -0.453072       -12.3287
  71   2.0000      -0.446515       -12.1503
  72   2.0000      -0.359818        -9.7911
  73   2.0000      -0.348848        -9.4926
  74   2.0000      -0.332240        -9.0407
  75   2.0000      -0.328520        -8.9395
  76   2.0000      -0.318550        -8.6682
  77   0.0000       0.085412         2.3242
  78   0.0000       0.096900         2.6368
  79   0.0000       0.120442         3.2774
  80   0.0000       0.126951         3.4545
  81   0.0000       0.127611         3.4725

MULLIKEN ATOMIC CHARGES
-----------------------
   0 C :   -0.326576
   1 C :    0.036030
   2 O :   -0.327664
   3 C :    0.409646
   4 O :   -0.375765
   5 C :   -0.233706
   6 C :    0.156720
   7 C :   -0.292450
   8 N :   -0.135821
   9 C :    0.214297
  10 S :   -0.442105
  11 N :   -0.225212
  12 C :    0.061941
  13 C :    0.007395
  14 C :   -0.215866
  15 C :   -0.131459
  16 C :   -0.274746
  17 C :    0.320824
  18 O :   -0.353437
  19 C :   -0.248739
  20 H :    0.117584
  21 H :    0.120311
  22 H :    0.099659
  23 H :    0.102812
  24 H :    0.125435
  25 H :    0.112533
  26 H :    0.147985
  27 H :    0.099864
  28 H :    0.197208
  29 H :    0.202709
  30 H :    0.164752
  31 H :    0.159372
  32 H :    0.166647
  33 H :    0.135573
  34 H :    0.242035
  35 H :    0.182211
Sum of atomic charges:   -0.0000000

LOEWDIN ATOMIC CHARGES
----------------------
   0 C :    0.101608
   1 C :   -0.010066
   2 O :    0.293203
   3 C :   -0.420704
   4 O :    0.126219
   5 C :   -0.089403
   6 C :   -0.085142
   7 C :    0.128421
   8 N :    0.404611
   9 C :   -0.454455
  10 S :   -0.037574
  11 N :    0.395655
  12 C :   -0.054551
  13 C :   -0.043758
  14 C :    0.019911
  15 C :    0.043100
  16 C :    0.000988
  17 C :   -0.191001
  18 O :    0.397480
  19 C :    0.032387
  20 H :   -0.035146
  21 H :   -0.021689
  22 H :   -0.031400
  23 H :   -0.030404
  24 H :   -0.022012
  25 H :   -0.012812
  26 H :   -0.003248
  27 H :   -0.020132
  28 H :   -0.058177
  29 H :   -0.064376
  30 H :   -0.007746
  31 H :   -0.024815
  32 H :   -0.018181
  33 H :   -0.033246
  34 H :   -0.152074
  35 H :   -0.021468

  Mayer bond orders larger than 0.100000
B(  0-C ,  1-C ) :   0.9585 B(  0-C , 20-H ) :   0.9690 B(  0-C , 21-H ) :   0.9762
B(  0-C , 22-H ) :   0.9744 B(  1-C ,  2-O ) :   0.9053 B(  1-C , 23-H ) :   0.9693
B(  1-C , 24-H ) :   0.9821 B(  2-O ,  3-C ) :   1.1890 B(  3-C ,  4-O ) :   2.1184
B(  3-C ,  5-C ) :   0.9183 B(  5-C ,  6-C ) :   1.7076 B(  5-C , 12-C ) :   0.9432
B(  6-C ,  7-C ) :   0.9447 B(  6-C ,  8-N ) :   1.1247 B(  7-C , 25-H ) :   0.9782
B(  7-C , 26-H ) :   0.9581 B(  7-C , 27-H ) :   0.9833 B(  8-N ,  9-C ) :   1.2024
B(  8-N , 28-H ) :   0.9500 B(  9-C , 10-S ) :   1.6100 B(  9-C , 11-N ) :   1.2837
B( 11-N , 12-C ) :   0.9767 B( 11-N , 29-H ) :   0.9462 B( 12-C , 13-C ) :   0.9520
B( 12-C , 30-H ) :   1.0028 B( 13-C , 14-C ) :   1.3695 B( 13-C , 19-C ) :   1.3463
B( 14-C , 15-C ) :   1.3996 B( 14-C , 31-H ) :   0.9716 B( 15-C , 16-C ) :   1.3577
B( 15-C , 32-H ) :   0.9696 B( 16-C , 17-C ) :   1.3305 B( 16-C , 33-H ) :   0.9834
B( 17-C , 18-O ) :   1.1124 B( 17-C , 19-C ) :   1.3602 B( 18-O , 34-H ) :   0.9785
B( 19-C , 35-H ) :   0.9537

MP2 TOTAL ENERGY:    -1274.316371746 Eh
FINAL SINGLE POINT ENERGY     -1274.316371745527

DIPOLE MOMENT
-------------
                                X             Y             Z
Electronic contribution:      8.59626       6.73610       6.20931
Nuclear contribution   :    -10.14992      -8.49681      -6.05857
                        -----------------------------------------
Total Dipole Moment    :     -1.55366      -1.76071       0.15074
                        -----------------------------------------
Magnitude (a.u.)       :      2.35302
Magnitude (Debye)      :      5.98090

Rotational constants in cm-1:     0.012436     0.009072     0.006386
Rotational constants in MHz :   372.820489   271.973067   191.433709

                             ****ORCA TERMINATED NORMALLY****
TOTAL RUN TIME: 0 days 1 hours 49 minutes 26 seconds 470 msec
