                         Program Version 4.2.0 -  RELEASE  -
|  1> ! ri-mp2 cc-pvtz cc-pvtz/c TightSCF NoKeepInts
|  2>
|  3> %scf
|  4>   MaxCore 4096
|  5> end
|  6> *xyz  0  1
|  7>     C       14.4743258   15.5969397   15.8149906
|  8>     C       15.8581940   14.9060310   15.8193998
|  9>     O       16.9620415   15.7975417   15.5201804
| 10>     C       16.7721681   17.1199634   15.2394580
| 11>     O       16.3587534   17.4674873   14.1476349
| 12>     C       17.0402461   18.0354017   16.4065044
| 13>     C       16.9616947   19.3831269   16.2521221
| 14>     C       16.3296739   20.1407745   15.1024557
| 15>     N       17.4905155   20.2517613   17.2093582
| 16>     C       18.2994010   19.8639162   18.2422382
| 17>     S       18.9839949   20.9561388   19.2784972
| 18>     N       18.5342734   18.5178848   18.3591664
| 19>     C       17.8754985   17.4628263   17.5667493
| 20>     C       17.1631716   16.4460365   18.4470834
| 21>     C       17.7678527   15.2097743   18.7405902
| 22>     C       17.1118781   14.2708673   19.5545483
| 23>     C       15.8448761   14.5736415   20.0824356
| 24>     C       15.2473115   15.8102688   19.8021302
| 25>     O       14.0249477   16.1060936   20.3105297
| 26>     C       15.9032492   16.7433668   18.9934042
| 27>     H       14.4308964   16.4146556   16.5442448
| 28>     H       13.6931671   14.8742821   16.0799549
| 29>     H       14.2336802   15.9952089   14.8209801
| 30>     H       16.0202092   14.4396792   16.7986609
| 31>     H       15.8477780   14.0985019   15.0760181
| 32>     H       15.3340793   19.7395708   14.8737374
| 33>     H       16.9386744   20.0425224   14.1945106
| 34>     H       16.2081544   21.2108290   15.3078925
| 35>     H       17.3496812   21.2450256   17.1160491
| 36>     H       19.1128560   18.2598922   19.1485828
| 37>     H       18.7554820   17.0078374   17.0898854
| 38>     H       18.7460461   14.9734411   18.3296068
| 39>     H       17.5851659   13.3151727   19.7744128
| 40>     H       15.3342361   13.8514274   20.7112222
| 41>     H       13.7624961   15.3726435   20.8872776
| 42>     H       15.4303298   17.6994675   18.7954876
| 43> *
| 44>
| 45>                          ****END OF INPUT****

CARTESIAN COORDINATES (ANGSTROEM)
---------------------------------
  C     14.474326   15.596940   15.814991
  C     15.858194   14.906031   15.819400
  O     16.962041   15.797542   15.520180
  C     16.772168   17.119963   15.239458
  O     16.358753   17.467487   14.147635
  C     17.040246   18.035402   16.406504
  C     16.961695   19.383127   16.252122
  C     16.329674   20.140774   15.102456
  N     17.490516   20.251761   17.209358
  C     18.299401   19.863916   18.242238
  S     18.983995   20.956139   19.278497
  N     18.534273   18.517885   18.359166
  C     17.875498   17.462826   17.566749
  C     17.163172   16.446037   18.447083
  C     17.767853   15.209774   18.740590
  C     17.111878   14.270867   19.554548
  C     15.844876   14.573642   20.082436
  C     15.247312   15.810269   19.802130
  O     14.024948   16.106094   20.310530
  C     15.903249   16.743367   18.993404
  H     14.430896   16.414656   16.544245
  H     13.693167   14.874282   16.079955
  H     14.233680   15.995209   14.820980
  H     16.020209   14.439679   16.798661
  H     15.847778   14.098502   15.076018
  H     15.334079   19.739571   14.873737
  H     16.938674   20.042522   14.194511
  H     16.208154   21.210829   15.307892
  H     17.349681   21.245026   17.116049
  H     19.112856   18.259892   19.148583
  H     18.755482   17.007837   17.089885
  H     18.746046   14.973441   18.329607
  H     17.585166   13.315173   19.774413
  H     15.334236   13.851427   20.711222
  H     13.762496   15.372644   20.887278
  H     15.430330   17.699467   18.795488

 Total Charge           Charge          ....    0
 Multiplicity           Mult            ....    1
 Number of Electrons    NEL             ....  154
 Basis Dimension        Dim             ....  828

ORBITAL ENERGIES
----------------

  NO   OCC          E(Eh)            E(eV)
   0   2.0000     -91.890637     -2500.4713
   1   2.0000     -20.603156      -560.6404
   2   2.0000     -20.579012      -559.9834
   3   2.0000     -20.544396      -559.0414
   4   2.0000     -15.630917      -425.3389
   5   2.0000     -15.608758      -424.7359
   6   2.0000     -11.392225      -309.9982
   7   2.0000     -11.385034      -309.8025
   8   2.0000     -11.339064      -308.5516
   9   2.0000     -11.320738      -308.0529
  10   2.0000     -11.310503      -307.7744
  11   2.0000     -11.297615      -307.4237
  12   2.0000     -11.266591      -306.5795
  13   2.0000     -11.261765      -306.4482
  14   2.0000     -11.258636      -306.3631
  15   2.0000     -11.252886      -306.2066
  16   2.0000     -11.250363      -306.1379
  17   2.0000     -11.245062      -305.9937
  18   2.0000     -11.244634      -305.9820
  19   2.0000     -11.226409      -305.4861
  20   2.0000      -8.895690      -242.0640
  21   2.0000      -6.577258      -178.9763
  22   2.0000      -6.575264      -178.9220
  23   2.0000      -6.574669      -178.9058
  24   2.0000      -1.441103       -39.2144
  25   2.0000      -1.422830       -38.7172
  26   2.0000      -1.348951       -36.7068
  27   2.0000      -1.342415       -36.5290
  28   2.0000      -1.240578       -33.7578
  29   2.0000      -1.163565       -31.6622
  30   2.0000      -1.122388       -30.5417
  31   2.0000      -1.047389       -28.5009
  32   2.0000      -1.030365       -28.0377
  33   2.0000      -1.021673       -27.8011
  34   2.0000      -0.999839       -27.2070
  35   2.0000      -0.987197       -26.8630
  36   2.0000      -0.925035       -25.1715
  37   2.0000      -0.895472       -24.3670
  38   2.0000      -0.849398       -23.1133
  39   2.0000      -0.843491       -22.9526
  40   2.0000      -0.840118       -22.8608
  41   2.0000      -0.820305       -22.3216
  42   2.0000      -0.744949       -20.2711
  43   2.0000      -0.737037       -20.0558
  44   2.0000      -0.718686       -19.5565
  45   2.0000      -0.701192       -19.0804
  46   2.0000      -0.689934       -18.7741
  47   2.0000      -0.675518       -18.3818
  48   2.0000      -0.670855       -18.2549
  49   2.0000      -0.659463       -17.9449
  50   2.0000      -0.652303       -17.7501
  51   2.0000      -0.643070       -17.4988
  52   2.0000      -0.637348       -17.3431
  53   2.0000      -0.625883       -17.0312
  54   2.0000      -0.613141       -16.6844
  55   2.0000      -0.605028       -16.4636
  56   2.0000      -0.602828       -16.4038
  57   2.0000      -0.582172       -15.8417
  58   2.0000      -0.571193       -15.5429
  59   2.0000      -0.567357       -15.4386
  60   2.0000      -0.545983       -14.8570
  61   2.0000      -0.542949       -14.7744
  62   2.0000      -0.536003       -14.5854
  63   2.0000      -0.529828       -14.4174
  64   2.0000      -0.528543       -14.3824
  65   2.0000      -0.515269       -14.0212
  66   2.0000      -0.503434       -13.6991
  67   2.0000      -0.491387       -13.3713
  68   2.0000      -0.485505       -13.2113
  69   2.0000      -0.464467       -12.6388
  70   2.0000      -0.454712       -12.3733
  71   2.0000      -0.441494       -12.0137
  72   2.0000      -0.356402        -9.6982
  73   2.0000      -0.353967        -9.6319
  74   2.0000      -0.330953        -9.0057
  75   2.0000      -0.327310        -8.9066
  76   2.0000      -0.320392        -8.7183
  77   0.0000       0.071787         1.9534
  78   0.0000       0.098924         2.6919
  79   0.0000       0.121193         3.2978
  80   0.0000       0.128365         3.4930
  81   0.0000       0.130097         3.5401

MULLIKEN ATOMIC CHARGES
-----------------------
   0 C :   -0.330560
   1 C :    0.033215
   2 O :   -0.394377
   3 C :    0.514750
   4 O :   -0.412821
   5 C :   -0.312353
   6 C :    0.183687
   7 C :   -0.267985
   8 N :   -0.126957
   9 C :    0.212047
  10 S :   -0.440176
  11 N :   -0.217521
  12 C :    0.072598
  13 C :    0.027361
  14 C :   -0.168066
  15 C :   -0.135393
  16 C :   -0.271783
  17 C :    0.320893
  18 O :   -0.357998
  19 C :   -0.275560
  20 H :    0.101832
  21 H :    0.109994
  22 H :    0.126049
  23 H :    0.110939
  24 H :    0.118051
  25 H :    0.129708
  26 H :    0.134104
  27 H :    0.094362
  28 H :    0.199466
  29 H :    0.201253
  30 H :    0.151766
  31 H :    0.152815
  32 H :    0.164656
  33 H :    0.134137
  34 H :    0.242216
  35 H :    0.175652
Sum of atomic charges:   -0.0000000

LOEWDIN ATOMIC CHARGES
----------------------
   0 C :    0.104722
   1 C :   -0.010179
   2 O :    0.283513
   3 C :   -0.423560
   4 O :    0.115469
   5 C :   -0.103263
   6 C :   -0.054703
   7 C :    0.131094
   8 N :    0.407865
   9 C :   -0.456456
  10 S :   -0.034722
  11 N :    0.394526
  12 C :   -0.054420
  13 C :   -0.039012
  14 C :    0.017679
  15 C :    0.040901
  16 C :   -0.000857
  17 C :   -0.190459
  18 O :    0.396387
  19 C :    0.034816
  20 H :   -0.032157
  21 H :   -0.022516
  22 H :   -0.024854
  23 H :   -0.029804
  24 H :   -0.027293
  25 H :   -0.005231
  26 H :   -0.003853
  27 H :   -0.023502
  28 H :   -0.056710
  29 H :   -0.064546
  30 H :   -0.011624
  31 H :   -0.027468
  32 H :   -0.019622
  33 H :   -0.034122
  34 H :   -0.152397
  35 H :   -0.023639

  Mayer bond orders larger than 0.100000
B(  0-C ,  1-C ) :   0.9620 B(  0-C , 20-H ) :   0.9719 B(  0-C , 21-H ) :   0.9752
B(  0-C , 22-H ) :   0.9714 B(  1-C ,  2-O ) :   0.8917 B(  1-C , 23-H ) :   0.9708
B(  1-C , 24-H ) :   0.9856 B(  2-O ,  3-C ) :   1.0915 B(  3-C ,  4-O ) :   2.0156
B(  3-C ,  5-C ) :   1.0631 B(  5-C ,  6-C ) :   1.6269 B(  5-C , 12-C ) :   0.9560
B(  6-C ,  7-C ) :   0.9666 B(  6-C ,  8-N ) :   1.1596 B(  7-C , 25-H ) :   0.9641
B(  7-C , 26-H ) :   0.9561 B(  7-C , 27-H ) :   0.9888 B(  8-N ,  9-C ) :   1.1854
B(  8-N , 28-H ) :   0.9466 B(  9-C , 10-S ) :   1.6062 B(  9-C , 11-N ) :   1.3107
B( 11-N , 12-C ) :   0.9607 B( 11-N , 29-H ) :   0.9484 B( 12-C , 13-C ) :   0.9676
B( 12-C , 30-H ) :   1.0017 B( 13-C , 14-C ) :   1.3495 B( 13-C , 19-C ) :   1.3582
B( 14-C , 15-C ) :   1.3964 B( 14-C , 31-H ) :   0.9736 B( 15-C , 16-C ) :   1.3568
B( 15-C , 32-H ) :   0.9700 B( 16-C , 17-C ) :   1.3334 B( 16-C , 33-H ) :   0.9838
B( 17-C , 18-O ) :   1.1052 B( 17-C , 19-C ) :   1.3576 B( 18-O , 34-H ) :   0.9789
B( 19-C , 35-H ) :   0.9570

MP2 TOTAL ENERGY:    -1274.325586920 Eh
FINAL SINGLE POINT ENERGY     -1274.325586919953

DIPOLE MOMENT
-------------
                                X             Y             Z
Electronic contribution:      9.17939       8.65244       6.16681
Nuclear contribution   :    -10.23282     -10.29294      -5.95578
                        -----------------------------------------
Total Dipole Moment    :     -1.05343      -1.64050       0.21103
                        -----------------------------------------
Magnitude (a.u.)       :      1.96099
Magnitude (Debye)      :      4.98444

Rotational constants in cm-1:     0.012563     0.008787     0.006305
Rotational constants in MHz :   376.643967   263.423019   189.019187

                             ****ORCA TERMINATED NORMALLY****
TOTAL RUN TIME: 0 days 2 hours 4 minutes 29 seconds 637 msec
