                         Program Version 4.2.0 -  RELEASE  -
|  1> ! ri-mp2 cc-pvtz cc-pvtz/c TightSCF NoKeepInts
|  2>
|  3> %scf
|  4>   MaxCore 4096
|  5> end
|  6> *xyz  0  1
|  7>     C       15.4756983   14.2901820   14.3792196
|  8>     C       14.8611616   15.2916178   15.3713388
|  9>     O       15.9168452   16.1701078   15.8007278
| 10>     C       15.7559887   17.5266998   15.7493051
| 11>     O       14.9271164   18.0578120   15.0299188
| 12>     C       16.6573267   18.2508054   16.7138466
| 13>     C       16.8378091   19.5936571   16.6218798
| 14>     C       16.0319125   20.5720310   15.7923588
| 15>     N       17.8627632   20.2321247   17.3239215
| 16>     C       18.8672582   19.5824387   17.9886003
| 17>     S       20.1059630   20.3995718   18.7191078
| 18>     N       18.8054357   18.2120790   17.9994552
| 19>     C       17.6904367   17.4014319   17.4742138
| 20>     C       17.0863522   16.4828986   18.5286687
| 21>     C       17.2545539   15.0882688   18.4464166
| 22>     C       16.6961652   14.2435517   19.4205061
| 23>     C       15.9672936   14.7986853   20.4864148
| 24>     C       15.8022609   16.1881760   20.5723986
| 25>     O       15.0999791   16.7266640   21.6009188
| 26>     C       16.3586504   17.0261648   19.6009403
| 27>     H       14.7169466   13.5786558   14.0315129
| 28>     H       16.2875554   13.7242937   14.8525387
| 29>     H       15.8807270   14.8143122   13.5044502
| 30>     H       14.0440176   15.8341876   14.8770958
| 31>     H       14.4450772   14.7598116   16.2368927
| 32>     H       14.9608785   20.4722452   16.0107107
| 33>     H       16.1678439   20.3751478   14.7212908
| 34>     H       16.3052982   21.6180355   15.9742998
| 35>     H       17.9320162   21.2370243   17.3049215
| 36>     H       19.5431829   17.7614216   18.5258273
| 37>     H       18.2187752   16.8170505   16.7075337
| 38>     H       17.8128534   14.6583961   17.6190027
| 39>     H       16.8289339   13.1655420   19.3478054
| 40>     H       15.5346710   14.1506506   21.2415118
| 41>     H       14.8211210   15.9986690   22.1763021
| 42>     H       16.2261315   18.0995882   19.6861461
| 43> *
| 44>
| 45>                          ****END OF INPUT****

CARTESIAN COORDINATES (ANGSTROEM)
---------------------------------
  C     15.475698   14.290182   14.379220
  C     14.861162   15.291618   15.371339
  O     15.916845   16.170108   15.800728
  C     15.755989   17.526700   15.749305
  O     14.927116   18.057812   15.029919
  C     16.657327   18.250805   16.713847
  C     16.837809   19.593657   16.621880
  C     16.031913   20.572031   15.792359
  N     17.862763   20.232125   17.323922
  C     18.867258   19.582439   17.988600
  S     20.105963   20.399572   18.719108
  N     18.805436   18.212079   17.999455
  C     17.690437   17.401432   17.474214
  C     17.086352   16.482899   18.528669
  C     17.254554   15.088269   18.446417
  C     16.696165   14.243552   19.420506
  C     15.967294   14.798685   20.486415
  C     15.802261   16.188176   20.572399
  O     15.099979   16.726664   21.600919
  C     16.358650   17.026165   19.600940
  H     14.716947   13.578656   14.031513
  H     16.287555   13.724294   14.852539
  H     15.880727   14.814312   13.504450
  H     14.044018   15.834188   14.877096
  H     14.445077   14.759812   16.236893
  H     14.960878   20.472245   16.010711
  H     16.167844   20.375148   14.721291
  H     16.305298   21.618036   15.974300
  H     17.932016   21.237024   17.304921
  H     19.543183   17.761422   18.525827
  H     18.218775   16.817051   16.707534
  H     17.812853   14.658396   17.619003
  H     16.828934   13.165542   19.347805
  H     15.534671   14.150651   21.241512
  H     14.821121   15.998669   22.176302
  H     16.226132   18.099588   19.686146

 Total Charge           Charge          ....    0
 Multiplicity           Mult            ....    1
 Number of Electrons    NEL             ....  154
 Basis Dimension        Dim             ....  828

ORBITAL ENERGIES
----------------

  NO   OCC          E(Eh)            E(eV)
   0   2.0000     -91.888997     -2500.4267
   1   2.0000     -20.599254      -560.5342
   2   2.0000     -20.596479      -560.4587
   3   2.0000     -20.541334      -558.9581
   4   2.0000     -15.629351      -425.2963
   5   2.0000     -15.607108      -424.6910
   6   2.0000     -11.395134      -310.0774
   7   2.0000     -11.383623      -309.7641
   8   2.0000     -11.337502      -308.5091
   9   2.0000     -11.313692      -307.8612
  10   2.0000     -11.307616      -307.6959
  11   2.0000     -11.295045      -307.3538
  12   2.0000     -11.260830      -306.4228
  13   2.0000     -11.258986      -306.3726
  14   2.0000     -11.255198      -306.2695
  15   2.0000     -11.251656      -306.1731
  16   2.0000     -11.243606      -305.9541
  17   2.0000     -11.238973      -305.8280
  18   2.0000     -11.238792      -305.8231
  19   2.0000     -11.228825      -305.5519
  20   2.0000      -8.894065      -242.0198
  21   2.0000      -6.575637      -178.9322
  22   2.0000      -6.573640      -178.8778
  23   2.0000      -6.573048      -178.8617
  24   2.0000      -1.450474       -39.4694
  25   2.0000      -1.416146       -38.5353
  26   2.0000      -1.354385       -36.8547
  27   2.0000      -1.340484       -36.4764
  28   2.0000      -1.238348       -33.6972
  29   2.0000      -1.157584       -31.4995
  30   2.0000      -1.121128       -30.5075
  31   2.0000      -1.043169       -28.3861
  32   2.0000      -1.039437       -28.2845
  33   2.0000      -1.015035       -27.6205
  34   2.0000      -0.996343       -27.1119
  35   2.0000      -0.984674       -26.7944
  36   2.0000      -0.921851       -25.0849
  37   2.0000      -0.888696       -24.1826
  38   2.0000      -0.846483       -23.0340
  39   2.0000      -0.837944       -22.8016
  40   2.0000      -0.834205       -22.6999
  41   2.0000      -0.818443       -22.2710
  42   2.0000      -0.764107       -20.7924
  43   2.0000      -0.733674       -19.9643
  44   2.0000      -0.721999       -19.6466
  45   2.0000      -0.695185       -18.9169
  46   2.0000      -0.687520       -18.7084
  47   2.0000      -0.679640       -18.4939
  48   2.0000      -0.673771       -18.3342
  49   2.0000      -0.656087       -17.8530
  50   2.0000      -0.647409       -17.6169
  51   2.0000      -0.640080       -17.4175
  52   2.0000      -0.629633       -17.1332
  53   2.0000      -0.612447       -16.6655
  54   2.0000      -0.606666       -16.5082
  55   2.0000      -0.600159       -16.3312
  56   2.0000      -0.598973       -16.2989
  57   2.0000      -0.577757       -15.7216
  58   2.0000      -0.569948       -15.5091
  59   2.0000      -0.566817       -15.4239
  60   2.0000      -0.562928       -15.3181
  61   2.0000      -0.541721       -14.7410
  62   2.0000      -0.537165       -14.6170
  63   2.0000      -0.529634       -14.4121
  64   2.0000      -0.524118       -14.2620
  65   2.0000      -0.513236       -13.9659
  66   2.0000      -0.500686       -13.6244
  67   2.0000      -0.496135       -13.5005
  68   2.0000      -0.485672       -13.2158
  69   2.0000      -0.463769       -12.6198
  70   2.0000      -0.455641       -12.3986
  71   2.0000      -0.447865       -12.1870
  72   2.0000      -0.353108        -9.6086
  73   2.0000      -0.349801        -9.5186
  74   2.0000      -0.328129        -8.9288
  75   2.0000      -0.321159        -8.7392
  76   2.0000      -0.318176        -8.6580
  77   0.0000       0.076556         2.0832
  78   0.0000       0.104909         2.8547
  79   0.0000       0.124017         3.3747
  80   0.0000       0.132292         3.5999
  81   0.0000       0.135317         3.6822

MULLIKEN ATOMIC CHARGES
-----------------------
   0 C :   -0.264239
   1 C :    0.011343
   2 O :   -0.351385
   3 C :    0.449038
   4 O :   -0.435001
   5 C :   -0.230798
   6 C :    0.171654
   7 C :   -0.268231
   8 N :   -0.125983
   9 C :    0.209629
  10 S :   -0.441510
  11 N :   -0.214861
  12 C :    0.058452
  13 C :    0.044306
  14 C :   -0.183682
  15 C :   -0.134731
  16 C :   -0.276570
  17 C :    0.316574
  18 O :   -0.356708
  19 C :   -0.247915
  20 H :    0.090109
  21 H :    0.090075
  22 H :    0.098680
  23 H :    0.126124
  24 H :    0.106757
  25 H :    0.133778
  26 H :    0.129044
  27 H :    0.094457
  28 H :    0.199951
  29 H :    0.200423
  30 H :    0.153057
  31 H :    0.153940
  32 H :    0.160849
  33 H :    0.130145
  34 H :    0.240497
  35 H :    0.162730
Sum of atomic charges:   -0.0000000

LOEWDIN ATOMIC CHARGES
----------------------
   0 C :    0.104842
   1 C :   -0.012627
   2 O :    0.310489
   3 C :   -0.414764
   4 O :    0.095535
   5 C :   -0.095727
   6 C :   -0.055985
   7 C :    0.131197
   8 N :    0.407242
   9 C :   -0.456729
  10 S :   -0.036242
  11 N :    0.394704
  12 C :   -0.054761
  13 C :   -0.039541
  14 C :    0.016900
  15 C :    0.038428
  16 C :   -0.000928
  17 C :   -0.189684
  18 O :    0.395066
  19 C :    0.033267
  20 H :   -0.026064
  21 H :   -0.030511
  22 H :   -0.025374
  23 H :   -0.027996
  24 H :   -0.029647
  25 H :   -0.004177
  26 H :   -0.005018
  27 H :   -0.023676
  28 H :   -0.057124
  29 H :   -0.064288
  30 H :   -0.013698
  31 H :   -0.029618
  32 H :   -0.021424
  33 H :   -0.035455
  34 H :   -0.153988
  35 H :   -0.022624

  Mayer bond orders larger than 0.100000
B(  0-C ,  1-C ) :   0.9741 B(  0-C , 20-H ) :   0.9758 B(  0-C , 21-H ) :   0.9798
B(  0-C , 22-H ) :   0.9787 B(  1-C ,  2-O ) :   0.8822 B(  1-C , 23-H ) :   0.9737
B(  1-C , 24-H ) :   0.9765 B(  2-O ,  3-C ) :   1.1609 B(  3-C ,  4-O ) :   1.9704
B(  3-C ,  5-C ) :   1.0671 B(  5-C ,  6-C ) :   1.6387 B(  5-C , 12-C ) :   0.9557
B(  6-C ,  7-C ) :   0.9653 B(  6-C ,  8-N ) :   1.1532 B(  7-C , 25-H ) :   0.9610
B(  7-C , 26-H ) :   0.9589 B(  7-C , 27-H ) :   0.9906 B(  8-N ,  9-C ) :   1.1874
B(  8-N , 28-H ) :   0.9464 B(  9-C , 10-S ) :   1.6068 B(  9-C , 11-N ) :   1.3089
B( 11-N , 12-C ) :   0.9698 B( 11-N , 29-H ) :   0.9485 B( 12-C , 13-C ) :   0.9618
B( 12-C , 30-H ) :   1.0014 B( 13-C , 14-C ) :   1.3530 B( 13-C , 19-C ) :   1.3808
B( 14-C , 15-C ) :   1.3932 B( 14-C , 31-H ) :   0.9709 B( 15-C , 16-C ) :   1.3592
B( 15-C , 32-H ) :   0.9707 B( 16-C , 17-C ) :   1.3342 B( 16-C , 33-H ) :   0.9851
B( 17-C , 18-O ) :   1.1047 B( 17-C , 19-C ) :   1.3644 B( 18-O , 34-H ) :   0.9799
B( 19-C , 35-H ) :   0.9596

MP2 TOTAL ENERGY:    -1274.341529910 Eh
FINAL SINGLE POINT ENERGY     -1274.341529910392

DIPOLE MOMENT
-------------
                                X             Y             Z
Electronic contribution:      8.60074      10.57881       9.61962
Nuclear contribution   :     -9.79948     -12.19141      -9.91311
                        -----------------------------------------
Total Dipole Moment    :     -1.19874      -1.61260      -0.29350
                        -----------------------------------------
Magnitude (a.u.)       :      2.03067
Magnitude (Debye)      :      5.16154

Rotational constants in cm-1:     0.010908     0.008540     0.005861
Rotational constants in MHz :   327.004290   256.037026   175.720127

                             ****ORCA TERMINATED NORMALLY****
TOTAL RUN TIME: 0 days 1 hours 46 minutes 12 seconds 54 msec
