                         Program Version 4.2.0 -  RELEASE  -
|  1> ! ri-mp2 cc-pvtz cc-pvtz/c TightSCF NoKeepInts
|  2>
|  3> %scf
|  4>   MaxCore 4096
|  5> end
|  6> *xyz  0  1
|  7>     C       15.3325376   14.7712289   13.7416982
|  8>     C       14.5102167   15.8824785   14.4314363
|  9>     O       15.3152457   16.8578819   15.1383243
| 10>     C       16.3869116   16.5731670   15.9438031
| 11>     O       16.8650004   15.4596075   16.0734632
| 12>     C       16.8529136   17.7351358   16.7775833
| 13>     C       16.7653738   19.0259183   16.3576901
| 14>     C       16.0182745   19.5700203   15.1553905
| 15>     N       17.4515243   20.0423158   17.0277111
| 16>     C       18.4158312   19.8328079   17.9758643
| 17>     S       19.2682972   21.0823509   18.6449294
| 18>     N       18.6541288   18.5279125   18.3239314
| 19>     C       17.8586163   17.3679046   17.8776218
| 20>     C       17.2433109   16.5848295   19.0300934
| 21>     C       17.4878741   15.2071015   19.1728570
| 22>     C       16.9222652   14.4874057   20.2387547
| 23>     C       16.1063759   15.1516378   21.1706868
| 24>     C       15.8595618   16.5242508   21.0296312
| 25>     O       15.0691160   17.1671865   21.9258781
| 26>     C       16.4236394   17.2377175   19.9672236
| 27>     H       16.2143353   15.1885152   13.2398757
| 28>     H       14.7212792   14.2621037   12.9869497
| 29>     H       15.6616786   14.0100400   14.4595642
| 30>     H       13.9118754   16.4068672   13.6754358
| 31>     H       13.8107496   15.4113519   15.1345020
| 32>     H       14.9376866   19.4181270   15.2697154
| 33>     H       16.3376489   19.0640761   14.2357369
| 34>     H       16.1811900   20.6438406   15.0023229
| 35>     H       17.3029342   21.0040281   16.7673810
| 36>     H       19.3547260   18.4009416   19.0433272
| 37>     H       18.6412000   16.7753172   17.3817751
| 38>     H       18.1063223   14.6901375   18.4428697
| 39>     H       17.1129413   13.4200911   20.3348285
| 40>     H       15.6662770   14.5993425   21.9941773
| 41>     H       14.7950641   16.5162441   22.5890938
| 42>     H       16.2240762   18.3001170   19.8758730
| 43> *
| 44>
| 45>                          ****END OF INPUT****

CARTESIAN COORDINATES (ANGSTROEM)
---------------------------------
  C     15.332538   14.771229   13.741698
  C     14.510217   15.882478   14.431436
  O     15.315246   16.857882   15.138324
  C     16.386912   16.573167   15.943803
  O     16.865000   15.459608   16.073463
  C     16.852914   17.735136   16.777583
  C     16.765374   19.025918   16.357690
  C     16.018275   19.570020   15.155390
  N     17.451524   20.042316   17.027711
  C     18.415831   19.832808   17.975864
  S     19.268297   21.082351   18.644929
  N     18.654129   18.527912   18.323931
  C     17.858616   17.367905   17.877622
  C     17.243311   16.584830   19.030093
  C     17.487874   15.207101   19.172857
  C     16.922265   14.487406   20.238755
  C     16.106376   15.151638   21.170687
  C     15.859562   16.524251   21.029631
  O     15.069116   17.167186   21.925878
  C     16.423639   17.237717   19.967224
  H     16.214335   15.188515   13.239876
  H     14.721279   14.262104   12.986950
  H     15.661679   14.010040   14.459564
  H     13.911875   16.406867   13.675436
  H     13.810750   15.411352   15.134502
  H     14.937687   19.418127   15.269715
  H     16.337649   19.064076   14.235737
  H     16.181190   20.643841   15.002323
  H     17.302934   21.004028   16.767381
  H     19.354726   18.400942   19.043327
  H     18.641200   16.775317   17.381775
  H     18.106322   14.690137   18.442870
  H     17.112941   13.420091   20.334829
  H     15.666277   14.599343   21.994177
  H     14.795064   16.516244   22.589094
  H     16.224076   18.300117   19.875873

 Total Charge           Charge          ....    0
 Multiplicity           Mult            ....    1
 Number of Electrons    NEL             ....  154
 Basis Dimension        Dim             ....  828

ORBITAL ENERGIES
----------------

  NO   OCC          E(Eh)            E(eV)
   0   2.0000     -91.887032     -2500.3733
   1   2.0000     -20.602094      -560.6115
   2   2.0000     -20.590854      -560.3056
   3   2.0000     -20.544636      -559.0480
   4   2.0000     -15.627136      -425.2360
   5   2.0000     -15.604768      -424.6273
   6   2.0000     -11.398298      -310.1635
   7   2.0000     -11.381501      -309.7064
   8   2.0000     -11.336373      -308.4784
   9   2.0000     -11.306827      -307.6744
  10   2.0000     -11.306028      -307.6527
  11   2.0000     -11.303291      -307.5782
  12   2.0000     -11.260021      -306.4007
  13   2.0000     -11.258205      -306.3513
  14   2.0000     -11.254070      -306.2388
  15   2.0000     -11.246991      -306.0462
  16   2.0000     -11.237139      -305.7781
  17   2.0000     -11.233147      -305.6695
  18   2.0000     -11.230025      -305.5845
  19   2.0000     -11.224810      -305.4426
  20   2.0000      -8.892127      -241.9671
  21   2.0000      -6.573708      -178.8797
  22   2.0000      -6.571702      -178.8251
  23   2.0000      -6.571117      -178.8092
  24   2.0000      -1.448017       -39.4026
  25   2.0000      -1.410596       -38.3843
  26   2.0000      -1.357681       -36.9444
  27   2.0000      -1.338751       -36.4293
  28   2.0000      -1.235996       -33.6332
  29   2.0000      -1.151333       -31.3294
  30   2.0000      -1.119397       -30.4603
  31   2.0000      -1.041945       -28.3528
  32   2.0000      -1.034174       -28.1413
  33   2.0000      -1.008906       -27.4537
  34   2.0000      -0.997276       -27.1373
  35   2.0000      -0.982247       -26.7283
  36   2.0000      -0.920164       -25.0389
  37   2.0000      -0.896153       -24.3856
  38   2.0000      -0.847140       -23.0519
  39   2.0000      -0.834416       -22.7056
  40   2.0000      -0.827148       -22.5078
  41   2.0000      -0.817708       -22.2510
  42   2.0000      -0.746090       -20.3021
  43   2.0000      -0.729405       -19.8481
  44   2.0000      -0.724887       -19.7252
  45   2.0000      -0.689965       -18.7749
  46   2.0000      -0.684379       -18.6229
  47   2.0000      -0.678734       -18.4693
  48   2.0000      -0.667919       -18.1750
  49   2.0000      -0.666646       -18.1404
  50   2.0000      -0.644050       -17.5255
  51   2.0000      -0.642209       -17.4754
  52   2.0000      -0.632394       -17.2083
  53   2.0000      -0.605248       -16.4696
  54   2.0000      -0.599501       -16.3132
  55   2.0000      -0.597147       -16.2492
  56   2.0000      -0.593834       -16.1590
  57   2.0000      -0.587549       -15.9880
  58   2.0000      -0.571683       -15.5563
  59   2.0000      -0.567764       -15.4496
  60   2.0000      -0.559387       -15.2217
  61   2.0000      -0.544875       -14.8268
  62   2.0000      -0.537734       -14.6325
  63   2.0000      -0.523031       -14.2324
  64   2.0000      -0.514794       -14.0083
  65   2.0000      -0.510447       -13.8900
  66   2.0000      -0.499932       -13.6038
  67   2.0000      -0.493233       -13.4215
  68   2.0000      -0.479924       -13.0594
  69   2.0000      -0.462208       -12.5773
  70   2.0000      -0.456053       -12.4098
  71   2.0000      -0.446556       -12.1514
  72   2.0000      -0.351936        -9.5767
  73   2.0000      -0.343543        -9.3483
  74   2.0000      -0.326177        -8.8757
  75   2.0000      -0.316206        -8.6044
  76   2.0000      -0.313499        -8.5307
  77   0.0000       0.079088         2.1521
  78   0.0000       0.112664         3.0658
  79   0.0000       0.120621         3.2823
  80   0.0000       0.136488         3.7140
  81   0.0000       0.140055         3.8111

MULLIKEN ATOMIC CHARGES
-----------------------
   0 C :   -0.295762
   1 C :    0.048000
   2 O :   -0.353488
   3 C :    0.416024
   4 O :   -0.425502
   5 C :   -0.152632
   6 C :    0.159283
   7 C :   -0.282439
   8 N :   -0.129093
   9 C :    0.207814
  10 S :   -0.444152
  11 N :   -0.210622
  12 C :    0.038471
  13 C :    0.033385
  14 C :   -0.167938
  15 C :   -0.134593
  16 C :   -0.277026
  17 C :    0.314144
  18 O :   -0.359025
  19 C :   -0.249847
  20 H :    0.095032
  21 H :    0.095456
  22 H :    0.125292
  23 H :    0.099115
  24 H :    0.092024
  25 H :    0.130661
  26 H :    0.121954
  27 H :    0.102427
  28 H :    0.198552
  29 H :    0.199748
  30 H :    0.155391
  31 H :    0.158923
  32 H :    0.159466
  33 H :    0.127884
  34 H :    0.239736
  35 H :    0.163336
Sum of atomic charges:   -0.0000000

LOEWDIN ATOMIC CHARGES
----------------------
   0 C :    0.102646
   1 C :   -0.010013
   2 O :    0.296030
   3 C :   -0.413281
   4 O :    0.112178
   5 C :   -0.089670
   6 C :   -0.065131
   7 C :    0.124386
   8 N :    0.405026
   9 C :   -0.458890
  10 S :   -0.039003
  11 N :    0.396488
  12 C :   -0.048130
  13 C :   -0.040268
  14 C :    0.024429
  15 C :    0.040676
  16 C :   -0.001257
  17 C :   -0.192307
  18 O :    0.393107
  19 C :    0.030105
  20 H :   -0.027271
  21 H :   -0.028982
  22 H :   -0.024993
  23 H :   -0.025188
  24 H :   -0.028039
  25 H :   -0.009220
  26 H :   -0.010464
  27 H :   -0.021409
  28 H :   -0.059047
  29 H :   -0.063163
  30 H :   -0.008712
  31 H :   -0.024255
  32 H :   -0.021277
  33 H :   -0.036297
  34 H :   -0.155020
  35 H :   -0.023783

  Mayer bond orders larger than 0.100000
B(  0-C ,  1-C ) :   0.9685 B(  0-C , 20-H ) :   0.9760 B(  0-C , 21-H ) :   0.9760
B(  0-C , 22-H ) :   0.9714 B(  1-C ,  2-O ) :   0.9055 B(  1-C , 23-H ) :   0.9837
B(  1-C , 24-H ) :   0.9807 B(  2-O ,  3-C ) :   1.1399 B(  3-C ,  4-O ) :   1.9740
B(  3-C ,  5-C ) :   1.0546 B(  5-C ,  6-C ) :   1.6537 B(  5-C , 12-C ) :   0.9482
B(  6-C ,  7-C ) :   0.9533 B(  6-C ,  8-N ) :   1.1328 B(  7-C , 25-H ) :   0.9627
B(  7-C , 26-H ) :   0.9663 B(  7-C , 27-H ) :   0.9921 B(  8-N ,  9-C ) :   1.1868
B(  8-N , 28-H ) :   0.9472 B(  9-C , 10-S ) :   1.6064 B(  9-C , 11-N ) :   1.3062
B( 11-N , 12-C ) :   0.9770 B( 11-N , 29-H ) :   0.9486 B( 12-C , 13-C ) :   0.9750
B( 12-C , 30-H ) :   0.9971 B( 13-C , 14-C ) :   1.3758 B( 13-C , 19-C ) :   1.3673
B( 14-C , 15-C ) :   1.3973 B( 14-C , 31-H ) :   0.9639 B( 15-C , 16-C ) :   1.3589
B( 15-C , 32-H ) :   0.9713 B( 16-C , 17-C ) :   1.3333 B( 16-C , 33-H ) :   0.9861
B( 17-C , 18-O ) :   1.1032 B( 17-C , 19-C ) :   1.3675 B( 18-O , 34-H ) :   0.9808
B( 19-C , 35-H ) :   0.9600

MP2 TOTAL ENERGY:    -1274.333494298 Eh
FINAL SINGLE POINT ENERGY     -1274.333494297922

DIPOLE MOMENT
-------------
                                X             Y             Z
Electronic contribution:      8.60884       9.89115      12.47148
Nuclear contribution   :    -10.22735     -11.07427     -13.55805
                        -----------------------------------------
Total Dipole Moment    :     -1.61852      -1.18313      -1.08657
                        -----------------------------------------
Magnitude (a.u.)       :      2.28036
Magnitude (Debye)      :      5.79620

Rotational constants in cm-1:     0.009919     0.008921     0.005481
Rotational constants in MHz :   297.364541   267.433760   164.324987

                             ****ORCA TERMINATED NORMALLY****
TOTAL RUN TIME: 0 days 1 hours 52 minutes 5 seconds 12 msec
