                         Program Version 4.2.0 -  RELEASE  -
|  1> ! ri-mp2 cc-pvtz cc-pvtz/c TightSCF NoKeepInts
|  2>
|  3> %scf
|  4>   MaxCore 4096
|  5> end
|  6> *xyz  0  1
|  7>     C       14.0067630   15.2246517   15.0652318
|  8>     C       15.0044532   16.2387140   15.6475148
|  9>     O       16.3170017   15.8450793   15.2049490
| 10>     C       17.4641679   16.4647657   15.6296462
| 11>     O       18.5654763   16.0090261   15.3862231
| 12>     C       17.2783062   17.6435275   16.5228347
| 13>     C       16.9633981   18.8456892   15.9855413
| 14>     C       16.5220413   19.1206455   14.5621411
| 15>     N       17.1118246   20.0202387   16.7246592
| 16>     C       17.7955484   20.0980915   17.9099945
| 17>     S       18.0348328   21.5393239   18.6843688
| 18>     N       18.2938334   18.9188059   18.4090075
| 19>     C       18.0159723   17.5772382   17.8573781
| 20>     C       17.3789518   16.5950257   18.8276736
| 21>     C       17.8317787   15.2647835   18.8822439
| 22>     C       17.2314410   14.3421003   19.7550116
| 23>     C       16.1670683   14.7527624   20.5759717
| 24>     C       15.7090693   16.0762101   20.5171829
| 25>     O       14.6742220   16.4723687   21.2999072
| 26>     C       16.3076011   16.9926473   19.6464272
| 27>     H       14.2419966   14.2103298   15.4117987
| 28>     H       14.0430718   15.2313233   13.9686446
| 29>     H       12.9834921   15.4655523   15.3779695
| 30>     H       14.7469330   17.2447223   15.2974634
| 31>     H       14.9469250   16.2166380   16.7447699
| 32>     H       16.6002626   18.2395647   13.9135851
| 33>     H       17.1479582   19.8978923   14.1047471
| 34>     H       15.4813882   19.4658223   14.5312199
| 35>     H       16.7901427   20.8982429   16.3480924
| 36>     H       18.7929315   19.0035170   19.2858642
| 37>     H       19.0388399   17.2530171   17.6126054
| 38>     H       18.6469735   14.9433071   18.2368402
| 39>     H       17.5891686   13.3142555   19.7890343
| 40>     H       15.6997239   14.0425039   21.2501683
| 41>     H       14.4273811   15.7199571   21.8588347
| 42>     H       15.9360596   18.0116589   19.6124543
| 43> *
| 44>
| 45>                          ****END OF INPUT****

CARTESIAN COORDINATES (ANGSTROEM)
---------------------------------
  C     14.006763   15.224652   15.065232
  C     15.004453   16.238714   15.647515
  O     16.317002   15.845079   15.204949
  C     17.464168   16.464766   15.629646
  O     18.565476   16.009026   15.386223
  C     17.278306   17.643528   16.522835
  C     16.963398   18.845689   15.985541
  C     16.522041   19.120645   14.562141
  N     17.111825   20.020239   16.724659
  C     17.795548   20.098091   17.909994
  S     18.034833   21.539324   18.684369
  N     18.293833   18.918806   18.409007
  C     18.015972   17.577238   17.857378
  C     17.378952   16.595026   18.827674
  C     17.831779   15.264784   18.882244
  C     17.231441   14.342100   19.755012
  C     16.167068   14.752762   20.575972
  C     15.709069   16.076210   20.517183
  O     14.674222   16.472369   21.299907
  C     16.307601   16.992647   19.646427
  H     14.241997   14.210330   15.411799
  H     14.043072   15.231323   13.968645
  H     12.983492   15.465552   15.377969
  H     14.746933   17.244722   15.297463
  H     14.946925   16.216638   16.744770
  H     16.600263   18.239565   13.913585
  H     17.147958   19.897892   14.104747
  H     15.481388   19.465822   14.531220
  H     16.790143   20.898243   16.348092
  H     18.792932   19.003517   19.285864
  H     19.038840   17.253017   17.612605
  H     18.646974   14.943307   18.236840
  H     17.589169   13.314255   19.789034
  H     15.699724   14.042504   21.250168
  H     14.427381   15.719957   21.858835
  H     15.936060   18.011659   19.612454

 Total Charge           Charge          ....    0
 Multiplicity           Mult            ....    1
 Number of Electrons    NEL             ....  154
 Basis Dimension        Dim             ....  828

ORBITAL ENERGIES
----------------

  NO   OCC          E(Eh)            E(eV)
   0   2.0000     -91.889205     -2500.4324
   1   2.0000     -20.605344      -560.6999
   2   2.0000     -20.600775      -560.5756
   3   2.0000     -20.551734      -559.2411
   4   2.0000     -15.626228      -425.2113
   5   2.0000     -15.609758      -424.7631
   6   2.0000     -11.399186      -310.1876
   7   2.0000     -11.385460      -309.8141
   8   2.0000     -11.330654      -308.3228
   9   2.0000     -11.318422      -307.9899
  10   2.0000     -11.311685      -307.8066
  11   2.0000     -11.305979      -307.6513
  12   2.0000     -11.267978      -306.6173
  13   2.0000     -11.266320      -306.5721
  14   2.0000     -11.262619      -306.4714
  15   2.0000     -11.258964      -306.3720
  16   2.0000     -11.247338      -306.0556
  17   2.0000     -11.243317      -305.9462
  18   2.0000     -11.241542      -305.8979
  19   2.0000     -11.235100      -305.7226
  20   2.0000      -8.894320      -242.0268
  21   2.0000      -6.575905      -178.9395
  22   2.0000      -6.573889      -178.8846
  23   2.0000      -6.573310      -178.8689
  24   2.0000      -1.450444       -39.4686
  25   2.0000      -1.420476       -38.6531
  26   2.0000      -1.364222       -37.1224
  27   2.0000      -1.339872       -36.4598
  28   2.0000      -1.238883       -33.7117
  29   2.0000      -1.162734       -31.6396
  30   2.0000      -1.126842       -30.6629
  31   2.0000      -1.049593       -28.5609
  32   2.0000      -1.042164       -28.3587
  33   2.0000      -1.020509       -27.7695
  34   2.0000      -1.006483       -27.3878
  35   2.0000      -0.989598       -26.9283
  36   2.0000      -0.927002       -25.2250
  37   2.0000      -0.881564       -23.9886
  38   2.0000      -0.856066       -23.2947
  39   2.0000      -0.842544       -22.9268
  40   2.0000      -0.839000       -22.8304
  41   2.0000      -0.837523       -22.7902
  42   2.0000      -0.758433       -20.6380
  43   2.0000      -0.739908       -20.1339
  44   2.0000      -0.733269       -19.9533
  45   2.0000      -0.698411       -19.0047
  46   2.0000      -0.690335       -18.7850
  47   2.0000      -0.682633       -18.5754
  48   2.0000      -0.675104       -18.3705
  49   2.0000      -0.664476       -18.0813
  50   2.0000      -0.659586       -17.9482
  51   2.0000      -0.649475       -17.6731
  52   2.0000      -0.638265       -17.3681
  53   2.0000      -0.613682       -16.6991
  54   2.0000      -0.608650       -16.5622
  55   2.0000      -0.604212       -16.4414
  56   2.0000      -0.594676       -16.1820
  57   2.0000      -0.580435       -15.7944
  58   2.0000      -0.578674       -15.7465
  59   2.0000      -0.573054       -15.5936
  60   2.0000      -0.562771       -15.3138
  61   2.0000      -0.559500       -15.2248
  62   2.0000      -0.553999       -15.0751
  63   2.0000      -0.528303       -14.3758
  64   2.0000      -0.520384       -14.1604
  65   2.0000      -0.515986       -14.0407
  66   2.0000      -0.509585       -13.8665
  67   2.0000      -0.502402       -13.6711
  68   2.0000      -0.489302       -13.3146
  69   2.0000      -0.468656       -12.7528
  70   2.0000      -0.457242       -12.4422
  71   2.0000      -0.452568       -12.3150
  72   2.0000      -0.356036        -9.6882
  73   2.0000      -0.352849        -9.6015
  74   2.0000      -0.328895        -8.9497
  75   2.0000      -0.326098        -8.8736
  76   2.0000      -0.319294        -8.6884
  77   0.0000       0.089543         2.4366
  78   0.0000       0.103545         2.8176
  79   0.0000       0.114850         3.1252
  80   0.0000       0.127442         3.4679
  81   0.0000       0.129415         3.5216

MULLIKEN ATOMIC CHARGES
-----------------------
   0 C :   -0.258604
   1 C :    0.030649
   2 O :   -0.301713
   3 C :    0.408230
   4 O :   -0.382026
   5 C :   -0.195000
   6 C :    0.138309
   7 C :   -0.335398
   8 N :   -0.140117
   9 C :    0.210640
  10 S :   -0.443891
  11 N :   -0.223282
  12 C :    0.057281
  13 C :    0.027594
  14 C :   -0.221899
  15 C :   -0.127889
  16 C :   -0.276637
  17 C :    0.317144
  18 O :   -0.355391
  19 C :   -0.254946
  20 H :    0.106042
  21 H :    0.099197
  22 H :    0.089770
  23 H :    0.081209
  24 H :    0.108105
  25 H :    0.127847
  26 H :    0.138245
  27 H :    0.122951
  28 H :    0.196654
  29 H :    0.202320
  30 H :    0.168090
  31 H :    0.173539
  32 H :    0.164785
  33 H :    0.132308
  34 H :    0.241490
  35 H :    0.174392
Sum of atomic charges:   -0.0000000

LOEWDIN ATOMIC CHARGES
----------------------
   0 C :    0.112120
   1 C :   -0.026599
   2 O :    0.308266
   3 C :   -0.415445
   4 O :    0.120280
   5 C :   -0.082250
   6 C :   -0.096402
   7 C :    0.123519
   8 N :    0.402218
   9 C :   -0.455313
  10 S :   -0.039047
  11 N :    0.395913
  12 C :   -0.050227
  13 C :   -0.044236
  14 C :    0.018537
  15 C :    0.045697
  16 C :    0.000414
  17 C :   -0.191209
  18 O :    0.395519
  19 C :    0.027585
  20 H :   -0.022628
  21 H :   -0.025755
  22 H :   -0.024714
  23 H :   -0.036873
  24 H :   -0.029219
  25 H :   -0.008246
  26 H :   -0.009145
  27 H :   -0.017793
  28 H :   -0.057137
  29 H :   -0.063959
  30 H :   -0.003612
  31 H :   -0.021686
  32 H :   -0.018271
  33 H :   -0.034544
  34 H :   -0.152891
  35 H :   -0.022867

  Mayer bond orders larger than 0.100000
B(  0-C ,  1-C ) :   0.9813 B(  0-C , 20-H ) :   0.9781 B(  0-C , 21-H ) :   0.9777
B(  0-C , 22-H ) :   0.9771 B(  1-C ,  2-O ) :   0.9115 B(  1-C , 23-H ) :   0.9684
B(  1-C , 24-H ) :   0.9664 B(  2-O ,  3-C ) :   1.1914 B(  3-C ,  4-O ) :   2.1060
B(  3-C ,  5-C ) :   0.9089 B(  5-C ,  6-C ) :   1.7245 B(  5-C , 12-C ) :   0.9422
B(  6-C ,  7-C ) :   0.9361 B(  6-C ,  8-N ) :   1.1064 B(  7-C , 25-H ) :   0.9785
B(  7-C , 26-H ) :   0.9704 B(  7-C , 27-H ) :   0.9674 B(  8-N ,  9-C ) :   1.1999
B(  8-N , 28-H ) :   0.9518 B(  9-C , 10-S ) :   1.6093 B(  9-C , 11-N ) :   1.2889
B( 11-N , 12-C ) :   0.9832 B( 11-N , 29-H ) :   0.9472 B( 12-C , 13-C ) :   0.9667
B( 12-C , 30-H ) :   0.9898 B( 13-C , 14-C ) :   1.3827 B( 13-C , 19-C ) :   1.3529
B( 14-C , 15-C ) :   1.3949 B( 14-C , 31-H ) :   0.9611 B( 15-C , 16-C ) :   1.3630
B( 15-C , 32-H ) :   0.9695 B( 16-C , 17-C ) :   1.3306 B( 16-C , 33-H ) :   0.9846
B( 17-C , 18-O ) :   1.1100 B( 17-C , 19-C ) :   1.3629 B( 18-O , 34-H ) :   0.9791
B( 19-C , 35-H ) :   0.9565

MP2 TOTAL ENERGY:    -1274.331736167 Eh
FINAL SINGLE POINT ENERGY     -1274.331736166742

DIPOLE MOMENT
-------------
                                X             Y             Z
Electronic contribution:     10.39250       8.56505       8.68849
Nuclear contribution   :    -12.09861      -9.79908      -8.96344
                        -----------------------------------------
Total Dipole Moment    :     -1.70611      -1.23402      -0.27494
                        -----------------------------------------
Magnitude (a.u.)       :      2.12349
Magnitude (Debye)      :      5.39749

Rotational constants in cm-1:     0.010787     0.009045     0.006205
Rotational constants in MHz :   323.386789   271.164351   186.015567

                             ****ORCA TERMINATED NORMALLY****
TOTAL RUN TIME: 0 days 1 hours 41 minutes 21 seconds 916 msec
