                         Program Version 4.2.0 -  RELEASE  -
|  1> ! ri-mp2 cc-pvtz cc-pvtz/c TightSCF NoKeepInts
|  2>
|  3> %scf
|  4>   MaxCore 4096
|  5> end
|  6> *xyz  0  1
|  7>     C       14.3593194   14.9132677   15.0831026
|  8>     C       15.8996418   14.8437682   14.9835647
|  9>     O       16.5326252   15.8975475   15.7410407
| 10>     C       16.2349785   17.2241204   15.5731037
| 11>     O       15.5465191   17.6339388   14.6545469
| 12>     C       16.9003310   18.0957429   16.6057606
| 13>     C       16.9962548   19.4389909   16.4289233
| 14>     C       16.2803832   20.2816573   15.3933585
| 15>     N       17.8294794   20.2142558   17.2387222
| 16>     C       18.7379119   19.7058887   18.1269843
| 17>     S       19.7601613   20.6797083   18.9886829
| 18>     N       18.7715641   18.3402511   18.2514208
| 19>     C       17.8353391   17.3985299   17.6089488
| 20>     C       17.1127303   16.5137716   18.6165368
| 21>     C       17.4061077   15.1404910   18.7053973
| 22>     C       16.7376249   14.3268739   19.6357083
| 23>     C       15.7709956   14.8921747   20.4851908
| 24>     C       15.4803923   16.2609971   20.4009990
| 25>     O       14.5484861   16.8094199   21.2206709
| 26>     C       16.1474374   17.0681119   19.4741521
| 27>     H       14.0436912   15.0472457   16.1253835
| 28>     H       13.9147313   13.9825092   14.7110100
| 29>     H       13.9472199   15.7339141   14.4842182
| 30>     H       16.2425869   13.8752307   15.3692933
| 31>     H       16.1970984   14.9114271   13.9286675
| 32>     H       16.6269892   20.0298218   14.3829998
| 33>     H       16.4293618   21.3583268   15.5365883
| 34>     H       15.1991459   20.0954448   15.4249609
| 35>     H       17.8296370   21.2170059   17.1416621
| 36>     H       19.4285282   17.9963107   18.9402386
| 37>     H       18.5368173   16.8064114   17.0043773
| 38>     H       18.1492532   14.7019648   18.0449195
| 39>     H       16.9685067   13.2647996   19.6959303
| 40>     H       15.2520774   14.2680522   21.2052034
| 41>     H       14.2187400   16.1054359   21.7989781
| 42>     H       15.9143328   18.1265917   19.4267541
| 43> *
| 44>
| 45>                          ****END OF INPUT****

CARTESIAN COORDINATES (ANGSTROEM)
---------------------------------
  C     14.359319   14.913268   15.083103
  C     15.899642   14.843768   14.983565
  O     16.532625   15.897547   15.741041
  C     16.234979   17.224120   15.573104
  O     15.546519   17.633939   14.654547
  C     16.900331   18.095743   16.605761
  C     16.996255   19.438991   16.428923
  C     16.280383   20.281657   15.393358
  N     17.829479   20.214256   17.238722
  C     18.737912   19.705889   18.126984
  S     19.760161   20.679708   18.988683
  N     18.771564   18.340251   18.251421
  C     17.835339   17.398530   17.608949
  C     17.112730   16.513772   18.616537
  C     17.406108   15.140491   18.705397
  C     16.737625   14.326874   19.635708
  C     15.770996   14.892175   20.485191
  C     15.480392   16.260997   20.400999
  O     14.548486   16.809420   21.220671
  C     16.147437   17.068112   19.474152
  H     14.043691   15.047246   16.125384
  H     13.914731   13.982509   14.711010
  H     13.947220   15.733914   14.484218
  H     16.242587   13.875231   15.369293
  H     16.197098   14.911427   13.928667
  H     16.626989   20.029822   14.383000
  H     16.429362   21.358327   15.536588
  H     15.199146   20.095445   15.424961
  H     17.829637   21.217006   17.141662
  H     19.428528   17.996311   18.940239
  H     18.536817   16.806411   17.004377
  H     18.149253   14.701965   18.044919
  H     16.968507   13.264800   19.695930
  H     15.252077   14.268052   21.205203
  H     14.218740   16.105436   21.798978
  H     15.914333   18.126592   19.426754

 Total Charge           Charge          ....    0
 Multiplicity           Mult            ....    1
 Number of Electrons    NEL             ....  154
 Basis Dimension        Dim             ....  828

ORBITAL ENERGIES
----------------

  NO   OCC          E(Eh)            E(eV)
   0   2.0000     -91.888231     -2500.4059
   1   2.0000     -20.599658      -560.5452
   2   2.0000     -20.596069      -560.4475
   3   2.0000     -20.541084      -558.9513
   4   2.0000     -15.628529      -425.2739
   5   2.0000     -15.606363      -424.6707
   6   2.0000     -11.396506      -310.1147
   7   2.0000     -11.382872      -309.7437
   8   2.0000     -11.336682      -308.4868
   9   2.0000     -11.313161      -307.8467
  10   2.0000     -11.306658      -307.6698
  11   2.0000     -11.300759      -307.5093
  12   2.0000     -11.260134      -306.4038
  13   2.0000     -11.259202      -306.3785
  14   2.0000     -11.254585      -306.2528
  15   2.0000     -11.251220      -306.1613
  16   2.0000     -11.243070      -305.9395
  17   2.0000     -11.238384      -305.8120
  18   2.0000     -11.238188      -305.8066
  19   2.0000     -11.222064      -305.3679
  20   2.0000      -8.893309      -241.9992
  21   2.0000      -6.574884      -178.9117
  22   2.0000      -6.572884      -178.8573
  23   2.0000      -6.572295      -178.8412
  24   2.0000      -1.448082       -39.4043
  25   2.0000      -1.415738       -38.5242
  26   2.0000      -1.354212       -36.8500
  27   2.0000      -1.339746       -36.4563
  28   2.0000      -1.237622       -33.6774
  29   2.0000      -1.156993       -31.4834
  30   2.0000      -1.120397       -30.4875
  31   2.0000      -1.042185       -28.3593
  32   2.0000      -1.035619       -28.1806
  33   2.0000      -1.014396       -27.6031
  34   2.0000      -0.995390       -27.0859
  35   2.0000      -0.983724       -26.7685
  36   2.0000      -0.921201       -25.0672
  37   2.0000      -0.896441       -24.3934
  38   2.0000      -0.846200       -23.0263
  39   2.0000      -0.837607       -22.7924
  40   2.0000      -0.833631       -22.6843
  41   2.0000      -0.816725       -22.2242
  42   2.0000      -0.750626       -20.4256
  43   2.0000      -0.732759       -19.9394
  44   2.0000      -0.721059       -19.6210
  45   2.0000      -0.694880       -18.9087
  46   2.0000      -0.688107       -18.7243
  47   2.0000      -0.678848       -18.4724
  48   2.0000      -0.671281       -18.2665
  49   2.0000      -0.655222       -17.8295
  50   2.0000      -0.648297       -17.6411
  51   2.0000      -0.639699       -17.4071
  52   2.0000      -0.632805       -17.2195
  53   2.0000      -0.614076       -16.7099
  54   2.0000      -0.606056       -16.4916
  55   2.0000      -0.600128       -16.3303
  56   2.0000      -0.598509       -16.2863
  57   2.0000      -0.576832       -15.6964
  58   2.0000      -0.570739       -15.5306
  59   2.0000      -0.568699       -15.4751
  60   2.0000      -0.559732       -15.2311
  61   2.0000      -0.542701       -14.7677
  62   2.0000      -0.534982       -14.5576
  63   2.0000      -0.524595       -14.2749
  64   2.0000      -0.521515       -14.1911
  65   2.0000      -0.512649       -13.9499
  66   2.0000      -0.501883       -13.6569
  67   2.0000      -0.497565       -13.5394
  68   2.0000      -0.483242       -13.1497
  69   2.0000      -0.462389       -12.5823
  70   2.0000      -0.455763       -12.4019
  71   2.0000      -0.443787       -12.0761
  72   2.0000      -0.352399        -9.5893
  73   2.0000      -0.349237        -9.5032
  74   2.0000      -0.327453        -8.9105
  75   2.0000      -0.320544        -8.7224
  76   2.0000      -0.317396        -8.6368
  77   0.0000       0.078307         2.1308
  78   0.0000       0.105724         2.8769
  79   0.0000       0.125170         3.4060
  80   0.0000       0.133302         3.6273
  81   0.0000       0.137567         3.7434

MULLIKEN ATOMIC CHARGES
-----------------------
   0 C :   -0.311047
   1 C :    0.039556
   2 O :   -0.351733
   3 C :    0.446048
   4 O :   -0.440418
   5 C :   -0.220882
   6 C :    0.170764
   7 C :   -0.268587
   8 N :   -0.125771
   9 C :    0.210605
  10 S :   -0.443062
  11 N :   -0.214876
  12 C :    0.060275
  13 C :    0.047685
  14 C :   -0.180908
  15 C :   -0.132649
  16 C :   -0.276577
  17 C :    0.317272
  18 O :   -0.356914
  19 C :   -0.250819
  20 H :    0.100671
  21 H :    0.094565
  22 H :    0.127367
  23 H :    0.106029
  24 H :    0.101027
  25 H :    0.129093
  26 H :    0.094516
  27 H :    0.132819
  28 H :    0.199567
  29 H :    0.200186
  30 H :    0.152307
  31 H :    0.151235
  32 H :    0.159870
  33 H :    0.129775
  34 H :    0.240466
  35 H :    0.162543
Sum of atomic charges:   -0.0000000

LOEWDIN ATOMIC CHARGES
----------------------
   0 C :    0.105122
   1 C :   -0.013381
   2 O :    0.302911
   3 C :   -0.412107
   4 O :    0.098886
   5 C :   -0.093661
   6 C :   -0.057007
   7 C :    0.130652
   8 N :    0.406967
   9 C :   -0.456711
  10 S :   -0.037458
  11 N :    0.394740
  12 C :   -0.054785
  13 C :   -0.039423
  14 C :    0.016847
  15 C :    0.038988
  16 C :   -0.000720
  17 C :   -0.189903
  18 O :    0.394947
  19 C :    0.033011
  20 H :   -0.026931
  21 H :   -0.028064
  22 H :   -0.026184
  23 H :   -0.024895
  24 H :   -0.029029
  25 H :   -0.005255
  26 H :   -0.023748
  27 H :   -0.004555
  28 H :   -0.057251
  29 H :   -0.064431
  30 H :   -0.014172
  31 H :   -0.029457
  32 H :   -0.021534
  33 H :   -0.035498
  34 H :   -0.154080
  35 H :   -0.022831

  Mayer bond orders larger than 0.100000
B(  0-C ,  1-C ) :   0.9610 B(  0-C , 20-H ) :   0.9752 B(  0-C , 21-H ) :   0.9770
B(  0-C , 22-H ) :   0.9723 B(  1-C ,  2-O ) :   0.9044 B(  1-C , 23-H ) :   0.9839
B(  1-C , 24-H ) :   0.9829 B(  2-O ,  3-C ) :   1.1637 B(  3-C ,  4-O ) :   1.9548
B(  3-C ,  5-C ) :   1.0655 B(  5-C ,  6-C ) :   1.6444 B(  5-C , 12-C ) :   0.9560
B(  6-C ,  7-C ) :   0.9653 B(  6-C ,  8-N ) :   1.1535 B(  7-C , 25-H ) :   0.9589
B(  7-C , 26-H ) :   0.9903 B(  7-C , 27-H ) :   0.9618 B(  8-N ,  9-C ) :   1.1879
B(  8-N , 28-H ) :   0.9465 B(  9-C , 10-S ) :   1.6050 B(  9-C , 11-N ) :   1.3093
B( 11-N , 12-C ) :   0.9695 B( 11-N , 29-H ) :   0.9486 B( 12-C , 13-C ) :   0.9638
B( 12-C , 30-H ) :   1.0002 B( 13-C , 14-C ) :   1.3543 B( 13-C , 19-C ) :   1.3797
B( 14-C , 15-C ) :   1.3949 B( 14-C , 31-H ) :   0.9714 B( 15-C , 16-C ) :   1.3602
B( 15-C , 32-H ) :   0.9709 B( 16-C , 17-C ) :   1.3338 B( 16-C , 33-H ) :   0.9852
B( 17-C , 18-O ) :   1.1043 B( 17-C , 19-C ) :   1.3645 B( 18-O , 34-H ) :   0.9800
B( 19-C , 35-H ) :   0.9597

MP2 TOTAL ENERGY:    -1274.340837024 Eh
FINAL SINGLE POINT ENERGY     -1274.340837023721

DIPOLE MOMENT
-------------
                                X             Y             Z
Electronic contribution:      9.79834       9.93380       9.00962
Nuclear contribution   :    -10.80085     -11.69725      -9.45326
                        -----------------------------------------
Total Dipole Moment    :     -1.00250      -1.76345      -0.44364
                        -----------------------------------------
Magnitude (a.u.)       :      2.07643
Magnitude (Debye)      :      5.27787

Rotational constants in cm-1:     0.011244     0.008651     0.005883
Rotational constants in MHz :   337.071980   259.349499   176.381192

                             ****ORCA TERMINATED NORMALLY****
TOTAL RUN TIME: 0 days 1 hours 50 minutes 38 seconds 190 msec
