                         Program Version 4.2.0 -  RELEASE  -
|  1> ! ri-mp2 cc-pvtz cc-pvtz/c TightSCF NoKeepInts
|  2>
|  3> %scf
|  4>   MaxCore 4096
|  5> end
|  6> *xyz  0  1
|  7>     C       14.7813459   14.8518916   16.2026183
|  8>     C       15.9209925   14.8873226   15.1666764
|  9>     O       16.8734532   15.8974132   15.5481953
| 10>     C       16.5819745   17.2065660   15.2892634
| 11>     O       15.9917052   17.5398316   14.2759151
| 12>     C       16.9447695   18.1266183   16.4248719
| 13>     C       16.8867851   19.4746554   16.2667338
| 14>     C       16.2240676   20.2392671   15.1391786
| 15>     N       17.4828800   20.3351837   17.1913854
| 16>     C       18.3281392   19.9329057   18.1893193
| 17>     S       19.0851709   21.0142473   19.1859917
| 18>     N       18.5352021   18.5820155   18.3049435
| 19>     C       17.8202310   17.5389049   17.5457562
| 20>     C       17.1123779   16.5444898   18.4558975
| 21>     C       17.6508610   15.2621848   18.6696063
| 22>     C       17.0069698   14.3515974   19.5245023
| 23>     C       15.8169969   14.7277900   20.1712710
| 24>     C       15.2815974   16.0065896   19.9628638
| 25>     O       14.1331351   16.3722627   20.5857286
| 26>     C       15.9254905   16.9111709   19.1128146
| 27>     H       15.1690372   14.6078629   17.1980987
| 28>     H       14.0415776   14.0895141   15.9306862
| 29>     H       14.2673792   15.8196873   16.2567437
| 30>     H       16.4176258   13.9087661   15.1534747
| 31>     H       15.5228202   15.0771913   14.1603824
| 32>     H       15.1882437   19.9036562   15.0010495
| 33>     H       16.7530192   20.0684922   14.1928137
| 34>     H       16.1946041   21.3215105   15.3120093
| 35>     H       17.3589901   21.3308979   17.1008505
| 36>     H       19.1396327   18.3133408   19.0710261
| 37>     H       18.6673920   17.0594229   17.0350037
| 38>     H       18.5692690   14.9698617   18.1674570
| 39>     H       17.4297677   13.3610393   19.6833874
| 40>     H       15.3160997   14.0281234   20.8322934
| 41>     H       13.8645026   15.6374766   21.1575046
| 42>     H       15.5028940   17.9002488   18.9716860
| 43> *
| 44>
| 45>                          ****END OF INPUT****

CARTESIAN COORDINATES (ANGSTROEM)
---------------------------------
  C     14.781346   14.851892   16.202618
  C     15.920993   14.887323   15.166676
  O     16.873453   15.897413   15.548195
  C     16.581975   17.206566   15.289263
  O     15.991705   17.539832   14.275915
  C     16.944769   18.126618   16.424872
  C     16.886785   19.474655   16.266734
  C     16.224068   20.239267   15.139179
  N     17.482880   20.335184   17.191385
  C     18.328139   19.932906   18.189319
  S     19.085171   21.014247   19.185992
  N     18.535202   18.582016   18.304944
  C     17.820231   17.538905   17.545756
  C     17.112378   16.544490   18.455897
  C     17.650861   15.262185   18.669606
  C     17.006970   14.351597   19.524502
  C     15.816997   14.727790   20.171271
  C     15.281597   16.006590   19.962864
  O     14.133135   16.372263   20.585729
  C     15.925491   16.911171   19.112815
  H     15.169037   14.607863   17.198099
  H     14.041578   14.089514   15.930686
  H     14.267379   15.819687   16.256744
  H     16.417626   13.908766   15.153475
  H     15.522820   15.077191   14.160382
  H     15.188244   19.903656   15.001050
  H     16.753019   20.068492   14.192814
  H     16.194604   21.321510   15.312009
  H     17.358990   21.330898   17.100850
  H     19.139633   18.313341   19.071026
  H     18.667392   17.059423   17.035004
  H     18.569269   14.969862   18.167457
  H     17.429768   13.361039   19.683387
  H     15.316100   14.028123   20.832293
  H     13.864503   15.637477   21.157505
  H     15.502894   17.900249   18.971686

 Total Charge           Charge          ....    0
 Multiplicity           Mult            ....    1
 Number of Electrons    NEL             ....  154
 Basis Dimension        Dim             ....  828

ORBITAL ENERGIES
----------------

  NO   OCC          E(Eh)            E(eV)
   0   2.0000     -91.889791     -2500.4483
   1   2.0000     -20.599083      -560.5295
   2   2.0000     -20.592810      -560.3588
   3   2.0000     -20.542080      -558.9784
   4   2.0000     -15.630329      -425.3229
   5   2.0000     -15.607787      -424.7095
   6   2.0000     -11.393612      -310.0359
   7   2.0000     -11.384295      -309.7824
   8   2.0000     -11.338823      -308.5451
   9   2.0000     -11.316509      -307.9379
  10   2.0000     -11.308728      -307.7261
  11   2.0000     -11.294454      -307.3377
  12   2.0000     -11.263070      -306.4837
  13   2.0000     -11.259340      -306.3822
  14   2.0000     -11.257978      -306.3452
  15   2.0000     -11.252374      -306.1927
  16   2.0000     -11.246358      -306.0289
  17   2.0000     -11.241033      -305.8841
  18   2.0000     -11.240990      -305.8829
  19   2.0000     -11.221679      -305.3574
  20   2.0000      -8.894848      -242.0411
  21   2.0000      -6.576417      -178.9534
  22   2.0000      -6.574422      -178.8991
  23   2.0000      -6.573829      -178.8830
  24   2.0000      -1.448958       -39.4282
  25   2.0000      -1.418777       -38.6069
  26   2.0000      -1.352453       -36.8021
  27   2.0000      -1.341545       -36.5053
  28   2.0000      -1.239420       -33.7263
  29   2.0000      -1.159957       -31.5640
  30   2.0000      -1.122015       -30.5316
  31   2.0000      -1.044570       -28.4242
  32   2.0000      -1.033208       -28.1150
  33   2.0000      -1.017576       -27.6897
  34   2.0000      -0.997494       -27.1432
  35   2.0000      -0.985777       -26.8244
  36   2.0000      -0.923239       -25.1226
  37   2.0000      -0.892249       -24.2793
  38   2.0000      -0.847611       -23.0647
  39   2.0000      -0.840202       -22.8631
  40   2.0000      -0.836440       -22.7607
  41   2.0000      -0.814675       -22.1684
  42   2.0000      -0.755729       -20.5644
  43   2.0000      -0.735512       -20.0143
  44   2.0000      -0.722623       -19.6636
  45   2.0000      -0.697906       -18.9910
  46   2.0000      -0.689436       -18.7605
  47   2.0000      -0.677092       -18.4246
  48   2.0000      -0.671165       -18.2633
  49   2.0000      -0.664460       -18.0809
  50   2.0000      -0.647221       -17.6118
  51   2.0000      -0.641608       -17.4590
  52   2.0000      -0.636206       -17.3120
  53   2.0000      -0.609458       -16.5842
  54   2.0000      -0.605403       -16.4738
  55   2.0000      -0.601009       -16.3543
  56   2.0000      -0.599722       -16.3193
  57   2.0000      -0.579242       -15.7620
  58   2.0000      -0.570139       -15.5143
  59   2.0000      -0.566701       -15.4207
  60   2.0000      -0.555453       -15.1146
  61   2.0000      -0.547111       -14.8877
  62   2.0000      -0.537915       -14.6374
  63   2.0000      -0.527829       -14.3630
  64   2.0000      -0.526114       -14.3163
  65   2.0000      -0.513980       -13.9861
  66   2.0000      -0.502523       -13.6743
  67   2.0000      -0.498920       -13.5763
  68   2.0000      -0.478430       -13.0187
  69   2.0000      -0.464254       -12.6330
  70   2.0000      -0.452662       -12.3176
  71   2.0000      -0.445492       -12.1225
  72   2.0000      -0.354103        -9.6356
  73   2.0000      -0.352375        -9.5886
  74   2.0000      -0.329118        -8.9558
  75   2.0000      -0.324174        -8.8212
  76   2.0000      -0.319325        -8.6893
  77   0.0000       0.074221         2.0197
  78   0.0000       0.102356         2.7852
  79   0.0000       0.123394         3.3577
  80   0.0000       0.131304         3.5730
  81   0.0000       0.134883         3.6703

MULLIKEN ATOMIC CHARGES
-----------------------
   0 C :   -0.307611
   1 C :    0.020778
   2 O :   -0.365464
   3 C :    0.442317
   4 O :   -0.427581
   5 C :   -0.240086
   6 C :    0.177897
   7 C :   -0.265671
   8 N :   -0.126437
   9 C :    0.211383
  10 S :   -0.440694
  11 N :   -0.216773
  12 C :    0.066184
  13 C :    0.024667
  14 C :   -0.179762
  15 C :   -0.133203
  16 C :   -0.278042
  17 C :    0.310157
  18 O :   -0.358144
  19 C :   -0.227265
  20 H :    0.107032
  21 H :    0.109370
  22 H :    0.102123
  23 H :    0.108356
  24 H :    0.122038
  25 H :    0.132197
  26 H :    0.130953
  27 H :    0.094493
  28 H :    0.199877
  29 H :    0.201052
  30 H :    0.152836
  31 H :    0.153660
  32 H :    0.161824
  33 H :    0.131826
  34 H :    0.241154
  35 H :    0.164558
Sum of atomic charges:   -0.0000000

LOEWDIN ATOMIC CHARGES
----------------------
   0 C :    0.104847
   1 C :   -0.018073
   2 O :    0.301052
   3 C :   -0.417897
   4 O :    0.100576
   5 C :   -0.098351
   6 C :   -0.054342
   7 C :    0.131358
   8 N :    0.407727
   9 C :   -0.456462
  10 S :   -0.035338
  11 N :    0.394776
  12 C :   -0.054062
  13 C :   -0.039221
  14 C :    0.015912
  15 C :    0.039321
  16 C :   -0.001529
  17 C :   -0.190218
  18 O :    0.396215
  19 C :    0.034749
  20 H :   -0.025875
  21 H :   -0.026621
  22 H :   -0.027651
  23 H :   -0.025363
  24 H :   -0.028285
  25 H :   -0.004583
  26 H :   -0.004393
  27 H :   -0.023589
  28 H :   -0.056917
  29 H :   -0.064373
  30 H :   -0.012634
  31 H :   -0.028401
  32 H :   -0.020655
  33 H :   -0.035041
  34 H :   -0.153402
  35 H :   -0.023258

  Mayer bond orders larger than 0.100000
B(  0-C ,  1-C ) :   0.9598 B(  0-C , 20-H ) :   0.9716 B(  0-C , 21-H ) :   0.9783
B(  0-C , 22-H ) :   0.9753 B(  1-C ,  2-O ) :   0.8912 B(  1-C , 23-H ) :   0.9848
B(  1-C , 24-H ) :   0.9794 B(  2-O ,  3-C ) :   1.1325 B(  3-C ,  4-O ) :   1.9839
B(  3-C ,  5-C ) :   1.0673 B(  5-C ,  6-C ) :   1.6280 B(  5-C , 12-C ) :   0.9547
B(  6-C ,  7-C ) :   0.9661 B(  6-C ,  8-N ) :   1.1571 B(  7-C , 25-H ) :   0.9618
B(  7-C , 26-H ) :   0.9575 B(  7-C , 27-H ) :   0.9903 B(  8-N ,  9-C ) :   1.1859
B(  8-N , 28-H ) :   0.9464 B(  9-C , 10-S ) :   1.6061 B(  9-C , 11-N ) :   1.3109
B( 11-N , 12-C ) :   0.9629 B( 11-N , 29-H ) :   0.9484 B( 12-C , 13-C ) :   0.9622
B( 12-C , 30-H ) :   1.0025 B( 13-C , 14-C ) :   1.3531 B( 13-C , 19-C ) :   1.3788
B( 14-C , 15-C ) :   1.3924 B( 14-C , 31-H ) :   0.9719 B( 15-C , 16-C ) :   1.3552
B( 15-C , 32-H ) :   0.9715 B( 16-C , 17-C ) :   1.3342 B( 16-C , 33-H ) :   0.9851
B( 17-C , 18-O ) :   1.1059 B( 17-C , 19-C ) :   1.3637 B( 18-O , 34-H ) :   0.9794
B( 19-C , 35-H ) :   0.9590

MP2 TOTAL ENERGY:    -1274.340059787 Eh
FINAL SINGLE POINT ENERGY     -1274.340059787148

DIPOLE MOMENT
-------------
                                X             Y             Z
Electronic contribution:      8.47077      10.42741       6.25555
Nuclear contribution   :     -9.34087     -12.17163      -6.42024
                        -----------------------------------------
Total Dipole Moment    :     -0.87010      -1.74421      -0.16470
                        -----------------------------------------
Magnitude (a.u.)       :      1.95614
Magnitude (Debye)      :      4.97211

Rotational constants in cm-1:     0.012388     0.008666     0.006147
Rotational constants in MHz :   371.371171   259.802451   184.285960

                             ****ORCA TERMINATED NORMALLY****
TOTAL RUN TIME: 0 days 1 hours 42 minutes 49 seconds 92 msec
