                         Program Version 4.2.0 -  RELEASE  -
|  1> ! ri-mp2 cc-pvtz cc-pvtz/c TightSCF NoKeepInts
|  2>
|  3> %scf
|  4>   MaxCore 4096
|  5> end
|  6> *xyz  0  1
|  7>     C       15.1447356   14.8549518   13.6221945
|  8>     C       14.5509942   15.7113484   14.7590580
|  9>     O       15.4608496   16.7799942   15.0816510
| 10>     C       16.5217770   16.5492490   15.9115649
| 11>     O       17.0044898   15.4405218   16.0713658
| 12>     C       16.9246242   17.7293404   16.7502773
| 13>     C       16.8167880   19.0115373   16.3111006
| 14>     C       16.0993942   19.5163288   15.0743463
| 15>     N       17.4498724   20.0544043   16.9923580
| 16>     C       18.3838940   19.8819787   17.9778383
| 17>     S       19.1764298   21.1618441   18.6629661
| 18>     N       18.6448066   18.5879711   18.3505140
| 19>     C       17.8986597   17.4011090   17.8894758
| 20>     C       17.2622647   16.6128516   19.0267633
| 21>     C       17.5371442   15.2434132   19.1922311
| 22>     C       16.9510440   14.5186849   20.2435423
| 23>     C       16.0837640   15.1694903   21.1377804
| 24>     C       15.8066217   16.5337488   20.9739068
| 25>     O       14.9664536   17.1636029   21.8334162
| 26>     C       16.3910668   17.2521982   19.9259553
| 27>     H       15.3981896   15.4807341   12.7577239
| 28>     H       14.4207130   14.0984851   13.2964108
| 29>     H       16.0519688   14.3316747   13.9479710
| 30>     H       13.5998828   16.1397772   14.4179569
| 31>     H       14.3482787   15.0908173   15.6429222
| 32>     H       15.0192715   19.3410819   15.1541588
| 33>     H       16.4609434   19.0010179   14.1755965
| 34>     H       16.2437230   20.5905908   14.9065322
| 35>     H       17.2853259   21.0085581   16.7142195
| 36>     H       19.3220990   18.4888249   19.0961689
| 37>     H       18.7144313   16.8250795   17.4287824
| 38>     H       18.1959904   14.7363993   18.4911353
| 39>     H       17.1661586   13.4577747   20.3576192
| 40>     H       15.6279371   14.6132579   21.9500224
| 41>     H       14.6889925   16.5132411   22.4958327
| 42>     H       16.1674203   18.3081167   19.8166412
| 43> *
| 44>
| 45>                          ****END OF INPUT****

CARTESIAN COORDINATES (ANGSTROEM)
---------------------------------
  C     15.144736   14.854952   13.622195
  C     14.550994   15.711348   14.759058
  O     15.460850   16.779994   15.081651
  C     16.521777   16.549249   15.911565
  O     17.004490   15.440522   16.071366
  C     16.924624   17.729340   16.750277
  C     16.816788   19.011537   16.311101
  C     16.099394   19.516329   15.074346
  N     17.449872   20.054404   16.992358
  C     18.383894   19.881979   17.977838
  S     19.176430   21.161844   18.662966
  N     18.644807   18.587971   18.350514
  C     17.898660   17.401109   17.889476
  C     17.262265   16.612852   19.026763
  C     17.537144   15.243413   19.192231
  C     16.951044   14.518685   20.243542
  C     16.083764   15.169490   21.137780
  C     15.806622   16.533749   20.973907
  O     14.966454   17.163603   21.833416
  C     16.391067   17.252198   19.925955
  H     15.398190   15.480734   12.757724
  H     14.420713   14.098485   13.296411
  H     16.051969   14.331675   13.947971
  H     13.599883   16.139777   14.417957
  H     14.348279   15.090817   15.642922
  H     15.019272   19.341082   15.154159
  H     16.460943   19.001018   14.175596
  H     16.243723   20.590591   14.906532
  H     17.285326   21.008558   16.714219
  H     19.322099   18.488825   19.096169
  H     18.714431   16.825080   17.428782
  H     18.195990   14.736399   18.491135
  H     17.166159   13.457775   20.357619
  H     15.627937   14.613258   21.950022
  H     14.688992   16.513241   22.495833
  H     16.167420   18.308117   19.816641

 Total Charge           Charge          ....    0
 Multiplicity           Mult            ....    1
 Number of Electrons    NEL             ....  154
 Basis Dimension        Dim             ....  828

ORBITAL ENERGIES
----------------

  NO   OCC          E(Eh)            E(eV)
   0   2.0000     -91.887886     -2500.3965
   1   2.0000     -20.600486      -560.5677
   2   2.0000     -20.591797      -560.3313
   3   2.0000     -20.547679      -559.1308
   4   2.0000     -15.628287      -425.2673
   5   2.0000     -15.605613      -424.6503
   6   2.0000     -11.396966      -310.1272
   7   2.0000     -11.382446      -309.7321
   8   2.0000     -11.337591      -308.5115
   9   2.0000     -11.307844      -307.7021
  10   2.0000     -11.304267      -307.6048
  11   2.0000     -11.302425      -307.5546
  12   2.0000     -11.260435      -306.4120
  13   2.0000     -11.258822      -306.3681
  14   2.0000     -11.255121      -306.2674
  15   2.0000     -11.247979      -306.0731
  16   2.0000     -11.238135      -305.8052
  17   2.0000     -11.234195      -305.6980
  18   2.0000     -11.231044      -305.6122
  19   2.0000     -11.223443      -305.4054
  20   2.0000      -8.892971      -241.9901
  21   2.0000      -6.574549      -178.9026
  22   2.0000      -6.572546      -178.8481
  23   2.0000      -6.571958      -178.8321
  24   2.0000      -1.453299       -39.5463
  25   2.0000      -1.411542       -38.4100
  26   2.0000      -1.358469       -36.9658
  27   2.0000      -1.339673       -36.4543
  28   2.0000      -1.236864       -33.6568
  29   2.0000      -1.152442       -31.3595
  30   2.0000      -1.120730       -30.4966
  31   2.0000      -1.042459       -28.3668
  32   2.0000      -1.033666       -28.1275
  33   2.0000      -1.009926       -27.4815
  34   2.0000      -0.998104       -27.1598
  35   2.0000      -0.983086       -26.7511
  36   2.0000      -0.920754       -25.0550
  37   2.0000      -0.890931       -24.2435
  38   2.0000      -0.847675       -23.0664
  39   2.0000      -0.835349       -22.7310
  40   2.0000      -0.828152       -22.5352
  41   2.0000      -0.819922       -22.3112
  42   2.0000      -0.753926       -20.5154
  43   2.0000      -0.734162       -19.9776
  44   2.0000      -0.726198       -19.7608
  45   2.0000      -0.690804       -18.7977
  46   2.0000      -0.685781       -18.6610
  47   2.0000      -0.680154       -18.5079
  48   2.0000      -0.669865       -18.2280
  49   2.0000      -0.660880       -17.9835
  50   2.0000      -0.645578       -17.5671
  51   2.0000      -0.640321       -17.4240
  52   2.0000      -0.631462       -17.1829
  53   2.0000      -0.607560       -16.5325
  54   2.0000      -0.601183       -16.3590
  55   2.0000      -0.598215       -16.2783
  56   2.0000      -0.594873       -16.1873
  57   2.0000      -0.586813       -15.9680
  58   2.0000      -0.572918       -15.5899
  59   2.0000      -0.566932       -15.4270
  60   2.0000      -0.560417       -15.2497
  61   2.0000      -0.547271       -14.8920
  62   2.0000      -0.536645       -14.6028
  63   2.0000      -0.521737       -14.1972
  64   2.0000      -0.515611       -14.0305
  65   2.0000      -0.510284       -13.8855
  66   2.0000      -0.502007       -13.6603
  67   2.0000      -0.494171       -13.4471
  68   2.0000      -0.480061       -13.0631
  69   2.0000      -0.462583       -12.5875
  70   2.0000      -0.456782       -12.4297
  71   2.0000      -0.452364       -12.3095
  72   2.0000      -0.352870        -9.6021
  73   2.0000      -0.344554        -9.3758
  74   2.0000      -0.326975        -8.8974
  75   2.0000      -0.317078        -8.6281
  76   2.0000      -0.314539        -8.5590
  77   0.0000       0.076987         2.0949
  78   0.0000       0.111452         3.0328
  79   0.0000       0.121746         3.3129
  80   0.0000       0.135859         3.6969
  81   0.0000       0.140576         3.8253

MULLIKEN ATOMIC CHARGES
-----------------------
   0 C :   -0.290742
   1 C :    0.037942
   2 O :   -0.349589
   3 C :    0.414223
   4 O :   -0.422631
   5 C :   -0.154068
   6 C :    0.157980
   7 C :   -0.280589
   8 N :   -0.128977
   9 C :    0.207636
  10 S :   -0.442658
  11 N :   -0.210984
  12 C :    0.040391
  13 C :    0.031854
  14 C :   -0.168842
  15 C :   -0.134497
  16 C :   -0.277220
  17 C :    0.314086
  18 O :   -0.358901
  19 C :   -0.250434
  20 H :    0.089182
  21 H :    0.092812
  22 H :    0.122528
  23 H :    0.104031
  24 H :    0.096594
  25 H :    0.129537
  26 H :    0.124720
  27 H :    0.101401
  28 H :    0.198835
  29 H :    0.199915
  30 H :    0.155582
  31 H :    0.159133
  32 H :    0.160004
  33 H :    0.128269
  34 H :    0.239887
  35 H :    0.163591
Sum of atomic charges:   -0.0000000

LOEWDIN ATOMIC CHARGES
----------------------
   0 C :    0.104569
   1 C :   -0.015516
   2 O :    0.301363
   3 C :   -0.413561
   4 O :    0.109943
   5 C :   -0.091336
   6 C :   -0.064768
   7 C :    0.125240
   8 N :    0.405366
   9 C :   -0.458590
  10 S :   -0.037856
  11 N :    0.396356
  12 C :   -0.048161
  13 C :   -0.040615
  14 C :    0.024404
  15 C :    0.040745
  16 C :   -0.001212
  17 C :   -0.192450
  18 O :    0.393159
  19 C :    0.029833
  20 H :   -0.030572
  21 H :   -0.028531
  22 H :   -0.025065
  23 H :   -0.025655
  24 H :   -0.026973
  25 H :   -0.009160
  26 H :   -0.009602
  27 H :   -0.021145
  28 H :   -0.058733
  29 H :   -0.063182
  30 H :   -0.008309
  31 H :   -0.024090
  32 H :   -0.021087
  33 H :   -0.036170
  34 H :   -0.154875
  35 H :   -0.023765

  Mayer bond orders larger than 0.100000
B(  0-C ,  1-C ) :   0.9690 B(  0-C , 20-H ) :   0.9766 B(  0-C , 21-H ) :   0.9766
B(  0-C , 22-H ) :   0.9724 B(  1-C ,  2-O ) :   0.9049 B(  1-C , 23-H ) :   0.9849
B(  1-C , 24-H ) :   0.9763 B(  2-O ,  3-C ) :   1.1200 B(  3-C ,  4-O ) :   1.9726
B(  3-C ,  5-C ) :   1.0498 B(  5-C ,  6-C ) :   1.6554 B(  5-C , 12-C ) :   0.9461
B(  6-C ,  7-C ) :   0.9546 B(  6-C ,  8-N ) :   1.1332 B(  7-C , 25-H ) :   0.9630
B(  7-C , 26-H ) :   0.9657 B(  7-C , 27-H ) :   0.9910 B(  8-N ,  9-C ) :   1.1861
B(  8-N , 28-H ) :   0.9469 B(  9-C , 10-S ) :   1.6080 B(  9-C , 11-N ) :   1.3057
B( 11-N , 12-C ) :   0.9758 B( 11-N , 29-H ) :   0.9484 B( 12-C , 13-C ) :   0.9733
B( 12-C , 30-H ) :   0.9969 B( 13-C , 14-C ) :   1.3761 B( 13-C , 19-C ) :   1.3665
B( 14-C , 15-C ) :   1.3972 B( 14-C , 31-H ) :   0.9638 B( 15-C , 16-C ) :   1.3588
B( 15-C , 32-H ) :   0.9712 B( 16-C , 17-C ) :   1.3332 B( 16-C , 33-H ) :   0.9860
B( 17-C , 18-O ) :   1.1036 B( 17-C , 19-C ) :   1.3673 B( 18-O , 34-H ) :   0.9807
B( 19-C , 35-H ) :   0.9601

MP2 TOTAL ENERGY:    -1274.337038897 Eh
FINAL SINGLE POINT ENERGY     -1274.337038896534

DIPOLE MOMENT
-------------
                                X             Y             Z
Electronic contribution:      8.97312      10.08028      12.31165
Nuclear contribution   :    -10.56771     -11.27534     -13.22225
                        -----------------------------------------
Total Dipole Moment    :     -1.59459      -1.19506      -0.91060
                        -----------------------------------------
Magnitude (a.u.)       :      2.19091
Magnitude (Debye)      :      5.56884

Rotational constants in cm-1:     0.009907     0.008983     0.005496
Rotational constants in MHz :   297.011786   269.310041   164.772800

                             ****ORCA TERMINATED NORMALLY****
TOTAL RUN TIME: 0 days 1 hours 33 minutes 47 seconds 584 msec
