                         Program Version 4.2.0 -  RELEASE  -
|  1> ! ri-mp2 cc-pvtz cc-pvtz/c TightSCF NoKeepInts
|  2>
|  3> %scf
|  4>   MaxCore 4096
|  5> end
|  6> *xyz  0  1
|  7>     C       14.6675990   14.5357824   15.0025380
|  8>     C       15.3144181   15.4194520   16.0818433
|  9>     O       16.4370510   16.0846864   15.4765242
| 10>     C       16.3566237   17.4370522   15.3340581
| 11>     O       15.8297711   17.9114928   14.3447284
| 12>     C       16.8618675   18.2241111   16.5173616
| 13>     C       16.8523705   19.5831525   16.4841915
| 14>     C       16.0924504   20.4749615   15.5234392
| 15>     N       17.5890657   20.3343584   17.4025291
| 16>     C       18.5360560   19.8155370   18.2420528
| 17>     S       19.4591862   20.7742151   19.2238590
| 18>     N       18.6989758   18.4545937   18.2071920
| 19>     C       17.8413939   17.5095587   17.4680640
| 20>     C       17.2289241   16.4626402   18.3862682
| 21>     C       17.8088036   15.1852935   18.4967190
| 22>     C       17.2467463   14.2188893   19.3478537
| 23>     C       16.1010399   14.5352588   20.0981487
| 24>     C       15.5299863   15.8115332   19.9992280
| 25>     O       14.4245606   16.1203031   20.7221305
| 26>     C       16.0903261   16.7711038   19.1502699
| 27>     H       14.3142183   15.1496947   14.1640724
| 28>     H       13.8107625   13.9885546   15.4135679
| 29>     H       15.3899319   13.8063237   14.6156241
| 30>     H       14.5822137   16.1379448   16.4758899
| 31>     H       15.6512169   14.7788597   16.9055735
| 32>     H       15.0527143   20.1392701   15.4201387
| 33>     H       16.5476181   20.4426368   14.5250349
| 34>     H       16.0630340   21.5235444   15.8423211
| 35>     H       17.5008546   21.3380152   17.4134262
| 36>     H       19.3879864   18.0981579   18.8574833
| 37>     H       18.5945906   17.0515381   16.8108308
| 38>     H       18.6935111   14.9387379   17.9150798
| 39>     H       17.6992880   13.2314180   19.4250065
| 40>     H       15.6640957   13.7919038   20.7572205
| 41>     H       14.2262961   15.3621064   21.2927205
| 42>     H       15.6414521   17.7573184   19.0950107
| 43> *
| 44>
| 45>                          ****END OF INPUT****

CARTESIAN COORDINATES (ANGSTROEM)
---------------------------------
  C     14.667599   14.535782   15.002538
  C     15.314418   15.419452   16.081843
  O     16.437051   16.084686   15.476524
  C     16.356624   17.437052   15.334058
  O     15.829771   17.911493   14.344728
  C     16.861867   18.224111   16.517362
  C     16.852370   19.583153   16.484192
  C     16.092450   20.474961   15.523439
  N     17.589066   20.334358   17.402529
  C     18.536056   19.815537   18.242053
  S     19.459186   20.774215   19.223859
  N     18.698976   18.454594   18.207192
  C     17.841394   17.509559   17.468064
  C     17.228924   16.462640   18.386268
  C     17.808804   15.185294   18.496719
  C     17.246746   14.218889   19.347854
  C     16.101040   14.535259   20.098149
  C     15.529986   15.811533   19.999228
  O     14.424561   16.120303   20.722130
  C     16.090326   16.771104   19.150270
  H     14.314218   15.149695   14.164072
  H     13.810762   13.988555   15.413568
  H     15.389932   13.806324   14.615624
  H     14.582214   16.137945   16.475890
  H     15.651217   14.778860   16.905573
  H     15.052714   20.139270   15.420139
  H     16.547618   20.442637   14.525035
  H     16.063034   21.523544   15.842321
  H     17.500855   21.338015   17.413426
  H     19.387986   18.098158   18.857483
  H     18.594591   17.051538   16.810831
  H     18.693511   14.938738   17.915080
  H     17.699288   13.231418   19.425006
  H     15.664096   13.791904   20.757220
  H     14.226296   15.362106   21.292721
  H     15.641452   17.757318   19.095011

 Total Charge           Charge          ....    0
 Multiplicity           Mult            ....    1
 Number of Electrons    NEL             ....  154
 Basis Dimension        Dim             ....  828

ORBITAL ENERGIES
----------------

  NO   OCC          E(Eh)            E(eV)
   0   2.0000     -91.891328     -2500.4901
   1   2.0000     -20.603691      -560.6549
   2   2.0000     -20.580462      -560.0228
   3   2.0000     -20.546492      -559.0985
   4   2.0000     -15.631730      -425.3610
   5   2.0000     -15.609519      -424.7566
   6   2.0000     -11.391992      -309.9919
   7   2.0000     -11.385632      -309.8188
   8   2.0000     -11.340355      -308.5867
   9   2.0000     -11.321554      -308.0752
  10   2.0000     -11.311824      -307.8104
  11   2.0000     -11.294776      -307.3465
  12   2.0000     -11.267189      -306.5958
  13   2.0000     -11.262861      -306.4780
  14   2.0000     -11.259828      -306.3955
  15   2.0000     -11.253621      -306.2266
  16   2.0000     -11.251338      -306.1645
  17   2.0000     -11.245689      -306.0107
  18   2.0000     -11.245603      -306.0084
  19   2.0000     -11.219715      -305.3040
  20   2.0000      -8.896377      -242.0827
  21   2.0000      -6.577944      -178.9950
  22   2.0000      -6.575951      -178.9407
  23   2.0000      -6.575354      -178.9245
  24   2.0000      -1.447018       -39.3754
  25   2.0000      -1.423387       -38.7323
  26   2.0000      -1.353071       -36.8189
  27   2.0000      -1.343446       -36.5570
  28   2.0000      -1.241563       -33.7846
  29   2.0000      -1.164428       -31.6857
  30   2.0000      -1.123225       -30.5645
  31   2.0000      -1.048258       -28.5246
  32   2.0000      -1.031155       -28.0591
  33   2.0000      -1.022477       -27.8230
  34   2.0000      -0.999520       -27.1983
  35   2.0000      -0.987365       -26.8676
  36   2.0000      -0.925974       -25.1970
  37   2.0000      -0.877101       -23.8671
  38   2.0000      -0.850912       -23.1545
  39   2.0000      -0.843994       -22.9663
  40   2.0000      -0.840753       -22.8780
  41   2.0000      -0.831554       -22.6277
  42   2.0000      -0.759615       -20.6702
  43   2.0000      -0.738774       -20.1031
  44   2.0000      -0.722679       -19.6651
  45   2.0000      -0.702447       -19.1146
  46   2.0000      -0.691332       -18.8121
  47   2.0000      -0.677422       -18.4336
  48   2.0000      -0.672397       -18.2969
  49   2.0000      -0.659107       -17.9352
  50   2.0000      -0.648935       -17.6584
  51   2.0000      -0.646331       -17.5876
  52   2.0000      -0.639291       -17.3960
  53   2.0000      -0.613854       -16.7038
  54   2.0000      -0.608164       -16.5490
  55   2.0000      -0.604163       -16.4401
  56   2.0000      -0.590129       -16.0582
  57   2.0000      -0.583074       -15.8662
  58   2.0000      -0.574559       -15.6346
  59   2.0000      -0.570847       -15.5335
  60   2.0000      -0.566704       -15.4208
  61   2.0000      -0.542821       -14.7709
  62   2.0000      -0.538016       -14.6402
  63   2.0000      -0.530424       -14.4336
  64   2.0000      -0.517695       -14.0872
  65   2.0000      -0.509795       -13.8722
  66   2.0000      -0.504278       -13.7221
  67   2.0000      -0.495470       -13.4824
  68   2.0000      -0.488749       -13.2995
  69   2.0000      -0.465598       -12.6696
  70   2.0000      -0.453949       -12.3526
  71   2.0000      -0.443519       -12.0688
  72   2.0000      -0.357521        -9.7286
  73   2.0000      -0.355075        -9.6621
  74   2.0000      -0.331865        -9.0305
  75   2.0000      -0.328175        -8.9301
  76   2.0000      -0.321191        -8.7401
  77   0.0000       0.071538         1.9466
  78   0.0000       0.097395         2.6502
  79   0.0000       0.121035         3.2935
  80   0.0000       0.128133         3.4867
  81   0.0000       0.129300         3.5184

MULLIKEN ATOMIC CHARGES
-----------------------
   0 C :   -0.256978
   1 C :    0.017804
   2 O :   -0.376427
   3 C :    0.469125
   4 O :   -0.399283
   5 C :   -0.294162
   6 C :    0.190075
   7 C :   -0.265732
   8 N :   -0.127201
   9 C :    0.212323
  10 S :   -0.439284
  11 N :   -0.217581
  12 C :    0.066187
  13 C :   -0.008764
  14 C :   -0.163202
  15 C :   -0.138970
  16 C :   -0.269702
  17 C :    0.300859
  18 O :   -0.355982
  19 C :   -0.209823
  20 H :    0.107872
  21 H :    0.084764
  22 H :    0.093725
  23 H :    0.089968
  24 H :    0.119681
  25 H :    0.128659
  26 H :    0.134305
  27 H :    0.094194
  28 H :    0.199492
  29 H :    0.201222
  30 H :    0.151575
  31 H :    0.153349
  32 H :    0.164533
  33 H :    0.134650
  34 H :    0.242294
  35 H :    0.166435
Sum of atomic charges:    0.0000000

LOEWDIN ATOMIC CHARGES
----------------------
   0 C :    0.106819
   1 C :   -0.022392
   2 O :    0.294034
   3 C :   -0.427132
   4 O :    0.118311
   5 C :   -0.103518
   6 C :   -0.053290
   7 C :    0.130912
   8 N :    0.408074
   9 C :   -0.456876
  10 S :   -0.033846
  11 N :    0.394591
  12 C :   -0.054580
  13 C :   -0.039446
  14 C :    0.016318
  15 C :    0.041524
  16 C :    0.000089
  17 C :   -0.190779
  18 O :    0.396446
  19 C :    0.034999
  20 H :   -0.023545
  21 H :   -0.029887
  22 H :   -0.026816
  23 H :   -0.031788
  24 H :   -0.027234
  25 H :   -0.005163
  26 H :   -0.003778
  27 H :   -0.023348
  28 H :   -0.056417
  29 H :   -0.064372
  30 H :   -0.011685
  31 H :   -0.027596
  32 H :   -0.019216
  33 H :   -0.033763
  34 H :   -0.152166
  35 H :   -0.023484

  Mayer bond orders larger than 0.100000
B(  0-C ,  1-C ) :   0.9877 B(  0-C , 20-H ) :   0.9773 B(  0-C , 21-H ) :   0.9776
B(  0-C , 22-H ) :   0.9794 B(  1-C ,  2-O ) :   0.8751 B(  1-C , 23-H ) :   0.9692
B(  1-C , 24-H ) :   0.9717 B(  2-O ,  3-C ) :   1.0954 B(  3-C ,  4-O ) :   2.0356
B(  3-C ,  5-C ) :   1.0681 B(  5-C ,  6-C ) :   1.6235 B(  5-C , 12-C ) :   0.9514
B(  6-C ,  7-C ) :   0.9675 B(  6-C ,  8-N ) :   1.1604 B(  7-C , 25-H ) :   0.9640
B(  7-C , 26-H ) :   0.9553 B(  7-C , 27-H ) :   0.9890 B(  8-N ,  9-C ) :   1.1854
B(  8-N , 28-H ) :   0.9464 B(  9-C , 10-S ) :   1.6061 B(  9-C , 11-N ) :   1.3110
B( 11-N , 12-C ) :   0.9567 B( 11-N , 29-H ) :   0.9483 B( 12-C , 13-C ) :   0.9749
B( 12-C , 30-H ) :   1.0029 B( 13-C , 14-C ) :   1.3502 B( 13-C , 19-C ) :   1.3660
B( 14-C , 15-C ) :   1.3967 B( 14-C , 31-H ) :   0.9732 B( 15-C , 16-C ) :   1.3585
B( 15-C , 32-H ) :   0.9699 B( 16-C , 17-C ) :   1.3319 B( 16-C , 33-H ) :   0.9836
B( 17-C , 18-O ) :   1.1081 B( 17-C , 19-C ) :   1.3665 B( 18-O , 34-H ) :   0.9784
B( 19-C , 35-H ) :   0.9612

MP2 TOTAL ENERGY:    -1274.325477689 Eh
FINAL SINGLE POINT ENERGY     -1274.325477689032

DIPOLE MOMENT
-------------
                                X             Y             Z
Electronic contribution:      9.55224      10.23547       7.29166
Nuclear contribution   :    -10.58221     -11.75415      -6.94124
                        -----------------------------------------
Total Dipole Moment    :     -1.02997      -1.51868       0.35042
                        -----------------------------------------
Magnitude (a.u.)       :      1.86816
Magnitude (Debye)      :      4.74848

Rotational constants in cm-1:     0.012167     0.008560     0.005996
Rotational constants in MHz :   364.753270   256.627135   179.759612

                             ****ORCA TERMINATED NORMALLY****
TOTAL RUN TIME: 0 days 1 hours 58 minutes 50 seconds 259 msec
