                         Program Version 4.2.0 -  RELEASE  -
|  1> ! ri-mp2 cc-pvtz cc-pvtz/c TightSCF NoKeepInts
|  2>
|  3> %scf
|  4>   MaxCore 4096
|  5> end
|  6> *xyz  0  1
|  7>     C       14.5125373   15.1829229   15.9161816
|  8>     C       15.9057912   14.8026877   15.3654721
|  9>     O       16.8713044   15.8572783   15.5660546
| 10>     C       16.5513821   17.1679550   15.3503504
| 11>     O       15.9014113   17.5149958   14.3791559
| 12>     C       17.0211236   18.0758496   16.4549030
| 13>     C       17.0409637   19.4228048   16.2858919
| 14>     C       16.4002387   20.2138096   15.1642319
| 15>     N       17.7120966   20.2513739   17.1880677
| 16>     C       18.5426887   19.8037746   18.1795177
| 17>     S       19.3807960   20.8429347   19.1559288
| 18>     N       18.6611379   18.4431381   18.3093383
| 19>     C       17.8776511   17.4405289   17.5629826
| 20>     C       17.1058220   16.4994609   18.4786156
| 21>     C       17.4901309   15.1523731   18.6106446
| 22>     C       16.7696924   14.2837701   19.4476603
| 23>     C       15.6593724   14.7677720   20.1606970
| 24>     C       15.2791005   16.1112303   20.0357367
| 25>     O       14.2070544   16.5807951   20.7218950
| 26>     C       15.9974697   16.9729442   19.2010362
| 27>     H       14.5830370   15.5140514   16.9596318
| 28>     H       13.8443623   14.3141097   15.8831498
| 29>     H       14.0453559   15.9798413   15.3247694
| 30>     H       16.2610814   13.8894467   15.8597184
| 31>     H       15.8146069   14.5915662   14.2917013
| 32>     H       16.8725335   19.9740784   14.2029859
| 33>     H       16.4714869   21.2984703   15.3069621
| 34>     H       15.3347854   19.9651113   15.0765191
| 35>     H       17.6514407   21.2521635   17.0892445
| 36>     H       19.2569888   18.1432625   19.0705616
| 37>     H       18.6856151   16.9037855   17.0456924
| 38>     H       18.3449474   14.7764559   18.0545881
| 39>     H       17.0723488   13.2423143   19.5422996
| 40>     H       15.0999786   14.1009794   20.8086837
| 41>     H       13.8691767   15.8553445   21.2682941
| 42>     H       15.6914896   18.0106193   19.1188364
| 43> *
| 44>
| 45>                          ****END OF INPUT****

CARTESIAN COORDINATES (ANGSTROEM)
---------------------------------
  C     14.512537   15.182923   15.916182
  C     15.905791   14.802688   15.365472
  O     16.871304   15.857278   15.566055
  C     16.551382   17.167955   15.350350
  O     15.901411   17.514996   14.379156
  C     17.021124   18.075850   16.454903
  C     17.040964   19.422805   16.285892
  C     16.400239   20.213810   15.164232
  N     17.712097   20.251374   17.188068
  C     18.542689   19.803775   18.179518
  S     19.380796   20.842935   19.155929
  N     18.661138   18.443138   18.309338
  C     17.877651   17.440529   17.562983
  C     17.105822   16.499461   18.478616
  C     17.490131   15.152373   18.610645
  C     16.769692   14.283770   19.447660
  C     15.659372   14.767772   20.160697
  C     15.279101   16.111230   20.035737
  O     14.207054   16.580795   20.721895
  C     15.997470   16.972944   19.201036
  H     14.583037   15.514051   16.959632
  H     13.844362   14.314110   15.883150
  H     14.045356   15.979841   15.324769
  H     16.261081   13.889447   15.859718
  H     15.814607   14.591566   14.291701
  H     16.872533   19.974078   14.202986
  H     16.471487   21.298470   15.306962
  H     15.334785   19.965111   15.076519
  H     17.651441   21.252164   17.089244
  H     19.256989   18.143262   19.070562
  H     18.685615   16.903786   17.045692
  H     18.344947   14.776456   18.054588
  H     17.072349   13.242314   19.542300
  H     15.099979   14.100979   20.808684
  H     13.869177   15.855344   21.268294
  H     15.691490   18.010619   19.118836

 Total Charge           Charge          ....    0
 Multiplicity           Mult            ....    1
 Number of Electrons    NEL             ....  154
 Basis Dimension        Dim             ....  828

ORBITAL ENERGIES
----------------

  NO   OCC          E(Eh)            E(eV)
   0   2.0000     -91.889712     -2500.4462
   1   2.0000     -20.599279      -560.5349
   2   2.0000     -20.589889      -560.2794
   3   2.0000     -20.541849      -558.9721
   4   2.0000     -15.630148      -425.3179
   5   2.0000     -15.607832      -424.7107
   6   2.0000     -11.393686      -310.0380
   7   2.0000     -11.384382      -309.7848
   8   2.0000     -11.338124      -308.5260
   9   2.0000     -11.316796      -307.9457
  10   2.0000     -11.308381      -307.7167
  11   2.0000     -11.298647      -307.4518
  12   2.0000     -11.263380      -306.4922
  13   2.0000     -11.258717      -306.3653
  14   2.0000     -11.258403      -306.3567
  15   2.0000     -11.252259      -306.1895
  16   2.0000     -11.246759      -306.0399
  17   2.0000     -11.241664      -305.9012
  18   2.0000     -11.241531      -305.8976
  19   2.0000     -11.222725      -305.3859
  20   2.0000      -8.894774      -242.0391
  21   2.0000      -6.576344      -178.9514
  22   2.0000      -6.574348      -178.8971
  23   2.0000      -6.573755      -178.8810
  24   2.0000      -1.446063       -39.3494
  25   2.0000      -1.419016       -38.6134
  26   2.0000      -1.351369       -36.7726
  27   2.0000      -1.341164       -36.4949
  28   2.0000      -1.239120       -33.7182
  29   2.0000      -1.160375       -31.5754
  30   2.0000      -1.121918       -30.5289
  31   2.0000      -1.044825       -28.4311
  32   2.0000      -1.032638       -28.0995
  33   2.0000      -1.018053       -27.7026
  34   2.0000      -0.997360       -27.1395
  35   2.0000      -0.985861       -26.8267
  36   2.0000      -0.923216       -25.1220
  37   2.0000      -0.896395       -24.3922
  38   2.0000      -0.847646       -23.0656
  39   2.0000      -0.840499       -22.8711
  40   2.0000      -0.837062       -22.7776
  41   2.0000      -0.816438       -22.2164
  42   2.0000      -0.747615       -20.3436
  43   2.0000      -0.735357       -20.0101
  44   2.0000      -0.722344       -19.6560
  45   2.0000      -0.697894       -18.9907
  46   2.0000      -0.689832       -18.7713
  47   2.0000      -0.675382       -18.3781
  48   2.0000      -0.672191       -18.2913
  49   2.0000      -0.660706       -17.9787
  50   2.0000      -0.648531       -17.6474
  51   2.0000      -0.640193       -17.4205
  52   2.0000      -0.635533       -17.2937
  53   2.0000      -0.619166       -16.8484
  54   2.0000      -0.609476       -16.5847
  55   2.0000      -0.602542       -16.3960
  56   2.0000      -0.600942       -16.3525
  57   2.0000      -0.579455       -15.7678
  58   2.0000      -0.570561       -15.5258
  59   2.0000      -0.566243       -15.4083
  60   2.0000      -0.550898       -14.9907
  61   2.0000      -0.545649       -14.8479
  62   2.0000      -0.534157       -14.5351
  63   2.0000      -0.527491       -14.3538
  64   2.0000      -0.526042       -14.3143
  65   2.0000      -0.514076       -13.9887
  66   2.0000      -0.501063       -13.6346
  67   2.0000      -0.498657       -13.5691
  68   2.0000      -0.482719       -13.1354
  69   2.0000      -0.464405       -12.6371
  70   2.0000      -0.453797       -12.3484
  71   2.0000      -0.443582       -12.0705
  72   2.0000      -0.353901        -9.6301
  73   2.0000      -0.352246        -9.5851
  74   2.0000      -0.329066        -8.9544
  75   2.0000      -0.324414        -8.8278
  76   2.0000      -0.318995        -8.6803
  77   0.0000       0.074086         2.0160
  78   0.0000       0.101770         2.7693
  79   0.0000       0.124014         3.3746
  80   0.0000       0.130893         3.5618
  81   0.0000       0.135398         3.6844

MULLIKEN ATOMIC CHARGES
-----------------------
   0 C :   -0.327486
   1 C :    0.031299
   2 O :   -0.377806
   3 C :    0.474533
   4 O :   -0.432934
   5 C :   -0.253777
   6 C :    0.174636
   7 C :   -0.267693
   8 N :   -0.125540
   9 C :    0.210398
  10 S :   -0.440474
  11 N :   -0.215595
  12 C :    0.069372
  13 C :    0.013409
  14 C :   -0.171624
  15 C :   -0.136621
  16 C :   -0.270982
  17 C :    0.313188
  18 O :   -0.359092
  19 C :   -0.244486
  20 H :    0.110563
  21 H :    0.102878
  22 H :    0.121691
  23 H :    0.110669
  24 H :    0.119438
  25 H :    0.130514
  26 H :    0.094880
  27 H :    0.133368
  28 H :    0.199820
  29 H :    0.200349
  30 H :    0.153697
  31 H :    0.158306
  32 H :    0.162950
  33 H :    0.132443
  34 H :    0.240892
  35 H :    0.164818
Sum of atomic charges:    0.0000000

LOEWDIN ATOMIC CHARGES
----------------------
   0 C :    0.105443
   1 C :   -0.015463
   2 O :    0.295837
   3 C :   -0.417606
   4 O :    0.102206
   5 C :   -0.097773
   6 C :   -0.055388
   7 C :    0.131730
   8 N :    0.407481
   9 C :   -0.456383
  10 S :   -0.035506
  11 N :    0.394652
  12 C :   -0.054070
  13 C :   -0.040882
  14 C :    0.018890
  15 C :    0.039200
  16 C :   -0.000772
  17 C :   -0.191189
  18 O :    0.396081
  19 C :    0.032723
  20 H :   -0.027329
  21 H :   -0.025500
  22 H :   -0.026177
  23 H :   -0.025827
  24 H :   -0.028485
  25 H :   -0.004410
  26 H :   -0.023552
  27 H :   -0.004450
  28 H :   -0.056992
  29 H :   -0.064422
  30 H :   -0.012541
  31 H :   -0.027925
  32 H :   -0.020768
  33 H :   -0.034874
  34 H :   -0.153403
  35 H :   -0.022557

  Mayer bond orders larger than 0.100000
B(  0-C ,  1-C ) :   0.9548 B(  0-C , 20-H ) :   0.9691 B(  0-C , 21-H ) :   0.9782
B(  0-C , 22-H ) :   0.9734 B(  1-C ,  2-O ) :   0.8912 B(  1-C , 23-H ) :   0.9811
B(  1-C , 24-H ) :   0.9862 B(  2-O ,  3-C ) :   1.1264 B(  3-C ,  4-O ) :   1.9777
B(  3-C ,  5-C ) :   1.0673 B(  5-C ,  6-C ) :   1.6343 B(  5-C , 12-C ) :   0.9536
B(  6-C ,  7-C ) :   0.9646 B(  6-C ,  8-N ) :   1.1572 B(  7-C , 25-H ) :   0.9586
B(  7-C , 26-H ) :   0.9901 B(  7-C , 27-H ) :   0.9615 B(  8-N ,  9-C ) :   1.1859
B(  8-N , 28-H ) :   0.9464 B(  9-C , 10-S ) :   1.6080 B(  9-C , 11-N ) :   1.3085
B( 11-N , 12-C ) :   0.9699 B( 11-N , 29-H ) :   0.9487 B( 12-C , 13-C ) :   0.9596
B( 12-C , 30-H ) :   1.0004 B( 13-C , 14-C ) :   1.3563 B( 13-C , 19-C ) :   1.3805
B( 14-C , 15-C ) :   1.3887 B( 14-C , 31-H ) :   0.9699 B( 15-C , 16-C ) :   1.3598
B( 15-C , 32-H ) :   0.9704 B( 16-C , 17-C ) :   1.3335 B( 16-C , 33-H ) :   0.9842
B( 17-C , 18-O ) :   1.1053 B( 17-C , 19-C ) :   1.3624 B( 18-O , 34-H ) :   0.9795
B( 19-C , 35-H ) :   0.9602

MP2 TOTAL ENERGY:    -1274.337189731 Eh
FINAL SINGLE POINT ENERGY     -1274.337189730974

DIPOLE MOMENT
-------------
                                X             Y             Z
Electronic contribution:      9.44917       9.64380       6.77363
Nuclear contribution   :    -10.44276     -11.37222      -6.92001
                        -----------------------------------------
Total Dipole Moment    :     -0.99359      -1.72843      -0.14638
                        -----------------------------------------
Magnitude (a.u.)       :      1.99903
Magnitude (Debye)      :      5.08113

Rotational constants in cm-1:     0.012374     0.008674     0.006173
Rotational constants in MHz :   370.966362   260.047932   185.052909

                             ****ORCA TERMINATED NORMALLY****
TOTAL RUN TIME: 0 days 2 hours 15 minutes 11 seconds 319 msec
