                         Program Version 4.2.0 -  RELEASE  -
|  1> ! ri-mp2 cc-pvtz cc-pvtz/c TightSCF NoKeepInts
|  2>
|  3> %scf
|  4>   MaxCore 4096
|  5> end
|  6> *xyz  0  1
|  7>     C       13.7620302   16.2959898   14.5612030
|  8>     C       14.9217430   15.9802324   15.5222538
|  9>     O       16.1554687   16.2885159   14.8480730
| 10>     C       17.2652805   16.5496162   15.6000266
| 11>     O       18.2603873   15.8539878   15.5124149
| 12>     C       17.1485343   17.6694396   16.5882836
| 13>     C       16.6609893   18.8854464   16.2359198
| 14>     C       15.9937390   19.2769582   14.9338788
| 15>     N       16.8128666   19.9862592   17.0817740
| 16>     C       17.6400422   20.0123037   18.1729164
| 17>     S       17.8589185   21.3851370   19.0683314
| 18>     N       18.2950027   18.8433539   18.4707414
| 19>     C       18.0562722   17.5429370   17.8140090
| 20>     C       17.6119234   16.4386974   18.7623968
| 21>     C       18.2374464   15.1795857   18.7314329
| 22>     C       17.8184787   14.1525108   19.5935394
| 23>     C       16.7635696   14.3862730   20.4923887
| 24>     C       16.1347092   15.6385951   20.5210805
| 25>     O       15.1097295   15.8643996   21.3808358
| 26>     C       16.5529238   16.6587801   19.6605472
| 27>     H       12.7983038   16.0857338   15.0409673
| 28>     H       13.8351203   15.6756872   13.6589480
| 29>     H       13.7693331   17.3468031   14.2536836
| 30>     H       14.7990544   16.5846207   16.4306900
| 31>     H       14.9046112   14.9206685   15.8109065
| 32>     H       14.9051957   19.1844910   15.0113794
| 33>     H       16.3342151   18.6635413   14.0910537
| 34>     H       16.2191665   20.3158020   14.6612301
| 35>     H       16.3630016   20.8596242   16.8568143
| 36>     H       18.8922225   18.8856114   19.2871674
| 37>     H       19.0628072   17.3312625   17.4232214
| 38>     H       19.0442928   14.9937279   18.0253675
| 39>     H       18.3084646   13.1808738   19.5586177
| 40>     H       16.4362310   13.5950458   21.1587916
| 41>     H       15.0011538   15.0660024   21.9194713
| 42>     H       16.0537712   17.6214854   19.6976432
| 43> *
| 44>
| 45>                          ****END OF INPUT****

CARTESIAN COORDINATES (ANGSTROEM)
---------------------------------
  C     13.762030   16.295990   14.561203
  C     14.921743   15.980232   15.522254
  O     16.155469   16.288516   14.848073
  C     17.265280   16.549616   15.600027
  O     18.260387   15.853988   15.512415
  C     17.148534   17.669440   16.588284
  C     16.660989   18.885446   16.235920
  C     15.993739   19.276958   14.933879
  N     16.812867   19.986259   17.081774
  C     17.640042   20.012304   18.172916
  S     17.858918   21.385137   19.068331
  N     18.295003   18.843354   18.470741
  C     18.056272   17.542937   17.814009
  C     17.611923   16.438697   18.762397
  C     18.237446   15.179586   18.731433
  C     17.818479   14.152511   19.593539
  C     16.763570   14.386273   20.492389
  C     16.134709   15.638595   20.521081
  O     15.109730   15.864400   21.380836
  C     16.552924   16.658780   19.660547
  H     12.798304   16.085734   15.040967
  H     13.835120   15.675687   13.658948
  H     13.769333   17.346803   14.253684
  H     14.799054   16.584621   16.430690
  H     14.904611   14.920668   15.810906
  H     14.905196   19.184491   15.011379
  H     16.334215   18.663541   14.091054
  H     16.219167   20.315802   14.661230
  H     16.363002   20.859624   16.856814
  H     18.892222   18.885611   19.287167
  H     19.062807   17.331263   17.423221
  H     19.044293   14.993728   18.025367
  H     18.308465   13.180874   19.558618
  H     16.436231   13.595046   21.158792
  H     15.001154   15.066002   21.919471
  H     16.053771   17.621485   19.697643

 Total Charge           Charge          ....    0
 Multiplicity           Mult            ....    1
 Number of Electrons    NEL             ....  154
 Basis Dimension        Dim             ....  828

ORBITAL ENERGIES
----------------

  NO   OCC          E(Eh)            E(eV)
   0   2.0000     -91.889905     -2500.4514
   1   2.0000     -20.597305      -560.4812
   2   2.0000     -20.595896      -560.4428
   3   2.0000     -20.553054      -559.2770
   4   2.0000     -15.629277      -425.2943
   5   2.0000     -15.608505      -424.7290
   6   2.0000     -11.396078      -310.1031
   7   2.0000     -11.385296      -309.8097
   8   2.0000     -11.337475      -308.5084
   9   2.0000     -11.314010      -307.8699
  10   2.0000     -11.307608      -307.6956
  11   2.0000     -11.306548      -307.6668
  12   2.0000     -11.264342      -306.5183
  13   2.0000     -11.263321      -306.4905
  14   2.0000     -11.261307      -306.4358
  15   2.0000     -11.253938      -306.2352
  16   2.0000     -11.243561      -305.9528
  17   2.0000     -11.239909      -305.8535
  18   2.0000     -11.238343      -305.8109
  19   2.0000     -11.236369      -305.7572
  20   2.0000      -8.895002      -242.0453
  21   2.0000      -6.576581      -178.9579
  22   2.0000      -6.574572      -178.9032
  23   2.0000      -6.573987      -178.8873
  24   2.0000      -1.451688       -39.5024
  25   2.0000      -1.417039       -38.5596
  26   2.0000      -1.362206       -37.0675
  27   2.0000      -1.341712       -36.5098
  28   2.0000      -1.239308       -33.7233
  29   2.0000      -1.158391       -31.5214
  30   2.0000      -1.124518       -30.5997
  31   2.0000      -1.046383       -28.4735
  32   2.0000      -1.041687       -28.3457
  33   2.0000      -1.016161       -27.6512
  34   2.0000      -1.004450       -27.3325
  35   2.0000      -0.988407       -26.8959
  36   2.0000      -0.924859       -25.1667
  37   2.0000      -0.883544       -24.0425
  38   2.0000      -0.853411       -23.2225
  39   2.0000      -0.842424       -22.9235
  40   2.0000      -0.835346       -22.7309
  41   2.0000      -0.833520       -22.6812
  42   2.0000      -0.760185       -20.6857
  43   2.0000      -0.738349       -20.0915
  44   2.0000      -0.730832       -19.8870
  45   2.0000      -0.694753       -18.9052
  46   2.0000      -0.688340       -18.7307
  47   2.0000      -0.684655       -18.6304
  48   2.0000      -0.674356       -18.3502
  49   2.0000      -0.660274       -17.9670
  50   2.0000      -0.651275       -17.7221
  51   2.0000      -0.642025       -17.4704
  52   2.0000      -0.638350       -17.3704
  53   2.0000      -0.621567       -16.9137
  54   2.0000      -0.608511       -16.5584
  55   2.0000      -0.604899       -16.4601
  56   2.0000      -0.600642       -16.3443
  57   2.0000      -0.582122       -15.8404
  58   2.0000      -0.575666       -15.6647
  59   2.0000      -0.568705       -15.4753
  60   2.0000      -0.560692       -15.2572
  61   2.0000      -0.555192       -15.1075
  62   2.0000      -0.544336       -14.8121
  63   2.0000      -0.531149       -14.4533
  64   2.0000      -0.521801       -14.1989
  65   2.0000      -0.513719       -13.9790
  66   2.0000      -0.500739       -13.6258
  67   2.0000      -0.498828       -13.5738
  68   2.0000      -0.487226       -13.2581
  69   2.0000      -0.467463       -12.7203
  70   2.0000      -0.464588       -12.6421
  71   2.0000      -0.451101       -12.2751
  72   2.0000      -0.356461        -9.6998
  73   2.0000      -0.349738        -9.5169
  74   2.0000      -0.329201        -8.9580
  75   2.0000      -0.321362        -8.7447
  76   2.0000      -0.319581        -8.6962
  77   0.0000       0.077917         2.1202
  78   0.0000       0.104837         2.8528
  79   0.0000       0.118337         3.2201
  80   0.0000       0.131964         3.5909
  81   0.0000       0.135263         3.6807

MULLIKEN ATOMIC CHARGES
-----------------------
   0 C :   -0.271668
   1 C :    0.015810
   2 O :   -0.345063
   3 C :    0.452858
   4 O :   -0.376594
   5 C :   -0.262423
   6 C :    0.183873
   7 C :   -0.333985
   8 N :   -0.134923
   9 C :    0.204907
  10 S :   -0.441698
  11 N :   -0.215757
  12 C :    0.056429
  13 C :    0.024496
  14 C :   -0.199237
  15 C :   -0.129653
  16 C :   -0.277142
  17 C :    0.313142
  18 O :   -0.357504
  19 C :   -0.253422
  20 H :    0.097019
  21 H :    0.107202
  22 H :    0.093033
  23 H :    0.102055
  24 H :    0.116759
  25 H :    0.122074
  26 H :    0.144946
  27 H :    0.126029
  28 H :    0.198791
  29 H :    0.200855
  30 H :    0.162922
  31 H :    0.171510
  32 H :    0.163336
  33 H :    0.130488
  34 H :    0.241033
  35 H :    0.169499
Sum of atomic charges:   -0.0000000

LOEWDIN ATOMIC CHARGES
----------------------
   0 C :    0.109641
   1 C :   -0.020536
   2 O :    0.300483
   3 C :   -0.418320
   4 O :    0.127711
   5 C :   -0.091961
   6 C :   -0.078572
   7 C :    0.127029
   8 N :    0.404269
   9 C :   -0.458083
  10 S :   -0.037196
  11 N :    0.396076
  12 C :   -0.049317
  13 C :   -0.043496
  14 C :    0.022442
  15 C :    0.043346
  16 C :   -0.000422
  17 C :   -0.192573
  18 O :    0.393852
  19 C :    0.027030
  20 H :   -0.023261
  21 H :   -0.023402
  22 H :   -0.032424
  23 H :   -0.036739
  24 H :   -0.026430
  25 H :   -0.017122
  26 H :   -0.008112
  27 H :   -0.013974
  28 H :   -0.057179
  29 H :   -0.063321
  30 H :   -0.005569
  31 H :   -0.021792
  32 H :   -0.019366
  33 H :   -0.035243
  34 H :   -0.153618
  35 H :   -0.023849

  Mayer bond orders larger than 0.100000
B(  0-C ,  1-C ) :   0.9761 B(  0-C , 20-H ) :   0.9758 B(  0-C , 21-H ) :   0.9777
B(  0-C , 22-H ) :   0.9779 B(  1-C ,  2-O ) :   0.9014 B(  1-C , 23-H ) :   0.9619
B(  1-C , 24-H ) :   0.9807 B(  2-O ,  3-C ) :   1.1262 B(  3-C ,  4-O ) :   2.0904
B(  3-C ,  5-C ) :   0.9552 B(  5-C ,  6-C ) :   1.6938 B(  5-C , 12-C ) :   0.9484
B(  6-C ,  7-C ) :   0.9359 B(  6-C ,  8-N ) :   1.1203 B(  7-C , 25-H ) :   0.9656
B(  7-C , 26-H ) :   0.9690 B(  7-C , 27-H ) :   0.9842 B(  8-N ,  9-C ) :   1.1914
B(  8-N , 28-H ) :   0.9496 B(  9-C , 10-S ) :   1.6112 B(  9-C , 11-N ) :   1.2970
B( 11-N , 12-C ) :   0.9859 B( 11-N , 29-H ) :   0.9486 B( 12-C , 13-C ) :   0.9707
B( 12-C , 30-H ) :   0.9925 B( 13-C , 14-C ) :   1.3835 B( 13-C , 19-C ) :   1.3573
B( 14-C , 15-C ) :   1.3943 B( 14-C , 31-H ) :   0.9599 B( 15-C , 16-C ) :   1.3612
B( 15-C , 32-H ) :   0.9702 B( 16-C , 17-C ) :   1.3313 B( 16-C , 33-H ) :   0.9853
B( 17-C , 18-O ) :   1.1069 B( 17-C , 19-C ) :   1.3669 B( 18-O , 34-H ) :   0.9797
B( 19-C , 35-H ) :   0.9579

MP2 TOTAL ENERGY:    -1274.329553368 Eh
FINAL SINGLE POINT ENERGY     -1274.329553368174

DIPOLE MOMENT
-------------
                                X             Y             Z
Electronic contribution:     10.94253       6.61432       9.63176
Nuclear contribution   :    -12.45831      -7.83039     -10.07179
                        -----------------------------------------
Total Dipole Moment    :     -1.51578      -1.21607      -0.44003
                        -----------------------------------------
Magnitude (a.u.)       :      1.99250
Magnitude (Debye)      :      5.06452

Rotational constants in cm-1:     0.010209     0.009250     0.006181
Rotational constants in MHz :   306.047874   277.302913   185.298254

                             ****ORCA TERMINATED NORMALLY****
TOTAL RUN TIME: 0 days 1 hours 43 minutes 50 seconds 572 msec
