                         Program Version 4.2.0 -  RELEASE  -
|  1> ! ri-mp2 cc-pvtz cc-pvtz/c TightSCF NoKeepInts
|  2>
|  3> %scf
|  4>   MaxCore 4096
|  5> end
|  6> *xyz  0  1
|  7>     C       14.2269196   15.1263926   15.5402708
|  8>     C       14.9398219   16.4583625   15.2553709
|  9>     O       16.2886370   16.1363995   14.8566987
| 10>     C       17.3963754   16.4809741   15.5885779
| 11>     O       18.4090049   15.8071109   15.5450743
| 12>     C       17.2724027   17.6616657   16.4983214
| 13>     C       16.9681331   18.8868385   16.0038768
| 14>     C       16.5132752   19.2195760   14.5967798
| 15>     N       17.1411109   20.0333261   16.7816660
| 16>     C       17.8362509   20.0634175   17.9619252
| 17>     S       18.1015257   21.4755512   18.7802218
| 18>     N       18.3212211   18.8620134   18.4176360
| 19>     C       18.0179264   17.5428544   17.8272603
| 20>     C       17.3579628   16.5553343   18.7779280
| 21>     C       17.8034594   15.2227088   18.8349926
| 22>     C       17.1823622   14.2982449   19.6912012
| 23>     C       16.1045120   14.7095498   20.4939826
| 24>     C       15.6540819   16.0354969   20.4333353
| 25>     O       14.6068790   16.4326799   21.1990746
| 26>     C       16.2735658   16.9536124   19.5791945
| 27>     H       14.7148803   14.5980300   16.3695299
| 28>     H       14.2508803   14.4770247   14.6560014
| 29>     H       13.1786747   15.2987901   15.8129014
| 30>     H       14.4246658   16.9758174   14.4359299
| 31>     H       14.8907229   17.0881665   16.1520341
| 32>     H       16.8654586   18.4829990   13.8637759
| 33>     H       16.9076446   20.1891241   14.2663440
| 34>     H       15.4198033   19.2670870   14.5350364
| 35>     H       16.8226208   20.9271483   16.4416817
| 36>     H       18.8257395   18.9103652   19.2941144
| 37>     H       19.0333598   17.2039992   17.5724471
| 38>     H       18.6280489   14.9003945   18.2020820
| 39>     H       17.5344719   13.2685577   19.7256424
| 40>     H       15.6210528   13.9980054   21.1552299
| 41>     H       14.3453678   15.6777062   21.7476646
| 42>     H       15.9081800   17.9746750   19.5441962
| 43> *
| 44>
| 45>                          ****END OF INPUT****

CARTESIAN COORDINATES (ANGSTROEM)
---------------------------------
  C     14.226920   15.126393   15.540271
  C     14.939822   16.458362   15.255371
  O     16.288637   16.136399   14.856699
  C     17.396375   16.480974   15.588578
  O     18.409005   15.807111   15.545074
  C     17.272403   17.661666   16.498321
  C     16.968133   18.886838   16.003877
  C     16.513275   19.219576   14.596780
  N     17.141111   20.033326   16.781666
  C     17.836251   20.063417   17.961925
  S     18.101526   21.475551   18.780222
  N     18.321221   18.862013   18.417636
  C     18.017926   17.542854   17.827260
  C     17.357963   16.555334   18.777928
  C     17.803459   15.222709   18.834993
  C     17.182362   14.298245   19.691201
  C     16.104512   14.709550   20.493983
  C     15.654082   16.035497   20.433335
  O     14.606879   16.432680   21.199075
  C     16.273566   16.953612   19.579194
  H     14.714880   14.598030   16.369530
  H     14.250880   14.477025   14.656001
  H     13.178675   15.298790   15.812901
  H     14.424666   16.975817   14.435930
  H     14.890723   17.088166   16.152034
  H     16.865459   18.482999   13.863776
  H     16.907645   20.189124   14.266344
  H     15.419803   19.267087   14.535036
  H     16.822621   20.927148   16.441682
  H     18.825740   18.910365   19.294114
  H     19.033360   17.203999   17.572447
  H     18.628049   14.900394   18.202082
  H     17.534472   13.268558   19.725642
  H     15.621053   13.998005   21.155230
  H     14.345368   15.677706   21.747665
  H     15.908180   17.974675   19.544196

 Total Charge           Charge          ....    0
 Multiplicity           Mult            ....    1
 Number of Electrons    NEL             ....  154
 Basis Dimension        Dim             ....  828

ORBITAL ENERGIES
----------------

  NO   OCC          E(Eh)            E(eV)
   0   2.0000     -91.890240     -2500.4605
   1   2.0000     -20.603987      -560.6630
   2   2.0000     -20.598798      -560.5218
   3   2.0000     -20.548973      -559.1660
   4   2.0000     -15.629043      -425.2879
   5   2.0000     -15.609578      -424.7582
   6   2.0000     -11.398886      -310.1795
   7   2.0000     -11.386007      -309.8290
   8   2.0000     -11.335604      -308.4575
   9   2.0000     -11.315947      -307.9226
  10   2.0000     -11.309336      -307.7427
  11   2.0000     -11.306921      -307.6770
  12   2.0000     -11.267284      -306.5984
  13   2.0000     -11.263898      -306.5062
  14   2.0000     -11.263569      -306.4973
  15   2.0000     -11.256063      -306.2930
  16   2.0000     -11.245158      -305.9963
  17   2.0000     -11.241483      -305.8963
  18   2.0000     -11.238239      -305.8080
  19   2.0000     -11.231507      -305.6248
  20   2.0000      -8.895341      -242.0545
  21   2.0000      -6.576921      -178.9671
  22   2.0000      -6.574910      -178.9124
  23   2.0000      -6.574326      -178.8965
  24   2.0000      -1.449320       -39.4380
  25   2.0000      -1.418519       -38.5999
  26   2.0000      -1.361763       -37.0555
  27   2.0000      -1.341600       -36.5068
  28   2.0000      -1.239626       -33.7319
  29   2.0000      -1.160377       -31.5755
  30   2.0000      -1.126194       -30.6453
  31   2.0000      -1.047984       -28.5171
  32   2.0000      -1.040329       -28.3088
  33   2.0000      -1.018156       -27.7054
  34   2.0000      -1.005734       -27.3674
  35   2.0000      -0.989686       -26.9307
  36   2.0000      -0.926327       -25.2066
  37   2.0000      -0.885557       -24.0972
  38   2.0000      -0.855772       -23.2867
  39   2.0000      -0.842326       -22.9209
  40   2.0000      -0.836637       -22.7661
  41   2.0000      -0.835065       -22.7233
  42   2.0000      -0.754887       -20.5415
  43   2.0000      -0.740496       -20.1499
  44   2.0000      -0.731448       -19.9037
  45   2.0000      -0.696661       -18.9571
  46   2.0000      -0.688920       -18.7465
  47   2.0000      -0.682546       -18.5730
  48   2.0000      -0.675526       -18.3820
  49   2.0000      -0.661376       -17.9969
  50   2.0000      -0.657437       -17.8898
  51   2.0000      -0.646231       -17.5848
  52   2.0000      -0.638884       -17.3849
  53   2.0000      -0.612277       -16.6609
  54   2.0000      -0.606643       -16.5076
  55   2.0000      -0.603074       -16.4105
  56   2.0000      -0.602019       -16.3818
  57   2.0000      -0.582388       -15.8476
  58   2.0000      -0.577522       -15.7152
  59   2.0000      -0.570033       -15.5114
  60   2.0000      -0.561679       -15.2841
  61   2.0000      -0.558779       -15.2052
  62   2.0000      -0.550403       -14.9772
  63   2.0000      -0.528894       -14.3919
  64   2.0000      -0.518684       -14.1141
  65   2.0000      -0.514616       -14.0034
  66   2.0000      -0.504640       -13.7320
  67   2.0000      -0.500915       -13.6306
  68   2.0000      -0.488422       -13.2906
  69   2.0000      -0.471494       -12.8300
  70   2.0000      -0.455291       -12.3891
  71   2.0000      -0.450690       -12.2639
  72   2.0000      -0.356320        -9.6960
  73   2.0000      -0.351215        -9.5571
  74   2.0000      -0.329630        -8.9697
  75   2.0000      -0.323422        -8.8008
  76   2.0000      -0.319847        -8.7035
  77   0.0000       0.081328         2.2131
  78   0.0000       0.103510         2.8166
  79   0.0000       0.116771         3.1775
  80   0.0000       0.130183         3.5425
  81   0.0000       0.131946         3.5904

MULLIKEN ATOMIC CHARGES
-----------------------
   0 C :   -0.254754
   1 C :    0.012597
   2 O :   -0.320263
   3 C :    0.419265
   4 O :   -0.383941
   5 C :   -0.238242
   6 C :    0.168278
   7 C :   -0.325581
   8 N :   -0.137823
   9 C :    0.207185
  10 S :   -0.441758
  11 N :   -0.220830
  12 C :    0.064073
  13 C :    0.025913
  14 C :   -0.215607
  15 C :   -0.128598
  16 C :   -0.277649
  17 C :    0.314667
  18 O :   -0.356533
  19 C :   -0.254996
  20 H :    0.104032
  21 H :    0.102577
  22 H :    0.088064
  23 H :    0.100355
  24 H :    0.109153
  25 H :    0.140546
  26 H :    0.126303
  27 H :    0.122433
  28 H :    0.198517
  29 H :    0.201975
  30 H :    0.166140
  31 H :    0.175273
  32 H :    0.164661
  33 H :    0.131310
  34 H :    0.241268
  35 H :    0.171990
Sum of atomic charges:   -0.0000000

LOEWDIN ATOMIC CHARGES
----------------------
   0 C :    0.108933
   1 C :   -0.022845
   2 O :    0.308596
   3 C :   -0.417108
   4 O :    0.118680
   5 C :   -0.088975
   6 C :   -0.085581
   7 C :    0.127814
   8 N :    0.403091
   9 C :   -0.457061
  10 S :   -0.037345
  11 N :    0.396127
  12 C :   -0.049562
  13 C :   -0.043959
  14 C :    0.021074
  15 C :    0.044002
  16 C :   -0.000300
  17 C :   -0.191609
  18 O :    0.394555
  19 C :    0.026408
  20 H :   -0.023057
  21 H :   -0.024160
  22 H :   -0.026574
  23 H :   -0.032106
  24 H :   -0.036217
  25 H :   -0.006441
  26 H :   -0.012328
  27 H :   -0.016504
  28 H :   -0.057517
  29 H :   -0.063450
  30 H :   -0.004555
  31 H :   -0.021239
  32 H :   -0.018788
  33 H :   -0.034947
  34 H :   -0.153334
  35 H :   -0.023718

  Mayer bond orders larger than 0.100000
B(  0-C ,  1-C ) :   0.9859 B(  0-C , 20-H ) :   0.9756 B(  0-C , 21-H ) :   0.9790
B(  0-C , 22-H ) :   0.9763 B(  1-C ,  2-O ) :   0.8959 B(  1-C , 23-H ) :   0.9762
B(  1-C , 24-H ) :   0.9568 B(  2-O ,  3-C ) :   1.1788 B(  3-C ,  4-O ) :   2.0876
B(  3-C ,  5-C ) :   0.9366 B(  5-C ,  6-C ) :   1.7094 B(  5-C , 12-C ) :   0.9402
B(  6-C ,  7-C ) :   0.9323 B(  6-C ,  8-N ) :   1.1146 B(  7-C , 25-H ) :   0.9727
B(  7-C , 26-H ) :   0.9814 B(  7-C , 27-H ) :   0.9653 B(  8-N ,  9-C ) :   1.1940
B(  8-N , 28-H ) :   0.9500 B(  9-C , 10-S ) :   1.6108 B(  9-C , 11-N ) :   1.2933
B( 11-N , 12-C ) :   0.9848 B( 11-N , 29-H ) :   0.9478 B( 12-C , 13-C ) :   0.9685
B( 12-C , 30-H ) :   0.9903 B( 13-C , 14-C ) :   1.3837 B( 13-C , 19-C ) :   1.3545
B( 14-C , 15-C ) :   1.3937 B( 14-C , 31-H ) :   0.9594 B( 15-C , 16-C ) :   1.3611
B( 15-C , 32-H ) :   0.9697 B( 16-C , 17-C ) :   1.3308 B( 16-C , 33-H ) :   0.9852
B( 17-C , 18-O ) :   1.1081 B( 17-C , 19-C ) :   1.3668 B( 18-O , 34-H ) :   0.9794
B( 19-C , 35-H ) :   0.9568

MP2 TOTAL ENERGY:    -1274.331773999 Eh
FINAL SINGLE POINT ENERGY     -1274.331773999217

DIPOLE MOMENT
-------------
                                X             Y             Z
Electronic contribution:     10.06929       8.58909       7.92492
Nuclear contribution   :    -11.73828      -9.61697      -8.36864
                        -----------------------------------------
Total Dipole Moment    :     -1.66899      -1.02788      -0.44372
                        -----------------------------------------
Magnitude (a.u.)       :      2.00972
Magnitude (Debye)      :      5.10830

Rotational constants in cm-1:     0.011018     0.009105     0.006256
Rotational constants in MHz :   330.320472   272.968970   187.564863

                             ****ORCA TERMINATED NORMALLY****
TOTAL RUN TIME: 0 days 1 hours 40 minutes 43 seconds 38 msec
