                         Program Version 4.2.0 -  RELEASE  -
|  1> ! ri-mp2 cc-pvtz cc-pvtz/c TightSCF NoKeepInts
|  2>
|  3> %scf
|  4>   MaxCore 4096
|  5> end
|  6> *xyz  0  1
|  7>     C       14.6511872   14.6348622   14.8088090
|  8>     C       14.6237241   16.1449784   15.1143106
|  9>     O       15.8913802   16.7305283   14.7682719
| 10>     C       16.9189858   16.5927713   15.6521153
| 11>     O       17.5266235   15.5439488   15.7752858
| 12>     C       17.1283038   17.7689263   16.5607565
| 13>     C       16.9411655   19.0503480   16.1499212
| 14>     C       16.3085674   19.5271393   14.8574005
| 15>     N       17.4001309   20.1202163   16.9223595
| 16>     C       18.2412153   19.9953057   17.9953173
| 17>     S       18.8305665   21.3146787   18.7996417
| 18>     N       18.5860500   18.7169336   18.3551703
| 19>     C       18.0107872   17.4848085   17.7812356
| 20>     C       17.3348080   16.5931814   18.8142749
| 21>     C       17.6951769   15.2393568   18.9378508
| 22>     C       17.0661932   14.4160645   19.8867365
| 23>     C       16.0685307   14.9514956   20.7193953
| 24>     C       15.7053851   16.2996814   20.5961919
| 25>     O       14.7378262   16.8177906   21.3939931
| 26>     C       16.3324675   17.1163854   19.6497341
| 27>     H       15.3405523   14.1080385   15.4804331
| 28>     H       14.9717046   14.4543495   13.7751530
| 29>     H       13.6539506   14.1981471   14.9403901
| 30>     H       13.8372442   16.6112909   14.5071085
| 31>     H       14.3863061   16.3185627   16.1729690
| 32>     H       16.7821528   19.0482299   13.9907942
| 33>     H       16.4035622   20.6102863   14.7124073
| 34>     H       15.2389139   19.2860651   14.8345960
| 35>     H       17.1767197   21.0656380   16.6551919
| 36>     H       19.1933365   18.6515784   19.1624449
| 37>     H       18.9200747   17.0049718   17.3901790
| 38>     H       18.4557497   14.8208096   18.2824842
| 39>     H       17.3497261   13.3682714   19.9690981
| 40>     H       15.5793470   14.3186185   21.4523556
| 41>     H       14.4586366   16.1176201   22.0029975
| 42>     H       16.0399482   18.1581211   19.5706259
| 43> *
| 44>
| 45>                          ****END OF INPUT****

CARTESIAN COORDINATES (ANGSTROEM)
---------------------------------
  C     14.651187   14.634862   14.808809
  C     14.623724   16.144978   15.114311
  O     15.891380   16.730528   14.768272
  C     16.918986   16.592771   15.652115
  O     17.526623   15.543949   15.775286
  C     17.128304   17.768926   16.560757
  C     16.941166   19.050348   16.149921
  C     16.308567   19.527139   14.857400
  N     17.400131   20.120216   16.922359
  C     18.241215   19.995306   17.995317
  S     18.830566   21.314679   18.799642
  N     18.586050   18.716934   18.355170
  C     18.010787   17.484808   17.781236
  C     17.334808   16.593181   18.814275
  C     17.695177   15.239357   18.937851
  C     17.066193   14.416064   19.886737
  C     16.068531   14.951496   20.719395
  C     15.705385   16.299681   20.596192
  O     14.737826   16.817791   21.393993
  C     16.332467   17.116385   19.649734
  H     15.340552   14.108038   15.480433
  H     14.971705   14.454349   13.775153
  H     13.653951   14.198147   14.940390
  H     13.837244   16.611291   14.507108
  H     14.386306   16.318563   16.172969
  H     16.782153   19.048230   13.990794
  H     16.403562   20.610286   14.712407
  H     15.238914   19.286065   14.834596
  H     17.176720   21.065638   16.655192
  H     19.193337   18.651578   19.162445
  H     18.920075   17.004972   17.390179
  H     18.455750   14.820810   18.282484
  H     17.349726   13.368271   19.969098
  H     15.579347   14.318618   21.452356
  H     14.458637   16.117620   22.002997
  H     16.039948   18.158121   19.570626

 Total Charge           Charge          ....    0
 Multiplicity           Mult            ....    1
 Number of Electrons    NEL             ....  154
 Basis Dimension        Dim             ....  828

ORBITAL ENERGIES
----------------

  NO   OCC          E(Eh)            E(eV)
   0   2.0000     -91.889702     -2500.4459
   1   2.0000     -20.594692      -560.4101
   2   2.0000     -20.587566      -560.2162
   3   2.0000     -20.553156      -559.2798
   4   2.0000     -15.630635      -425.3312
   5   2.0000     -15.607300      -424.6962
   6   2.0000     -11.395043      -310.0749
   7   2.0000     -11.384424      -309.7859
   8   2.0000     -11.340072      -308.5791
   9   2.0000     -11.310957      -307.7868
  10   2.0000     -11.305960      -307.6508
  11   2.0000     -11.305374      -307.6349
  12   2.0000     -11.261291      -306.4353
  13   2.0000     -11.260308      -306.4086
  14   2.0000     -11.258079      -306.3479
  15   2.0000     -11.250896      -306.1524
  16   2.0000     -11.240956      -305.8820
  17   2.0000     -11.237242      -305.7809
  18   2.0000     -11.233730      -305.6853
  19   2.0000     -11.222596      -305.3824
  20   2.0000      -8.894776      -242.0392
  21   2.0000      -6.576349      -178.9516
  22   2.0000      -6.574349      -178.8971
  23   2.0000      -6.573757      -178.8810
  24   2.0000      -1.451707       -39.5030
  25   2.0000      -1.414446       -38.4890
  26   2.0000      -1.359753       -37.0008
  27   2.0000      -1.341585       -36.5064
  28   2.0000      -1.238626       -33.7047
  29   2.0000      -1.155317       -31.4378
  30   2.0000      -1.122380       -30.5415
  31   2.0000      -1.043912       -28.4063
  32   2.0000      -1.032701       -28.1012
  33   2.0000      -1.012919       -27.5629
  34   2.0000      -1.000827       -27.2339
  35   2.0000      -0.985600       -26.8195
  36   2.0000      -0.922878       -25.1128
  37   2.0000      -0.886259       -24.1163
  38   2.0000      -0.850950       -23.1555
  39   2.0000      -0.838948       -22.8289
  40   2.0000      -0.831142       -22.6165
  41   2.0000      -0.828003       -22.5311
  42   2.0000      -0.750914       -20.4334
  43   2.0000      -0.733556       -19.9611
  44   2.0000      -0.728674       -19.8282
  45   2.0000      -0.693018       -18.8580
  46   2.0000      -0.686433       -18.6788
  47   2.0000      -0.680557       -18.5189
  48   2.0000      -0.672885       -18.3101
  49   2.0000      -0.666722       -18.1424
  50   2.0000      -0.648351       -17.6425
  51   2.0000      -0.644663       -17.5422
  52   2.0000      -0.635688       -17.2980
  53   2.0000      -0.606737       -16.5102
  54   2.0000      -0.601384       -16.3645
  55   2.0000      -0.598434       -16.2842
  56   2.0000      -0.597746       -16.2655
  57   2.0000      -0.579617       -15.7722
  58   2.0000      -0.575629       -15.6637
  59   2.0000      -0.572169       -15.5695
  60   2.0000      -0.560874       -15.2622
  61   2.0000      -0.551492       -15.0069
  62   2.0000      -0.538533       -14.6542
  63   2.0000      -0.521063       -14.1788
  64   2.0000      -0.518737       -14.1156
  65   2.0000      -0.511664       -13.9231
  66   2.0000      -0.499777       -13.5996
  67   2.0000      -0.495526       -13.4839
  68   2.0000      -0.481129       -13.0922
  69   2.0000      -0.464811       -12.6482
  70   2.0000      -0.458338       -12.4720
  71   2.0000      -0.449799       -12.2396
  72   2.0000      -0.354960        -9.6589
  73   2.0000      -0.347410        -9.4535
  74   2.0000      -0.328739        -8.9454
  75   2.0000      -0.318992        -8.6802
  76   2.0000      -0.317679        -8.6445
  77   0.0000       0.071841         1.9549
  78   0.0000       0.107316         2.9202
  79   0.0000       0.120287         3.2732
  80   0.0000       0.133754         3.6396
  81   0.0000       0.138648         3.7728

MULLIKEN ATOMIC CHARGES
-----------------------
   0 C :   -0.266846
   1 C :    0.030903
   2 O :   -0.376063
   3 C :    0.462000
   4 O :   -0.393914
   5 C :   -0.212399
   6 C :    0.157582
   7 C :   -0.282767
   8 N :   -0.127900
   9 C :    0.206232
  10 S :   -0.439986
  11 N :   -0.211746
  12 C :    0.045673
  13 C :    0.033894
  14 C :   -0.179954
  15 C :   -0.132622
  16 C :   -0.277629
  17 C :    0.314379
  18 O :   -0.358539
  19 C :   -0.257392
  20 H :    0.112633
  21 H :    0.098182
  22 H :    0.088791
  23 H :    0.101699
  24 H :    0.090660
  25 H :    0.131055
  26 H :    0.104745
  27 H :    0.122212
  28 H :    0.198989
  29 H :    0.199839
  30 H :    0.157336
  31 H :    0.163721
  32 H :    0.161585
  33 H :    0.129464
  34 H :    0.240513
  35 H :    0.165670
Sum of atomic charges:   -0.0000000

LOEWDIN ATOMIC CHARGES
----------------------
   0 C :    0.107900
   1 C :   -0.022665
   2 O :    0.293942
   3 C :   -0.419398
   4 O :    0.127674
   5 C :   -0.097854
   6 C :   -0.064846
   7 C :    0.126255
   8 N :    0.405865
   9 C :   -0.458285
  10 S :   -0.035884
  11 N :    0.396181
  12 C :   -0.048975
  13 C :   -0.041789
  14 C :    0.023751
  15 C :    0.041467
  16 C :   -0.000977
  17 C :   -0.193140
  18 O :    0.393243
  19 C :    0.028036
  20 H :   -0.025321
  21 H :   -0.024546
  22 H :   -0.029588
  23 H :   -0.025254
  24 H :   -0.031746
  25 H :   -0.006694
  26 H :   -0.020289
  27 H :   -0.010559
  28 H :   -0.058225
  29 H :   -0.063301
  30 H :   -0.007498
  31 H :   -0.023267
  32 H :   -0.020366
  33 H :   -0.035731
  34 H :   -0.154273
  35 H :   -0.023839

  Mayer bond orders larger than 0.100000
B(  0-C ,  1-C ) :   0.9851 B(  0-C , 20-H ) :   0.9719 B(  0-C , 21-H ) :   0.9761
B(  0-C , 22-H ) :   0.9749 B(  1-C ,  2-O ) :   0.8992 B(  1-C , 23-H ) :   0.9809
B(  1-C , 24-H ) :   0.9704 B(  2-O ,  3-C ) :   1.0608 B(  3-C ,  4-O ) :   2.0326
B(  3-C ,  5-C ) :   1.0261 B(  5-C ,  6-C ) :   1.6659 B(  5-C , 12-C ) :   0.9523
B(  6-C ,  7-C ) :   0.9514 B(  6-C ,  8-N ) :   1.1390 B(  7-C , 25-H ) :   0.9647
B(  7-C , 26-H ) :   0.9897 B(  7-C , 27-H ) :   0.9666 B(  8-N ,  9-C ) :   1.1840
B(  8-N , 28-H ) :   0.9470 B(  9-C , 10-S ) :   1.6116 B(  9-C , 11-N ) :   1.3041
B( 11-N , 12-C ) :   0.9793 B( 11-N , 29-H ) :   0.9486 B( 12-C , 13-C ) :   0.9694
B( 12-C , 30-H ) :   0.9957 B( 13-C , 14-C ) :   1.3796 B( 13-C , 19-C ) :   1.3619
B( 14-C , 15-C ) :   1.3962 B( 14-C , 31-H ) :   0.9621 B( 15-C , 16-C ) :   1.3597
B( 15-C , 32-H ) :   0.9706 B( 16-C , 17-C ) :   1.3329 B( 16-C , 33-H ) :   0.9855
B( 17-C , 18-O ) :   1.1050 B( 17-C , 19-C ) :   1.3660 B( 18-O , 34-H ) :   0.9801
B( 19-C , 35-H ) :   0.9598

MP2 TOTAL ENERGY:    -1274.326589838 Eh
FINAL SINGLE POINT ENERGY     -1274.326589838210

DIPOLE MOMENT
-------------
                                X             Y             Z
Electronic contribution:     10.13000      10.17082       9.15387
Nuclear contribution   :    -11.71721     -11.22752      -9.77760
                        -----------------------------------------
Total Dipole Moment    :     -1.58721      -1.05670      -0.62373
                        -----------------------------------------
Magnitude (a.u.)       :      2.00621
Magnitude (Debye)      :      5.09938

Rotational constants in cm-1:     0.010521     0.009183     0.005867
Rotational constants in MHz :   315.418484   275.287440   175.895929

                             ****ORCA TERMINATED NORMALLY****
TOTAL RUN TIME: 0 days 1 hours 38 minutes 1 seconds 570 msec
