                         Program Version 4.2.0 -  RELEASE  -
|  1> ! ri-mp2 cc-pvtz cc-pvtz/c TightSCF NoKeepInts
|  2>
|  3> %scf
|  4>   MaxCore 4096
|  5> end
|  6> *xyz  0  1
|  7>     C       15.0735401   14.5045217   14.3587283
|  8>     C       14.6559271   15.9899792   14.3161785
|  9>     O       15.5620799   16.9333652   14.9498457
| 10>     C       16.5923930   16.6656189   15.8156873
| 11>     O       17.1428027   15.5834463   15.9211132
| 12>     C       16.9485268   17.8181393   16.7150362
| 13>     C       16.8119537   19.1191748   16.3418626
| 14>     C       16.1022091   19.6744109   15.1220896
| 15>     N       17.4017110   20.1416333   17.0899945
| 16>     C       18.3203084   19.9445748   18.0849873
| 17>     S       19.0607888   21.2089390   18.8523158
| 18>     N       18.6109033   18.6409591   18.3958143
| 19>     C       17.9096655   17.4596251   17.8570915
| 20>     C       17.2735247   16.5963115   18.9388259
| 21>     C       17.5841616   15.2282319   19.0397725
| 22>     C       16.9980276   14.4339796   20.0395627
| 23>     C       16.0945737   15.0132919   20.9470527
| 24>     C       15.7817637   16.3760482   20.8474118
| 25>     O       14.9066864   16.9369508   21.7197854
| 26>     C       16.3664207   17.1638270   19.8506572
| 27>     H       16.0577413   14.3582761   13.8960134
| 28>     H       14.3504791   13.8918091   13.8072178
| 29>     H       15.1059604   14.1306563   15.3899513
| 30>     H       14.5178393   16.2882666   13.2689952
| 31>     H       13.6758738   16.0751621   14.8031517
| 32>     H       15.0274173   19.4590968   15.1675492
| 33>     H       16.5005102   19.2279436   14.2023713
| 34>     H       16.2120493   20.7612098   15.0226994
| 35>     H       17.2151908   21.1041152   16.8585726
| 36>     H       19.2756319   18.5215352   19.1496981
| 37>     H       18.7514390   16.9315496   17.3858148
| 38>     H       18.2711693   14.7767487   18.3278078
| 39>     H       17.2410638   13.3749145   20.1035086
| 40>     H       15.6385197   14.4032524   21.7195401
| 41>     H       14.6334524   16.2450821   22.3405715
| 42>     H       16.1146947   18.2173536   19.7907243
| 43> *
| 44>
| 45>                          ****END OF INPUT****

CARTESIAN COORDINATES (ANGSTROEM)
---------------------------------
  C     15.073540   14.504522   14.358728
  C     14.655927   15.989979   14.316178
  O     15.562080   16.933365   14.949846
  C     16.592393   16.665619   15.815687
  O     17.142803   15.583446   15.921113
  C     16.948527   17.818139   16.715036
  C     16.811954   19.119175   16.341863
  C     16.102209   19.674411   15.122090
  N     17.401711   20.141633   17.089994
  C     18.320308   19.944575   18.084987
  S     19.060789   21.208939   18.852316
  N     18.610903   18.640959   18.395814
  C     17.909665   17.459625   17.857091
  C     17.273525   16.596311   18.938826
  C     17.584162   15.228232   19.039772
  C     16.998028   14.433980   20.039563
  C     16.094574   15.013292   20.947053
  C     15.781764   16.376048   20.847412
  O     14.906686   16.936951   21.719785
  C     16.366421   17.163827   19.850657
  H     16.057741   14.358276   13.896013
  H     14.350479   13.891809   13.807218
  H     15.105960   14.130656   15.389951
  H     14.517839   16.288267   13.268995
  H     13.675874   16.075162   14.803152
  H     15.027417   19.459097   15.167549
  H     16.500510   19.227944   14.202371
  H     16.212049   20.761210   15.022699
  H     17.215191   21.104115   16.858573
  H     19.275632   18.521535   19.149698
  H     18.751439   16.931550   17.385815
  H     18.271169   14.776749   18.327808
  H     17.241064   13.374914   20.103509
  H     15.638520   14.403252   21.719540
  H     14.633452   16.245082   22.340571
  H     16.114695   18.217354   19.790724

 Total Charge           Charge          ....    0
 Multiplicity           Mult            ....    1
 Number of Electrons    NEL             ....  154
 Basis Dimension        Dim             ....  828

ORBITAL ENERGIES
----------------

  NO   OCC          E(Eh)            E(eV)
   0   2.0000     -91.886790     -2500.3667
   1   2.0000     -20.599587      -560.5433
   2   2.0000     -20.591404      -560.3206
   3   2.0000     -20.544145      -559.0346
   4   2.0000     -15.626785      -425.2264
   5   2.0000     -15.604557      -424.6216
   6   2.0000     -11.399125      -310.1860
   7   2.0000     -11.381229      -309.6990
   8   2.0000     -11.335904      -308.4656
   9   2.0000     -11.307578      -307.6948
  10   2.0000     -11.307391      -307.6898
  11   2.0000     -11.302994      -307.5701
  12   2.0000     -11.259518      -306.3871
  13   2.0000     -11.257629      -306.3357
  14   2.0000     -11.254490      -306.2502
  15   2.0000     -11.247569      -306.0619
  16   2.0000     -11.237684      -305.7929
  17   2.0000     -11.233638      -305.6828
  18   2.0000     -11.230493      -305.5972
  19   2.0000     -11.225011      -305.4481
  20   2.0000      -8.891889      -241.9606
  21   2.0000      -6.573470      -178.8732
  22   2.0000      -6.571464      -178.8186
  23   2.0000      -6.570880      -178.8027
  24   2.0000      -1.444674       -39.3116
  25   2.0000      -1.411148       -38.3993
  26   2.0000      -1.356926       -36.9238
  27   2.0000      -1.338441       -36.4208
  28   2.0000      -1.235754       -33.6266
  29   2.0000      -1.151668       -31.3385
  30   2.0000      -1.118948       -30.4481
  31   2.0000      -1.042157       -28.3585
  32   2.0000      -1.034302       -28.1448
  33   2.0000      -1.009333       -27.4653
  34   2.0000      -0.997275       -27.1372
  35   2.0000      -0.982046       -26.7228
  36   2.0000      -0.920184       -25.0395
  37   2.0000      -0.896736       -24.4014
  38   2.0000      -0.847034       -23.0490
  39   2.0000      -0.834710       -22.7136
  40   2.0000      -0.827645       -22.5214
  41   2.0000      -0.817908       -22.2564
  42   2.0000      -0.742908       -20.2156
  43   2.0000      -0.726755       -19.7760
  44   2.0000      -0.723754       -19.6944
  45   2.0000      -0.689202       -18.7541
  46   2.0000      -0.683331       -18.5944
  47   2.0000      -0.677496       -18.4356
  48   2.0000      -0.673308       -18.3216
  49   2.0000      -0.665265       -18.1028
  50   2.0000      -0.645586       -17.5673
  51   2.0000      -0.642688       -17.4884
  52   2.0000      -0.632205       -17.2032
  53   2.0000      -0.604890       -16.4599
  54   2.0000      -0.601509       -16.3679
  55   2.0000      -0.597417       -16.2566
  56   2.0000      -0.594751       -16.1840
  57   2.0000      -0.579363       -15.7653
  58   2.0000      -0.572097       -15.5675
  59   2.0000      -0.570694       -15.5294
  60   2.0000      -0.558432       -15.1957
  61   2.0000      -0.544044       -14.8042
  62   2.0000      -0.537900       -14.6370
  63   2.0000      -0.526471       -14.3260
  64   2.0000      -0.515041       -14.0150
  65   2.0000      -0.509777       -13.8717
  66   2.0000      -0.497949       -13.5499
  67   2.0000      -0.493060       -13.4168
  68   2.0000      -0.479416       -13.0456
  69   2.0000      -0.462369       -12.5817
  70   2.0000      -0.452849       -12.3226
  71   2.0000      -0.445810       -12.1311
  72   2.0000      -0.351524        -9.5655
  73   2.0000      -0.343976        -9.3601
  74   2.0000      -0.325978        -8.8703
  75   2.0000      -0.315984        -8.5984
  76   2.0000      -0.314055        -8.5459
  77   0.0000       0.078792         2.1440
  78   0.0000       0.111987         3.0473
  79   0.0000       0.121544         3.3074
  80   0.0000       0.135989         3.7005
  81   0.0000       0.138739         3.7753

MULLIKEN ATOMIC CHARGES
-----------------------
   0 C :   -0.287733
   1 C :    0.048660
   2 O :   -0.362489
   3 C :    0.415403
   4 O :   -0.418458
   5 C :   -0.149433
   6 C :    0.157546
   7 C :   -0.283340
   8 N :   -0.129194
   9 C :    0.207415
  10 S :   -0.444639
  11 N :   -0.211106
  12 C :    0.040617
  13 C :    0.031541
  14 C :   -0.171685
  15 C :   -0.134578
  16 C :   -0.277372
  17 C :    0.314165
  18 O :   -0.358933
  19 C :   -0.250481
  20 H :    0.111156
  21 H :    0.097010
  22 H :    0.111738
  23 H :    0.092311
  24 H :    0.090078
  25 H :    0.128362
  26 H :    0.124574
  27 H :    0.102501
  28 H :    0.198462
  29 H :    0.199798
  30 H :    0.156370
  31 H :    0.160102
  32 H :    0.159969
  33 H :    0.128114
  34 H :    0.239797
  35 H :    0.163752
Sum of atomic charges:    0.0000000

LOEWDIN ATOMIC CHARGES
----------------------
   0 C :    0.102842
   1 C :   -0.008692
   2 O :    0.291690
   3 C :   -0.412287
   4 O :    0.115409
   5 C :   -0.090680
   6 C :   -0.065248
   7 C :    0.124256
   8 N :    0.404962
   9 C :   -0.458960
  10 S :   -0.039369
  11 N :    0.396491
  12 C :   -0.048285
  13 C :   -0.040428
  14 C :    0.023974
  15 C :    0.040307
  16 C :   -0.001461
  17 C :   -0.192473
  18 O :    0.393114
  19 C :    0.029916
  20 H :   -0.024402
  21 H :   -0.027627
  22 H :   -0.024578
  23 H :   -0.027314
  24 H :   -0.028945
  25 H :   -0.009756
  26 H :   -0.009625
  27 H :   -0.021539
  28 H :   -0.059098
  29 H :   -0.063258
  30 H :   -0.008719
  31 H :   -0.024032
  32 H :   -0.021214
  33 H :   -0.036282
  34 H :   -0.154972
  35 H :   -0.023715

  Mayer bond orders larger than 0.100000
B(  0-C ,  1-C ) :   0.9830 B(  0-C , 20-H ) :   0.9730 B(  0-C , 21-H ) :   0.9721
B(  0-C , 22-H ) :   0.9732 B(  1-C ,  2-O ) :   0.9041 B(  1-C , 23-H ) :   0.9783
B(  1-C , 24-H ) :   0.9772 B(  2-O ,  3-C ) :   1.1221 B(  3-C ,  4-O ) :   1.9900
B(  3-C ,  5-C ) :   1.0368 B(  5-C ,  6-C ) :   1.6666 B(  5-C , 12-C ) :   0.9484
B(  6-C ,  7-C ) :   0.9530 B(  6-C ,  8-N ) :   1.1309 B(  7-C , 25-H ) :   0.9638
B(  7-C , 26-H ) :   0.9658 B(  7-C , 27-H ) :   0.9919 B(  8-N ,  9-C ) :   1.1875
B(  8-N , 28-H ) :   0.9471 B(  9-C , 10-S ) :   1.6059 B(  9-C , 11-N ) :   1.3065
B( 11-N , 12-C ) :   0.9757 B( 11-N , 29-H ) :   0.9487 B( 12-C , 13-C ) :   0.9732
B( 12-C , 30-H ) :   0.9969 B( 13-C , 14-C ) :   1.3755 B( 13-C , 19-C ) :   1.3668
B( 14-C , 15-C ) :   1.3966 B( 14-C , 31-H ) :   0.9636 B( 15-C , 16-C ) :   1.3587
B( 15-C , 32-H ) :   0.9712 B( 16-C , 17-C ) :   1.3333 B( 16-C , 33-H ) :   0.9860
B( 17-C , 18-O ) :   1.1035 B( 17-C , 19-C ) :   1.3670 B( 18-O , 34-H ) :   0.9807
B( 19-C , 35-H ) :   0.9600

MP2 TOTAL ENERGY:    -1274.328652099 Eh
FINAL SINGLE POINT ENERGY     -1274.328652098944

DIPOLE MOMENT
-------------
                                X             Y             Z
Electronic contribution:      9.05261      10.49107      11.36363
Nuclear contribution   :    -10.65530     -11.74090     -12.48242
                        -----------------------------------------
Total Dipole Moment    :     -1.60269      -1.24983      -1.11879
                        -----------------------------------------
Magnitude (a.u.)       :      2.31999
Magnitude (Debye)      :      5.89696

Rotational constants in cm-1:     0.009948     0.009101     0.005559
Rotational constants in MHz :   298.224762   272.833466   166.660539

                             ****ORCA TERMINATED NORMALLY****
TOTAL RUN TIME: 0 days 1 hours 54 minutes 15 seconds 831 msec
