                         Program Version 4.2.0 -  RELEASE  -
|  1> ! ri-mp2 cc-pvtz cc-pvtz/c TightSCF NoKeepInts
|  2>
|  3> %scf
|  4>   MaxCore 4096
|  5> end
|  6> *xyz  0  1
|  7>     C       14.5112894   16.5583915   16.2084431
|  8>     C       15.3611968   15.3603377   15.7295482
|  9>     O       16.6729111   15.6598931   15.1767110
| 10>     C       17.5235416   16.7268024   15.3506339
| 11>     O       18.5327296   16.8306824   14.6793315
| 12>     C       17.1808997   17.7485612   16.3729284
| 13>     C       16.9112023   19.0041857   15.9526458
| 14>     C       16.5809615   19.3996671   14.5297769
| 15>     N       16.9868985   20.0907212   16.8254134
| 16>     C       17.5672119   20.0332345   18.0658929
| 17>     S       17.7343745   21.3764766   19.0158757
| 18>     N       18.0300060   18.8040505   18.4708967
| 19>     C       17.8055505   17.5320690   17.7542279
| 20>     C       17.1808209   16.4187746   18.5840123
| 21>     C       17.6250613   15.0929914   18.4273902
| 22>     C       17.0512102   14.0534796   19.1780167
| 23>     C       16.0263230   14.3424437   20.0950365
| 24>     C       15.5852428   15.6628450   20.2575953
| 25>     O       14.5929540   15.9441848   21.1386389
| 26>     C       16.1582427   16.6959284   19.5089671
| 27>     H       14.8607675   16.9707932   17.1582355
| 28>     H       13.4782984   16.2289985   16.3745020
| 29>     H       14.4822063   17.3516765   15.4529906
| 30>     H       15.4881446   14.6794444   16.5813312
| 31>     H       14.7922938   14.8082730   14.9702392
| 32>     H       16.0164901   18.6139900   14.0131019
| 33>     H       17.5046047   19.5649507   13.9592299
| 34>     H       15.9826160   20.3173881   14.4817349
| 35>     H       16.7005093   21.0066371   16.5179220
| 36>     H       18.4568119   18.7918072   19.3888994
| 37>     H       18.8502338   17.2606482   17.5398261
| 38>     H       18.4148656   14.8664117   17.7143588
| 39>     H       17.4019280   13.0307158   19.0482743
| 40>     H       15.5802399   13.5425987   20.6772551
| 41>     H       14.3603349   15.1193870   21.5914028
| 42>     H       15.7980268   17.7105596   19.6467138
| 43> *
| 44>
| 45>                          ****END OF INPUT****

CARTESIAN COORDINATES (ANGSTROEM)
---------------------------------
  C     14.511289   16.558391   16.208443
  C     15.361197   15.360338   15.729548
  O     16.672911   15.659893   15.176711
  C     17.523542   16.726802   15.350634
  O     18.532730   16.830682   14.679331
  C     17.180900   17.748561   16.372928
  C     16.911202   19.004186   15.952646
  C     16.580962   19.399667   14.529777
  N     16.986898   20.090721   16.825413
  C     17.567212   20.033234   18.065893
  S     17.734375   21.376477   19.015876
  N     18.030006   18.804050   18.470897
  C     17.805550   17.532069   17.754228
  C     17.180821   16.418775   18.584012
  C     17.625061   15.092991   18.427390
  C     17.051210   14.053480   19.178017
  C     16.026323   14.342444   20.095036
  C     15.585243   15.662845   20.257595
  O     14.592954   15.944185   21.138639
  C     16.158243   16.695928   19.508967
  H     14.860767   16.970793   17.158235
  H     13.478298   16.228998   16.374502
  H     14.482206   17.351676   15.452991
  H     15.488145   14.679444   16.581331
  H     14.792294   14.808273   14.970239
  H     16.016490   18.613990   14.013102
  H     17.504605   19.564951   13.959230
  H     15.982616   20.317388   14.481735
  H     16.700509   21.006637   16.517922
  H     18.456812   18.791807   19.388899
  H     18.850234   17.260648   17.539826
  H     18.414866   14.866412   17.714359
  H     17.401928   13.030716   19.048274
  H     15.580240   13.542599   20.677255
  H     14.360335   15.119387   21.591403
  H     15.798027   17.710560   19.646714

 Total Charge           Charge          ....    0
 Multiplicity           Mult            ....    1
 Number of Electrons    NEL             ....  154
 Basis Dimension        Dim             ....  828

ORBITAL ENERGIES
----------------

  NO   OCC          E(Eh)            E(eV)
   0   2.0000     -91.888981     -2500.4263
   1   2.0000     -20.604863      -560.6868
   2   2.0000     -20.597548      -560.4878
   3   2.0000     -20.550917      -559.2189
   4   2.0000     -15.624473      -425.1635
   5   2.0000     -15.610756      -424.7903
   6   2.0000     -11.399635      -310.1998
   7   2.0000     -11.384887      -309.7985
   8   2.0000     -11.323466      -308.1272
   9   2.0000     -11.322841      -308.1102
  10   2.0000     -11.316322      -307.9328
  11   2.0000     -11.308195      -307.7116
  12   2.0000     -11.272122      -306.7300
  13   2.0000     -11.264683      -306.5276
  14   2.0000     -11.258900      -306.3702
  15   2.0000     -11.255568      -306.2796
  16   2.0000     -11.252554      -306.1976
  17   2.0000     -11.248047      -306.0749
  18   2.0000     -11.247763      -306.0672
  19   2.0000     -11.234438      -305.7046
  20   2.0000      -8.894074      -242.0201
  21   2.0000      -6.575656      -178.9327
  22   2.0000      -6.573646      -178.8780
  23   2.0000      -6.573065      -178.8622
  24   2.0000      -1.441693       -39.2305
  25   2.0000      -1.424591       -38.7651
  26   2.0000      -1.356722       -36.9183
  27   2.0000      -1.337923       -36.4067
  28   2.0000      -1.238410       -33.6989
  29   2.0000      -1.166982       -31.7552
  30   2.0000      -1.125859       -30.6362
  31   2.0000      -1.051568       -28.6146
  32   2.0000      -1.037941       -28.2438
  33   2.0000      -1.025517       -27.9057
  34   2.0000      -1.004642       -27.3377
  35   2.0000      -0.990176       -26.9441
  36   2.0000      -0.927239       -25.2315
  37   2.0000      -0.901739       -24.5376
  38   2.0000      -0.851526       -23.1712
  39   2.0000      -0.844980       -22.9931
  40   2.0000      -0.842086       -22.9143
  41   2.0000      -0.828068       -22.5329
  42   2.0000      -0.749019       -20.3819
  43   2.0000      -0.738980       -20.1087
  44   2.0000      -0.724388       -19.7116
  45   2.0000      -0.703526       -19.1439
  46   2.0000      -0.689815       -18.7708
  47   2.0000      -0.677405       -18.4331
  48   2.0000      -0.675925       -18.3929
  49   2.0000      -0.661224       -17.9928
  50   2.0000      -0.657889       -17.9021
  51   2.0000      -0.651160       -17.7190
  52   2.0000      -0.637697       -17.3526
  53   2.0000      -0.616375       -16.7724
  54   2.0000      -0.610395       -16.6097
  55   2.0000      -0.605836       -16.4856
  56   2.0000      -0.604921       -16.4607
  57   2.0000      -0.584876       -15.9153
  58   2.0000      -0.578822       -15.7505
  59   2.0000      -0.577140       -15.7048
  60   2.0000      -0.565849       -15.3975
  61   2.0000      -0.557867       -15.1803
  62   2.0000      -0.541385       -14.7318
  63   2.0000      -0.533594       -14.5198
  64   2.0000      -0.522574       -14.2200
  65   2.0000      -0.513810       -13.9815
  66   2.0000      -0.505048       -13.7430
  67   2.0000      -0.502485       -13.6733
  68   2.0000      -0.492315       -13.3966
  69   2.0000      -0.463515       -12.6129
  70   2.0000      -0.454420       -12.3654
  71   2.0000      -0.448208       -12.1964
  72   2.0000      -0.358609        -9.7582
  73   2.0000      -0.348480        -9.4826
  74   2.0000      -0.331376        -9.0172
  75   2.0000      -0.328261        -8.9324
  76   2.0000      -0.317879        -8.6499
  77   0.0000       0.088747         2.4149
  78   0.0000       0.099343         2.7033
  79   0.0000       0.120495         3.2788
  80   0.0000       0.125554         3.4165
  81   0.0000       0.127260         3.4629

MULLIKEN ATOMIC CHARGES
-----------------------
   0 C :   -0.324962
   1 C :    0.040720
   2 O :   -0.327747
   3 C :    0.414087
   4 O :   -0.379998
   5 C :   -0.218950
   6 C :    0.148627
   7 C :   -0.300564
   8 N :   -0.140177
   9 C :    0.216975
  10 S :   -0.443582
  11 N :   -0.238124
  12 C :    0.072329
  13 C :    0.034958
  14 C :   -0.254223
  15 C :   -0.129407
  16 C :   -0.275968
  17 C :    0.324300
  18 O :   -0.352772
  19 C :   -0.253887
  20 H :    0.118878
  21 H :    0.120956
  22 H :    0.098331
  23 H :    0.101092
  24 H :    0.123461
  25 H :    0.110954
  26 H :    0.149522
  27 H :    0.101678
  28 H :    0.196745
  29 H :    0.205228
  30 H :    0.168610
  31 H :    0.164346
  32 H :    0.168329
  33 H :    0.135104
  34 H :    0.241843
  35 H :    0.183287
Sum of atomic charges:   -0.0000000

LOEWDIN ATOMIC CHARGES
----------------------
   0 C :    0.101804
   1 C :   -0.010351
   2 O :    0.293287
   3 C :   -0.419906
   4 O :    0.125932
   5 C :   -0.086389
   6 C :   -0.091539
   7 C :    0.127668
   8 N :    0.403981
   9 C :   -0.453604
  10 S :   -0.038797
  11 N :    0.395998
  12 C :   -0.053096
  13 C :   -0.042238
  14 C :    0.018957
  15 C :    0.043930
  16 C :   -0.000082
  17 C :   -0.190142
  18 O :    0.397578
  19 C :    0.030158
  20 H :   -0.033584
  21 H :   -0.021424
  22 H :   -0.031751
  23 H :   -0.029383
  24 H :   -0.021736
  25 H :   -0.013115
  26 H :   -0.003359
  27 H :   -0.019138
  28 H :   -0.058842
  29 H :   -0.064949
  30 H :   -0.005848
  31 H :   -0.023969
  32 H :   -0.017982
  33 H :   -0.033683
  34 H :   -0.152223
  35 H :   -0.022163

  Mayer bond orders larger than 0.100000
B(  0-C ,  1-C ) :   0.9597 B(  0-C , 20-H ) :   0.9686 B(  0-C , 21-H ) :   0.9766
B(  0-C , 22-H ) :   0.9743 B(  1-C ,  2-O ) :   0.9047 B(  1-C , 23-H ) :   0.9718
B(  1-C , 24-H ) :   0.9803 B(  2-O ,  3-C ) :   1.1883 B(  3-C ,  4-O ) :   2.1155
B(  3-C ,  5-C ) :   0.9137 B(  5-C ,  6-C ) :   1.7208 B(  5-C , 12-C ) :   0.9371
B(  6-C ,  7-C ) :   0.9427 B(  6-C ,  8-N ) :   1.1153 B(  7-C , 25-H ) :   0.9795
B(  7-C , 26-H ) :   0.9595 B(  7-C , 27-H ) :   0.9827 B(  8-N ,  9-C ) :   1.2062
B(  8-N , 28-H ) :   0.9501 B(  9-C , 10-S ) :   1.6068 B(  9-C , 11-N ) :   1.2826
B( 11-N , 12-C ) :   0.9694 B( 11-N , 29-H ) :   0.9452 B( 12-C , 13-C ) :   0.9600
B( 12-C , 30-H ) :   0.9986 B( 13-C , 14-C ) :   1.3665 B( 13-C , 19-C ) :   1.3387
B( 14-C , 15-C ) :   1.3992 B( 14-C , 31-H ) :   0.9711 B( 15-C , 16-C ) :   1.3562
B( 15-C , 32-H ) :   0.9688 B( 16-C , 17-C ) :   1.3316 B( 16-C , 33-H ) :   0.9838
B( 17-C , 18-O ) :   1.1123 B( 17-C , 19-C ) :   1.3614 B( 18-O , 34-H ) :   0.9786
B( 19-C , 35-H ) :   0.9549

MP2 TOTAL ENERGY:    -1274.315041983 Eh
FINAL SINGLE POINT ENERGY     -1274.315041982539

DIPOLE MOMENT
-------------
                                X             Y             Z
Electronic contribution:      8.56875       6.80041       6.47670
Nuclear contribution   :    -10.20132      -8.58087      -6.49489
                        -----------------------------------------
Total Dipole Moment    :     -1.63256      -1.78046      -0.01820
                        -----------------------------------------
Magnitude (a.u.)       :      2.41570
Magnitude (Debye)      :      6.14023

Rotational constants in cm-1:     0.012294     0.009137     0.006363
Rotational constants in MHz :   368.575456   273.923326   190.772896

                             ****ORCA TERMINATED NORMALLY****
TOTAL RUN TIME: 0 days 1 hours 45 minutes 53 seconds 122 msec
