                         Program Version 4.2.0 -  RELEASE  -
|  1> ! ri-mp2 cc-pvtz cc-pvtz/c TightSCF NoKeepInts
|  2>
|  3> %scf
|  4>   MaxCore 4096
|  5> end
|  6> *xyz  0  1
|  7>     C       14.5353973   16.3915304   16.0882660
|  8>     C       15.5281061   15.2170508   15.9238627
|  9>     O       16.8431287   15.5709259   15.4149958
| 10>     C       17.3682542   16.8248323   15.2360403
| 11>     O       17.9828978   17.0966232   14.2212367
| 12>     C       17.1425378   17.8173801   16.3332342
| 13>     C       16.9240901   19.1129348   16.0043185
| 14>     C       16.4921188   19.6277868   14.6478389
| 15>     N       17.0981222   20.1373705   16.9360166
| 16>     C       17.7281191   19.9765104   18.1411889
| 17>     S       18.0128038   21.2494555   19.1576772
| 18>     N       18.1348900   18.7025764   18.4531443
| 19>     C       17.8037868   17.4880094   17.6818082
| 20>     C       17.1612960   16.3930793   18.5210058
| 21>     C       17.7153247   15.0996346   18.5453974
| 22>     C       17.1338391   14.0887586   19.3290005
| 23>     C       15.9942715   14.3757399   20.0999078
| 24>     C       15.4494165   15.6670665   20.0889254
| 25>     O       14.3503507   15.9478788   20.8326151
| 26>     C       16.0311420   16.6714934   19.3090251
| 27>     H       14.7686621   17.0226033   16.9503511
| 28>     H       13.5249524   15.9971371   16.2513478
| 29>     H       14.5036300   17.0114211   15.1841128
| 30>     H       15.6306871   14.7045486   16.8879114
| 31>     H       15.0865588   14.4892302   15.2308513
| 32>     H       15.8558955   18.9007909   14.1286709
| 33>     H       17.3692123   19.8029755   14.0109105
| 34>     H       15.9271860   20.5650289   14.7161970
| 35>     H       16.8472315   21.0834117   16.6961496
| 36>     H       18.5881924   18.6126753   19.3540258
| 37>     H       18.8212628   17.1707950   17.4102851
| 38>     H       18.5937785   14.8739266   17.9454228
| 39>     H       17.5664991   13.0894448   19.3369778
| 40>     H       15.5416918   13.5977997   20.7063610
| 41>     H       14.1313822   15.1538999   21.3436871
| 42>     H       15.6002845   17.6676739   19.3192327
| 43> *
| 44>
| 45>                          ****END OF INPUT****

CARTESIAN COORDINATES (ANGSTROEM)
---------------------------------
  C     14.535397   16.391530   16.088266
  C     15.528106   15.217051   15.923863
  O     16.843129   15.570926   15.414996
  C     17.368254   16.824832   15.236040
  O     17.982898   17.096623   14.221237
  C     17.142538   17.817380   16.333234
  C     16.924090   19.112935   16.004319
  C     16.492119   19.627787   14.647839
  N     17.098122   20.137370   16.936017
  C     17.728119   19.976510   18.141189
  S     18.012804   21.249455   19.157677
  N     18.134890   18.702576   18.453144
  C     17.803787   17.488009   17.681808
  C     17.161296   16.393079   18.521006
  C     17.715325   15.099635   18.545397
  C     17.133839   14.088759   19.329000
  C     15.994271   14.375740   20.099908
  C     15.449416   15.667067   20.088925
  O     14.350351   15.947879   20.832615
  C     16.031142   16.671493   19.309025
  H     14.768662   17.022603   16.950351
  H     13.524952   15.997137   16.251348
  H     14.503630   17.011421   15.184113
  H     15.630687   14.704549   16.887911
  H     15.086559   14.489230   15.230851
  H     15.855896   18.900791   14.128671
  H     17.369212   19.802975   14.010910
  H     15.927186   20.565029   14.716197
  H     16.847231   21.083412   16.696150
  H     18.588192   18.612675   19.354026
  H     18.821263   17.170795   17.410285
  H     18.593778   14.873927   17.945423
  H     17.566499   13.089445   19.336978
  H     15.541692   13.597800   20.706361
  H     14.131382   15.153900   21.343687
  H     15.600284   17.667674   19.319233

 Total Charge           Charge          ....    0
 Multiplicity           Mult            ....    1
 Number of Electrons    NEL             ....  154
 Basis Dimension        Dim             ....  828

ORBITAL ENERGIES
----------------

  NO   OCC          E(Eh)            E(eV)
   0   2.0000     -91.890186     -2500.4591
   1   2.0000     -20.604806      -560.6853
   2   2.0000     -20.589777      -560.2763
   3   2.0000     -20.549789      -559.1882
   4   2.0000     -15.626943      -425.2307
   5   2.0000     -15.610696      -424.7886
   6   2.0000     -11.395605      -310.0902
   7   2.0000     -11.385365      -309.8115
   8   2.0000     -11.328663      -308.2686
   9   2.0000     -11.323075      -308.1165
  10   2.0000     -11.316154      -307.9282
  11   2.0000     -11.303835      -307.5930
  12   2.0000     -11.270017      -306.6728
  13   2.0000     -11.263528      -306.4962
  14   2.0000     -11.255990      -306.2910
  15   2.0000     -11.255203      -306.2696
  16   2.0000     -11.253169      -306.2143
  17   2.0000     -11.248463      -306.0862
  18   2.0000     -11.247357      -306.0561
  19   2.0000     -11.234337      -305.7018
  20   2.0000      -8.895261      -242.0524
  21   2.0000      -6.576835      -178.9648
  22   2.0000      -6.574834      -178.9103
  23   2.0000      -6.574244      -178.8943
  24   2.0000      -1.440511       -39.1983
  25   2.0000      -1.424608       -38.7656
  26   2.0000      -1.353973       -36.8435
  27   2.0000      -1.340093       -36.4658
  28   2.0000      -1.239978       -33.7415
  29   2.0000      -1.166226       -31.7346
  30   2.0000      -1.123924       -30.5835
  31   2.0000      -1.050383       -28.5824
  32   2.0000      -1.035098       -28.1664
  33   2.0000      -1.024544       -27.8793
  34   2.0000      -1.003651       -27.3107
  35   2.0000      -0.989251       -26.9189
  36   2.0000      -0.926657       -25.2156
  37   2.0000      -0.900337       -24.4994
  38   2.0000      -0.850429       -23.1414
  39   2.0000      -0.844235       -22.9728
  40   2.0000      -0.843327       -22.9481
  41   2.0000      -0.825623       -22.4663
  42   2.0000      -0.748056       -20.3556
  43   2.0000      -0.739396       -20.1200
  44   2.0000      -0.720554       -19.6073
  45   2.0000      -0.703134       -19.1333
  46   2.0000      -0.689848       -18.7717
  47   2.0000      -0.677077       -18.4242
  48   2.0000      -0.675172       -18.3724
  49   2.0000      -0.659465       -17.9450
  50   2.0000      -0.657983       -17.9046
  51   2.0000      -0.648473       -17.6459
  52   2.0000      -0.639687       -17.4068
  53   2.0000      -0.618864       -16.8401
  54   2.0000      -0.613595       -16.6968
  55   2.0000      -0.607082       -16.5195
  56   2.0000      -0.603015       -16.4089
  57   2.0000      -0.583527       -15.8786
  58   2.0000      -0.576780       -15.6950
  59   2.0000      -0.566213       -15.4074
  60   2.0000      -0.562761       -15.3135
  61   2.0000      -0.552927       -15.0459
  62   2.0000      -0.541579       -14.7371
  63   2.0000      -0.532873       -14.5002
  64   2.0000      -0.527784       -14.3617
  65   2.0000      -0.516217       -14.0470
  66   2.0000      -0.505066       -13.7436
  67   2.0000      -0.494724       -13.4621
  68   2.0000      -0.487559       -13.2672
  69   2.0000      -0.468576       -12.7506
  70   2.0000      -0.451282       -12.2800
  71   2.0000      -0.447566       -12.1789
  72   2.0000      -0.359542        -9.7836
  73   2.0000      -0.349440        -9.5087
  74   2.0000      -0.331416        -9.0183
  75   2.0000      -0.328753        -8.9458
  76   2.0000      -0.319647        -8.6980
  77   0.0000       0.080828         2.1994
  78   0.0000       0.096779         2.6335
  79   0.0000       0.120490         3.2787
  80   0.0000       0.126819         3.4509
  81   0.0000       0.128535         3.4976

MULLIKEN ATOMIC CHARGES
-----------------------
   0 C :   -0.327979
   1 C :    0.029680
   2 O :   -0.342391
   3 C :    0.412891
   4 O :   -0.368757
   5 C :   -0.249425
   6 C :    0.165039
   7 C :   -0.284206
   8 N :   -0.131773
   9 C :    0.210654
  10 S :   -0.440369
  11 N :   -0.216491
  12 C :    0.061409
  13 C :    0.003264
  14 C :   -0.189750
  15 C :   -0.133981
  16 C :   -0.274951
  17 C :    0.319035
  18 O :   -0.354733
  19 C :   -0.253342
  20 H :    0.116949
  21 H :    0.120778
  22 H :    0.100718
  23 H :    0.107444
  24 H :    0.125007
  25 H :    0.116386
  26 H :    0.145157
  27 H :    0.097646
  28 H :    0.197774
  29 H :    0.201274
  30 H :    0.157888
  31 H :    0.155818
  32 H :    0.165920
  33 H :    0.135337
  34 H :    0.241971
  35 H :    0.180108
Sum of atomic charges:    0.0000000

LOEWDIN ATOMIC CHARGES
----------------------
   0 C :    0.102511
   1 C :   -0.010066
   2 O :    0.290201
   3 C :   -0.424808
   4 O :    0.127835
   5 C :   -0.093450
   6 C :   -0.075907
   7 C :    0.128668
   8 N :    0.405626
   9 C :   -0.455660
  10 S :   -0.035956
  11 N :    0.395482
  12 C :   -0.054346
  13 C :   -0.043740
  14 C :    0.021692
  15 C :    0.041936
  16 C :    0.000856
  17 C :   -0.191987
  18 O :    0.396973
  19 C :    0.033379
  20 H :   -0.035603
  21 H :   -0.020930
  22 H :   -0.030789
  23 H :   -0.029322
  24 H :   -0.023894
  25 H :   -0.011849
  26 H :   -0.003604
  27 H :   -0.021254
  28 H :   -0.057365
  29 H :   -0.063899
  30 H :   -0.009554
  31 H :   -0.025430
  32 H :   -0.018655
  33 H :   -0.033347
  34 H :   -0.152229
  35 H :   -0.021513

  Mayer bond orders larger than 0.100000
B(  0-C ,  1-C ) :   0.9610 B(  0-C , 20-H ) :   0.9680 B(  0-C , 21-H ) :   0.9753
B(  0-C , 22-H ) :   0.9741 B(  1-C ,  2-O ) :   0.9029 B(  1-C , 23-H ) :   0.9697
B(  1-C , 24-H ) :   0.9832 B(  2-O ,  3-C ) :   1.1629 B(  3-C ,  4-O ) :   2.1165
B(  3-C ,  5-C ) :   0.9404 B(  5-C ,  6-C ) :   1.6821 B(  5-C , 12-C ) :   0.9507
B(  6-C ,  7-C ) :   0.9496 B(  6-C ,  8-N ) :   1.1351 B(  7-C , 25-H ) :   0.9756
B(  7-C , 26-H ) :   0.9566 B(  7-C , 27-H ) :   0.9837 B(  8-N ,  9-C ) :   1.1973
B(  8-N , 28-H ) :   0.9496 B(  9-C , 10-S ) :   1.6124 B(  9-C , 11-N ) :   1.2880
B( 11-N , 12-C ) :   0.9795 B( 11-N , 29-H ) :   0.9469 B( 12-C , 13-C ) :   0.9537
B( 12-C , 30-H ) :   1.0043 B( 13-C , 14-C ) :   1.3663 B( 13-C , 19-C ) :   1.3510
B( 14-C , 15-C ) :   1.3988 B( 14-C , 31-H ) :   0.9713 B( 15-C , 16-C ) :   1.3569
B( 15-C , 32-H ) :   0.9700 B( 16-C , 17-C ) :   1.3311 B( 16-C , 33-H ) :   0.9835
B( 17-C , 18-O ) :   1.1111 B( 17-C , 19-C ) :   1.3599 B( 18-O , 34-H ) :   0.9786
B( 19-C , 35-H ) :   0.9542

MP2 TOTAL ENERGY:    -1274.317191502 Eh
FINAL SINGLE POINT ENERGY     -1274.317191502038

DIPOLE MOMENT
-------------
                                X             Y             Z
Electronic contribution:      8.65589       6.94175       6.21813
Nuclear contribution   :    -10.11519      -8.65714      -6.01798
                        -----------------------------------------
Total Dipole Moment    :     -1.45930      -1.71539       0.20015
                        -----------------------------------------
Magnitude (a.u.)       :      2.26101
Magnitude (Debye)      :      5.74704

Rotational constants in cm-1:     0.012452     0.009083     0.006370
Rotational constants in MHz :   373.287869   272.286818   190.962798

                             ****ORCA TERMINATED NORMALLY****
TOTAL RUN TIME: 0 days 2 hours 8 minutes 32 seconds 616 msec
