                         Program Version 4.2.0 -  RELEASE  -
|  1> ! ri-mp2 cc-pvtz cc-pvtz/c TightSCF NoKeepInts
|  2>
|  3> %scf
|  4>   MaxCore 4096
|  5> end
|  6> *xyz  0  1
|  7>     C       13.7880766   16.5895533   15.1172927
|  8>     C       14.9957285   15.8539147   15.7231668
|  9>     O       16.1619640   16.1268952   14.9186586
| 10>     C       17.3196456   16.5510265   15.5109629
| 11>     O       18.3852782   16.0038503   15.2961196
| 12>     C       17.1666621   17.6492212   16.5108137
| 13>     C       16.7110814   18.8691322   16.1346230
| 14>     C       16.1365672   19.2738907   14.7920237
| 15>     N       16.8533105   19.9731635   16.9770788
| 16>     C       17.6406113   19.9899676   18.0982575
| 17>     S       17.8541663   21.3640974   18.9929467
| 18>     N       18.2655271   18.8116081   18.4251847
| 19>     C       18.0324111   17.5130010   17.7625642
| 20>     C       17.5513495   16.4026971   18.6842820
| 21>     C       18.1179897   15.1184733   18.5994325
| 22>     C       17.6608299   14.0804299   19.4282540
| 23>     C       16.6258055   14.3284398   20.3462386
| 24>     C       16.0544383   15.6058130   20.4272129
| 25>     O       15.0473646   15.8452169   21.3041063
| 26>     C       16.5102512   16.6370114   19.5994912
| 27>     H       12.8603678   16.2578680   15.5995751
| 28>     H       13.7064818   16.3823667   14.0427521
| 29>     H       13.8706801   17.6713323   15.2610562
| 30>     H       15.1270225   16.1575554   16.7704020
| 31>     H       14.8048540   14.7726715   15.7155803
| 32>     H       16.1020375   18.4528454   14.0681329
| 33>     H       16.7484582   20.0620819   14.3348342
| 34>     H       15.1173564   19.6636901   14.8993005
| 35>     H       16.4362333   20.8553705   16.7246636
| 36>     H       18.8380436   18.8495913   19.2593390
| 37>     H       19.0479897   17.2922458   17.4008384
| 38>     H       18.9100217   14.9229892   17.8789662
| 39>     H       18.1065927   13.0897792   19.3539907
| 40>     H       16.2692695   13.5289541   20.9874566
| 41>     H       14.9097140   15.0350020   21.8179703
| 42>     H       16.0528189   17.6182533   19.6744313
| 43> *
| 44>
| 45>                          ****END OF INPUT****

CARTESIAN COORDINATES (ANGSTROEM)
---------------------------------
  C     13.788077   16.589553   15.117293
  C     14.995729   15.853915   15.723167
  O     16.161964   16.126895   14.918659
  C     17.319646   16.551026   15.510963
  O     18.385278   16.003850   15.296120
  C     17.166662   17.649221   16.510814
  C     16.711081   18.869132   16.134623
  C     16.136567   19.273891   14.792024
  N     16.853310   19.973163   16.977079
  C     17.640611   19.989968   18.098257
  S     17.854166   21.364097   18.992947
  N     18.265527   18.811608   18.425185
  C     18.032411   17.513001   17.762564
  C     17.551350   16.402697   18.684282
  C     18.117990   15.118473   18.599432
  C     17.660830   14.080430   19.428254
  C     16.625805   14.328440   20.346239
  C     16.054438   15.605813   20.427213
  O     15.047365   15.845217   21.304106
  C     16.510251   16.637011   19.599491
  H     12.860368   16.257868   15.599575
  H     13.706482   16.382367   14.042752
  H     13.870680   17.671332   15.261056
  H     15.127023   16.157555   16.770402
  H     14.804854   14.772671   15.715580
  H     16.102038   18.452845   14.068133
  H     16.748458   20.062082   14.334834
  H     15.117356   19.663690   14.899300
  H     16.436233   20.855370   16.724664
  H     18.838044   18.849591   19.259339
  H     19.047990   17.292246   17.400838
  H     18.910022   14.922989   17.878966
  H     18.106593   13.089779   19.353991
  H     16.269270   13.528954   20.987457
  H     14.909714   15.035002   21.817970
  H     16.052819   17.618253   19.674431

 Total Charge           Charge          ....    0
 Multiplicity           Mult            ....    1
 Number of Electrons    NEL             ....  154
 Basis Dimension        Dim             ....  828

ORBITAL ENERGIES
----------------

  NO   OCC          E(Eh)            E(eV)
   0   2.0000     -91.889630     -2500.4440
   1   2.0000     -20.600308      -560.5629
   2   2.0000     -20.597268      -560.4802
   3   2.0000     -20.554251      -559.3096
   4   2.0000     -15.627286      -425.2401
   5   2.0000     -15.609420      -424.7539
   6   2.0000     -11.397911      -310.1529
   7   2.0000     -11.385580      -309.8174
   8   2.0000     -11.334189      -308.4190
   9   2.0000     -11.317779      -307.9724
  10   2.0000     -11.309962      -307.7597
  11   2.0000     -11.305435      -307.6365
  12   2.0000     -11.265187      -306.5413
  13   2.0000     -11.263653      -306.4996
  14   2.0000     -11.263278      -306.4894
  15   2.0000     -11.257993      -306.3456
  16   2.0000     -11.246865      -306.0427
  17   2.0000     -11.242957      -305.9364
  18   2.0000     -11.240230      -305.8622
  19   2.0000     -11.236885      -305.7712
  20   2.0000      -8.894736      -242.0381
  21   2.0000      -6.576318      -178.9507
  22   2.0000      -6.574306      -178.8960
  23   2.0000      -6.573723      -178.8801
  24   2.0000      -1.450288       -39.4643
  25   2.0000      -1.420037       -38.6412
  26   2.0000      -1.362960       -37.0880
  27   2.0000      -1.340832       -36.4859
  28   2.0000      -1.239357       -33.7246
  29   2.0000      -1.161899       -31.6169
  30   2.0000      -1.125754       -30.6333
  31   2.0000      -1.048393       -28.5282
  32   2.0000      -1.040806       -28.3218
  33   2.0000      -1.019561       -27.7437
  34   2.0000      -1.005595       -27.3636
  35   2.0000      -0.989265       -26.9193
  36   2.0000      -0.926342       -25.2070
  37   2.0000      -0.886502       -24.1229
  38   2.0000      -0.853065       -23.2131
  39   2.0000      -0.842669       -22.9302
  40   2.0000      -0.837873       -22.7997
  41   2.0000      -0.836157       -22.7530
  42   2.0000      -0.759516       -20.6675
  43   2.0000      -0.737861       -20.0782
  44   2.0000      -0.732056       -19.9202
  45   2.0000      -0.697770       -18.9873
  46   2.0000      -0.689166       -18.7532
  47   2.0000      -0.684571       -18.6281
  48   2.0000      -0.674914       -18.3653
  49   2.0000      -0.663591       -18.0572
  50   2.0000      -0.652427       -17.7534
  51   2.0000      -0.639041       -17.3892
  52   2.0000      -0.633443       -17.2369
  53   2.0000      -0.624190       -16.9851
  54   2.0000      -0.611293       -16.6341
  55   2.0000      -0.606622       -16.5070
  56   2.0000      -0.603637       -16.4258
  57   2.0000      -0.583299       -15.8724
  58   2.0000      -0.576797       -15.6954
  59   2.0000      -0.573477       -15.6051
  60   2.0000      -0.563197       -15.3254
  61   2.0000      -0.557428       -15.1684
  62   2.0000      -0.544046       -14.8043
  63   2.0000      -0.531767       -14.4701
  64   2.0000      -0.523138       -14.2353
  65   2.0000      -0.515039       -14.0149
  66   2.0000      -0.501930       -13.6582
  67   2.0000      -0.498900       -13.5758
  68   2.0000      -0.489304       -13.3146
  69   2.0000      -0.468886       -12.7590
  70   2.0000      -0.460686       -12.5359
  71   2.0000      -0.451751       -12.2928
  72   2.0000      -0.356842        -9.7102
  73   2.0000      -0.352567        -9.5938
  74   2.0000      -0.329169        -8.9571
  75   2.0000      -0.325232        -8.8500
  76   2.0000      -0.320058        -8.7092
  77   0.0000       0.084546         2.3006
  78   0.0000       0.102512         2.7895
  79   0.0000       0.118578         3.2267
  80   0.0000       0.128704         3.5022
  81   0.0000       0.129664         3.5283

MULLIKEN ATOMIC CHARGES
-----------------------
   0 C :   -0.289553
   1 C :    0.022655
   2 O :   -0.340700
   3 C :    0.438650
   4 O :   -0.373695
   5 C :   -0.237083
   6 C :    0.164543
   7 C :   -0.352427
   8 N :   -0.136242
   9 C :    0.207274
  10 S :   -0.442861
  11 N :   -0.220668
  12 C :    0.068260
  13 C :    0.017137
  14 C :   -0.215959
  15 C :   -0.128857
  16 C :   -0.275971
  17 C :    0.315451
  18 O :   -0.355839
  19 C :   -0.252859
  20 H :    0.108150
  21 H :    0.108820
  22 H :    0.089096
  23 H :    0.103642
  24 H :    0.120164
  25 H :    0.139146
  26 H :    0.146423
  27 H :    0.119677
  28 H :    0.197686
  29 H :    0.201514
  30 H :    0.165604
  31 H :    0.175970
  32 H :    0.164750
  33 H :    0.132230
  34 H :    0.241415
  35 H :    0.174457
Sum of atomic charges:   -0.0000000

LOEWDIN ATOMIC CHARGES
----------------------
   0 C :    0.106872
   1 C :   -0.016120
   2 O :    0.299417
   3 C :   -0.417431
   4 O :    0.126434
   5 C :   -0.087464
   6 C :   -0.087085
   7 C :    0.123384
   8 N :    0.403654
   9 C :   -0.456560
  10 S :   -0.038152
  11 N :    0.395766
  12 C :   -0.049827
  13 C :   -0.044788
  14 C :    0.019772
  15 C :    0.044771
  16 C :    0.000230
  17 C :   -0.192006
  18 O :    0.395162
  19 C :    0.026847
  20 H :   -0.022719
  21 H :   -0.023754
  22 H :   -0.032784
  23 H :   -0.032871
  24 H :   -0.025295
  25 H :   -0.011594
  26 H :   -0.009830
  27 H :   -0.019014
  28 H :   -0.056180
  29 H :   -0.063821
  30 H :   -0.004442
  31 H :   -0.021301
  32 H :   -0.018521
  33 H :   -0.034665
  34 H :   -0.153005
  35 H :   -0.023081

  Mayer bond orders larger than 0.100000
B(  0-C ,  1-C ) :   0.9749 B(  0-C , 20-H ) :   0.9780 B(  0-C , 21-H ) :   0.9753
B(  0-C , 22-H ) :   0.9769 B(  1-C ,  2-O ) :   0.9036 B(  1-C , 23-H ) :   0.9572
B(  1-C , 24-H ) :   0.9828 B(  2-O ,  3-C ) :   1.1395 B(  3-C ,  4-O ) :   2.1031
B(  3-C ,  5-C ) :   0.9252 B(  5-C ,  6-C ) :   1.7064 B(  5-C , 12-C ) :   0.9421
B(  6-C ,  7-C ) :   0.9466 B(  6-C ,  8-N ) :   1.1120 B(  7-C , 25-H ) :   0.9735
B(  7-C , 26-H ) :   0.9676 B(  7-C , 27-H ) :   0.9678 B(  8-N ,  9-C ) :   1.1967
B(  8-N , 28-H ) :   0.9507 B(  9-C , 10-S ) :   1.6106 B(  9-C , 11-N ) :   1.2918
B( 11-N , 12-C ) :   0.9870 B( 11-N , 29-H ) :   0.9480 B( 12-C , 13-C ) :   0.9659
B( 12-C , 30-H ) :   0.9914 B( 13-C , 14-C ) :   1.3864 B( 13-C , 19-C ) :   1.3516
B( 14-C , 15-C ) :   1.3942 B( 14-C , 31-H ) :   0.9591 B( 15-C , 16-C ) :   1.3622
B( 15-C , 32-H ) :   0.9698 B( 16-C , 17-C ) :   1.3311 B( 16-C , 33-H ) :   0.9845
B( 17-C , 18-O ) :   1.1096 B( 17-C , 19-C ) :   1.3626 B( 18-O , 34-H ) :   0.9792
B( 19-C , 35-H ) :   0.9568

MP2 TOTAL ENERGY:    -1274.329706180 Eh
FINAL SINGLE POINT ENERGY     -1274.329706180068

DIPOLE MOMENT
-------------
                                X             Y             Z
Electronic contribution:     10.68265       5.99809       8.32887
Nuclear contribution   :    -12.19523      -7.34417      -8.57621
                        -----------------------------------------
Total Dipole Moment    :     -1.51258      -1.34608      -0.24734
                        -----------------------------------------
Magnitude (a.u.)       :      2.03985
Magnitude (Debye)      :      5.18490

Rotational constants in cm-1:     0.010852     0.009109     0.006398
Rotational constants in MHz :   325.319985   273.066010   191.804743

                             ****ORCA TERMINATED NORMALLY****
TOTAL RUN TIME: 0 days 1 hours 55 minutes 42 seconds 29 msec
