                         Program Version 4.2.0 -  RELEASE  -
|  1> ! ri-mp2 cc-pvtz cc-pvtz/c TightSCF NoKeepInts
|  2>
|  3> %scf
|  4>   MaxCore 4096
|  5> end
|  6> *xyz  0  1
|  7>     C       14.8309430   15.0072461   15.8285849
|  8>     C       14.9180228   15.9697569   14.6201348
|  9>     O       16.1041411   16.8015396   14.6075707
| 10>     C       17.0864275   16.6927973   15.5480960
| 11>     O       17.7764973   15.6927455   15.6488606
| 12>     C       17.1545808   17.8342839   16.5191096
| 13>     C       16.8942437   19.1180179   16.1600914
| 14>     C       16.3041801   19.6136977   14.8548591
| 15>     N       17.2212915   20.1756067   17.0124405
| 16>     C       17.9956348   20.0539531   18.1350575
| 17>     S       18.4277727   21.3671797   19.0427888
| 18>     N       18.4111330   18.7862208   18.4564809
| 19>     C       17.9749518   17.5484583   17.7810105
| 20>     C       17.2976841   16.5533486   18.7138616
| 21>     C       17.7485565   15.2234966   18.7921202
| 22>     C       17.1124069   14.3018789   19.6404105
| 23>     C       16.0159964   14.7139134   20.4171661
| 24>     C       15.5627923   16.0379538   20.3388012
| 25>     O       14.4994907   16.4365255   21.0814647
| 26>     C       16.1973757   16.9526912   19.4923971
| 27>     H       15.6322698   14.2579732   15.8001395
| 28>     H       13.8764553   14.4675834   15.8129152
| 29>     H       14.8910849   15.5513604   16.7799657
| 30>     H       14.8908411   15.3766472   13.6967325
| 31>     H       14.0319108   16.6173825   14.6180887
| 32>     H       15.2610218   19.2906372   14.7525509
| 33>     H       16.8661109   19.2203153   13.9981732
| 34>     H       16.3188506   20.7072007   14.7701989
| 35>     H       16.9439653   21.1151371   16.7771444
| 36>     H       18.9651594   18.7216389   19.3011788
| 37>     H       18.9421550   17.1583910   17.4313824
| 38>     H       18.5854100   14.8998877   18.1772684
| 39>     H       17.4667248   13.2736686   19.6877935
| 40>     H       15.5207573   14.0047695   21.0720631
| 41>     H       14.2277269   15.6828208   21.6265119
| 42>     H       15.8324333   17.9732750   19.4445864
| 43> *
| 44>
| 45>                          ****END OF INPUT****

CARTESIAN COORDINATES (ANGSTROEM)
---------------------------------
  C     14.830943   15.007246   15.828585
  C     14.918023   15.969757   14.620135
  O     16.104141   16.801540   14.607571
  C     17.086427   16.692797   15.548096
  O     17.776497   15.692745   15.648861
  C     17.154581   17.834284   16.519110
  C     16.894244   19.118018   16.160091
  C     16.304180   19.613698   14.854859
  N     17.221291   20.175607   17.012440
  C     17.995635   20.053953   18.135057
  S     18.427773   21.367180   19.042789
  N     18.411133   18.786221   18.456481
  C     17.974952   17.548458   17.781011
  C     17.297684   16.553349   18.713862
  C     17.748556   15.223497   18.792120
  C     17.112407   14.301879   19.640411
  C     16.015996   14.713913   20.417166
  C     15.562792   16.037954   20.338801
  O     14.499491   16.436525   21.081465
  C     16.197376   16.952691   19.492397
  H     15.632270   14.257973   15.800140
  H     13.876455   14.467583   15.812915
  H     14.891085   15.551360   16.779966
  H     14.890841   15.376647   13.696732
  H     14.031911   16.617383   14.618089
  H     15.261022   19.290637   14.752551
  H     16.866111   19.220315   13.998173
  H     16.318851   20.707201   14.770199
  H     16.943965   21.115137   16.777144
  H     18.965159   18.721639   19.301179
  H     18.942155   17.158391   17.431382
  H     18.585410   14.899888   18.177268
  H     17.466725   13.273669   19.687794
  H     15.520757   14.004770   21.072063
  H     14.227727   15.682821   21.626512
  H     15.832433   17.973275   19.444586

 Total Charge           Charge          ....    0
 Multiplicity           Mult            ....    1
 Number of Electrons    NEL             ....  154
 Basis Dimension        Dim             ....  828

ORBITAL ENERGIES
----------------

  NO   OCC          E(Eh)            E(eV)
   0   2.0000     -91.888904     -2500.4242
   1   2.0000     -20.594947      -560.4170
   2   2.0000     -20.586215      -560.1794
   3   2.0000     -20.549976      -559.1933
   4   2.0000     -15.629355      -425.2964
   5   2.0000     -15.606710      -424.6802
   6   2.0000     -11.394865      -310.0700
   7   2.0000     -11.383689      -309.7659
   8   2.0000     -11.338033      -308.5236
   9   2.0000     -11.311282      -307.7956
  10   2.0000     -11.306882      -307.6759
  11   2.0000     -11.304984      -307.6243
  12   2.0000     -11.259724      -306.3927
  13   2.0000     -11.259217      -306.3789
  14   2.0000     -11.257975      -306.3451
  15   2.0000     -11.251184      -306.1603
  16   2.0000     -11.241343      -305.8925
  17   2.0000     -11.237344      -305.7837
  18   2.0000     -11.233777      -305.6866
  19   2.0000     -11.228620      -305.5463
  20   2.0000      -8.893984      -242.0176
  21   2.0000      -6.575559      -178.9301
  22   2.0000      -6.573557      -178.8756
  23   2.0000      -6.572968      -178.8596
  24   2.0000      -1.446186       -39.3527
  25   2.0000      -1.414736       -38.4969
  26   2.0000      -1.355075       -36.8735
  27   2.0000      -1.340426       -36.4748
  28   2.0000      -1.237737       -33.6805
  29   2.0000      -1.155449       -31.4414
  30   2.0000      -1.121633       -30.5212
  31   2.0000      -1.043763       -28.4022
  32   2.0000      -1.032490       -28.0955
  33   2.0000      -1.013030       -27.5660
  34   2.0000      -1.000546       -27.2262
  35   2.0000      -0.985594       -26.8194
  36   2.0000      -0.922779       -25.1101
  37   2.0000      -0.897268       -24.4159
  38   2.0000      -0.849093       -23.1050
  39   2.0000      -0.837709       -22.7952
  40   2.0000      -0.831254       -22.6196
  41   2.0000      -0.820059       -22.3149
  42   2.0000      -0.743530       -20.2325
  43   2.0000      -0.729720       -19.8567
  44   2.0000      -0.726508       -19.7693
  45   2.0000      -0.692067       -18.8321
  46   2.0000      -0.686000       -18.6670
  47   2.0000      -0.676687       -18.4136
  48   2.0000      -0.674459       -18.3530
  49   2.0000      -0.663895       -18.0655
  50   2.0000      -0.649809       -17.6822
  51   2.0000      -0.646095       -17.5811
  52   2.0000      -0.633489       -17.2381
  53   2.0000      -0.623821       -16.9750
  54   2.0000      -0.605181       -16.4678
  55   2.0000      -0.600793       -16.3484
  56   2.0000      -0.598408       -16.2835
  57   2.0000      -0.577445       -15.7131
  58   2.0000      -0.574655       -15.6372
  59   2.0000      -0.564109       -15.3502
  60   2.0000      -0.551881       -15.0174
  61   2.0000      -0.546706       -14.8766
  62   2.0000      -0.538340       -14.6490
  63   2.0000      -0.528333       -14.3767
  64   2.0000      -0.518285       -14.1032
  65   2.0000      -0.510543       -13.8926
  66   2.0000      -0.499094       -13.5810
  67   2.0000      -0.494595       -13.4586
  68   2.0000      -0.480846       -13.0845
  69   2.0000      -0.464411       -12.6373
  70   2.0000      -0.457088       -12.4380
  71   2.0000      -0.448736       -12.2107
  72   2.0000      -0.353521        -9.6198
  73   2.0000      -0.347517        -9.4564
  74   2.0000      -0.328017        -8.9258
  75   2.0000      -0.318358        -8.6630
  76   2.0000      -0.317708        -8.6453
  77   0.0000       0.073696         2.0054
  78   0.0000       0.107280         2.9192
  79   0.0000       0.121015         3.2930
  80   0.0000       0.133079         3.6213
  81   0.0000       0.138701         3.7743

MULLIKEN ATOMIC CHARGES
-----------------------
   0 C :   -0.322889
   1 C :    0.059589
   2 O :   -0.386275
   3 C :    0.468365
   4 O :   -0.400975
   5 C :   -0.208599
   6 C :    0.149038
   7 C :   -0.281463
   8 N :   -0.126799
   9 C :    0.207767
  10 S :   -0.441195
  11 N :   -0.212963
  12 C :    0.052078
  13 C :    0.016843
  14 C :   -0.174646
  15 C :   -0.134815
  16 C :   -0.275737
  17 C :    0.314243
  18 O :   -0.358877
  19 C :   -0.249148
  20 H :    0.123190
  21 H :    0.108158
  22 H :    0.108224
  23 H :    0.103336
  24 H :    0.088115
  25 H :    0.123645
  26 H :    0.129951
  27 H :    0.103014
  28 H :    0.198573
  29 H :    0.199569
  30 H :    0.157244
  31 H :    0.164974
  32 H :    0.161566
  33 H :    0.130180
  34 H :    0.240385
  35 H :    0.166334
Sum of atomic charges:    0.0000000

LOEWDIN ATOMIC CHARGES
----------------------
   0 C :    0.106964
   1 C :   -0.010710
   2 O :    0.286661
   3 C :   -0.421237
   4 O :    0.121245
   5 C :   -0.097161
   6 C :   -0.066265
   7 C :    0.126248
   8 N :    0.405513
   9 C :   -0.457820
  10 S :   -0.036966
  11 N :    0.396131
  12 C :   -0.048401
  13 C :   -0.042185
  14 C :    0.024740
  15 C :    0.041488
  16 C :   -0.001175
  17 C :   -0.193614
  18 O :    0.393653
  19 C :    0.028197
  20 H :   -0.022625
  21 H :   -0.024014
  22 H :   -0.025913
  23 H :   -0.026296
  24 H :   -0.031648
  25 H :   -0.010329
  26 H :   -0.007019
  27 H :   -0.020705
  28 H :   -0.058482
  29 H :   -0.063582
  30 H :   -0.007448
  31 H :   -0.023203
  32 H :   -0.020369
  33 H :   -0.035666
  34 H :   -0.154311
  35 H :   -0.023698

  Mayer bond orders larger than 0.100000
B(  0-C ,  1-C ) :   0.9665 B(  0-C , 20-H ) :   0.9702 B(  0-C , 21-H ) :   0.9742
B(  0-C , 22-H ) :   0.9682 B(  1-C ,  2-O ) :   0.9030 B(  1-C , 23-H ) :   0.9822
B(  1-C , 24-H ) :   0.9779 B(  2-O ,  3-C ) :   1.0680 B(  3-C ,  4-O ) :   2.0261
B(  3-C ,  5-C ) :   1.0245 B(  5-C ,  6-C ) :   1.6725 B(  5-C , 12-C ) :   0.9446
B(  6-C ,  7-C ) :   0.9527 B(  6-C ,  8-N ) :   1.1423 B(  7-C , 25-H ) :   0.9660
B(  7-C , 26-H ) :   0.9651 B(  7-C , 27-H ) :   0.9896 B(  8-N ,  9-C ) :   1.1846
B(  8-N , 28-H ) :   0.9471 B(  9-C , 10-S ) :   1.6103 B(  9-C , 11-N ) :   1.3035
B( 11-N , 12-C ) :   0.9801 B( 11-N , 29-H ) :   0.9486 B( 12-C , 13-C ) :   0.9668
B( 12-C , 30-H ) :   0.9961 B( 13-C , 14-C ) :   1.3832 B( 13-C , 19-C ) :   1.3622
B( 14-C , 15-C ) :   1.3964 B( 14-C , 31-H ) :   0.9608 B( 15-C , 16-C ) :   1.3592
B( 15-C , 32-H ) :   0.9707 B( 16-C , 17-C ) :   1.3328 B( 16-C , 33-H ) :   0.9851
B( 17-C , 18-O ) :   1.1056 B( 17-C , 19-C ) :   1.3644 B( 18-O , 34-H ) :   0.9802
B( 19-C , 35-H ) :   0.9597

MP2 TOTAL ENERGY:    -1274.325980193 Eh
FINAL SINGLE POINT ENERGY     -1274.325980193120

DIPOLE MOMENT
-------------
                                X             Y             Z
Electronic contribution:      9.09175       9.72687       7.86745
Nuclear contribution   :    -10.59915     -10.99669      -8.66515
                        -----------------------------------------
Total Dipole Moment    :     -1.50740      -1.26982      -0.79770
                        -----------------------------------------
Magnitude (a.u.)       :      2.12627
Magnitude (Debye)      :      5.40455

Rotational constants in cm-1:     0.011175     0.009217     0.006111
Rotational constants in MHz :   335.020855   276.312624   183.211552

                             ****ORCA TERMINATED NORMALLY****
TOTAL RUN TIME: 0 days 1 hours 57 minutes 27 seconds 883 msec
