                         Program Version 4.2.0 -  RELEASE  -
|  1> ! ri-mp2 cc-pvtz cc-pvtz/c TightSCF NoKeepInts
|  2>
|  3> %scf
|  4>   MaxCore 4096
|  5> end
|  6> *xyz  0  1
|  7>     C       15.5388423   13.9497029   15.0553690
|  8>     C       14.9659921   15.3711725   15.1818981
|  9>     O       16.0142055   16.2118570   15.6896276
| 10>     C       15.8705340   17.5685054   15.6212017
| 11>     O       15.0852099   18.0975091   14.8527375
| 12>     C       16.7142672   18.2923862   16.6363020
| 13>     C       16.8988004   19.6353344   16.5557179
| 14>     C       16.1406523   20.6134173   15.6820733
| 15>     N       17.8814838   20.2739080   17.3156824
| 16>     C       18.8463459   19.6242353   18.0367528
| 17>     S       20.0406721   20.4415383   18.8376020
| 18>     N       18.7847871   18.2538051   18.0431449
| 19>     C       17.7025850   17.4429008   17.4537734
| 20>     C       17.0413644   16.5212129   18.4703649
| 21>     C       17.2445089   15.1300226   18.4143130
| 22>     C       16.6332277   14.2812415   19.3524160
| 23>     C       15.8160347   14.8291134   20.3561989
| 24>     C       15.6165217   16.2154346   20.4166990
| 25>     O       14.8291824   16.7469236   21.3855443
| 26>     C       16.2258240   17.0574809   19.4811583
| 27>     H       15.8577892   13.5740832   16.0354931
| 28>     H       16.4033726   13.9395224   14.3800348
| 29>     H       14.7816410   13.2647418   14.6549391
| 30>     H       14.6396095   15.7134731   14.1901060
| 31>     H       14.1023170   15.3831394   15.8598534
| 32>     H       15.0589088   20.5113227   15.8375053
| 33>     H       16.3391720   20.4185300   14.6204570
| 34>     H       16.4009172   21.6596328   15.8812741
| 35>     H       17.9512432   21.2788544   17.3013171
| 36>     H       19.4909612   17.8032350   18.6112327
| 37>     H       18.2739737   16.8601444   16.7173385
| 38>     H       17.8715339   14.7058039   17.6346361
| 39>     H       16.7933441   13.2057997   19.2999853
| 40>     H       15.3421194   14.1779809   21.0833078
| 41>     H       14.5236033   16.0175877   21.9454531
| 42>     H       16.0654528   18.1284466   19.5464894
| 43> *
| 44>
| 45>                          ****END OF INPUT****

CARTESIAN COORDINATES (ANGSTROEM)
---------------------------------
  C     15.538842   13.949703   15.055369
  C     14.965992   15.371172   15.181898
  O     16.014205   16.211857   15.689628
  C     15.870534   17.568505   15.621202
  O     15.085210   18.097509   14.852737
  C     16.714267   18.292386   16.636302
  C     16.898800   19.635334   16.555718
  C     16.140652   20.613417   15.682073
  N     17.881484   20.273908   17.315682
  C     18.846346   19.624235   18.036753
  S     20.040672   20.441538   18.837602
  N     18.784787   18.253805   18.043145
  C     17.702585   17.442901   17.453773
  C     17.041364   16.521213   18.470365
  C     17.244509   15.130023   18.414313
  C     16.633228   14.281242   19.352416
  C     15.816035   14.829113   20.356199
  C     15.616522   16.215435   20.416699
  O     14.829182   16.746924   21.385544
  C     16.225824   17.057481   19.481158
  H     15.857789   13.574083   16.035493
  H     16.403373   13.939522   14.380035
  H     14.781641   13.264742   14.654939
  H     14.639610   15.713473   14.190106
  H     14.102317   15.383139   15.859853
  H     15.058909   20.511323   15.837505
  H     16.339172   20.418530   14.620457
  H     16.400917   21.659633   15.881274
  H     17.951243   21.278854   17.301317
  H     19.490961   17.803235   18.611233
  H     18.273974   16.860144   16.717339
  H     17.871534   14.705804   17.634636
  H     16.793344   13.205800   19.299985
  H     15.342119   14.177981   21.083308
  H     14.523603   16.017588   21.945453
  H     16.065453   18.128447   19.546489

 Total Charge           Charge          ....    0
 Multiplicity           Mult            ....    1
 Number of Electrons    NEL             ....  154
 Basis Dimension        Dim             ....  828

ORBITAL ENERGIES
----------------

  NO   OCC          E(Eh)            E(eV)
   0   2.0000     -91.889073     -2500.4288
   1   2.0000     -20.599581      -560.5431
   2   2.0000     -20.596779      -560.4669
   3   2.0000     -20.541380      -558.9594
   4   2.0000     -15.629410      -425.2979
   5   2.0000     -15.607229      -424.6943
   6   2.0000     -11.393930      -310.0446
   7   2.0000     -11.383723      -309.7669
   8   2.0000     -11.337535      -308.5100
   9   2.0000     -11.314002      -307.8696
  10   2.0000     -11.307830      -307.7017
  11   2.0000     -11.295292      -307.3605
  12   2.0000     -11.261068      -306.4292
  13   2.0000     -11.258974      -306.3723
  14   2.0000     -11.255529      -306.2785
  15   2.0000     -11.251669      -306.1735
  16   2.0000     -11.243968      -305.9639
  17   2.0000     -11.239289      -305.8366
  18   2.0000     -11.238985      -305.8283
  19   2.0000     -11.230250      -305.5906
  20   2.0000      -8.894140      -242.0218
  21   2.0000      -6.575711      -178.9342
  22   2.0000      -6.573714      -178.8799
  23   2.0000      -6.573123      -178.8638
  24   2.0000      -1.451848       -39.5068
  25   2.0000      -1.416449       -38.5435
  26   2.0000      -1.354228       -36.8504
  27   2.0000      -1.340548       -36.4782
  28   2.0000      -1.238455       -33.7001
  29   2.0000      -1.157909       -31.5083
  30   2.0000      -1.121318       -30.5126
  31   2.0000      -1.043464       -28.3941
  32   2.0000      -1.039992       -28.2996
  33   2.0000      -1.015465       -27.6322
  34   2.0000      -0.996523       -27.1168
  35   2.0000      -0.984931       -26.8013
  36   2.0000      -0.922027       -25.0896
  37   2.0000      -0.887220       -24.1425
  38   2.0000      -0.846416       -23.0322
  39   2.0000      -0.838061       -22.8048
  40   2.0000      -0.834473       -22.7072
  41   2.0000      -0.818062       -22.2606
  42   2.0000      -0.765384       -20.8271
  43   2.0000      -0.733763       -19.9667
  44   2.0000      -0.720789       -19.6137
  45   2.0000      -0.695549       -18.9269
  46   2.0000      -0.685736       -18.6598
  47   2.0000      -0.679214       -18.4824
  48   2.0000      -0.678023       -18.4499
  49   2.0000      -0.663163       -18.0456
  50   2.0000      -0.647049       -17.6071
  51   2.0000      -0.641283       -17.4502
  52   2.0000      -0.634151       -17.2561
  53   2.0000      -0.607214       -16.5231
  54   2.0000      -0.601809       -16.3761
  55   2.0000      -0.599748       -16.3200
  56   2.0000      -0.597807       -16.2671
  57   2.0000      -0.577572       -15.7165
  58   2.0000      -0.569870       -15.5069
  59   2.0000      -0.566572       -15.4172
  60   2.0000      -0.560712       -15.2578
  61   2.0000      -0.547252       -14.8915
  62   2.0000      -0.541480       -14.7344
  63   2.0000      -0.524419       -14.2702
  64   2.0000      -0.521521       -14.1913
  65   2.0000      -0.513322       -13.9682
  66   2.0000      -0.504418       -13.7259
  67   2.0000      -0.497868       -13.5477
  68   2.0000      -0.484891       -13.1945
  69   2.0000      -0.464619       -12.6429
  70   2.0000      -0.458606       -12.4793
  71   2.0000      -0.446248       -12.1430
  72   2.0000      -0.353183        -9.6106
  73   2.0000      -0.350133        -9.5276
  74   2.0000      -0.328219        -8.9313
  75   2.0000      -0.321290        -8.7427
  76   2.0000      -0.318304        -8.6615
  77   0.0000       0.076494         2.0815
  78   0.0000       0.103586         2.8187
  79   0.0000       0.125220         3.4074
  80   0.0000       0.132566         3.6073
  81   0.0000       0.136785         3.7221

MULLIKEN ATOMIC CHARGES
-----------------------
   0 C :   -0.275355
   1 C :    0.035770
   2 O :   -0.343043
   3 C :    0.435473
   4 O :   -0.432257
   5 C :   -0.228254
   6 C :    0.174089
   7 C :   -0.268116
   8 N :   -0.126486
   9 C :    0.210340
  10 S :   -0.441536
  11 N :   -0.215261
  12 C :    0.059066
  13 C :    0.044532
  14 C :   -0.188469
  15 C :   -0.129465
  16 C :   -0.277197
  17 C :    0.316282
  18 O :   -0.356799
  19 C :   -0.249355
  20 H :    0.093117
  21 H :    0.096860
  22 H :    0.097583
  23 H :    0.114685
  24 H :    0.090779
  25 H :    0.133731
  26 H :    0.129197
  27 H :    0.094511
  28 H :    0.199862
  29 H :    0.200589
  30 H :    0.152536
  31 H :    0.157020
  32 H :    0.161760
  33 H :    0.130333
  34 H :    0.240608
  35 H :    0.162870
Sum of atomic charges:   -0.0000000

LOEWDIN ATOMIC CHARGES
----------------------
   0 C :    0.106538
   1 C :   -0.015817
   2 O :    0.309138
   3 C :   -0.414757
   4 O :    0.096720
   5 C :   -0.095962
   6 C :   -0.056074
   7 C :    0.131288
   8 N :    0.407244
   9 C :   -0.456477
  10 S :   -0.036204
  11 N :    0.394589
  12 C :   -0.054677
  13 C :   -0.039434
  14 C :    0.017242
  15 C :    0.038382
  16 C :   -0.000564
  17 C :   -0.189694
  18 O :    0.395070
  19 C :    0.033375
  20 H :   -0.030157
  21 H :   -0.026831
  22 H :   -0.024503
  23 H :   -0.027551
  24 H :   -0.029667
  25 H :   -0.004141
  26 H :   -0.004946
  27 H :   -0.023658
  28 H :   -0.057108
  29 H :   -0.064365
  30 H :   -0.013646
  31 H :   -0.029679
  32 H :   -0.021637
  33 H :   -0.035359
  34 H :   -0.153964
  35 H :   -0.022715

  Mayer bond orders larger than 0.100000
B(  0-C ,  1-C ) :   0.9720 B(  0-C , 20-H ) :   0.9771 B(  0-C , 21-H ) :   0.9769
B(  0-C , 22-H ) :   0.9784 B(  1-C ,  2-O ) :   0.8986 B(  1-C , 23-H ) :   0.9797
B(  1-C , 24-H ) :   0.9741 B(  2-O ,  3-C ) :   1.1657 B(  3-C ,  4-O ) :   1.9733
B(  3-C ,  5-C ) :   1.0650 B(  5-C ,  6-C ) :   1.6385 B(  5-C , 12-C ) :   0.9571
B(  6-C ,  7-C ) :   0.9655 B(  6-C ,  8-N ) :   1.1534 B(  7-C , 25-H ) :   0.9610
B(  7-C , 26-H ) :   0.9588 B(  7-C , 27-H ) :   0.9905 B(  8-N ,  9-C ) :   1.1874
B(  8-N , 28-H ) :   0.9464 B(  9-C , 10-S ) :   1.6063 B(  9-C , 11-N ) :   1.3094
B( 11-N , 12-C ) :   0.9677 B( 11-N , 29-H ) :   0.9484 B( 12-C , 13-C ) :   0.9630
B( 12-C , 30-H ) :   1.0015 B( 13-C , 14-C ) :   1.3580 B( 13-C , 19-C ) :   1.3795
B( 14-C , 15-C ) :   1.3885 B( 14-C , 31-H ) :   0.9691 B( 15-C , 16-C ) :   1.3619
B( 15-C , 32-H ) :   0.9700 B( 16-C , 17-C ) :   1.3338 B( 16-C , 33-H ) :   0.9848
B( 17-C , 18-O ) :   1.1044 B( 17-C , 19-C ) :   1.3650 B( 18-O , 34-H ) :   0.9798
B( 19-C , 35-H ) :   0.9596

MP2 TOTAL ENERGY:    -1274.343283841 Eh
FINAL SINGLE POINT ENERGY     -1274.343283841057

DIPOLE MOMENT
-------------
                                X             Y             Z
Electronic contribution:      8.31033      11.27870       8.44124
Nuclear contribution   :     -9.47155     -12.89922      -8.77073
                        -----------------------------------------
Total Dipole Moment    :     -1.16122      -1.62052      -0.32949
                        -----------------------------------------
Magnitude (a.u.)       :      2.02067
Magnitude (Debye)      :      5.13612

Rotational constants in cm-1:     0.011432     0.008378     0.005922
Rotational constants in MHz :   342.721559   251.158877   177.551664

                             ****ORCA TERMINATED NORMALLY****
TOTAL RUN TIME: 0 days 1 hours 38 minutes 33 seconds 138 msec
