                         Program Version 4.2.0 -  RELEASE  -
|  1> ! ri-mp2 cc-pvtz cc-pvtz/c TightSCF NoKeepInts
|  2>
|  3> %scf
|  4>   MaxCore 4096
|  5> end
|  6> *xyz  0  1
|  7>     C       15.2822050   14.0907163   16.4630444
|  8>     C       15.1820763   15.4266920   15.7074364
|  9>     O       16.5062225   15.8693981   15.3639445
| 10>     C       16.6494836   17.1964328   15.0895917
| 11>     O       16.3861447   17.5966537   13.9707018
| 12>     C       17.0104886   18.0786063   16.2596958
| 13>     C       17.1314822   19.4209718   16.0713570
| 14>     C       16.6032292   20.2437252   14.9130670
| 15>     N       17.7860324   20.2285812   17.0034202
| 16>     C       18.5627682   19.7541542   18.0230926
| 17>     S       19.4238523   20.7598080   19.0143879
| 18>     N       18.6149678   18.3916456   18.1600559
| 19>     C       17.7768088   17.4243373   17.4265214
| 20>     C       16.9719903   16.5640798   18.3892645
| 21>     C       17.5699351   15.4423272   18.9939388
| 22>     C       16.8623925   14.6766499   19.9364147
| 23>     C       15.5487151   15.0390667   20.2803621
| 24>     C       14.9584804   16.1671657   19.6942264
| 25>     O       13.6939009   16.5252316   20.0299531
| 26>     C       15.6677322   16.9325582   18.7632813
| 27>     H       15.7120876   13.3173946   15.8146331
| 28>     H       14.2880960   13.7554235   16.7821239
| 29>     H       15.9122574   14.1765077   17.3504128
| 30>     H       14.5779010   15.3067021   14.7981808
| 31>     H       14.6845191   16.1631761   16.3516369
| 32>     H       17.2186307   20.0884947   14.0173530
| 33>     H       16.5861501   21.3196717   15.1233375
| 34>     H       15.5767045   19.9490889   14.6607624
| 35>     H       17.7825930   21.2295418   16.8886469
| 36>     H       19.1750380   18.0723827   18.9402559
| 37>     H       18.5689869   16.8301104   16.9485390
| 38>     H       18.5873709   15.1634089   18.7322352
| 39>     H       17.3314544   13.8080350   20.3959197
| 40>     H       14.9973973   14.4492969   21.0055314
| 41>     H       13.3965656   15.9236984   20.7296700
| 42>     H       15.2023397   17.8182651   18.3450037
| 43> *
| 44>
| 45>                          ****END OF INPUT****

CARTESIAN COORDINATES (ANGSTROEM)
---------------------------------
  C     15.282205   14.090716   16.463044
  C     15.182076   15.426692   15.707436
  O     16.506222   15.869398   15.363945
  C     16.649484   17.196433   15.089592
  O     16.386145   17.596654   13.970702
  C     17.010489   18.078606   16.259696
  C     17.131482   19.420972   16.071357
  C     16.603229   20.243725   14.913067
  N     17.786032   20.228581   17.003420
  C     18.562768   19.754154   18.023093
  S     19.423852   20.759808   19.014388
  N     18.614968   18.391646   18.160056
  C     17.776809   17.424337   17.426521
  C     16.971990   16.564080   18.389264
  C     17.569935   15.442327   18.993939
  C     16.862392   14.676650   19.936415
  C     15.548715   15.039067   20.280362
  C     14.958480   16.167166   19.694226
  O     13.693901   16.525232   20.029953
  C     15.667732   16.932558   18.763281
  H     15.712088   13.317395   15.814633
  H     14.288096   13.755423   16.782124
  H     15.912257   14.176508   17.350413
  H     14.577901   15.306702   14.798181
  H     14.684519   16.163176   16.351637
  H     17.218631   20.088495   14.017353
  H     16.586150   21.319672   15.123337
  H     15.576704   19.949089   14.660762
  H     17.782593   21.229542   16.888647
  H     19.175038   18.072383   18.940256
  H     18.568987   16.830110   16.948539
  H     18.587371   15.163409   18.732235
  H     17.331454   13.808035   20.395920
  H     14.997397   14.449297   21.005531
  H     13.396566   15.923698   20.729670
  H     15.202340   17.818265   18.345004

 Total Charge           Charge          ....    0
 Multiplicity           Mult            ....    1
 Number of Electrons    NEL             ....  154
 Basis Dimension        Dim             ....  828

ORBITAL ENERGIES
----------------

  NO   OCC          E(Eh)            E(eV)
   0   2.0000     -91.891474     -2500.4941
   1   2.0000     -20.604835      -560.6861
   2   2.0000     -20.581050      -560.0388
   3   2.0000     -20.545249      -559.0647
   4   2.0000     -15.632010      -425.3686
   5   2.0000     -15.609421      -424.7539
   6   2.0000     -11.390893      -309.9620
   7   2.0000     -11.385510      -309.8155
   8   2.0000     -11.341614      -308.6210
   9   2.0000     -11.322309      -308.0957
  10   2.0000     -11.312978      -307.8418
  11   2.0000     -11.295419      -307.3640
  12   2.0000     -11.269099      -306.6478
  13   2.0000     -11.263319      -306.4905
  14   2.0000     -11.261145      -306.4313
  15   2.0000     -11.253718      -306.2292
  16   2.0000     -11.251184      -306.1603
  17   2.0000     -11.246520      -306.0334
  18   2.0000     -11.246248      -306.0260
  19   2.0000     -11.221528      -305.3533
  20   2.0000      -8.896517      -242.0865
  21   2.0000      -6.578084      -178.9988
  22   2.0000      -6.576090      -178.9445
  23   2.0000      -6.575494      -178.9283
  24   2.0000      -1.447151       -39.3790
  25   2.0000      -1.424466       -38.7617
  26   2.0000      -1.351472       -36.7754
  27   2.0000      -1.344172       -36.5768
  28   2.0000      -1.242325       -33.8054
  29   2.0000      -1.164892       -31.6983
  30   2.0000      -1.123487       -30.5716
  31   2.0000      -1.048555       -28.5326
  32   2.0000      -1.031767       -28.0758
  33   2.0000      -1.023451       -27.8495
  34   2.0000      -1.000843       -27.2343
  35   2.0000      -0.987652       -26.8754
  36   2.0000      -0.926563       -25.2131
  37   2.0000      -0.876589       -23.8532
  38   2.0000      -0.851742       -23.1771
  39   2.0000      -0.845155       -22.9978
  40   2.0000      -0.840258       -22.8646
  41   2.0000      -0.829420       -22.5697
  42   2.0000      -0.762525       -20.7494
  43   2.0000      -0.739652       -20.1270
  44   2.0000      -0.724004       -19.7012
  45   2.0000      -0.703078       -19.1317
  46   2.0000      -0.691183       -18.8081
  47   2.0000      -0.678421       -18.4608
  48   2.0000      -0.672956       -18.3121
  49   2.0000      -0.660527       -17.9739
  50   2.0000      -0.649475       -17.6731
  51   2.0000      -0.642594       -17.4859
  52   2.0000      -0.631532       -17.1849
  53   2.0000      -0.618254       -16.8236
  54   2.0000      -0.614892       -16.7321
  55   2.0000      -0.606204       -16.4957
  56   2.0000      -0.604373       -16.4458
  57   2.0000      -0.584217       -15.8973
  58   2.0000      -0.572501       -15.5785
  59   2.0000      -0.568547       -15.4710
  60   2.0000      -0.551541       -15.0082
  61   2.0000      -0.542796       -14.7702
  62   2.0000      -0.538453       -14.6520
  63   2.0000      -0.531957       -14.4753
  64   2.0000      -0.517090       -14.0707
  65   2.0000      -0.512135       -13.9359
  66   2.0000      -0.507067       -13.7980
  67   2.0000      -0.499134       -13.5821
  68   2.0000      -0.484665       -13.1884
  69   2.0000      -0.463981       -12.6256
  70   2.0000      -0.458644       -12.4803
  71   2.0000      -0.443547       -12.0695
  72   2.0000      -0.357812        -9.7366
  73   2.0000      -0.355864        -9.6835
  74   2.0000      -0.332465        -9.0468
  75   2.0000      -0.328265        -8.9325
  76   2.0000      -0.321767        -8.7557
  77   0.0000       0.071456         1.9444
  78   0.0000       0.098432         2.6785
  79   0.0000       0.118585         3.2269
  80   0.0000       0.124404         3.3852
  81   0.0000       0.128318         3.4917

MULLIKEN ATOMIC CHARGES
-----------------------
   0 C :   -0.282224
   1 C :    0.021438
   2 O :   -0.368711
   3 C :    0.481292
   4 O :   -0.397081
   5 C :   -0.314541
   6 C :    0.184421
   7 C :   -0.266413
   8 N :   -0.128512
   9 C :    0.218761
  10 S :   -0.440468
  11 N :   -0.223069
  12 C :    0.073171
  13 C :    0.061269
  14 C :   -0.212689
  15 C :   -0.125455
  16 C :   -0.273792
  17 C :    0.325157
  18 O :   -0.358374
  19 C :   -0.269642
  20 H :    0.106025
  21 H :    0.089513
  22 H :    0.110247
  23 H :    0.119546
  24 H :    0.090550
  25 H :    0.135339
  26 H :    0.094179
  27 H :    0.128262
  28 H :    0.199474
  29 H :    0.200659
  30 H :    0.148668
  31 H :    0.155226
  32 H :    0.163869
  33 H :    0.133590
  34 H :    0.243278
  35 H :    0.177037
Sum of atomic charges:   -0.0000000

LOEWDIN ATOMIC CHARGES
----------------------
   0 C :    0.112249
   1 C :   -0.022673
   2 O :    0.290035
   3 C :   -0.425016
   4 O :    0.120405
   5 C :   -0.103535
   6 C :   -0.050994
   7 C :    0.130378
   8 N :    0.408932
   9 C :   -0.456705
  10 S :   -0.033989
  11 N :    0.394790
  12 C :   -0.053792
  13 C :   -0.035935
  14 C :    0.013255
  15 C :    0.044486
  16 C :    0.001775
  17 C :   -0.189518
  18 O :    0.396337
  19 C :    0.034198
  20 H :   -0.027245
  21 H :   -0.025471
  22 H :   -0.029539
  23 H :   -0.029206
  24 H :   -0.037833
  25 H :   -0.003747
  26 H :   -0.023315
  27 H :   -0.005400
  28 H :   -0.056087
  29 H :   -0.065520
  30 H :   -0.011639
  31 H :   -0.028957
  32 H :   -0.019074
  33 H :   -0.033842
  34 H :   -0.151651
  35 H :   -0.026156

  Mayer bond orders larger than 0.100000
B(  0-C ,  1-C ) :   0.9748 B(  0-C , 20-H ) :   0.9800 B(  0-C , 21-H ) :   0.9763
B(  0-C , 22-H ) :   0.9719 B(  1-C ,  2-O ) :   0.8896 B(  1-C , 23-H ) :   0.9809
B(  1-C , 24-H ) :   0.9679 B(  2-O ,  3-C ) :   1.1059 B(  3-C ,  4-O ) :   2.0481
B(  3-C ,  5-C ) :   1.0512 B(  5-C ,  6-C ) :   1.6222 B(  5-C , 12-C ) :   0.9566
B(  6-C ,  7-C ) :   0.9668 B(  6-C ,  8-N ) :   1.1643 B(  7-C , 25-H ) :   0.9544
B(  7-C , 26-H ) :   0.9887 B(  7-C , 27-H ) :   0.9651 B(  8-N ,  9-C ) :   1.1859
B(  8-N , 28-H ) :   0.9467 B(  9-C , 10-S ) :   1.5999 B(  9-C , 11-N ) :   1.3128
B( 11-N , 12-C ) :   0.9434 B( 11-N , 29-H ) :   0.9470 B( 12-C , 13-C ) :   0.9773
B( 12-C , 30-H ) :   1.0022 B( 13-C , 14-C ) :   1.3558 B( 13-C , 19-C ) :   1.3447
B( 14-C , 15-C ) :   1.3954 B( 14-C , 31-H ) :   0.9738 B( 15-C , 16-C ) :   1.3608
B( 15-C , 32-H ) :   0.9700 B( 16-C , 17-C ) :   1.3371 B( 16-C , 33-H ) :   0.9841
B( 17-C , 18-O ) :   1.1079 B( 17-C , 19-C ) :   1.3526 B( 18-O , 34-H ) :   0.9780
B( 19-C , 35-H ) :   0.9565

MP2 TOTAL ENERGY:    -1274.325800666 Eh
FINAL SINGLE POINT ENERGY     -1274.325800666490

DIPOLE MOMENT
-------------
                                X             Y             Z
Electronic contribution:      8.15934      10.63241       4.02733
Nuclear contribution   :     -9.36505     -11.94657      -3.51053
                        -----------------------------------------
Total Dipole Moment    :     -1.20571      -1.31416       0.51680
                        -----------------------------------------
Magnitude (a.u.)       :      1.85684
Magnitude (Debye)      :      4.71970

Rotational constants in cm-1:     0.012711     0.008536     0.006139
Rotational constants in MHz :   381.065238   255.890517   184.042145

                             ****ORCA TERMINATED NORMALLY****
TOTAL RUN TIME: 0 days 1 hours 50 minutes 23 seconds 42 msec
