                         Program Version 4.2.0 -  RELEASE  -
|  1> ! ri-mp2 cc-pvtz cc-pvtz/c TightSCF NoKeepInts
|  2>
|  3> %scf
|  4>   MaxCore 4096
|  5> end
|  6> *xyz  0  1
|  7>     C       14.5996794   14.8058253   15.1366207
|  8>     C       15.0738960   15.8722148   14.1223484
|  9>     O       15.8263576   16.9360225   14.7491854
| 10>     C       16.7866873   16.7127647   15.6962401
| 11>     O       17.3876358   15.6551918   15.7860652
| 12>     C       17.0191250   17.8544870   16.6467487
| 13>     C       16.8050363   19.1554556   16.3133847
| 14>     C       16.1044371   19.7038413   15.0855885
| 15>     N       17.2859549   20.1871914   17.1239704
| 16>     C       18.1661901   20.0158448   18.1578460
| 17>     S       18.7765162   21.2978912   19.0060805
| 18>     N       18.5321108   18.7243201   18.4389953
| 19>     C       17.9466758   17.5184950   17.8218840
| 20>     C       17.3192419   16.5709942   18.8361185
| 21>     C       17.7224072   15.2252976   18.9057905
| 22>     C       17.1415955   14.3526023   19.8411995
| 23>     C       16.1500359   14.8302299   20.7152845
| 24>     C       15.7450041   16.1704058   20.6465607
| 25>     O       14.7846263   16.6330025   21.4862185
| 26>     C       16.3245743   17.0363993   19.7137927
| 27>     H       15.4223268   14.1577428   15.4619534
| 28>     H       13.8402525   14.1611124   14.6782055
| 29>     H       14.1542996   15.2775337   16.0214401
| 30>     H       15.6967691   15.3818883   13.3624660
| 31>     H       14.2033692   16.3043312   13.6124762
| 32>     H       15.0546580   19.3856840   15.0638256
| 33>     H       16.5877767   19.3449809   14.1682618
| 34>     H       16.1120221   20.7998347   15.0438960
| 35>     H       17.0435966   21.1426805   16.9164517
| 36>     H       19.1651119   18.6227439   19.2222572
| 37>     H       18.8459509   17.0691605   17.3758319
| 38>     H       18.4779598   14.8518202   18.2185282
| 39>     H       17.4569814   13.3115768   19.8811382
| 40>     H       15.6977997   14.1593182   21.4379570
| 41>     H       14.5300817   15.9001356   22.0666146
| 42>     H       16.0002565   18.0709792   19.6767739
| 43> *
| 44>
| 45>                          ****END OF INPUT****

CARTESIAN COORDINATES (ANGSTROEM)
---------------------------------
  C     14.599679   14.805825   15.136621
  C     15.073896   15.872215   14.122348
  O     15.826358   16.936022   14.749185
  C     16.786687   16.712765   15.696240
  O     17.387636   15.655192   15.786065
  C     17.019125   17.854487   16.646749
  C     16.805036   19.155456   16.313385
  C     16.104437   19.703841   15.085588
  N     17.285955   20.187191   17.123970
  C     18.166190   20.015845   18.157846
  S     18.776516   21.297891   19.006080
  N     18.532111   18.724320   18.438995
  C     17.946676   17.518495   17.821884
  C     17.319242   16.570994   18.836119
  C     17.722407   15.225298   18.905790
  C     17.141596   14.352602   19.841199
  C     16.150036   14.830230   20.715284
  C     15.745004   16.170406   20.646561
  O     14.784626   16.633002   21.486218
  C     16.324574   17.036399   19.713793
  H     15.422327   14.157743   15.461953
  H     13.840253   14.161112   14.678206
  H     14.154300   15.277534   16.021440
  H     15.696769   15.381888   13.362466
  H     14.203369   16.304331   13.612476
  H     15.054658   19.385684   15.063826
  H     16.587777   19.344981   14.168262
  H     16.112022   20.799835   15.043896
  H     17.043597   21.142680   16.916452
  H     19.165112   18.622744   19.222257
  H     18.845951   17.069160   17.375832
  H     18.477960   14.851820   18.218528
  H     17.456981   13.311577   19.881138
  H     15.697800   14.159318   21.437957
  H     14.530082   15.900136   22.066615
  H     16.000256   18.070979   19.676774

 Total Charge           Charge          ....    0
 Multiplicity           Mult            ....    1
 Number of Electrons    NEL             ....  154
 Basis Dimension        Dim             ....  828

ORBITAL ENERGIES
----------------

  NO   OCC          E(Eh)            E(eV)
   0   2.0000     -91.887590     -2500.3884
   1   2.0000     -20.599527      -560.5416
   2   2.0000     -20.591923      -560.3347
   3   2.0000     -20.545177      -559.0627
   4   2.0000     -15.627964      -425.2585
   5   2.0000     -15.605357      -424.6434
   6   2.0000     -11.396801      -310.1227
   7   2.0000     -11.382109      -309.7229
   8   2.0000     -11.337480      -308.5085
   9   2.0000     -11.307941      -307.7047
  10   2.0000     -11.304517      -307.6115
  11   2.0000     -11.303831      -307.5929
  12   2.0000     -11.260632      -306.4174
  13   2.0000     -11.258140      -306.3496
  14   2.0000     -11.255070      -306.2660
  15   2.0000     -11.248023      -306.0743
  16   2.0000     -11.238201      -305.8070
  17   2.0000     -11.234293      -305.7007
  18   2.0000     -11.231007      -305.6112
  19   2.0000     -11.225979      -305.4744
  20   2.0000      -8.892678      -241.9821
  21   2.0000      -6.574256      -178.8946
  22   2.0000      -6.572252      -178.8401
  23   2.0000      -6.571666      -178.8241
  24   2.0000      -1.449830       -39.4519
  25   2.0000      -1.411676       -38.4136
  26   2.0000      -1.356143       -36.9025
  27   2.0000      -1.339371       -36.4461
  28   2.0000      -1.236620       -33.6502
  29   2.0000      -1.152404       -31.3585
  30   2.0000      -1.120085       -30.4791
  31   2.0000      -1.042082       -28.3565
  32   2.0000      -1.033308       -28.1177
  33   2.0000      -1.009951       -27.4822
  34   2.0000      -0.998229       -27.1632
  35   2.0000      -0.983105       -26.7517
  36   2.0000      -0.920847       -25.0575
  37   2.0000      -0.896895       -24.4058
  38   2.0000      -0.847495       -23.0615
  39   2.0000      -0.835095       -22.7241
  40   2.0000      -0.828189       -22.5362
  41   2.0000      -0.816403       -22.2155
  42   2.0000      -0.746441       -20.3117
  43   2.0000      -0.733237       -19.9524
  44   2.0000      -0.725832       -19.7509
  45   2.0000      -0.690077       -18.7780
  46   2.0000      -0.685297       -18.6479
  47   2.0000      -0.678198       -18.4547
  48   2.0000      -0.669583       -18.2203
  49   2.0000      -0.658414       -17.9164
  50   2.0000      -0.651204       -17.7202
  51   2.0000      -0.643827       -17.5194
  52   2.0000      -0.630860       -17.1666
  53   2.0000      -0.616653       -16.7800
  54   2.0000      -0.602789       -16.4027
  55   2.0000      -0.598222       -16.2784
  56   2.0000      -0.595232       -16.1971
  57   2.0000      -0.577485       -15.7142
  58   2.0000      -0.573484       -15.6053
  59   2.0000      -0.564412       -15.3584
  60   2.0000      -0.556690       -15.1483
  61   2.0000      -0.545186       -14.8353
  62   2.0000      -0.537856       -14.6358
  63   2.0000      -0.525699       -14.3050
  64   2.0000      -0.515327       -14.0228
  65   2.0000      -0.509364       -13.8605
  66   2.0000      -0.500251       -13.6125
  67   2.0000      -0.493907       -13.4399
  68   2.0000      -0.479560       -13.0495
  69   2.0000      -0.463761       -12.6196
  70   2.0000      -0.457492       -12.4490
  71   2.0000      -0.448949       -12.2165
  72   2.0000      -0.352492        -9.5918
  73   2.0000      -0.344635        -9.3780
  74   2.0000      -0.326711        -8.8903
  75   2.0000      -0.316739        -8.6189
  76   2.0000      -0.314537        -8.5590
  77   0.0000       0.077369         2.1053
  78   0.0000       0.111241         3.0270
  79   0.0000       0.121943         3.3182
  80   0.0000       0.135790         3.6950
  81   0.0000       0.141322         3.8456

MULLIKEN ATOMIC CHARGES
-----------------------
   0 C :   -0.313586
   1 C :    0.048490
   2 O :   -0.356609
   3 C :    0.436798
   4 O :   -0.425504
   5 C :   -0.173822
   6 C :    0.155697
   7 C :   -0.279350
   8 N :   -0.128120
   9 C :    0.207994
  10 S :   -0.443104
  11 N :   -0.211074
  12 C :    0.042546
  13 C :    0.033548
  14 C :   -0.171708
  15 C :   -0.133972
  16 C :   -0.277272
  17 C :    0.314552
  18 O :   -0.358946
  19 C :   -0.253106
  20 H :    0.129776
  21 H :    0.097760
  22 H :    0.098221
  23 H :    0.096387
  24 H :    0.103234
  25 H :    0.127739
  26 H :    0.125942
  27 H :    0.101068
  28 H :    0.198693
  29 H :    0.199855
  30 H :    0.155912
  31 H :    0.159945
  32 H :    0.160030
  33 H :    0.128290
  34 H :    0.239927
  35 H :    0.163770
Sum of atomic charges:   -0.0000000

LOEWDIN ATOMIC CHARGES
----------------------
   0 C :    0.105614
   1 C :   -0.012076
   2 O :    0.296754
   3 C :   -0.414481
   4 O :    0.108300
   5 C :   -0.091659
   6 C :   -0.064195
   7 C :    0.124975
   8 N :    0.405366
   9 C :   -0.458637
  10 S :   -0.038234
  11 N :    0.396534
  12 C :   -0.048267
  13 C :   -0.040570
  14 C :    0.024590
  15 C :    0.040559
  16 C :   -0.001251
  17 C :   -0.192657
  18 O :    0.393104
  19 C :    0.029544
  20 H :   -0.024410
  21 H :   -0.026724
  22 H :   -0.027334
  23 H :   -0.029104
  24 H :   -0.025157
  25 H :   -0.009645
  26 H :   -0.009053
  27 H :   -0.021531
  28 H :   -0.058841
  29 H :   -0.063196
  30 H :   -0.008391
  31 H :   -0.023999
  32 H :   -0.021113
  33 H :   -0.036174
  34 H :   -0.154873
  35 H :   -0.023768

  Mayer bond orders larger than 0.100000
B(  0-C ,  1-C ) :   0.9604 B(  0-C , 20-H ) :   0.9717 B(  0-C , 21-H ) :   0.9762
B(  0-C , 22-H ) :   0.9745 B(  1-C ,  2-O ) :   0.9039 B(  1-C , 23-H ) :   0.9823
B(  1-C , 24-H ) :   0.9832 B(  2-O ,  3-C ) :   1.1316 B(  3-C ,  4-O ) :   1.9799
B(  3-C ,  5-C ) :   1.0391 B(  5-C ,  6-C ) :   1.6556 B(  5-C , 12-C ) :   0.9500
B(  6-C ,  7-C ) :   0.9555 B(  6-C ,  8-N ) :   1.1382 B(  7-C , 25-H ) :   0.9638
B(  7-C , 26-H ) :   0.9648 B(  7-C , 27-H ) :   0.9910 B(  8-N ,  9-C ) :   1.1854
B(  8-N , 28-H ) :   0.9470 B(  9-C , 10-S ) :   1.6076 B(  9-C , 11-N ) :   1.3062
B( 11-N , 12-C ) :   0.9771 B( 11-N , 29-H ) :   0.9485 B( 12-C , 13-C ) :   0.9722
B( 12-C , 30-H ) :   0.9972 B( 13-C , 14-C ) :   1.3765 B( 13-C , 19-C ) :   1.3656
B( 14-C , 15-C ) :   1.3967 B( 14-C , 31-H ) :   0.9633 B( 15-C , 16-C ) :   1.3588
B( 15-C , 32-H ) :   0.9711 B( 16-C , 17-C ) :   1.3334 B( 16-C , 33-H ) :   0.9859
B( 17-C , 18-O ) :   1.1036 B( 17-C , 19-C ) :   1.3669 B( 18-O , 34-H ) :   0.9806
B( 19-C , 35-H ) :   0.9600

MP2 TOTAL ENERGY:    -1274.336352937 Eh
FINAL SINGLE POINT ENERGY     -1274.336352936849

DIPOLE MOMENT
-------------
                                X             Y             Z
Electronic contribution:      9.38759      10.25655       9.94647
Nuclear contribution   :    -10.85965     -11.54149     -11.07974
                        -----------------------------------------
Total Dipole Moment    :     -1.47206      -1.28494      -1.13326
                        -----------------------------------------
Magnitude (a.u.)       :      2.25883
Magnitude (Debye)      :      5.74150

Rotational constants in cm-1:     0.010218     0.009258     0.005725
Rotational constants in MHz :   306.313436   277.544708   171.624388

                             ****ORCA TERMINATED NORMALLY****
TOTAL RUN TIME: 0 days 1 hours 37 minutes 8 seconds 48 msec
