                         Program Version 4.2.0 -  RELEASE  -
|  1> ! ri-mp2 cc-pvtz cc-pvtz/c TightSCF NoKeepInts
|  2>
|  3> %scf
|  4>   MaxCore 4096
|  5> end
|  6> *xyz  0  1
|  7>     C       14.3947584   15.2223895   15.6370688
|  8>     C       15.8733884   14.7913575   15.5045643
|  9>     O       16.8152029   15.8872293   15.5974498
| 10>     C       16.4815928   17.1996444   15.4031701
| 11>     O       15.8079270   17.5639668   14.4551709
| 12>     C       17.0079782   18.0984381   16.4894501
| 13>     C       17.0294221   19.4468269   16.3330715
| 14>     C       16.3517744   20.2524095   15.2440260
| 15>     N       17.7374449   20.2625033   17.2186638
| 16>     C       18.5911383   19.8002858   18.1835180
| 17>     S       19.4645357   20.8248917   19.1443331
| 18>     N       18.7010000   18.4377657   18.3008789
| 19>     C       17.8950150   17.4468181   17.5633827
| 20>     C       17.1469691   16.4947247   18.4877722
| 21>     C       17.6040714   15.1774667   18.6767229
| 22>     C       16.9060540   14.2936556   19.5168271
| 23>     C       15.7436759   14.7320091   20.1741953
| 24>     C       15.2900179   16.0457890   19.9918063
| 25>     O       14.1679175   16.4714388   20.6245602
| 26>     C       15.9870264   16.9231542   19.1553849
| 27>     H       14.2447103   15.8447141   16.5284277
| 28>     H       13.7531161   14.3384218   15.7335636
| 29>     H       14.0552910   15.7772252   14.7538517
| 30>     H       16.1076501   14.0570811   16.2861115
| 31>     H       16.0013802   14.2924023   14.5351857
| 32>     H       16.7851942   20.0180354   14.2633252
| 33>     H       16.4362120   21.3352158   15.3933992
| 34>     H       15.2820521   20.0115714   15.1948973
| 35>     H       17.6823923   21.2645002   17.1293350
| 36>     H       19.3135358   18.1275975   19.0444525
| 37>     H       18.6836699   16.9124723   17.0147035
| 38>     H       18.4994767   14.8363223   18.1637833
| 39>     H       17.2660511   13.2757741   19.6569003
| 40>     H       15.2011445   14.0533700   20.8242468
| 41>     H       13.8543834   15.7448332   21.1838253
| 42>     H       15.6238299   17.9376984   19.0299743
| 43> *
| 44>
| 45>                          ****END OF INPUT****

CARTESIAN COORDINATES (ANGSTROEM)
---------------------------------
  C     14.394758   15.222389   15.637069
  C     15.873388   14.791358   15.504564
  O     16.815203   15.887229   15.597450
  C     16.481593   17.199644   15.403170
  O     15.807927   17.563967   14.455171
  C     17.007978   18.098438   16.489450
  C     17.029422   19.446827   16.333071
  C     16.351774   20.252409   15.244026
  N     17.737445   20.262503   17.218664
  C     18.591138   19.800286   18.183518
  S     19.464536   20.824892   19.144333
  N     18.701000   18.437766   18.300879
  C     17.895015   17.446818   17.563383
  C     17.146969   16.494725   18.487772
  C     17.604071   15.177467   18.676723
  C     16.906054   14.293656   19.516827
  C     15.743676   14.732009   20.174195
  C     15.290018   16.045789   19.991806
  O     14.167917   16.471439   20.624560
  C     15.987026   16.923154   19.155385
  H     14.244710   15.844714   16.528428
  H     13.753116   14.338422   15.733564
  H     14.055291   15.777225   14.753852
  H     16.107650   14.057081   16.286112
  H     16.001380   14.292402   14.535186
  H     16.785194   20.018035   14.263325
  H     16.436212   21.335216   15.393399
  H     15.282052   20.011571   15.194897
  H     17.682392   21.264500   17.129335
  H     19.313536   18.127598   19.044452
  H     18.683670   16.912472   17.014703
  H     18.499477   14.836322   18.163783
  H     17.266051   13.275774   19.656900
  H     15.201144   14.053370   20.824247
  H     13.854383   15.744833   21.183825
  H     15.623830   17.937698   19.029974

 Total Charge           Charge          ....    0
 Multiplicity           Mult            ....    1
 Number of Electrons    NEL             ....  154
 Basis Dimension        Dim             ....  828

ORBITAL ENERGIES
----------------

  NO   OCC          E(Eh)            E(eV)
   0   2.0000     -91.889208     -2500.4325
   1   2.0000     -20.599809      -560.5493
   2   2.0000     -20.588401      -560.2389
   3   2.0000     -20.541745      -558.9693
   4   2.0000     -15.629572      -425.3023
   5   2.0000     -15.607387      -424.6986
   6   2.0000     -11.394009      -310.0467
   7   2.0000     -11.383962      -309.7734
   8   2.0000     -11.337300      -308.5036
   9   2.0000     -11.317244      -307.9579
  10   2.0000     -11.307834      -307.7018
  11   2.0000     -11.299523      -307.4757
  12   2.0000     -11.263812      -306.5039
  13   2.0000     -11.258782      -306.3670
  14   2.0000     -11.257927      -306.3438
  15   2.0000     -11.251857      -306.1786
  16   2.0000     -11.246897      -306.0436
  17   2.0000     -11.241803      -305.9050
  18   2.0000     -11.241753      -305.9036
  19   2.0000     -11.224062      -305.4223
  20   2.0000      -8.894276      -242.0256
  21   2.0000      -6.575848      -178.9379
  22   2.0000      -6.573851      -178.8836
  23   2.0000      -6.573260      -178.8675
  24   2.0000      -1.442928       -39.2641
  25   2.0000      -1.419490       -38.6263
  26   2.0000      -1.350889       -36.7596
  27   2.0000      -1.340551       -36.4782
  28   2.0000      -1.238602       -33.7041
  29   2.0000      -1.160513       -31.5792
  30   2.0000      -1.121349       -30.5135
  31   2.0000      -1.044786       -28.4301
  32   2.0000      -1.033033       -28.1102
  33   2.0000      -1.018389       -27.7118
  34   2.0000      -0.997116       -27.1329
  35   2.0000      -0.985267       -26.8105
  36   2.0000      -0.922939       -25.1144
  37   2.0000      -0.896983       -24.4081
  38   2.0000      -0.847553       -23.0631
  39   2.0000      -0.840553       -22.8726
  40   2.0000      -0.837152       -22.7801
  41   2.0000      -0.817645       -22.2492
  42   2.0000      -0.744615       -20.2620
  43   2.0000      -0.734600       -19.9895
  44   2.0000      -0.720165       -19.5967
  45   2.0000      -0.698196       -18.9989
  46   2.0000      -0.688798       -18.7431
  47   2.0000      -0.674509       -18.3543
  48   2.0000      -0.672439       -18.2980
  49   2.0000      -0.658528       -17.9195
  50   2.0000      -0.649709       -17.6795
  51   2.0000      -0.641467       -17.4552
  52   2.0000      -0.635584       -17.2951
  53   2.0000      -0.620969       -16.8974
  54   2.0000      -0.609907       -16.5964
  55   2.0000      -0.602850       -16.4044
  56   2.0000      -0.600952       -16.3527
  57   2.0000      -0.579683       -15.7740
  58   2.0000      -0.570565       -15.5259
  59   2.0000      -0.566169       -15.4062
  60   2.0000      -0.551592       -15.0096
  61   2.0000      -0.542960       -14.7747
  62   2.0000      -0.534919       -14.5559
  63   2.0000      -0.526757       -14.3338
  64   2.0000      -0.522697       -14.2233
  65   2.0000      -0.514089       -13.9891
  66   2.0000      -0.501058       -13.6345
  67   2.0000      -0.495786       -13.4910
  68   2.0000      -0.486920       -13.2498
  69   2.0000      -0.463249       -12.6056
  70   2.0000      -0.454420       -12.3654
  71   2.0000      -0.441583       -12.0161
  72   2.0000      -0.353955        -9.6316
  73   2.0000      -0.351723        -9.5709
  74   2.0000      -0.328841        -8.9482
  75   2.0000      -0.324505        -8.8302
  76   2.0000      -0.318549        -8.6682
  77   0.0000       0.075059         2.0425
  78   0.0000       0.100948         2.7469
  79   0.0000       0.123676         3.3654
  80   0.0000       0.131323         3.5735
  81   0.0000       0.134446         3.6585

MULLIKEN ATOMIC CHARGES
-----------------------
   0 C :   -0.319195
   1 C :    0.043346
   2 O :   -0.377779
   3 C :    0.470278
   4 O :   -0.427628
   5 C :   -0.267543
   6 C :    0.179995
   7 C :   -0.267910
   8 N :   -0.125625
   9 C :    0.213272
  10 S :   -0.441960
  11 N :   -0.218033
  12 C :    0.078724
  13 C :    0.048368
  14 C :   -0.199737
  15 C :   -0.125429
  16 C :   -0.278689
  17 C :    0.324208
  18 O :   -0.357681
  19 C :   -0.267111
  20 H :    0.101972
  21 H :    0.101237
  22 H :    0.126364
  23 H :    0.105578
  24 H :    0.111297
  25 H :    0.130460
  26 H :    0.094710
  27 H :    0.132731
  28 H :    0.199271
  29 H :    0.200591
  30 H :    0.151832
  31 H :    0.155688
  32 H :    0.164681
  33 H :    0.132246
  34 H :    0.241264
  35 H :    0.166207
Sum of atomic charges:    0.0000000

LOEWDIN ATOMIC CHARGES
----------------------
   0 C :    0.105016
   1 C :   -0.011234
   2 O :    0.293009
   3 C :   -0.417557
   4 O :    0.105830
   5 C :   -0.098482
   6 C :   -0.056288
   7 C :    0.131449
   8 N :    0.407326
   9 C :   -0.455488
  10 S :   -0.036506
  11 N :    0.394167
  12 C :   -0.054336
  13 C :   -0.038474
  14 C :    0.017930
  15 C :    0.039407
  16 C :   -0.001223
  17 C :   -0.190062
  18 O :    0.395762
  19 C :    0.032841
  20 H :   -0.028355
  21 H :   -0.025360
  22 H :   -0.025106
  23 H :   -0.027607
  24 H :   -0.028737
  25 H :   -0.004457
  26 H :   -0.023647
  27 H :   -0.004590
  28 H :   -0.057114
  29 H :   -0.064892
  30 H :   -0.012824
  31 H :   -0.028331
  32 H :   -0.020697
  33 H :   -0.034935
  34 H :   -0.153303
  35 H :   -0.023128

  Mayer bond orders larger than 0.100000
B(  0-C ,  1-C ) :   0.9605 B(  0-C , 20-H ) :   0.9724 B(  0-C , 21-H ) :   0.9762
B(  0-C , 22-H ) :   0.9724 B(  1-C ,  2-O ) :   0.8921 B(  1-C , 23-H ) :   0.9760
B(  1-C , 24-H ) :   0.9856 B(  2-O ,  3-C ) :   1.1245 B(  3-C ,  4-O ) :   1.9820
B(  3-C ,  5-C ) :   1.0605 B(  5-C ,  6-C ) :   1.6317 B(  5-C , 12-C ) :   0.9542
B(  6-C ,  7-C ) :   0.9650 B(  6-C ,  8-N ) :   1.1599 B(  7-C , 25-H ) :   0.9587
B(  7-C , 26-H ) :   0.9899 B(  7-C , 27-H ) :   0.9617 B(  8-N ,  9-C ) :   1.1859
B(  8-N , 28-H ) :   0.9466 B(  9-C , 10-S ) :   1.6044 B(  9-C , 11-N ) :   1.3105
B( 11-N , 12-C ) :   0.9667 B( 11-N , 29-H ) :   0.9486 B( 12-C , 13-C ) :   0.9625
B( 12-C , 30-H ) :   0.9996 B( 13-C , 14-C ) :   1.3461 B( 13-C , 19-C ) :   1.3727
B( 14-C , 15-C ) :   1.3883 B( 14-C , 31-H ) :   0.9723 B( 15-C , 16-C ) :   1.3596
B( 15-C , 32-H ) :   0.9696 B( 16-C , 17-C ) :   1.3333 B( 16-C , 33-H ) :   0.9843
B( 17-C , 18-O ) :   1.1043 B( 17-C , 19-C ) :   1.3598 B( 18-O , 34-H ) :   0.9793
B( 19-C , 35-H ) :   0.9603

MP2 TOTAL ENERGY:    -1274.333582076 Eh
FINAL SINGLE POINT ENERGY     -1274.333582076273

DIPOLE MOMENT
-------------
                                X             Y             Z
Electronic contribution:      9.65189       9.57588       7.05206
Nuclear contribution   :    -10.66613     -11.32434      -7.16395
                        -----------------------------------------
Total Dipole Moment    :     -1.01424      -1.74846      -0.11189
                        -----------------------------------------
Magnitude (a.u.)       :      2.02443
Magnitude (Debye)      :      5.14570

Rotational constants in cm-1:     0.012390     0.008555     0.006155
Rotational constants in MHz :   371.445344   256.484183   184.534416

                             ****ORCA TERMINATED NORMALLY****
TOTAL RUN TIME: 0 days 1 hours 57 minutes 4 seconds 294 msec
