                         Program Version 4.2.0 -  RELEASE  -
|  1> ! ri-mp2 cc-pvtz cc-pvtz/c TightSCF NoKeepInts
|  2>
|  3> %scf
|  4>   MaxCore 4096
|  5> end
|  6> *xyz  0  1
|  7>     C       14.6251258   15.2463220   15.8876796
|  8>     C       15.0673543   15.7847677   14.5064644
|  9>     O       16.0523446   16.8329328   14.6314860
| 10>     C       17.0608045   16.7218753   15.5424710
| 11>     O       17.7388174   15.7120224   15.6317079
| 12>     C       17.1392544   17.8495459   16.5282200
| 13>     C       16.8629183   19.1358911   16.1918724
| 14>     C       16.2442544   19.6435285   14.9047112
| 15>     N       17.1971348   20.1841222   17.0528981
| 16>     C       17.9897331   20.0522736   18.1615975
| 17>     S       18.4277139   21.3557835   19.0805406
| 18>     N       18.4187061   18.7830895   18.4590270
| 19>     C       17.9820729   17.5517681   17.7722161
| 20>     C       17.3268489   16.5384726   18.7010731
| 21>     C       17.8068717   15.2185913   18.7748102
| 22>     C       17.1910900   14.2804740   19.6200992
| 23>     C       16.0856790   14.6657994   20.3978596
| 24>     C       15.6034159   15.9798216   20.3236629
| 25>     O       14.5315848   16.3525435   21.0675415
| 26>     C       16.2182495   16.9111706   19.4808790
| 27>     H       15.4314671   14.6907532   16.3836163
| 28>     H       13.7770548   14.5606942   15.7724663
| 29>     H       14.3108925   16.0660019   16.5460289
| 30>     H       15.4907012   14.9549908   13.9246933
| 31>     H       14.1960128   16.1682975   13.9603974
| 32>     H       15.2037008   19.3074435   14.8159714
| 33>     H       16.7956255   19.2699217   14.0325841
| 34>     H       16.2424645   20.7382423   14.8366714
| 35>     H       16.9086204   21.1245868   16.8355212
| 36>     H       18.9847269   18.7107272   19.2950658
| 37>     H       18.9462799   17.1742420   17.4014187
| 38>     H       18.6502969   14.9155125   18.1586428
| 39>     H       17.5677392   13.2601094   19.6642538
| 40>     H       15.6059070   13.9438516   21.0502493
| 41>     H       14.2741305   15.5900623   21.6072361
| 42>     H       15.8314057   17.9237674   19.4363659
| 43> *
| 44>
| 45>                          ****END OF INPUT****

CARTESIAN COORDINATES (ANGSTROEM)
---------------------------------
  C     14.625126   15.246322   15.887680
  C     15.067354   15.784768   14.506464
  O     16.052345   16.832933   14.631486
  C     17.060804   16.721875   15.542471
  O     17.738817   15.712022   15.631708
  C     17.139254   17.849546   16.528220
  C     16.862918   19.135891   16.191872
  C     16.244254   19.643528   14.904711
  N     17.197135   20.184122   17.052898
  C     17.989733   20.052274   18.161597
  S     18.427714   21.355783   19.080541
  N     18.418706   18.783089   18.459027
  C     17.982073   17.551768   17.772216
  C     17.326849   16.538473   18.701073
  C     17.806872   15.218591   18.774810
  C     17.191090   14.280474   19.620099
  C     16.085679   14.665799   20.397860
  C     15.603416   15.979822   20.323663
  O     14.531585   16.352543   21.067542
  C     16.218249   16.911171   19.480879
  H     15.431467   14.690753   16.383616
  H     13.777055   14.560694   15.772466
  H     14.310892   16.066002   16.546029
  H     15.490701   14.954991   13.924693
  H     14.196013   16.168298   13.960397
  H     15.203701   19.307444   14.815971
  H     16.795625   19.269922   14.032584
  H     16.242465   20.738242   14.836671
  H     16.908620   21.124587   16.835521
  H     18.984727   18.710727   19.295066
  H     18.946280   17.174242   17.401419
  H     18.650297   14.915512   18.158643
  H     17.567739   13.260109   19.664254
  H     15.605907   13.943852   21.050249
  H     14.274130   15.590062   21.607236
  H     15.831406   17.923767   19.436366

 Total Charge           Charge          ....    0
 Multiplicity           Mult            ....    1
 Number of Electrons    NEL             ....  154
 Basis Dimension        Dim             ....  828

ORBITAL ENERGIES
----------------

  NO   OCC          E(Eh)            E(eV)
   0   2.0000     -91.888700     -2500.4186
   1   2.0000     -20.594385      -560.4017
   2   2.0000     -20.590436      -560.2942
   3   2.0000     -20.548698      -559.1585
   4   2.0000     -15.629099      -425.2894
   5   2.0000     -15.606599      -424.6772
   6   2.0000     -11.394640      -310.0639
   7   2.0000     -11.383528      -309.7616
   8   2.0000     -11.337644      -308.5130
   9   2.0000     -11.310618      -307.7776
  10   2.0000     -11.305094      -307.6272
  11   2.0000     -11.303531      -307.5847
  12   2.0000     -11.259424      -306.3845
  13   2.0000     -11.259181      -306.3779
  14   2.0000     -11.257406      -306.3296
  15   2.0000     -11.250704      -306.1472
  16   2.0000     -11.240804      -305.8778
  17   2.0000     -11.236711      -305.7665
  18   2.0000     -11.233480      -305.6785
  19   2.0000     -11.227383      -305.5126
  20   2.0000      -8.893779      -242.0120
  21   2.0000      -6.575355      -178.9245
  22   2.0000      -6.573353      -178.8700
  23   2.0000      -6.572764      -178.8540
  24   2.0000      -1.449706       -39.4485
  25   2.0000      -1.414152       -38.4810
  26   2.0000      -1.355496       -36.8849
  27   2.0000      -1.340186       -36.4683
  28   2.0000      -1.237539       -33.6751
  29   2.0000      -1.154990       -31.4289
  30   2.0000      -1.121726       -30.5237
  31   2.0000      -1.043475       -28.3944
  32   2.0000      -1.031713       -28.0743
  33   2.0000      -1.012448       -27.5501
  34   2.0000      -1.000116       -27.2146
  35   2.0000      -0.985330       -26.8122
  36   2.0000      -0.922418       -25.1003
  37   2.0000      -0.896589       -24.3974
  38   2.0000      -0.848299       -23.0834
  39   2.0000      -0.837024       -22.7766
  40   2.0000      -0.830757       -22.6061
  41   2.0000      -0.816990       -22.2314
  42   2.0000      -0.746669       -20.3179
  43   2.0000      -0.733901       -19.9705
  44   2.0000      -0.727600       -19.7990
  45   2.0000      -0.692219       -18.8362
  46   2.0000      -0.686225       -18.6731
  47   2.0000      -0.677619       -18.4390
  48   2.0000      -0.670401       -18.2425
  49   2.0000      -0.660260       -17.9666
  50   2.0000      -0.652811       -17.7639
  51   2.0000      -0.645949       -17.5772
  52   2.0000      -0.633311       -17.2333
  53   2.0000      -0.618212       -16.8224
  54   2.0000      -0.604434       -16.4475
  55   2.0000      -0.600384       -16.3373
  56   2.0000      -0.597753       -16.2657
  57   2.0000      -0.578485       -15.7414
  58   2.0000      -0.574798       -15.6411
  59   2.0000      -0.563361       -15.3298
  60   2.0000      -0.552929       -15.0460
  61   2.0000      -0.547792       -14.9062
  62   2.0000      -0.536145       -14.5893
  63   2.0000      -0.532241       -14.4830
  64   2.0000      -0.518409       -14.1066
  65   2.0000      -0.510123       -13.8811
  66   2.0000      -0.498157       -13.5555
  67   2.0000      -0.493970       -13.4416
  68   2.0000      -0.480946       -13.0872
  69   2.0000      -0.464134       -12.6297
  70   2.0000      -0.457724       -12.4553
  71   2.0000      -0.449568       -12.2334
  72   2.0000      -0.353329        -9.6146
  73   2.0000      -0.346976        -9.4417
  74   2.0000      -0.327797        -8.9198
  75   2.0000      -0.317944        -8.6517
  76   2.0000      -0.317278        -8.6336
  77   0.0000       0.074651         2.0313
  78   0.0000       0.107340         2.9209
  79   0.0000       0.120184         3.2704
  80   0.0000       0.133562         3.6344
  81   0.0000       0.140580         3.8254

MULLIKEN ATOMIC CHARGES
-----------------------
   0 C :   -0.327791
   1 C :    0.050625
   2 O :   -0.376239
   3 C :    0.446839
   4 O :   -0.410646
   5 C :   -0.184860
   6 C :    0.152393
   7 C :   -0.279776
   8 N :   -0.127756
   9 C :    0.208347
  10 S :   -0.441407
  11 N :   -0.212130
  12 C :    0.049217
  13 C :    0.030528
  14 C :   -0.181059
  15 C :   -0.132874
  16 C :   -0.278172
  17 C :    0.316334
  18 O :   -0.358743
  19 C :   -0.255072
  20 H :    0.128092
  21 H :    0.106938
  22 H :    0.100229
  23 H :    0.103256
  24 H :    0.103978
  25 H :    0.125445
  26 H :    0.127763
  27 H :    0.101878
  28 H :    0.198683
  29 H :    0.199446
  30 H :    0.156097
  31 H :    0.162776
  32 H :    0.161771
  33 H :    0.129747
  34 H :    0.240360
  35 H :    0.165782
Sum of atomic charges:   -0.0000000

LOEWDIN ATOMIC CHARGES
----------------------
   0 C :    0.105641
   1 C :   -0.014623
   2 O :    0.292070
   3 C :   -0.419033
   4 O :    0.114496
   5 C :   -0.094513
   6 C :   -0.066380
   7 C :    0.126256
   8 N :    0.405477
   9 C :   -0.457546
  10 S :   -0.037102
  11 N :    0.396131
  12 C :   -0.048193
  13 C :   -0.041254
  14 C :    0.024119
  15 C :    0.040677
  16 C :   -0.001141
  17 C :   -0.192842
  18 O :    0.393525
  19 C :    0.030141
  20 H :   -0.022648
  21 H :   -0.024787
  22 H :   -0.028762
  23 H :   -0.028129
  24 H :   -0.025432
  25 H :   -0.009847
  26 H :   -0.007777
  27 H :   -0.020917
  28 H :   -0.058504
  29 H :   -0.063558
  30 H :   -0.007536
  31 H :   -0.023497
  32 H :   -0.020570
  33 H :   -0.035760
  34 H :   -0.154428
  35 H :   -0.023757

  Mayer bond orders larger than 0.100000
B(  0-C ,  1-C ) :   0.9562 B(  0-C , 20-H ) :   0.9686 B(  0-C , 21-H ) :   0.9763
B(  0-C , 22-H ) :   0.9730 B(  1-C ,  2-O ) :   0.9038 B(  1-C , 23-H ) :   0.9843
B(  1-C , 24-H ) :   0.9824 B(  2-O ,  3-C ) :   1.0806 B(  3-C ,  4-O ) :   2.0144
B(  3-C ,  5-C ) :   1.0296 B(  5-C ,  6-C ) :   1.6620 B(  5-C , 12-C ) :   0.9479
B(  6-C ,  7-C ) :   0.9550 B(  6-C ,  8-N ) :   1.1395 B(  7-C , 25-H ) :   0.9642
B(  7-C , 26-H ) :   0.9654 B(  7-C , 27-H ) :   0.9901 B(  8-N ,  9-C ) :   1.1851
B(  8-N , 28-H ) :   0.9471 B(  9-C , 10-S ) :   1.6102 B(  9-C , 11-N ) :   1.3038
B( 11-N , 12-C ) :   0.9792 B( 11-N , 29-H ) :   0.9486 B( 12-C , 13-C ) :   0.9666
B( 12-C , 30-H ) :   0.9957 B( 13-C , 14-C ) :   1.3784 B( 13-C , 19-C ) :   1.3634
B( 14-C , 15-C ) :   1.3947 B( 14-C , 31-H ) :   0.9625 B( 15-C , 16-C ) :   1.3597
B( 15-C , 32-H ) :   0.9706 B( 16-C , 17-C ) :   1.3325 B( 16-C , 33-H ) :   0.9854
B( 17-C , 18-O ) :   1.1049 B( 17-C , 19-C ) :   1.3646 B( 18-O , 34-H ) :   0.9803
B( 19-C , 35-H ) :   0.9598

MP2 TOTAL ENERGY:    -1274.331853138 Eh
FINAL SINGLE POINT ENERGY     -1274.331853137884

DIPOLE MOMENT
-------------
                                X             Y             Z
Electronic contribution:      9.19694       9.55798       7.86487
Nuclear contribution   :    -10.64048     -10.85769      -8.74636
                        -----------------------------------------
Total Dipole Moment    :     -1.44354      -1.29971      -0.88149
                        -----------------------------------------
Magnitude (a.u.)       :      2.13309
Magnitude (Debye)      :      5.42188

Rotational constants in cm-1:     0.011137     0.009218     0.006116
Rotational constants in MHz :   333.873717   276.342997   183.354373

                             ****ORCA TERMINATED NORMALLY****
TOTAL RUN TIME: 0 days 1 hours 41 minutes 6 seconds 561 msec
