                         Program Version 4.2.0 -  RELEASE  -
|  1> ! ri-mp2 cc-pvtz cc-pvtz/c TightSCF NoKeepInts
|  2>
|  3> %scf
|  4>   MaxCore 4096
|  5> end
|  6> *xyz  0  1
|  7>     C       14.5402903   14.8141875   13.9795035
|  8>     C       14.6503770   15.7822752   15.1694854
|  9>     O       15.7892946   16.6265869   14.9373162
| 10>     C       16.8372268   16.5119663   15.7985611
| 11>     O       17.3997187   15.4459307   15.9801181
| 12>     C       17.0854987   17.7217993   16.6517675
| 13>     C       16.8977338   18.9868107   16.1925878
| 14>     C       16.2239817   19.4160443   14.9041383
| 15>     N       17.3940523   20.0834689   16.9018267
| 16>     C       18.2718458   19.9952217   17.9485981
| 17>     S       18.9044522   21.3409191   18.6725600
| 18>     N       18.6163629   18.7296179   18.3510656
| 19>     C       18.0069347   17.4809210   17.8533346
| 20>     C       17.3624662   16.6443294   18.9506881
| 21>     C       17.7275538   15.2985572   19.1343372
| 22>     C       17.1306140   14.5277042   20.1459481
| 23>     C       16.1609652   15.1080650   20.9816072
| 24>     C       15.7935423   16.4483773   20.7991068
| 25>     O       14.8537291   17.0097966   21.6008216
| 26>     C       16.3887353   17.2127412   19.7903960
| 27>     H       15.4383506   14.1866985   13.9117435
| 28>     H       14.4318998   15.3663900   13.0378278
| 29>     H       13.6707235   14.1562126   14.0962613
| 30>     H       13.7409774   16.3937294   15.2308724
| 31>     H       14.7512754   15.2173756   16.1073861
| 32>     H       16.6733006   18.9091182   14.0406772
| 33>     H       16.3069038   20.4940490   14.7193245
| 34>     H       15.1554829   19.1684610   14.9228834
| 35>     H       17.1696325   21.0189218   16.6024960
| 36>     H       19.2503187   18.6921665   19.1393548
| 37>     H       18.8968526   16.9742215   17.4519857
| 38>     H       18.4664515   14.8449170   18.4776787
| 39>     H       17.4171037   13.4854195   20.2745969
| 40>     H       15.6966727   14.5158551   21.7631079
| 41>     H       14.5917839   16.3417631   22.2520257
| 42>     H       16.0938951   18.2493806   19.6660101
| 43> *
| 44>
| 45>                          ****END OF INPUT****

CARTESIAN COORDINATES (ANGSTROEM)
---------------------------------
  C     14.540290   14.814187   13.979503
  C     14.650377   15.782275   15.169485
  O     15.789295   16.626587   14.937316
  C     16.837227   16.511966   15.798561
  O     17.399719   15.445931   15.980118
  C     17.085499   17.721799   16.651767
  C     16.897734   18.986811   16.192588
  C     16.223982   19.416044   14.904138
  N     17.394052   20.083469   16.901827
  C     18.271846   19.995222   17.948598
  S     18.904452   21.340919   18.672560
  N     18.616363   18.729618   18.351066
  C     18.006935   17.480921   17.853335
  C     17.362466   16.644329   18.950688
  C     17.727554   15.298557   19.134337
  C     17.130614   14.527704   20.145948
  C     16.160965   15.108065   20.981607
  C     15.793542   16.448377   20.799107
  O     14.853729   17.009797   21.600822
  C     16.388735   17.212741   19.790396
  H     15.438351   14.186698   13.911743
  H     14.431900   15.366390   13.037828
  H     13.670723   14.156213   14.096261
  H     13.740977   16.393729   15.230872
  H     14.751275   15.217376   16.107386
  H     16.673301   18.909118   14.040677
  H     16.306904   20.494049   14.719325
  H     15.155483   19.168461   14.922883
  H     17.169632   21.018922   16.602496
  H     19.250319   18.692166   19.139355
  H     18.896853   16.974221   17.451986
  H     18.466452   14.844917   18.477679
  H     17.417104   13.485420   20.274597
  H     15.696673   14.515855   21.763108
  H     14.591784   16.341763   22.252026
  H     16.093895   18.249381   19.666010

 Total Charge           Charge          ....    0
 Multiplicity           Mult            ....    1
 Number of Electrons    NEL             ....  154
 Basis Dimension        Dim             ....  828

ORBITAL ENERGIES
----------------

  NO   OCC          E(Eh)            E(eV)
   0   2.0000     -91.889213     -2500.4326
   1   2.0000     -20.593544      -560.3788
   2   2.0000     -20.590158      -560.2867
   3   2.0000     -20.550992      -559.2209
   4   2.0000     -15.630112      -425.3170
   5   2.0000     -15.606772      -424.6819
   6   2.0000     -11.394799      -310.0682
   7   2.0000     -11.383878      -309.7711
   8   2.0000     -11.339468      -308.5626
   9   2.0000     -11.309690      -307.7523
  10   2.0000     -11.305077      -307.6268
  11   2.0000     -11.302940      -307.5686
  12   2.0000     -11.260540      -306.4149
  13   2.0000     -11.260245      -306.4068
  14   2.0000     -11.256917      -306.3163
  15   2.0000     -11.249719      -306.1204
  16   2.0000     -11.239872      -305.8525
  17   2.0000     -11.236034      -305.7480
  18   2.0000     -11.232681      -305.6568
  19   2.0000     -11.226096      -305.4776
  20   2.0000      -8.894288      -242.0259
  21   2.0000      -6.575862      -178.9383
  22   2.0000      -6.573861      -178.8839
  23   2.0000      -6.573270      -178.8678
  24   2.0000      -1.453776       -39.5593
  25   2.0000      -1.413292       -38.4576
  26   2.0000      -1.358362       -36.9629
  27   2.0000      -1.341078       -36.4926
  28   2.0000      -1.238115       -33.6908
  29   2.0000      -1.154211       -31.4077
  30   2.0000      -1.122034       -30.5321
  31   2.0000      -1.043804       -28.4033
  32   2.0000      -1.034658       -28.1545
  33   2.0000      -1.011747       -27.5310
  34   2.0000      -0.999935       -27.2096
  35   2.0000      -0.984857       -26.7993
  36   2.0000      -0.922020       -25.0894
  37   2.0000      -0.883832       -24.0503
  38   2.0000      -0.849435       -23.1143
  39   2.0000      -0.837666       -22.7941
  40   2.0000      -0.829939       -22.5838
  41   2.0000      -0.826453       -22.4889
  42   2.0000      -0.758263       -20.6334
  43   2.0000      -0.735786       -20.0218
  44   2.0000      -0.727785       -19.8040
  45   2.0000      -0.692007       -18.8305
  46   2.0000      -0.687299       -18.7024
  47   2.0000      -0.680188       -18.5088
  48   2.0000      -0.671204       -18.2644
  49   2.0000      -0.659407       -17.9434
  50   2.0000      -0.646707       -17.5978
  51   2.0000      -0.642538       -17.4843
  52   2.0000      -0.633150       -17.2289
  53   2.0000      -0.609191       -16.5769
  54   2.0000      -0.602679       -16.3997
  55   2.0000      -0.600164       -16.3313
  56   2.0000      -0.596703       -16.2371
  57   2.0000      -0.584661       -15.9094
  58   2.0000      -0.574750       -15.6397
  59   2.0000      -0.565787       -15.3959
  60   2.0000      -0.562078       -15.2949
  61   2.0000      -0.550163       -14.9707
  62   2.0000      -0.536610       -14.6019
  63   2.0000      -0.518572       -14.1111
  64   2.0000      -0.516085       -14.0434
  65   2.0000      -0.510954       -13.9038
  66   2.0000      -0.504795       -13.7362
  67   2.0000      -0.495663       -13.4877
  68   2.0000      -0.481218       -13.0946
  69   2.0000      -0.463101       -12.6016
  70   2.0000      -0.456673       -12.4267
  71   2.0000      -0.454005       -12.3541
  72   2.0000      -0.354258        -9.6398
  73   2.0000      -0.346305        -9.4234
  74   2.0000      -0.328236        -8.9318
  75   2.0000      -0.318409        -8.6644
  76   2.0000      -0.316435        -8.6106
  77   0.0000       0.072972         1.9857
  78   0.0000       0.109232         2.9724
  79   0.0000       0.120612         3.2820
  80   0.0000       0.134507         3.6601
  81   0.0000       0.139237         3.7888

MULLIKEN ATOMIC CHARGES
-----------------------
   0 C :   -0.262879
   1 C :    0.041376
   2 O :   -0.369308
   3 C :    0.433135
   4 O :   -0.401235
   5 C :   -0.183630
   6 C :    0.151761
   7 C :   -0.279165
   8 N :   -0.127520
   9 C :    0.207111
  10 S :   -0.440490
  11 N :   -0.211054
  12 C :    0.042444
  13 C :    0.032481
  14 C :   -0.174408
  15 C :   -0.134112
  16 C :   -0.277712
  17 C :    0.313785
  18 O :   -0.358730
  19 C :   -0.252664
  20 H :    0.110210
  21 H :    0.091170
  22 H :    0.087299
  23 H :    0.095687
  24 H :    0.098886
  25 H :    0.128002
  26 H :    0.102877
  27 H :    0.125248
  28 H :    0.198876
  29 H :    0.199888
  30 H :    0.156338
  31 H :    0.161541
  32 H :    0.161065
  33 H :    0.129051
  34 H :    0.240232
  35 H :    0.164444
Sum of atomic charges:   -0.0000000

LOEWDIN ATOMIC CHARGES
----------------------
   0 C :    0.106358
   1 C :   -0.016780
   2 O :    0.299910
   3 C :   -0.422701
   4 O :    0.117809
   5 C :   -0.095771
   6 C :   -0.064272
   7 C :    0.126084
   8 N :    0.405850
   9 C :   -0.458300
  10 S :   -0.036271
  11 N :    0.396170
  12 C :   -0.048559
  13 C :   -0.041329
  14 C :    0.024167
  15 C :    0.040983
  16 C :   -0.001225
  17 C :   -0.192858
  18 O :    0.393168
  19 C :    0.028839
  20 H :   -0.021805
  21 H :   -0.028692
  22 H :   -0.028435
  23 H :   -0.031132
  24 H :   -0.025306
  25 H :   -0.007762
  26 H :   -0.020627
  27 H :   -0.009784
  28 H :   -0.058336
  29 H :   -0.063259
  30 H :   -0.007679
  31 H :   -0.023532
  32 H :   -0.020648
  33 H :   -0.035923
  34 H :   -0.154537
  35 H :   -0.023815

  Mayer bond orders larger than 0.100000
B(  0-C ,  1-C ) :   0.9803 B(  0-C , 20-H ) :   0.9758 B(  0-C , 21-H ) :   0.9784
B(  0-C , 22-H ) :   0.9760 B(  1-C ,  2-O ) :   0.8888 B(  1-C , 23-H ) :   0.9801
B(  1-C , 24-H ) :   0.9707 B(  2-O ,  3-C ) :   1.0742 B(  3-C ,  4-O ) :   2.0188
B(  3-C ,  5-C ) :   1.0417 B(  5-C ,  6-C ) :   1.6553 B(  5-C , 12-C ) :   0.9482
B(  6-C ,  7-C ) :   0.9541 B(  6-C ,  8-N ) :   1.1380 B(  7-C , 25-H ) :   0.9654
B(  7-C , 26-H ) :   0.9901 B(  7-C , 27-H ) :   0.9648 B(  8-N ,  9-C ) :   1.1840
B(  8-N , 28-H ) :   0.9469 B(  9-C , 10-S ) :   1.6108 B(  9-C , 11-N ) :   1.3047
B( 11-N , 12-C ) :   0.9772 B( 11-N , 29-H ) :   0.9484 B( 12-C , 13-C ) :   0.9715
B( 12-C , 30-H ) :   0.9959 B( 13-C , 14-C ) :   1.3777 B( 13-C , 19-C ) :   1.3639
B( 14-C , 15-C ) :   1.3971 B( 14-C , 31-H ) :   0.9628 B( 15-C , 16-C ) :   1.3591
B( 15-C , 32-H ) :   0.9709 B( 16-C , 17-C ) :   1.3329 B( 16-C , 33-H ) :   0.9857
B( 17-C , 18-O ) :   1.1043 B( 17-C , 19-C ) :   1.3673 B( 18-O , 34-H ) :   0.9804
B( 19-C , 35-H ) :   0.9600

MP2 TOTAL ENERGY:    -1274.328265872 Eh
FINAL SINGLE POINT ENERGY     -1274.328265871609

DIPOLE MOMENT
-------------
                                X             Y             Z
Electronic contribution:     10.27053      10.28116      10.89288
Nuclear contribution   :    -11.83097     -11.44050     -11.56346
                        -----------------------------------------
Total Dipole Moment    :     -1.56044      -1.15935      -0.67058
                        -----------------------------------------
Magnitude (a.u.)       :      2.05639
Magnitude (Debye)      :      5.22692

Rotational constants in cm-1:     0.009946     0.009157     0.005638
Rotational constants in MHz :   298.174652   274.508354   169.012455

                             ****ORCA TERMINATED NORMALLY****
TOTAL RUN TIME: 0 days 1 hours 34 minutes 50 seconds 595 msec
