                         Program Version 4.2.0 -  RELEASE  -
|  1> ! ri-mp2 cc-pvtz cc-pvtz/c TightSCF NoKeepInts
|  2>
|  3> %scf
|  4>   MaxCore 4096
|  5> end
|  6> *xyz  0  1
|  7>     C       14.4276982   14.9540809   13.8606768
|  8>     C       14.7197617   15.6921671   15.1776323
|  9>     O       15.8519834   16.5465549   14.9492941
| 10>     C       16.8877629   16.4635858   15.8284790
| 11>     O       17.4674160   15.4111078   16.0335108
| 12>     C       17.1038085   17.6914690   16.6647396
| 13>     C       16.8963945   18.9455160   16.1841851
| 14>     C       16.2272379   19.3424193   14.8829913
| 15>     N       17.3641935   20.0623003   16.8813167
| 16>     C       18.2326797   20.0072146   17.9380472
| 17>     S       18.8317170   21.3759032   18.6473133
| 18>     N       18.5973288   18.7548830   18.3635421
| 19>     C       18.0172452   17.4871131   17.8791912
| 20>     C       17.3779713   16.6552891   18.9831877
| 21>     C       17.7685058   15.3205081   19.1928759
| 22>     C       17.1766069   14.5541432   20.2108439
| 23>     C       16.1863747   15.1279707   21.0266455
| 24>     C       15.7936330   16.4572735   20.8181851
| 25>     O       14.8340285   17.0122479   21.6007175
| 26>     C       16.3839185   17.2171793   19.8032422
| 27>     H       15.2911511   14.3457813   13.5623929
| 28>     H       14.2112313   15.6669763   13.0554754
| 29>     H       13.5630436   14.2891123   13.9747200
| 30>     H       13.8501313   16.2899931   15.4795314
| 31>     H       14.9256563   14.9562586   15.9681274
| 32>     H       16.6968039   18.8338710   14.0313358
| 33>     H       16.2884303   20.4193895   14.6842269
| 34>     H       15.1642572   19.0716545   14.8939014
| 35>     H       17.1249412   20.9885287   16.5652627
| 36>     H       19.2236744   18.7418443   19.1586677
| 37>     H       18.9208805   16.9917210   17.4947340
| 38>     H       18.5235685   14.8715488   18.5515753
| 39>     H       17.4829373   13.5202272   20.3597143
| 40>     H       15.7259041   14.5391597   21.8129597
| 41>     H       14.5787024   16.3496122   22.2600147
| 42>     H       16.0694208   18.2453945   19.6587432
| 43> *
| 44>
| 45>                          ****END OF INPUT****

CARTESIAN COORDINATES (ANGSTROEM)
---------------------------------
  C     14.427698   14.954081   13.860677
  C     14.719762   15.692167   15.177632
  O     15.851983   16.546555   14.949294
  C     16.887763   16.463586   15.828479
  O     17.467416   15.411108   16.033511
  C     17.103808   17.691469   16.664740
  C     16.896394   18.945516   16.184185
  C     16.227238   19.342419   14.882991
  N     17.364193   20.062300   16.881317
  C     18.232680   20.007215   17.938047
  S     18.831717   21.375903   18.647313
  N     18.597329   18.754883   18.363542
  C     18.017245   17.487113   17.879191
  C     17.377971   16.655289   18.983188
  C     17.768506   15.320508   19.192876
  C     17.176607   14.554143   20.210844
  C     16.186375   15.127971   21.026645
  C     15.793633   16.457273   20.818185
  O     14.834028   17.012248   21.600717
  C     16.383919   17.217179   19.803242
  H     15.291151   14.345781   13.562393
  H     14.211231   15.666976   13.055475
  H     13.563044   14.289112   13.974720
  H     13.850131   16.289993   15.479531
  H     14.925656   14.956259   15.968127
  H     16.696804   18.833871   14.031336
  H     16.288430   20.419390   14.684227
  H     15.164257   19.071655   14.893901
  H     17.124941   20.988529   16.565263
  H     19.223674   18.741844   19.158668
  H     18.920880   16.991721   17.494734
  H     18.523568   14.871549   18.551575
  H     17.482937   13.520227   20.359714
  H     15.725904   14.539160   21.812960
  H     14.578702   16.349612   22.260015
  H     16.069421   18.245394   19.658743

 Total Charge           Charge          ....    0
 Multiplicity           Mult            ....    1
 Number of Electrons    NEL             ....  154
 Basis Dimension        Dim             ....  828

ORBITAL ENERGIES
----------------

  NO   OCC          E(Eh)            E(eV)
   0   2.0000     -91.889156     -2500.4311
   1   2.0000     -20.593398      -560.3749
   2   2.0000     -20.590625      -560.2994
   3   2.0000     -20.550574      -559.2096
   4   2.0000     -15.630079      -425.3161
   5   2.0000     -15.606678      -424.6793
   6   2.0000     -11.394500      -310.0601
   7   2.0000     -11.383807      -309.7691
   8   2.0000     -11.339477      -308.5629
   9   2.0000     -11.309508      -307.7474
  10   2.0000     -11.304938      -307.6230
  11   2.0000     -11.302501      -307.5567
  12   2.0000     -11.260615      -306.4169
  13   2.0000     -11.260214      -306.4060
  14   2.0000     -11.256734      -306.3113
  15   2.0000     -11.249532      -306.1153
  16   2.0000     -11.239685      -305.8474
  17   2.0000     -11.235860      -305.7433
  18   2.0000     -11.232498      -305.6518
  19   2.0000     -11.228892      -305.5537
  20   2.0000      -8.894231      -242.0243
  21   2.0000      -6.575805      -178.9368
  22   2.0000      -6.573805      -178.8823
  23   2.0000      -6.573214      -178.8662
  24   2.0000      -1.453629       -39.5552
  25   2.0000      -1.413144       -38.4536
  26   2.0000      -1.358213       -36.9588
  27   2.0000      -1.341035       -36.4914
  28   2.0000      -1.238052       -33.6891
  29   2.0000      -1.154032       -31.4028
  30   2.0000      -1.121925       -30.5291
  31   2.0000      -1.044034       -28.4096
  32   2.0000      -1.035674       -28.1821
  33   2.0000      -1.011591       -27.5268
  34   2.0000      -0.999968       -27.2105
  35   2.0000      -0.984909       -26.8007
  36   2.0000      -0.921905       -25.0863
  37   2.0000      -0.883432       -24.0394
  38   2.0000      -0.849257       -23.1094
  39   2.0000      -0.837504       -22.7896
  40   2.0000      -0.829754       -22.5788
  41   2.0000      -0.826447       -22.4888
  42   2.0000      -0.759748       -20.6738
  43   2.0000      -0.736159       -20.0319
  44   2.0000      -0.727653       -19.8004
  45   2.0000      -0.691738       -18.8232
  46   2.0000      -0.687454       -18.7066
  47   2.0000      -0.680290       -18.5116
  48   2.0000      -0.671766       -18.2797
  49   2.0000      -0.657086       -17.8802
  50   2.0000      -0.647254       -17.6127
  51   2.0000      -0.641721       -17.4621
  52   2.0000      -0.631755       -17.1909
  53   2.0000      -0.615024       -16.7357
  54   2.0000      -0.604005       -16.4358
  55   2.0000      -0.600108       -16.3298
  56   2.0000      -0.596653       -16.2358
  57   2.0000      -0.582035       -15.8380
  58   2.0000      -0.574628       -15.6364
  59   2.0000      -0.563598       -15.3363
  60   2.0000      -0.562274       -15.3003
  61   2.0000      -0.550130       -14.9698
  62   2.0000      -0.536494       -14.5987
  63   2.0000      -0.519533       -14.1372
  64   2.0000      -0.517173       -14.0730
  65   2.0000      -0.510678       -13.8963
  66   2.0000      -0.504447       -13.7267
  67   2.0000      -0.495514       -13.4836
  68   2.0000      -0.481175       -13.0934
  69   2.0000      -0.463095       -12.6014
  70   2.0000      -0.458760       -12.4835
  71   2.0000      -0.453687       -12.3455
  72   2.0000      -0.354203        -9.6384
  73   2.0000      -0.346126        -9.4186
  74   2.0000      -0.328178        -8.9302
  75   2.0000      -0.318340        -8.6625
  76   2.0000      -0.316239        -8.6053
  77   0.0000       0.072949         1.9850
  78   0.0000       0.109374         2.9762
  79   0.0000       0.120087         3.2677
  80   0.0000       0.134566         3.6617
  81   0.0000       0.138995         3.7822

MULLIKEN ATOMIC CHARGES
-----------------------
   0 C :   -0.260571
   1 C :    0.038327
   2 O :   -0.370274
   3 C :    0.443128
   4 O :   -0.399673
   5 C :   -0.194484
   6 C :    0.152946
   7 C :   -0.279991
   8 N :   -0.127820
   9 C :    0.206907
  10 S :   -0.440593
  11 N :   -0.211007
  12 C :    0.042125
  13 C :    0.032719
  14 C :   -0.174058
  15 C :   -0.134183
  16 C :   -0.277587
  17 C :    0.313665
  18 O :   -0.358848
  19 C :   -0.252546
  20 H :    0.106828
  21 H :    0.091134
  22 H :    0.087629
  23 H :    0.094743
  24 H :    0.103895
  25 H :    0.128496
  26 H :    0.103482
  27 H :    0.124629
  28 H :    0.198896
  29 H :    0.199920
  30 H :    0.156342
  31 H :    0.161420
  32 H :    0.160995
  33 H :    0.128913
  34 H :    0.240226
  35 H :    0.164269
Sum of atomic charges:   -0.0000000

LOEWDIN ATOMIC CHARGES
----------------------
   0 C :    0.107131
   1 C :   -0.016759
   2 O :    0.300665
   3 C :   -0.422342
   4 O :    0.117441
   5 C :   -0.096027
   6 C :   -0.064399
   7 C :    0.125922
   8 N :    0.405836
   9 C :   -0.458333
  10 S :   -0.036334
  11 N :    0.396184
  12 C :   -0.048591
  13 C :   -0.041205
  14 C :    0.024272
  15 C :    0.041007
  16 C :   -0.001205
  17 C :   -0.192816
  18 O :    0.393113
  19 C :    0.028852
  20 H :   -0.021906
  21 H :   -0.029055
  22 H :   -0.027167
  23 H :   -0.033132
  24 H :   -0.024904
  25 H :   -0.007745
  26 H :   -0.020623
  27 H :   -0.010001
  28 H :   -0.058371
  29 H :   -0.063250
  30 H :   -0.007669
  31 H :   -0.023530
  32 H :   -0.020677
  33 H :   -0.035955
  34 H :   -0.154557
  35 H :   -0.023871

  Mayer bond orders larger than 0.100000
B(  0-C ,  1-C ) :   0.9800 B(  0-C , 20-H ) :   0.9770 B(  0-C , 21-H ) :   0.9792
B(  0-C , 22-H ) :   0.9758 B(  1-C ,  2-O ) :   0.8875 B(  1-C , 23-H ) :   0.9776
B(  1-C , 24-H ) :   0.9711 B(  2-O ,  3-C ) :   1.0801 B(  3-C ,  4-O ) :   2.0263
B(  3-C ,  5-C ) :   1.0356 B(  5-C ,  6-C ) :   1.6568 B(  5-C , 12-C ) :   0.9492
B(  6-C ,  7-C ) :   0.9535 B(  6-C ,  8-N ) :   1.1386 B(  7-C , 25-H ) :   0.9654
B(  7-C , 26-H ) :   0.9901 B(  7-C , 27-H ) :   0.9652 B(  8-N ,  9-C ) :   1.1840
B(  8-N , 28-H ) :   0.9470 B(  9-C , 10-S ) :   1.6107 B(  9-C , 11-N ) :   1.3051
B( 11-N , 12-C ) :   0.9767 B( 11-N , 29-H ) :   0.9485 B( 12-C , 13-C ) :   0.9717
B( 12-C , 30-H ) :   0.9959 B( 13-C , 14-C ) :   1.3776 B( 13-C , 19-C ) :   1.3639
B( 14-C , 15-C ) :   1.3972 B( 14-C , 31-H ) :   0.9629 B( 15-C , 16-C ) :   1.3591
B( 15-C , 32-H ) :   0.9709 B( 16-C , 17-C ) :   1.3329 B( 16-C , 33-H ) :   0.9858
B( 17-C , 18-O ) :   1.1042 B( 17-C , 19-C ) :   1.3675 B( 18-O , 34-H ) :   0.9804
B( 19-C , 35-H ) :   0.9601

MP2 TOTAL ENERGY:    -1274.328556615 Eh
FINAL SINGLE POINT ENERGY     -1274.328556614893

DIPOLE MOMENT
-------------
                                X             Y             Z
Electronic contribution:     10.39126      10.09922      11.13851
Nuclear contribution   :    -11.93697     -11.29657     -11.82336
                        -----------------------------------------
Total Dipole Moment    :     -1.54571      -1.19735      -0.68485
                        -----------------------------------------
Magnitude (a.u.)       :      2.07168
Magnitude (Debye)      :      5.26580

Rotational constants in cm-1:     0.009843     0.009157     0.005623
Rotational constants in MHz :   295.085815   274.530467   168.572438

                             ****ORCA TERMINATED NORMALLY****
TOTAL RUN TIME: 0 days 1 hours 34 minutes 9 seconds 249 msec
