                         Program Version 4.2.0 -  RELEASE  -
|  1> ! ri-mp2 cc-pvtz cc-pvtz/c TightSCF NoKeepInts
|  2>
|  3> %scf
|  4>   MaxCore 4096
|  5> end
|  6> *xyz  0  1
|  7>     C       15.2802605   14.6438041   13.9089066
|  8>     C       14.5956102   15.9879023   14.2383768
|  9>     O       15.3310511   16.8851044   15.1137546
| 10>     C       16.3861612   16.5907655   15.9406098
| 11>     O       16.8863689   15.4856698   16.0567595
| 12>     C       16.8462339   17.7515629   16.7810955
| 13>     C       16.7477358   19.0465236   16.3753971
| 14>     C       15.9916733   19.6011682   15.1833924
| 15>     N       17.4277873   20.0608783   17.0548426
| 16>     C       18.3950658   19.8493760   17.9993327
| 17>     S       19.2388392   21.0987410   18.6796825
| 18>     N       18.6435904   18.5430568   18.3339112
| 19>     C       17.8567491   17.3816248   17.8763652
| 20>     C       17.2492057   16.5828756   19.0222553
| 21>     C       17.5062555   15.2062038   19.1527903
| 22>     C       16.9478735   14.4721079   20.2126589
| 23>     C       16.1267241   15.1207649   21.1509168
| 24>     C       15.8675339   16.4922993   21.0221089
| 25>     O       15.0720382   17.1202125   21.9245282
| 26>     C       16.4244746   17.2201305   19.9656988
| 27>     H       16.3025034   14.8003818   13.5422625
| 28>     H       14.7200891   14.1152682   13.1283320
| 29>     H       15.3139226   13.9888614   14.7886234
| 30>     H       14.3845065   16.5160420   13.2997332
| 31>     H       13.6265908   15.7655006   14.7037433
| 32>     H       14.9137863   19.4288046   15.2941626
| 33>     H       16.3206966   19.1192254   14.2543830
| 34>     H       16.1355194   20.6805449   15.0517115
| 35>     H       17.2714900   21.0240860   16.8048652
| 36>     H       19.3459703   18.4140229   19.0511819
| 37>     H       18.6435165   16.8002032   17.3739676
| 38>     H       18.1287075   14.7012479   18.4178209
| 39>     H       17.1480597   13.4057201   20.2991108
| 40>     H       15.6921015   14.5572968   21.9697240
| 41>     H       14.8029702   16.4605732   22.5811495
| 42>     H       16.2153373   18.2814489   19.8838449
| 43> *
| 44>
| 45>                          ****END OF INPUT****

CARTESIAN COORDINATES (ANGSTROEM)
---------------------------------
  C     15.280261   14.643804   13.908907
  C     14.595610   15.987902   14.238377
  O     15.331051   16.885104   15.113755
  C     16.386161   16.590765   15.940610
  O     16.886369   15.485670   16.056759
  C     16.846234   17.751563   16.781095
  C     16.747736   19.046524   16.375397
  C     15.991673   19.601168   15.183392
  N     17.427787   20.060878   17.054843
  C     18.395066   19.849376   17.999333
  S     19.238839   21.098741   18.679682
  N     18.643590   18.543057   18.333911
  C     17.856749   17.381625   17.876365
  C     17.249206   16.582876   19.022255
  C     17.506255   15.206204   19.152790
  C     16.947874   14.472108   20.212659
  C     16.126724   15.120765   21.150917
  C     15.867534   16.492299   21.022109
  O     15.072038   17.120213   21.924528
  C     16.424475   17.220130   19.965699
  H     16.302503   14.800382   13.542262
  H     14.720089   14.115268   13.128332
  H     15.313923   13.988861   14.788623
  H     14.384507   16.516042   13.299733
  H     13.626591   15.765501   14.703743
  H     14.913786   19.428805   15.294163
  H     16.320697   19.119225   14.254383
  H     16.135519   20.680545   15.051711
  H     17.271490   21.024086   16.804865
  H     19.345970   18.414023   19.051182
  H     18.643517   16.800203   17.373968
  H     18.128708   14.701248   18.417821
  H     17.148060   13.405720   20.299111
  H     15.692101   14.557297   21.969724
  H     14.802970   16.460573   22.581149
  H     16.215337   18.281449   19.883845

 Total Charge           Charge          ....    0
 Multiplicity           Mult            ....    1
 Number of Electrons    NEL             ....  154
 Basis Dimension        Dim             ....  828

ORBITAL ENERGIES
----------------

  NO   OCC          E(Eh)            E(eV)
   0   2.0000     -91.886735     -2500.3652
   1   2.0000     -20.601978      -560.6083
   2   2.0000     -20.590577      -560.2981
   3   2.0000     -20.543104      -559.0063
   4   2.0000     -15.626796      -425.2267
   5   2.0000     -15.604447      -424.6186
   6   2.0000     -11.399368      -310.1926
   7   2.0000     -11.381143      -309.6966
   8   2.0000     -11.336140      -308.4721
   9   2.0000     -11.307666      -307.6972
  10   2.0000     -11.306517      -307.6660
  11   2.0000     -11.302819      -307.5653
  12   2.0000     -11.259995      -306.4000
  13   2.0000     -11.258140      -306.3496
  14   2.0000     -11.253721      -306.2293
  15   2.0000     -11.246680      -306.0377
  16   2.0000     -11.236832      -305.7697
  17   2.0000     -11.232831      -305.6609
  18   2.0000     -11.229686      -305.5753
  19   2.0000     -11.225718      -305.4673
  20   2.0000      -8.891834      -241.9591
  21   2.0000      -6.573416      -178.8717
  22   2.0000      -6.571410      -178.8171
  23   2.0000      -6.570825      -178.8012
  24   2.0000      -1.445265       -39.3277
  25   2.0000      -1.410318       -38.3767
  26   2.0000      -1.357086       -36.9282
  27   2.0000      -1.338478       -36.4218
  28   2.0000      -1.235725       -33.6258
  29   2.0000      -1.150956       -31.3191
  30   2.0000      -1.118793       -30.4439
  31   2.0000      -1.042075       -28.3563
  32   2.0000      -1.034672       -28.1549
  33   2.0000      -1.008597       -27.4453
  34   2.0000      -0.997109       -27.1327
  35   2.0000      -0.981946       -26.7201
  36   2.0000      -0.920017       -25.0349
  37   2.0000      -0.897513       -24.4226
  38   2.0000      -0.847081       -23.0502
  39   2.0000      -0.834148       -22.6983
  40   2.0000      -0.826831       -22.4992
  41   2.0000      -0.817334       -22.2408
  42   2.0000      -0.743345       -20.2274
  43   2.0000      -0.726701       -19.7745
  44   2.0000      -0.723828       -19.6964
  45   2.0000      -0.689108       -18.7516
  46   2.0000      -0.683702       -18.6045
  47   2.0000      -0.677171       -18.4268
  48   2.0000      -0.671782       -18.2801
  49   2.0000      -0.666187       -18.1279
  50   2.0000      -0.644581       -17.5399
  51   2.0000      -0.642904       -17.4943
  52   2.0000      -0.632180       -17.2025
  53   2.0000      -0.603839       -16.4313
  54   2.0000      -0.598744       -16.2927
  55   2.0000      -0.596396       -16.2288
  56   2.0000      -0.593602       -16.1527
  57   2.0000      -0.586911       -15.9707
  58   2.0000      -0.571098       -15.5404
  59   2.0000      -0.569389       -15.4939
  60   2.0000      -0.559073       -15.2132
  61   2.0000      -0.543382       -14.7862
  62   2.0000      -0.538363       -14.6496
  63   2.0000      -0.525566       -14.3014
  64   2.0000      -0.514583       -14.0025
  65   2.0000      -0.509892       -13.8749
  66   2.0000      -0.498463       -13.5639
  67   2.0000      -0.492863       -13.4115
  68   2.0000      -0.480044       -13.0626
  69   2.0000      -0.462393       -12.5823
  70   2.0000      -0.452651       -12.3173
  71   2.0000      -0.445832       -12.1317
  72   2.0000      -0.351607        -9.5677
  73   2.0000      -0.343247        -9.3402
  74   2.0000      -0.325906        -8.8684
  75   2.0000      -0.315885        -8.5957
  76   2.0000      -0.313164        -8.5216
  77   0.0000       0.079419         2.1611
  78   0.0000       0.113043         3.0761
  79   0.0000       0.120361         3.2752
  80   0.0000       0.136567         3.7162
  81   0.0000       0.139310         3.7908

MULLIKEN ATOMIC CHARGES
-----------------------
   0 C :   -0.289636
   1 C :    0.050057
   2 O :   -0.357177
   3 C :    0.410166
   4 O :   -0.423850
   5 C :   -0.146458
   6 C :    0.159230
   7 C :   -0.284059
   8 N :   -0.128877
   9 C :    0.207678
  10 S :   -0.444749
  11 N :   -0.210527
  12 C :    0.037648
  13 C :    0.033366
  14 C :   -0.167971
  15 C :   -0.134510
  16 C :   -0.276994
  17 C :    0.314209
  18 O :   -0.359082
  19 C :   -0.249872
  20 H :    0.103070
  21 H :    0.097371
  22 H :    0.118583
  23 H :    0.091404
  24 H :    0.092363
  25 H :    0.131081
  26 H :    0.121523
  27 H :    0.103289
  28 H :    0.198408
  29 H :    0.199734
  30 H :    0.155559
  31 H :    0.158904
  32 H :    0.159371
  33 H :    0.127779
  34 H :    0.239700
  35 H :    0.163270
Sum of atomic charges:   -0.0000000

LOEWDIN ATOMIC CHARGES
----------------------
   0 C :    0.102299
   1 C :   -0.008402
   2 O :    0.294147
   3 C :   -0.413280
   4 O :    0.113001
   5 C :   -0.089384
   6 C :   -0.064897
   7 C :    0.124054
   8 N :    0.404936
   9 C :   -0.459111
  10 S :   -0.039443
  11 N :    0.396585
  12 C :   -0.048232
  13 C :   -0.040217
  14 C :    0.024396
  15 C :    0.040603
  16 C :   -0.001300
  17 C :   -0.192302
  18 O :    0.393071
  19 C :    0.030116
  20 H :   -0.025860
  21 H :   -0.027889
  22 H :   -0.024017
  23 H :   -0.027882
  24 H :   -0.027687
  25 H :   -0.009241
  26 H :   -0.010529
  27 H :   -0.021480
  28 H :   -0.059176
  29 H :   -0.063137
  30 H :   -0.008962
  31 H :   -0.024252
  32 H :   -0.021325
  33 H :   -0.036338
  34 H :   -0.155058
  35 H :   -0.023806

  Mayer bond orders larger than 0.100000
B(  0-C ,  1-C ) :   0.9795 B(  0-C , 20-H ) :   0.9747 B(  0-C , 21-H ) :   0.9732
B(  0-C , 22-H ) :   0.9722 B(  1-C ,  2-O ) :   0.9007 B(  1-C , 23-H ) :   0.9799
B(  1-C , 24-H ) :   0.9790 B(  2-O ,  3-C ) :   1.1427 B(  3-C ,  4-O ) :   1.9798
B(  3-C ,  5-C ) :   1.0513 B(  5-C ,  6-C ) :   1.6576 B(  5-C , 12-C ) :   0.9496
B(  6-C ,  7-C ) :   0.9524 B(  6-C ,  8-N ) :   1.1324 B(  7-C , 25-H ) :   0.9631
B(  7-C , 26-H ) :   0.9667 B(  7-C , 27-H ) :   0.9925 B(  8-N ,  9-C ) :   1.1869
B(  8-N , 28-H ) :   0.9471 B(  9-C , 10-S ) :   1.6057 B(  9-C , 11-N ) :   1.3068
B( 11-N , 12-C ) :   0.9769 B( 11-N , 29-H ) :   0.9486 B( 12-C , 13-C ) :   0.9751
B( 12-C , 30-H ) :   0.9973 B( 13-C , 14-C ) :   1.3753 B( 13-C , 19-C ) :   1.3677
B( 14-C , 15-C ) :   1.3971 B( 14-C , 31-H ) :   0.9639 B( 15-C , 16-C ) :   1.3588
B( 15-C , 32-H ) :   0.9714 B( 16-C , 17-C ) :   1.3333 B( 16-C , 33-H ) :   0.9861
B( 17-C , 18-O ) :   1.1031 B( 17-C , 19-C ) :   1.3674 B( 18-O , 34-H ) :   0.9808
B( 19-C , 35-H ) :   0.9600

MP2 TOTAL ENERGY:    -1274.330397721 Eh
FINAL SINGLE POINT ENERGY     -1274.330397720554

DIPOLE MOMENT
-------------
                                X             Y             Z
Electronic contribution:      8.62674       9.98867      12.40375
Nuclear contribution   :    -10.22181     -11.17421     -13.57356
                        -----------------------------------------
Total Dipole Moment    :     -1.59507      -1.18554      -1.16982
                        -----------------------------------------
Magnitude (a.u.)       :      2.30613
Magnitude (Debye)      :      5.86172

Rotational constants in cm-1:     0.009904     0.008921     0.005472
Rotational constants in MHz :   296.914351   267.435316   164.056498

                             ****ORCA TERMINATED NORMALLY****
TOTAL RUN TIME: 0 days 1 hours 50 minutes 7 seconds 705 msec
