                         Program Version 4.2.0 -  RELEASE  -
|  1> ! ri-mp2 cc-pvtz cc-pvtz/c TightSCF NoKeepInts
|  2>
|  3> %scf
|  4>   MaxCore 4096
|  5> end
|  6> *xyz  0  1
|  7>     C       14.5667160   16.0857700   16.1066995
|  8>     C       15.6269255   15.0491518   15.6706529
|  9>     O       16.9782194   15.5645258   15.5877395
| 10>     C       17.2299788   16.8490847   15.2101055
| 11>     O       17.3925313   17.1260468   14.0358622
| 12>     C       17.1357308   17.8500179   16.3295531
| 13>     C       16.9762769   19.1658236   16.0378338
| 14>     C       16.4804134   19.7539436   14.7331640
| 15>     N       17.2572046   20.1557799   16.9811995
| 16>     C       17.9382753   19.9347566   18.1473152
| 17>     S       18.3544228   21.1682274   19.1671748
| 18>     N       18.2807760   18.6334795   18.4156339
| 19>     C       17.8286343   17.4551116   17.6496158
| 20>     C       17.1278616   16.4227856   18.5254132
| 21>     C       17.5592314   15.0832842   18.5416495
| 22>     C       16.9238724   14.1369205   19.3628878
| 23>     C       15.8561023   14.5354205   20.1849708
| 24>     C       15.4360661   15.8725137   20.1857947
| 25>     O       14.4074666   16.2612774   20.9801928
| 26>     C       16.0704126   16.8119853   19.3668584
| 27>     H       14.7772669   16.4939021   17.0976893
| 28>     H       13.5797027   15.6098277   16.1533626
| 29>     H       14.4977042   16.9125850   15.3891330
| 30>     H       15.6104739   14.1979270   16.3636859
| 31>     H       15.3407773   14.6689322   14.6810914
| 32>     H       17.2977975   19.8092732   14.0023477
| 33>     H       16.0648047   20.7614038   14.8531927
| 34>     H       15.6926380   19.1291586   14.2942454
| 35>     H       17.0459149   21.1192037   16.7751887
| 36>     H       18.7689452   18.4986883   19.2923473
| 37>     H       18.8093063   17.0655324   17.3408022
| 38>     H       18.3835917   14.7723150   17.9045687
| 39>     H       17.2609309   13.1016150   19.3617450
| 40>     H       15.3626003   13.8081398   20.8214213
| 41>     H       14.1337607   15.4919600   21.5021587
| 42>     H       15.7336665   17.8436301   19.3847035
| 43> *
| 44>
| 45>                          ****END OF INPUT****

CARTESIAN COORDINATES (ANGSTROEM)
---------------------------------
  C     14.566716   16.085770   16.106700
  C     15.626926   15.049152   15.670653
  O     16.978219   15.564526   15.587739
  C     17.229979   16.849085   15.210105
  O     17.392531   17.126047   14.035862
  C     17.135731   17.850018   16.329553
  C     16.976277   19.165824   16.037834
  C     16.480413   19.753944   14.733164
  N     17.257205   20.155780   16.981199
  C     17.938275   19.934757   18.147315
  S     18.354423   21.168227   19.167175
  N     18.280776   18.633479   18.415634
  C     17.828634   17.455112   17.649616
  C     17.127862   16.422786   18.525413
  C     17.559231   15.083284   18.541649
  C     16.923872   14.136921   19.362888
  C     15.856102   14.535420   20.184971
  C     15.436066   15.872514   20.185795
  O     14.407467   16.261277   20.980193
  C     16.070413   16.811985   19.366858
  H     14.777267   16.493902   17.097689
  H     13.579703   15.609828   16.153363
  H     14.497704   16.912585   15.389133
  H     15.610474   14.197927   16.363686
  H     15.340777   14.668932   14.681091
  H     17.297797   19.809273   14.002348
  H     16.064805   20.761404   14.853193
  H     15.692638   19.129159   14.294245
  H     17.045915   21.119204   16.775189
  H     18.768945   18.498688   19.292347
  H     18.809306   17.065532   17.340802
  H     18.383592   14.772315   17.904569
  H     17.260931   13.101615   19.361745
  H     15.362600   13.808140   20.821421
  H     14.133761   15.491960   21.502159
  H     15.733666   17.843630   19.384704

 Total Charge           Charge          ....    0
 Multiplicity           Mult            ....    1
 Number of Electrons    NEL             ....  154
 Basis Dimension        Dim             ....  828

ORBITAL ENERGIES
----------------

  NO   OCC          E(Eh)            E(eV)
   0   2.0000     -91.891060     -2500.4829
   1   2.0000     -20.600580      -560.5703
   2   2.0000     -20.580272      -560.0177
   3   2.0000     -20.551948      -559.2469
   4   2.0000     -15.629681      -425.3052
   5   2.0000     -15.609751      -424.7629
   6   2.0000     -11.393518      -310.0334
   7   2.0000     -11.385497      -309.8151
   8   2.0000     -11.335570      -308.4566
   9   2.0000     -11.318019      -307.9789
  10   2.0000     -11.313699      -307.8614
  11   2.0000     -11.303502      -307.5839
  12   2.0000     -11.265848      -306.5593
  13   2.0000     -11.259051      -306.3743
  14   2.0000     -11.257896      -306.3429
  15   2.0000     -11.254504      -306.2506
  16   2.0000     -11.248289      -306.0815
  17   2.0000     -11.243611      -305.9542
  18   2.0000     -11.242418      -305.9217
  19   2.0000     -11.230275      -305.5913
  20   2.0000      -8.896111      -242.0755
  21   2.0000      -6.577678      -178.9877
  22   2.0000      -6.575686      -178.9335
  23   2.0000      -6.575088      -178.9172
  24   2.0000      -1.445094       -39.3230
  25   2.0000      -1.420397       -38.6510
  26   2.0000      -1.353807       -36.8390
  27   2.0000      -1.341982       -36.5172
  28   2.0000      -1.240647       -33.7597
  29   2.0000      -1.161400       -31.6033
  30   2.0000      -1.122473       -30.5440
  31   2.0000      -1.046491       -28.4765
  32   2.0000      -1.033663       -28.1274
  33   2.0000      -1.019675       -27.7468
  34   2.0000      -1.002056       -27.2673
  35   2.0000      -0.988401       -26.8958
  36   2.0000      -0.924991       -25.1703
  37   2.0000      -0.898507       -24.4496
  38   2.0000      -0.849129       -23.1060
  39   2.0000      -0.842381       -22.9224
  40   2.0000      -0.838637       -22.8205
  41   2.0000      -0.820247       -22.3201
  42   2.0000      -0.747727       -20.3467
  43   2.0000      -0.736874       -20.0514
  44   2.0000      -0.724165       -19.7055
  45   2.0000      -0.698575       -19.0092
  46   2.0000      -0.689739       -18.7687
  47   2.0000      -0.674786       -18.3619
  48   2.0000      -0.672349       -18.2956
  49   2.0000      -0.664776       -18.0895
  50   2.0000      -0.651641       -17.7320
  51   2.0000      -0.646705       -17.5977
  52   2.0000      -0.638268       -17.3681
  53   2.0000      -0.619343       -16.8532
  54   2.0000      -0.610397       -16.6098
  55   2.0000      -0.603434       -16.4203
  56   2.0000      -0.601404       -16.3650
  57   2.0000      -0.579964       -15.7816
  58   2.0000      -0.574187       -15.6244
  59   2.0000      -0.565778       -15.3956
  60   2.0000      -0.555615       -15.1190
  61   2.0000      -0.551546       -15.0083
  62   2.0000      -0.542999       -14.7758
  63   2.0000      -0.529341       -14.4041
  64   2.0000      -0.525375       -14.2962
  65   2.0000      -0.515065       -14.0156
  66   2.0000      -0.502866       -13.6837
  67   2.0000      -0.496753       -13.5173
  68   2.0000      -0.480796       -13.0831
  69   2.0000      -0.466441       -12.6925
  70   2.0000      -0.454749       -12.3744
  71   2.0000      -0.448316       -12.1993
  72   2.0000      -0.356888        -9.7114
  73   2.0000      -0.349293        -9.5047
  74   2.0000      -0.330091        -8.9822
  75   2.0000      -0.325372        -8.8538
  76   2.0000      -0.320885        -8.7317
  77   0.0000       0.073539         2.0011
  78   0.0000       0.100428         2.7328
  79   0.0000       0.120800         3.2871
  80   0.0000       0.128767         3.5039
  81   0.0000       0.130710         3.5568

MULLIKEN ATOMIC CHARGES
-----------------------
   0 C :   -0.329595
   1 C :    0.034153
   2 O :   -0.377556
   3 C :    0.445945
   4 O :   -0.379328
   5 C :   -0.242812
   6 C :    0.165296
   7 C :   -0.275484
   8 N :   -0.128691
   9 C :    0.207238
  10 S :   -0.437412
  11 N :   -0.215850
  12 C :    0.053256
  13 C :    0.022592
  14 C :   -0.191802
  15 C :   -0.141536
  16 C :   -0.273138
  17 C :    0.316212
  18 O :   -0.356936
  19 C :   -0.247570
  20 H :    0.120262
  21 H :    0.117258
  22 H :    0.098999
  23 H :    0.114432
  24 H :    0.118427
  25 H :    0.139765
  26 H :    0.095322
  27 H :    0.121885
  28 H :    0.199045
  29 H :    0.201201
  30 H :    0.151085
  31 H :    0.158343
  32 H :    0.166810
  33 H :    0.133756
  34 H :    0.240915
  35 H :    0.175516
Sum of atomic charges:   -0.0000000

LOEWDIN ATOMIC CHARGES
----------------------
   0 C :    0.105533
   1 C :   -0.013357
   2 O :    0.287280
   3 C :   -0.427807
   4 O :    0.126912
   5 C :   -0.098696
   6 C :   -0.062531
   7 C :    0.129476
   8 N :    0.407327
   9 C :   -0.458068
  10 S :   -0.033562
  11 N :    0.395559
  12 C :   -0.052054
  13 C :   -0.042451
  14 C :    0.023071
  15 C :    0.039725
  16 C :   -0.001011
  17 C :   -0.192931
  18 O :    0.395884
  19 C :    0.031483
  20 H :   -0.032834
  21 H :   -0.021527
  22 H :   -0.030458
  23 H :   -0.023540
  24 H :   -0.027616
  25 H :   -0.004111
  26 H :   -0.022367
  27 H :   -0.009413
  28 H :   -0.056846
  29 H :   -0.063496
  30 H :   -0.011464
  31 H :   -0.026094
  32 H :   -0.019939
  33 H :   -0.034532
  34 H :   -0.153171
  35 H :   -0.022373

  Mayer bond orders larger than 0.100000
B(  0-C ,  1-C ) :   0.9601 B(  0-C , 20-H ) :   0.9673 B(  0-C , 21-H ) :   0.9765
B(  0-C , 22-H ) :   0.9731 B(  1-C ,  2-O ) :   0.8921 B(  1-C , 23-H ) :   0.9769
B(  1-C , 24-H ) :   0.9864 B(  2-O ,  3-C ) :   1.1103 B(  3-C ,  4-O ) :   2.0832
B(  3-C ,  5-C ) :   1.0020 B(  5-C ,  6-C ) :   1.6487 B(  5-C , 12-C ) :   0.9595
B(  6-C ,  7-C ) :   0.9597 B(  6-C ,  8-N ) :   1.1432 B(  7-C , 25-H ) :   0.9551
B(  7-C , 26-H ) :   0.9860 B(  7-C , 27-H ) :   0.9712 B(  8-N ,  9-C ) :   1.1894
B(  8-N , 28-H ) :   0.9482 B(  9-C , 10-S ) :   1.6153 B(  9-C , 11-N ) :   1.2956
B( 11-N , 12-C ) :   0.9788 B( 11-N , 29-H ) :   0.9472 B( 12-C , 13-C ) :   0.9631
B( 12-C , 30-H ) :   1.0018 B( 13-C , 14-C ) :   1.3597 B( 13-C , 19-C ) :   1.3514
B( 14-C , 15-C ) :   1.3983 B( 14-C , 31-H ) :   0.9695 B( 15-C , 16-C ) :   1.3549
B( 15-C , 32-H ) :   0.9694 B( 16-C , 17-C ) :   1.3338 B( 16-C , 33-H ) :   0.9838
B( 17-C , 18-O ) :   1.1078 B( 17-C , 19-C ) :   1.3615 B( 18-O , 34-H ) :   0.9796
B( 19-C , 35-H ) :   0.9597

MP2 TOTAL ENERGY:    -1274.317240430 Eh
FINAL SINGLE POINT ENERGY     -1274.317240430090

DIPOLE MOMENT
-------------
                                X             Y             Z
Electronic contribution:      9.12427       7.68724       6.46011
Nuclear contribution   :    -10.42704      -9.32092      -6.43775
                        -----------------------------------------
Total Dipole Moment    :     -1.30276      -1.63368       0.02236
                        -----------------------------------------
Magnitude (a.u.)       :      2.08964
Magnitude (Debye)      :      5.31145

Rotational constants in cm-1:     0.012122     0.009254     0.006241
Rotational constants in MHz :   363.420968   277.427257   187.106068

                             ****ORCA TERMINATED NORMALLY****
TOTAL RUN TIME: 0 days 2 hours 8 minutes 42 seconds 646 msec
