                         Program Version 4.2.0 -  RELEASE  -
|  1> ! ri-mp2 cc-pvtz cc-pvtz/c TightSCF NoKeepInts
|  2>
|  3> %scf
|  4>   MaxCore 4096
|  5> end
|  6> *xyz  0  1
|  7>     C       15.0569170   14.1855920   15.9242706
|  8>     C       15.8473121   15.0071681   14.8913781
|  9>     O       16.5608804   16.0257947   15.6160126
| 10>     C       16.2650825   17.3491174   15.4364914
| 11>     O       15.5781953   17.7457075   14.5103488
| 12>     C       16.8493620   18.2212701   16.5157981
| 13>     C       16.8982589   19.5707612   16.3720082
| 14>     C       16.1951591   20.4066326   15.3223948
| 15>     N       17.6639693   20.3593763   17.2338406
| 16>     C       18.5531576   19.8665732   18.1500322
| 17>     S       19.4975104   20.8596930   19.0762175
| 18>     N       18.6372943   18.5007265   18.2458746
| 19>     C       17.7689993   17.5379391   17.5424952
| 20>     C       17.0472495   16.5961672   18.4977550
| 21>     C       17.4679982   15.2608938   18.6383639
| 22>     C       16.8012673   14.3914896   19.5180872
| 23>     C       15.7069646   14.8623601   20.2638115
| 24>     C       15.2896593   16.1938504   20.1289615
| 25>     O       14.2347061   16.6514041   20.8492004
| 26>     C       15.9561022   17.0571161   19.2537474
| 27>     H       15.7334632   13.7320633   16.6589243
| 28>     H       14.4957983   13.3828530   15.4309807
| 29>     H       14.3440090   14.8241627   16.4611193
| 30>     H       16.5612386   14.3542552   14.3732416
| 31>     H       15.1612412   15.4248053   14.1423255
| 32>     H       15.1204790   20.1838547   15.3081266
| 33>     H       16.5893559   20.1841569   14.3226458
| 34>     H       16.3018966   21.4850560   15.4884570
| 35>     H       17.6275239   21.3633698   17.1588546
| 36>     H       19.2770806   18.1672307   18.9556442
| 37>     H       18.5177693   16.9902090   16.9529022
| 38>     H       18.3095350   14.8944190   18.0566841
| 39>     H       17.1317295   13.3591952   19.6188104
| 40>     H       15.1884133   14.1948141   20.9440444
| 41>     H       13.9278648   15.9238809   21.4107703
| 42>     H       15.6235561   18.0860409   19.1673793
| 43> *
| 44>
| 45>                          ****END OF INPUT****

CARTESIAN COORDINATES (ANGSTROEM)
---------------------------------
  C     15.056917   14.185592   15.924271
  C     15.847312   15.007168   14.891378
  O     16.560880   16.025795   15.616013
  C     16.265082   17.349117   15.436491
  O     15.578195   17.745708   14.510349
  C     16.849362   18.221270   16.515798
  C     16.898259   19.570761   16.372008
  C     16.195159   20.406633   15.322395
  N     17.663969   20.359376   17.233841
  C     18.553158   19.866573   18.150032
  S     19.497510   20.859693   19.076217
  N     18.637294   18.500726   18.245875
  C     17.768999   17.537939   17.542495
  C     17.047249   16.596167   18.497755
  C     17.467998   15.260894   18.638364
  C     16.801267   14.391490   19.518087
  C     15.706965   14.862360   20.263811
  C     15.289659   16.193850   20.128961
  O     14.234706   16.651404   20.849200
  C     15.956102   17.057116   19.253747
  H     15.733463   13.732063   16.658924
  H     14.495798   13.382853   15.430981
  H     14.344009   14.824163   16.461119
  H     16.561239   14.354255   14.373242
  H     15.161241   15.424805   14.142325
  H     15.120479   20.183855   15.308127
  H     16.589356   20.184157   14.322646
  H     16.301897   21.485056   15.488457
  H     17.627524   21.363370   17.158855
  H     19.277081   18.167231   18.955644
  H     18.517769   16.990209   16.952902
  H     18.309535   14.894419   18.056684
  H     17.131729   13.359195   19.618810
  H     15.188413   14.194814   20.944044
  H     13.927865   15.923881   21.410770
  H     15.623556   18.086041   19.167379

 Total Charge           Charge          ....    0
 Multiplicity           Mult            ....    1
 Number of Electrons    NEL             ....  154
 Basis Dimension        Dim             ....  828

ORBITAL ENERGIES
----------------

  NO   OCC          E(Eh)            E(eV)
   0   2.0000     -91.888727     -2500.4194
   1   2.0000     -20.600456      -560.5669
   2   2.0000     -20.597234      -560.4792
   3   2.0000     -20.540553      -558.9369
   4   2.0000     -15.629089      -425.2891
   5   2.0000     -15.606949      -424.6867
   6   2.0000     -11.395192      -310.0789
   7   2.0000     -11.383436      -309.7590
   8   2.0000     -11.337276      -308.5030
   9   2.0000     -11.314461      -307.8821
  10   2.0000     -11.307529      -307.6935
  11   2.0000     -11.294137      -307.3291
  12   2.0000     -11.261263      -306.4345
  13   2.0000     -11.259159      -306.3773
  14   2.0000     -11.255672      -306.2824
  15   2.0000     -11.251458      -306.1677
  16   2.0000     -11.244230      -305.9711
  17   2.0000     -11.239359      -305.8385
  18   2.0000     -11.239002      -305.8288
  19   2.0000     -11.224407      -305.4316
  20   2.0000      -8.893798      -242.0126
  21   2.0000      -6.575372      -178.9250
  22   2.0000      -6.573373      -178.8706
  23   2.0000      -6.572783      -178.8545
  24   2.0000      -1.450154       -39.4607
  25   2.0000      -1.416900       -38.5558
  26   2.0000      -1.354090       -36.8467
  27   2.0000      -1.340239       -36.4698
  28   2.0000      -1.238192       -33.6929
  29   2.0000      -1.158091       -31.5132
  30   2.0000      -1.121140       -30.5078
  31   2.0000      -1.043226       -28.3876
  32   2.0000      -1.037636       -28.2355
  33   2.0000      -1.015709       -27.6388
  34   2.0000      -0.996050       -27.1039
  35   2.0000      -0.984569       -26.7915
  36   2.0000      -0.921914       -25.0866
  37   2.0000      -0.889754       -24.2114
  38   2.0000      -0.846336       -23.0300
  39   2.0000      -0.838306       -22.8115
  40   2.0000      -0.834601       -22.7106
  41   2.0000      -0.814960       -22.1762
  42   2.0000      -0.762851       -20.7582
  43   2.0000      -0.733792       -19.9675
  44   2.0000      -0.721338       -19.6286
  45   2.0000      -0.696235       -18.9455
  46   2.0000      -0.688845       -18.7444
  47   2.0000      -0.679024       -18.4772
  48   2.0000      -0.670079       -18.2338
  49   2.0000      -0.664258       -18.0754
  50   2.0000      -0.646093       -17.5811
  51   2.0000      -0.641695       -17.4614
  52   2.0000      -0.634913       -17.2769
  53   2.0000      -0.607526       -16.5316
  54   2.0000      -0.601798       -16.3758
  55   2.0000      -0.599469       -16.3124
  56   2.0000      -0.593402       -16.1473
  57   2.0000      -0.577862       -15.7244
  58   2.0000      -0.569347       -15.4927
  59   2.0000      -0.565678       -15.3929
  60   2.0000      -0.563100       -15.3227
  61   2.0000      -0.549024       -14.9397
  62   2.0000      -0.538277       -14.6473
  63   2.0000      -0.526678       -14.3316
  64   2.0000      -0.524766       -14.2796
  65   2.0000      -0.513101       -13.9622
  66   2.0000      -0.500677       -13.6241
  67   2.0000      -0.496932       -13.5222
  68   2.0000      -0.483027       -13.1438
  69   2.0000      -0.462846       -12.5947
  70   2.0000      -0.452551       -12.3145
  71   2.0000      -0.448941       -12.2163
  72   2.0000      -0.353203        -9.6111
  73   2.0000      -0.350247        -9.5307
  74   2.0000      -0.327987        -8.9250
  75   2.0000      -0.321587        -8.7508
  76   2.0000      -0.318097        -8.6559
  77   0.0000       0.077991         2.1222
  78   0.0000       0.103722         2.8224
  79   0.0000       0.124134         3.3779
  80   0.0000       0.132640         3.6093
  81   0.0000       0.137034         3.7289

MULLIKEN ATOMIC CHARGES
-----------------------
   0 C :   -0.275943
   1 C :    0.013897
   2 O :   -0.345484
   3 C :    0.443212
   4 O :   -0.436649
   5 C :   -0.240254
   6 C :    0.178756
   7 C :   -0.268420
   8 N :   -0.126578
   9 C :    0.212022
  10 S :   -0.442674
  11 N :   -0.217520
  12 C :    0.068725
  13 C :    0.056553
  14 C :   -0.195571
  15 C :   -0.130388
  16 C :   -0.276865
  17 C :    0.317637
  18 O :   -0.356752
  19 C :   -0.251646
  20 H :    0.092491
  21 H :    0.100777
  22 H :    0.101425
  23 H :    0.096796
  24 H :    0.122506
  25 H :    0.133238
  26 H :    0.129417
  27 H :    0.094361
  28 H :    0.199563
  29 H :    0.200840
  30 H :    0.151073
  31 H :    0.152165
  32 H :    0.164322
  33 H :    0.130930
  34 H :    0.240747
  35 H :    0.163289
Sum of atomic charges:   -0.0000000

LOEWDIN ATOMIC CHARGES
----------------------
   0 C :    0.104444
   1 C :   -0.012704
   2 O :    0.310333
   3 C :   -0.414753
   4 O :    0.094468
   5 C :   -0.095353
   6 C :   -0.056663
   7 C :    0.131054
   8 N :    0.407168
   9 C :   -0.455939
  10 S :   -0.036945
  11 N :    0.394423
  12 C :   -0.054513
  13 C :   -0.038628
  14 C :    0.016946
  15 C :    0.040771
  16 C :   -0.000587
  17 C :   -0.189358
  18 O :    0.395304
  19 C :    0.033317
  20 H :   -0.029599
  21 H :   -0.027402
  22 H :   -0.024915
  23 H :   -0.029973
  24 H :   -0.028528
  25 H :   -0.004325
  26 H :   -0.004934
  27 H :   -0.023719
  28 H :   -0.057153
  29 H :   -0.064633
  30 H :   -0.013904
  31 H :   -0.029891
  32 H :   -0.021584
  33 H :   -0.035274
  34 H :   -0.153879
  35 H :   -0.023072

  Mayer bond orders larger than 0.100000
B(  0-C ,  1-C ) :   0.9705 B(  0-C , 20-H ) :   0.9743 B(  0-C , 21-H ) :   0.9778
B(  0-C , 22-H ) :   0.9761 B(  1-C ,  2-O ) :   0.8904 B(  1-C , 23-H ) :   0.9845
B(  1-C , 24-H ) :   0.9739 B(  2-O ,  3-C ) :   1.1767 B(  3-C ,  4-O ) :   1.9660
B(  3-C ,  5-C ) :   1.0624 B(  5-C ,  6-C ) :   1.6390 B(  5-C , 12-C ) :   0.9544
B(  6-C ,  7-C ) :   0.9654 B(  6-C ,  8-N ) :   1.1560 B(  7-C , 25-H ) :   0.9613
B(  7-C , 26-H ) :   0.9588 B(  7-C , 27-H ) :   0.9904 B(  8-N ,  9-C ) :   1.1876
B(  8-N , 28-H ) :   0.9464 B(  9-C , 10-S ) :   1.6038 B(  9-C , 11-N ) :   1.3109
B( 11-N , 12-C ) :   0.9645 B( 11-N , 29-H ) :   0.9484 B( 12-C , 13-C ) :   0.9644
B( 12-C , 30-H ) :   1.0005 B( 13-C , 14-C ) :   1.3494 B( 13-C , 19-C ) :   1.3788
B( 14-C , 15-C ) :   1.3890 B( 14-C , 31-H ) :   0.9721 B( 15-C , 16-C ) :   1.3588
B( 15-C , 32-H ) :   0.9700 B( 16-C , 17-C ) :   1.3326 B( 16-C , 33-H ) :   0.9849
B( 17-C , 18-O ) :   1.1047 B( 17-C , 19-C ) :   1.3647 B( 18-O , 34-H ) :   0.9797
B( 19-C , 35-H ) :   0.9596

MP2 TOTAL ENERGY:    -1274.344203218 Eh
FINAL SINGLE POINT ENERGY     -1274.344203217897

DIPOLE MOMENT
-------------
                                X             Y             Z
Electronic contribution:      8.02631      11.62343       7.18531
Nuclear contribution   :     -8.92242     -13.39255      -7.57345
                        -----------------------------------------
Total Dipole Moment    :     -0.89612      -1.76912      -0.38814
                        -----------------------------------------
Magnitude (a.u.)       :      2.02076
Magnitude (Debye)      :      5.13636

Rotational constants in cm-1:     0.012086     0.008402     0.005986
Rotational constants in MHz :   362.326379   251.879758   179.458332

                             ****ORCA TERMINATED NORMALLY****
TOTAL RUN TIME: 0 days 1 hours 38 minutes 22 seconds 287 msec
