                         Program Version 4.2.0 -  RELEASE  -
|  1> ! ri-mp2 cc-pvtz cc-pvtz/c TightSCF NoKeepInts
|  2>
|  3> %scf
|  4>   MaxCore 4096
|  5> end
|  6> *xyz  0  1
|  7>     C       14.0777969   15.2711497   14.4007694
|  8>     C       14.9237339   15.9957604   15.4602829
|  9>     O       16.2137355   16.2479558   14.8810519
| 10>     C       17.2556478   16.3709468   15.7481523
| 11>     O       18.0731034   15.4802990   15.8912739
| 12>     C       17.2394078   17.6147650   16.5842648
| 13>     C       16.9288486   18.8265698   16.0569632
| 14>     C       16.3773783   19.1158783   14.6745769
| 15>     N       17.1831023   19.9998724   16.7709757
| 16>     C       17.9469926   20.0624654   17.9058860
| 17>     S       18.2979432   21.5010926   18.6418665
| 18>     N       18.4240959   18.8692475   18.3883718
| 19>     C       18.0547911   17.5344139   17.8773345
| 20>     C       17.4187505   16.6281131   18.9220511
| 21>     C       17.8974054   15.3205790   19.1193600
| 22>     C       17.3025346   14.4783701   20.0735671
| 23>     C       16.2190371   14.9475772   20.8359543
| 24>     C       15.7371129   16.2487654   20.6379302
| 25>     O       14.6857152   16.7017369   21.3660956
| 26>     C       16.3303384   17.0843713   19.6860942
| 27>     H       14.5592563   14.3317642   14.1003472
| 28>     H       13.9549734   15.8970133   13.5081617
| 29>     H       13.0823757   15.0353000   14.7963293
| 30>     H       14.4414072   16.9311977   15.7717234
| 31>     H       15.0216572   15.3435800   16.3399887
| 32>     H       16.9245719   18.5535433   13.9069491
| 33>     H       16.4596499   20.1756199   14.4029642
| 34>     H       15.3190413   18.8393748   14.6047364
| 35>     H       16.8651479   20.8865220   16.4129015
| 36>     H       18.9742995   18.9420207   19.2351041
| 37>     H       19.0446610   17.1525136   17.5862635
| 38>     H       18.7261271   14.9517357   18.5185876
| 39>     H       17.6792709   13.4666922   20.2145315
| 40>     H       15.7560417   14.2995797   21.5728130
| 41>     H       14.4471128   16.0048470   21.9959412
| 42>     H       15.9439350   18.0887663   19.5478355
| 43> *
| 44>
| 45>                          ****END OF INPUT****

CARTESIAN COORDINATES (ANGSTROEM)
---------------------------------
  C     14.077797   15.271150   14.400769
  C     14.923734   15.995760   15.460283
  O     16.213735   16.247956   14.881052
  C     17.255648   16.370947   15.748152
  O     18.073103   15.480299   15.891274
  C     17.239408   17.614765   16.584265
  C     16.928849   18.826570   16.056963
  C     16.377378   19.115878   14.674577
  N     17.183102   19.999872   16.770976
  C     17.946993   20.062465   17.905886
  S     18.297943   21.501093   18.641866
  N     18.424096   18.869248   18.388372
  C     18.054791   17.534414   17.877334
  C     17.418751   16.628113   18.922051
  C     17.897405   15.320579   19.119360
  C     17.302535   14.478370   20.073567
  C     16.219037   14.947577   20.835954
  C     15.737113   16.248765   20.637930
  O     14.685715   16.701737   21.366096
  C     16.330338   17.084371   19.686094
  H     14.559256   14.331764   14.100347
  H     13.954973   15.897013   13.508162
  H     13.082376   15.035300   14.796329
  H     14.441407   16.931198   15.771723
  H     15.021657   15.343580   16.339989
  H     16.924572   18.553543   13.906949
  H     16.459650   20.175620   14.402964
  H     15.319041   18.839375   14.604736
  H     16.865148   20.886522   16.412902
  H     18.974300   18.942021   19.235104
  H     19.044661   17.152514   17.586263
  H     18.726127   14.951736   18.518588
  H     17.679271   13.466692   20.214531
  H     15.756042   14.299580   21.572813
  H     14.447113   16.004847   21.995941
  H     15.943935   18.088766   19.547835

 Total Charge           Charge          ....    0
 Multiplicity           Mult            ....    1
 Number of Electrons    NEL             ....  154
 Basis Dimension        Dim             ....  828

ORBITAL ENERGIES
----------------

  NO   OCC          E(Eh)            E(eV)
   0   2.0000     -91.890205     -2500.4596
   1   2.0000     -20.596059      -560.4473
   2   2.0000     -20.591320      -560.3183
   3   2.0000     -20.553947      -559.3013
   4   2.0000     -15.630701      -425.3330
   5   2.0000     -15.608124      -424.7187
   6   2.0000     -11.394333      -310.0556
   7   2.0000     -11.385253      -309.8085
   8   2.0000     -11.339508      -308.5637
   9   2.0000     -11.312508      -307.8290
  10   2.0000     -11.307059      -307.6807
  11   2.0000     -11.306393      -307.6626
  12   2.0000     -11.264180      -306.5139
  13   2.0000     -11.260903      -306.4248
  14   2.0000     -11.259738      -306.3930
  15   2.0000     -11.252457      -306.1949
  16   2.0000     -11.242347      -305.9198
  17   2.0000     -11.238567      -305.8169
  18   2.0000     -11.235022      -305.7205
  19   2.0000     -11.234887      -305.7168
  20   2.0000      -8.895287      -242.0531
  21   2.0000      -6.576861      -178.9655
  22   2.0000      -6.574858      -178.9110
  23   2.0000      -6.574268      -178.8949
  24   2.0000      -1.453401       -39.5490
  25   2.0000      -1.415800       -38.5259
  26   2.0000      -1.362258       -37.0689
  27   2.0000      -1.341928       -36.5157
  28   2.0000      -1.239143       -33.7188
  29   2.0000      -1.156954       -31.4823
  30   2.0000      -1.123746       -30.5787
  31   2.0000      -1.045850       -28.4590
  32   2.0000      -1.039278       -28.2802
  33   2.0000      -1.014633       -27.6096
  34   2.0000      -1.002892       -27.2901
  35   2.0000      -0.987579       -26.8734
  36   2.0000      -0.924061       -25.1450
  37   2.0000      -0.879781       -23.9401
  38   2.0000      -0.853649       -23.2290
  39   2.0000      -0.841903       -22.9093
  40   2.0000      -0.834072       -22.6963
  41   2.0000      -0.832175       -22.6446
  42   2.0000      -0.760177       -20.6855
  43   2.0000      -0.737733       -20.0747
  44   2.0000      -0.729997       -19.8642
  45   2.0000      -0.693803       -18.8793
  46   2.0000      -0.688889       -18.7456
  47   2.0000      -0.682893       -18.5825
  48   2.0000      -0.673784       -18.3346
  49   2.0000      -0.660092       -17.9620
  50   2.0000      -0.651229       -17.7208
  51   2.0000      -0.646585       -17.5945
  52   2.0000      -0.638363       -17.3707
  53   2.0000      -0.613077       -16.6827
  54   2.0000      -0.605328       -16.4718
  55   2.0000      -0.602998       -16.4084
  56   2.0000      -0.599336       -16.3088
  57   2.0000      -0.581231       -15.8161
  58   2.0000      -0.576506       -15.6875
  59   2.0000      -0.564178       -15.3521
  60   2.0000      -0.561667       -15.2837
  61   2.0000      -0.556514       -15.1435
  62   2.0000      -0.543130       -14.7793
  63   2.0000      -0.521732       -14.1971
  64   2.0000      -0.520114       -14.1530
  65   2.0000      -0.512848       -13.9553
  66   2.0000      -0.502258       -13.6671
  67   2.0000      -0.497685       -13.5427
  68   2.0000      -0.486751       -13.2452
  69   2.0000      -0.468466       -12.7476
  70   2.0000      -0.461971       -12.5709
  71   2.0000      -0.453007       -12.3269
  72   2.0000      -0.356013        -9.6876
  73   2.0000      -0.348643        -9.4871
  74   2.0000      -0.329329        -8.9615
  75   2.0000      -0.320043        -8.7088
  76   2.0000      -0.319157        -8.6847
  77   0.0000       0.074115         2.0168
  78   0.0000       0.106503         2.8981
  79   0.0000       0.117246         3.1904
  80   0.0000       0.132614         3.6086
  81   0.0000       0.137187         3.7330

MULLIKEN ATOMIC CHARGES
-----------------------
   0 C :   -0.256483
   1 C :    0.020649
   2 O :   -0.352391
   3 C :    0.443689
   4 O :   -0.376971
   5 C :   -0.236931
   6 C :    0.164683
   7 C :   -0.296257
   8 N :   -0.131114
   9 C :    0.205845
  10 S :   -0.439910
  11 N :   -0.214340
  12 C :    0.054794
  13 C :    0.026729
  14 C :   -0.191415
  15 C :   -0.131278
  16 C :   -0.278160
  17 C :    0.313757
  18 O :   -0.358000
  19 C :   -0.252939
  20 H :    0.108386
  21 H :    0.093747
  22 H :    0.089651
  23 H :    0.092237
  24 H :    0.107815
  25 H :    0.136531
  26 H :    0.111350
  27 H :    0.119231
  28 H :    0.198168
  29 H :    0.200342
  30 H :    0.159430
  31 H :    0.168438
  32 H :    0.162659
  33 H :    0.130191
  34 H :    0.240750
  35 H :    0.167120
Sum of atomic charges:   -0.0000000

LOEWDIN ATOMIC CHARGES
----------------------
   0 C :    0.111857
   1 C :   -0.025913
   2 O :    0.300737
   3 C :   -0.424935
   4 O :    0.128260
   5 C :   -0.095487
   6 C :   -0.070716
   7 C :    0.127527
   8 N :    0.405072
   9 C :   -0.457932
  10 S :   -0.035897
  11 N :    0.396071
  12 C :   -0.049362
  13 C :   -0.042827
  14 C :    0.022995
  15 C :    0.042218
  16 C :   -0.000935
  17 C :   -0.192972
  18 O :    0.393528
  19 C :    0.027649
  20 H :   -0.020826
  21 H :   -0.027859
  22 H :   -0.024880
  23 H :   -0.038894
  24 H :   -0.025117
  25 H :   -0.006042
  26 H :   -0.018049
  27 H :   -0.013941
  28 H :   -0.058216
  29 H :   -0.063359
  30 H :   -0.006438
  31 H :   -0.022348
  32 H :   -0.019781
  33 H :   -0.035472
  34 H :   -0.153911
  35 H :   -0.023804

  Mayer bond orders larger than 0.100000
B(  0-C ,  1-C ) :   0.9801 B(  0-C , 20-H ) :   0.9769 B(  0-C , 21-H ) :   0.9783
B(  0-C , 22-H ) :   0.9756 B(  1-C ,  2-O ) :   0.8943 B(  1-C , 23-H ) :   0.9719
B(  1-C , 24-H ) :   0.9737 B(  2-O ,  3-C ) :   1.1115 B(  3-C ,  4-O ) :   2.0847
B(  3-C ,  5-C ) :   0.9741 B(  5-C ,  6-C ) :   1.6800 B(  5-C , 12-C ) :   0.9492
B(  6-C ,  7-C ) :   0.9447 B(  6-C ,  8-N ) :   1.1323 B(  7-C , 25-H ) :   0.9660
B(  7-C , 26-H ) :   0.9878 B(  7-C , 27-H ) :   0.9674 B(  8-N ,  9-C ) :   1.1860
B(  8-N , 28-H ) :   0.9478 B(  9-C , 10-S ) :   1.6123 B(  9-C , 11-N ) :   1.3002
B( 11-N , 12-C ) :   0.9828 B( 11-N , 29-H ) :   0.9486 B( 12-C , 13-C ) :   0.9711
B( 12-C , 30-H ) :   0.9931 B( 13-C , 14-C ) :   1.3820 B( 13-C , 19-C ) :   1.3605
B( 14-C , 15-C ) :   1.3950 B( 14-C , 31-H ) :   0.9606 B( 15-C , 16-C ) :   1.3604
B( 15-C , 32-H ) :   0.9704 B( 16-C , 17-C ) :   1.3316 B( 16-C , 33-H ) :   0.9854
B( 17-C , 18-O ) :   1.1060 B( 17-C , 19-C ) :   1.3672 B( 18-O , 34-H ) :   0.9799
B( 19-C , 35-H ) :   0.9589

MP2 TOTAL ENERGY:    -1274.328216143 Eh
FINAL SINGLE POINT ENERGY     -1274.328216143317

DIPOLE MOMENT
-------------
                                X             Y             Z
Electronic contribution:     10.61262       9.02488       9.72311
Nuclear contribution   :    -12.15618     -10.15987     -10.21474
                        -----------------------------------------
Total Dipole Moment    :     -1.54356      -1.13499      -0.49162
                        -----------------------------------------
Magnitude (a.u.)       :      1.97800
Magnitude (Debye)      :      5.02766

Rotational constants in cm-1:     0.010016     0.009352     0.005985
Rotational constants in MHz :   300.263497   280.361857   179.439850

                             ****ORCA TERMINATED NORMALLY****
TOTAL RUN TIME: 0 days 1 hours 40 minutes 16 seconds 652 msec
