                         Program Version 4.2.0 -  RELEASE  -
|  1> ! ri-mp2 cc-pvtz cc-pvtz/c TightSCF NoKeepInts
|  2>
|  3> %scf
|  4>   MaxCore 4096
|  5> end
|  6> *xyz  0  1
|  7>     C       15.5292458   14.1405550   14.6274899
|  8>     C       14.7987272   15.3477174   15.2390616
|  9>     O       15.8005724   16.1991146   15.8226999
| 10>     C       15.6721529   17.5592836   15.7688366
| 11>     O       14.8443407   18.1086957   15.0618827
| 12>     C       16.6213364   18.2648122   16.7009900
| 13>     C       16.8306096   19.6027449   16.5977833
| 14>     C       16.0198137   20.5982753   15.7937941
| 15>     N       17.8939152   20.2186845   17.2618938
| 16>     C       18.9052736   19.5472912   17.8937034
| 17>     S       20.1878779   20.3368671   18.5772678
| 18>     N       18.8113845   18.1788745   17.9118004
| 19>     C       17.6596328   17.3935637   17.4291187
| 20>     C       17.0721941   16.4926480   18.5078127
| 21>     C       17.2074886   15.0944035   18.4264764
| 22>     C       16.6661022   14.2659674   19.4238722
| 23>     C       15.9877302   14.8411169   20.5122724
| 24>     C       15.8556778   16.2341942   20.5972281
| 25>     O       15.2023280   16.7919394   21.6475338
| 26>     C       16.3952406   17.0559944   19.6027242
| 27>     H       14.8121218   13.4516241   14.1648268
| 28>     H       16.0834528   13.5926909   15.3995914
| 29>     H       16.2376747   14.4676627   13.8561977
| 30>     H       14.2474659   15.8599772   14.4388195
| 31>     H       14.0812178   15.0241388   16.0043152
| 32>     H       14.9539157   20.5188612   16.0434314
| 33>     H       16.1204678   20.4011616   14.7188982
| 34>     H       16.3184726   21.6384081   15.9695796
| 35>     H       17.9862214   21.2215885   17.2367892
| 36>     H       19.5557154   17.7123244   18.4145174
| 37>     H       18.1472684   16.7944758   16.6470281
| 38>     H       17.7265610   14.6492406   17.5818971
| 39>     H       16.7724885   13.1850558   19.3515137
| 40>     H       15.5681299   14.2056807   21.2851781
| 41>     H       14.9250648   16.0720136   22.2337068
| 42>     H       16.2891174   18.1323528   19.6874679
| 43> *
| 44>
| 45>                          ****END OF INPUT****

CARTESIAN COORDINATES (ANGSTROEM)
---------------------------------
  C     15.529246   14.140555   14.627490
  C     14.798727   15.347717   15.239062
  O     15.800572   16.199115   15.822700
  C     15.672153   17.559284   15.768837
  O     14.844341   18.108696   15.061883
  C     16.621336   18.264812   16.700990
  C     16.830610   19.602745   16.597783
  C     16.019814   20.598275   15.793794
  N     17.893915   20.218684   17.261894
  C     18.905274   19.547291   17.893703
  S     20.187878   20.336867   18.577268
  N     18.811384   18.178874   17.911800
  C     17.659633   17.393564   17.429119
  C     17.072194   16.492648   18.507813
  C     17.207489   15.094403   18.426476
  C     16.666102   14.265967   19.423872
  C     15.987730   14.841117   20.512272
  C     15.855678   16.234194   20.597228
  O     15.202328   16.791939   21.647534
  C     16.395241   17.055994   19.602724
  H     14.812122   13.451624   14.164827
  H     16.083453   13.592691   15.399591
  H     16.237675   14.467663   13.856198
  H     14.247466   15.859977   14.438819
  H     14.081218   15.024139   16.004315
  H     14.953916   20.518861   16.043431
  H     16.120468   20.401162   14.718898
  H     16.318473   21.638408   15.969580
  H     17.986221   21.221588   17.236789
  H     19.555715   17.712324   18.414517
  H     18.147268   16.794476   16.647028
  H     17.726561   14.649241   17.581897
  H     16.772489   13.185056   19.351514
  H     15.568130   14.205681   21.285178
  H     14.925065   16.072014   22.233707
  H     16.289117   18.132353   19.687468

 Total Charge           Charge          ....    0
 Multiplicity           Mult            ....    1
 Number of Electrons    NEL             ....  154
 Basis Dimension        Dim             ....  828

ORBITAL ENERGIES
----------------

  NO   OCC          E(Eh)            E(eV)
   0   2.0000     -91.888803     -2500.4214
   1   2.0000     -20.601125      -560.5851
   2   2.0000     -20.596000      -560.4457
   3   2.0000     -20.540872      -558.9455
   4   2.0000     -15.629118      -425.2899
   5   2.0000     -15.606937      -424.6863
   6   2.0000     -11.395065      -310.0755
   7   2.0000     -11.383422      -309.7587
   8   2.0000     -11.337319      -308.5041
   9   2.0000     -11.313146      -307.8464
  10   2.0000     -11.307464      -307.6917
  11   2.0000     -11.295337      -307.3617
  12   2.0000     -11.260331      -306.4092
  13   2.0000     -11.259173      -306.3777
  14   2.0000     -11.254650      -306.2546
  15   2.0000     -11.251450      -306.1675
  16   2.0000     -11.243084      -305.9399
  17   2.0000     -11.238499      -305.8151
  18   2.0000     -11.238324      -305.8104
  19   2.0000     -11.230884      -305.6079
  20   2.0000      -8.893873      -242.0146
  21   2.0000      -6.575446      -178.9270
  22   2.0000      -6.573448      -178.8726
  23   2.0000      -6.572857      -178.8565
  24   2.0000      -1.451096       -39.4863
  25   2.0000      -1.415665       -38.5222
  26   2.0000      -1.354496       -36.8577
  27   2.0000      -1.340308       -36.4716
  28   2.0000      -1.238179       -33.6926
  29   2.0000      -1.157130       -31.4871
  30   2.0000      -1.120953       -30.5027
  31   2.0000      -1.043258       -28.3885
  32   2.0000      -1.040272       -28.3072
  33   2.0000      -1.014566       -27.6077
  34   2.0000      -0.996326       -27.1114
  35   2.0000      -0.984587       -26.7920
  36   2.0000      -0.921593       -25.0778
  37   2.0000      -0.888971       -24.1901
  38   2.0000      -0.846181       -23.0257
  39   2.0000      -0.837488       -22.7892
  40   2.0000      -0.833718       -22.6866
  41   2.0000      -0.817387       -22.2422
  42   2.0000      -0.765251       -20.8235
  43   2.0000      -0.733187       -19.9510
  44   2.0000      -0.720961       -19.6184
  45   2.0000      -0.694738       -18.9048
  46   2.0000      -0.686253       -18.6739
  47   2.0000      -0.679328       -18.4855
  48   2.0000      -0.676633       -18.4121
  49   2.0000      -0.661080       -17.9889
  50   2.0000      -0.646808       -17.6005
  51   2.0000      -0.640453       -17.4276
  52   2.0000      -0.632745       -17.2179
  53   2.0000      -0.606384       -16.5005
  54   2.0000      -0.603245       -16.4151
  55   2.0000      -0.599360       -16.3094
  56   2.0000      -0.598364       -16.2823
  57   2.0000      -0.577286       -15.7087
  58   2.0000      -0.569551       -15.4983
  59   2.0000      -0.567339       -15.4381
  60   2.0000      -0.562100       -15.2955
  61   2.0000      -0.545516       -14.8443
  62   2.0000      -0.541403       -14.7323
  63   2.0000      -0.527056       -14.3419
  64   2.0000      -0.523798       -14.2533
  65   2.0000      -0.513003       -13.9595
  66   2.0000      -0.500833       -13.6283
  67   2.0000      -0.496435       -13.5087
  68   2.0000      -0.484492       -13.1837
  69   2.0000      -0.463886       -12.6230
  70   2.0000      -0.458228       -12.4690
  71   2.0000      -0.447024       -12.1641
  72   2.0000      -0.352963        -9.6046
  73   2.0000      -0.349355        -9.5064
  74   2.0000      -0.327928        -8.9234
  75   2.0000      -0.320552        -8.7227
  76   2.0000      -0.317974        -8.6525
  77   0.0000       0.077331         2.1043
  78   0.0000       0.105092         2.8597
  79   0.0000       0.124390         3.3848
  80   0.0000       0.132575         3.6075
  81   0.0000       0.135591         3.6896

MULLIKEN ATOMIC CHARGES
-----------------------
   0 C :   -0.266980
   1 C :    0.017618
   2 O :   -0.342634
   3 C :    0.443793
   4 O :   -0.436040
   5 C :   -0.225076
   6 C :    0.171011
   7 C :   -0.268908
   8 N :   -0.126165
   9 C :    0.209824
  10 S :   -0.441887
  11 N :   -0.214577
  12 C :    0.054002
  13 C :    0.046081
  14 C :   -0.180337
  15 C :   -0.133817
  16 C :   -0.275827
  17 C :    0.316529
  18 O :   -0.356854
  19 C :   -0.248497
  20 H :    0.094207
  21 H :    0.090622
  22 H :    0.096425
  23 H :    0.124504
  24 H :    0.097683
  25 H :    0.133874
  26 H :    0.128835
  27 H :    0.094356
  28 H :    0.199897
  29 H :    0.200425
  30 H :    0.152847
  31 H :    0.152496
  32 H :    0.159939
  33 H :    0.129707
  34 H :    0.240441
  35 H :    0.162485
Sum of atomic charges:   -0.0000000

LOEWDIN ATOMIC CHARGES
----------------------
   0 C :    0.104983
   1 C :   -0.012038
   2 O :    0.311019
   3 C :   -0.414114
   4 O :    0.094856
   5 C :   -0.095097
   6 C :   -0.056273
   7 C :    0.131042
   8 N :    0.407164
   9 C :   -0.456789
  10 S :   -0.036532
  11 N :    0.394718
  12 C :   -0.054870
  13 C :   -0.039410
  14 C :    0.016784
  15 C :    0.038692
  16 C :   -0.000574
  17 C :   -0.189611
  18 O :    0.394982
  19 C :    0.033422
  20 H :   -0.024946
  21 H :   -0.030907
  22 H :   -0.026352
  23 H :   -0.027704
  24 H :   -0.029657
  25 H :   -0.004139
  26 H :   -0.005158
  27 H :   -0.023714
  28 H :   -0.057144
  29 H :   -0.064288
  30 H :   -0.014030
  31 H :   -0.030424
  32 H :   -0.021591
  33 H :   -0.035506
  34 H :   -0.154072
  35 H :   -0.022723

  Mayer bond orders larger than 0.100000
B(  0-C ,  1-C ) :   0.9722 B(  0-C , 20-H ) :   0.9769 B(  0-C , 21-H ) :   0.9795
B(  0-C , 22-H ) :   0.9777 B(  1-C ,  2-O ) :   0.8913 B(  1-C , 23-H ) :   0.9765
B(  1-C , 24-H ) :   0.9768 B(  2-O ,  3-C ) :   1.1730 B(  3-C ,  4-O ) :   1.9682
B(  3-C ,  5-C ) :   1.0645 B(  5-C ,  6-C ) :   1.6422 B(  5-C , 12-C ) :   0.9556
B(  6-C ,  7-C ) :   0.9656 B(  6-C ,  8-N ) :   1.1531 B(  7-C , 25-H ) :   0.9613
B(  7-C , 26-H ) :   0.9588 B(  7-C , 27-H ) :   0.9905 B(  8-N ,  9-C ) :   1.1877
B(  8-N , 28-H ) :   0.9464 B(  9-C , 10-S ) :   1.6063 B(  9-C , 11-N ) :   1.3090
B( 11-N , 12-C ) :   0.9696 B( 11-N , 29-H ) :   0.9484 B( 12-C , 13-C ) :   0.9636
B( 12-C , 30-H ) :   1.0016 B( 13-C , 14-C ) :   1.3559 B( 13-C , 19-C ) :   1.3803
B( 14-C , 15-C ) :   1.3933 B( 14-C , 31-H ) :   0.9707 B( 15-C , 16-C ) :   1.3605
B( 15-C , 32-H ) :   0.9707 B( 16-C , 17-C ) :   1.3347 B( 16-C , 33-H ) :   0.9852
B( 17-C , 18-O ) :   1.1044 B( 17-C , 19-C ) :   1.3647 B( 18-O , 34-H ) :   0.9800
B( 19-C , 35-H ) :   0.9597

MP2 TOTAL ENERGY:    -1274.343077543 Eh
FINAL SINGLE POINT ENERGY     -1274.343077543021

DIPOLE MOMENT
-------------
                                X             Y             Z
Electronic contribution:      8.51227      10.74869       9.11117
Nuclear contribution   :     -9.72212     -12.35526      -9.44257
                        -----------------------------------------
Total Dipole Moment    :     -1.20985      -1.60657      -0.33140
                        -----------------------------------------
Magnitude (a.u.)       :      2.03829
Magnitude (Debye)      :      5.18093

Rotational constants in cm-1:     0.010899     0.008513     0.005891
Rotational constants in MHz :   326.758775   255.226596   176.622636

                             ****ORCA TERMINATED NORMALLY****
TOTAL RUN TIME: 0 days 1 hours 39 minutes 38 seconds 907 msec
