                         Program Version 4.2.0 -  RELEASE  -
|  1> ! ri-mp2 cc-pvtz cc-pvtz/c TightSCF NoKeepInts
|  2>
|  3> %scf
|  4>   MaxCore 4096
|  5> end
|  6> *xyz  0  1
|  7>     C       14.4218702   15.5116837   15.6652123
|  8>     C       15.8315919   14.9137629   15.8758820
|  9>     O       16.9093147   15.8132912   15.5102570
| 10>     C       16.7014233   17.1403236   15.2598182
| 11>     O       16.2469720   17.5029925   14.1894140
| 12>     C       17.0263514   18.0458267   16.4205661
| 13>     C       16.9718135   19.3957385   16.2718949
| 14>     C       16.3233209   20.1714907   15.1435002
| 15>     N       17.5466848   20.2503471   17.2151277
| 16>     C       18.3767133   19.8428927   18.2231908
| 17>     S       19.1147497   20.9174211   19.2411340
| 18>     N       18.5861304   18.4920071   18.3302269
| 19>     C       17.8823609   17.4533720   17.5551186
| 20>     C       17.1719710   16.4532390   18.4552992
| 21>     C       17.7965249   15.2409914   18.8025822
| 22>     C       17.1431417   14.3150163   19.6332638
| 23>     C       15.8584378   14.6064747   20.1234468
| 24>     C       15.2399207   15.8189420   19.7884204
| 25>     O       14.0000743   16.1033014   20.2596152
| 26>     C       15.8925507   16.7389955   18.9622009
| 27>     H       14.2688267   16.4031595   16.2861241
| 28>     H       13.6560836   14.7777275   15.9436176
| 29>     H       14.2601720   15.7794800   14.6131543
| 30>     H       15.9322789   14.6225465   16.9275070
| 31>     H       15.9220206   13.9961071   15.2805800
| 32>     H       15.3098559   19.7983792   14.9481155
| 33>     H       16.8988533   20.0569357   14.2158477
| 34>     H       16.2385974   21.2444756   15.3521081
| 35>     H       17.4239967   21.2465844   17.1282133
| 36>     H       19.1813123   18.2199741   19.1023416
| 37>     H       18.7381235   16.9796262   17.0529960
| 38>     H       18.7888727   15.0135682   18.4215732
| 39>     H       17.6322137   13.3781035   19.8954779
| 40>     H       15.3500933   13.8942261   20.7653687
| 41>     H       13.7418580   15.3847519   20.8567388
| 42>     H       15.4019232   17.6762444   18.7220650
| 43> *
| 44>
| 45>                          ****END OF INPUT****

CARTESIAN COORDINATES (ANGSTROEM)
---------------------------------
  C     14.421870   15.511684   15.665212
  C     15.831592   14.913763   15.875882
  O     16.909315   15.813291   15.510257
  C     16.701423   17.140324   15.259818
  O     16.246972   17.502993   14.189414
  C     17.026351   18.045827   16.420566
  C     16.971813   19.395738   16.271895
  C     16.323321   20.171491   15.143500
  N     17.546685   20.250347   17.215128
  C     18.376713   19.842893   18.223191
  S     19.114750   20.917421   19.241134
  N     18.586130   18.492007   18.330227
  C     17.882361   17.453372   17.555119
  C     17.171971   16.453239   18.455299
  C     17.796525   15.240991   18.802582
  C     17.143142   14.315016   19.633264
  C     15.858438   14.606475   20.123447
  C     15.239921   15.818942   19.788420
  O     14.000074   16.103301   20.259615
  C     15.892551   16.738996   18.962201
  H     14.268827   16.403160   16.286124
  H     13.656084   14.777727   15.943618
  H     14.260172   15.779480   14.613154
  H     15.932279   14.622547   16.927507
  H     15.922021   13.996107   15.280580
  H     15.309856   19.798379   14.948116
  H     16.898853   20.056936   14.215848
  H     16.238597   21.244476   15.352108
  H     17.423997   21.246584   17.128213
  H     19.181312   18.219974   19.102342
  H     18.738124   16.979626   17.052996
  H     18.788873   15.013568   18.421573
  H     17.632214   13.378103   19.895478
  H     15.350093   13.894226   20.765369
  H     13.741858   15.384752   20.856739
  H     15.401923   17.676244   18.722065

 Total Charge           Charge          ....    0
 Multiplicity           Mult            ....    1
 Number of Electrons    NEL             ....  154
 Basis Dimension        Dim             ....  828

ORBITAL ENERGIES
----------------

  NO   OCC          E(Eh)            E(eV)
   0   2.0000     -91.890496     -2500.4675
   1   2.0000     -20.603645      -560.6537
   2   2.0000     -20.579292      -559.9910
   3   2.0000     -20.543886      -559.0276
   4   2.0000     -15.630839      -425.3368
   5   2.0000     -15.608643      -424.7328
   6   2.0000     -11.392194      -309.9974
   7   2.0000     -11.384879      -309.7983
   8   2.0000     -11.339145      -308.5538
   9   2.0000     -11.321428      -308.0717
  10   2.0000     -11.310396      -307.7715
  11   2.0000     -11.296812      -307.4019
  12   2.0000     -11.267074      -306.5927
  13   2.0000     -11.262648      -306.4722
  14   2.0000     -11.258702      -306.3649
  15   2.0000     -11.252736      -306.2025
  16   2.0000     -11.250902      -306.1526
  17   2.0000     -11.245331      -306.0010
  18   2.0000     -11.245210      -305.9977
  19   2.0000     -11.225740      -305.4679
  20   2.0000      -8.895552      -242.0603
  21   2.0000      -6.577121      -178.9726
  22   2.0000      -6.575126      -178.9183
  23   2.0000      -6.574532      -178.9021
  24   2.0000      -1.440384       -39.1948
  25   2.0000      -1.423310       -38.7302
  26   2.0000      -1.348589       -36.6970
  27   2.0000      -1.342382       -36.5281
  28   2.0000      -1.240569       -33.7576
  29   2.0000      -1.164097       -31.6767
  30   2.0000      -1.122366       -30.5411
  31   2.0000      -1.047680       -28.5088
  32   2.0000      -1.030148       -28.0318
  33   2.0000      -1.022192       -27.8153
  34   2.0000      -0.999616       -27.2009
  35   2.0000      -0.986957       -26.8565
  36   2.0000      -0.925160       -25.1749
  37   2.0000      -0.893906       -24.3244
  38   2.0000      -0.849684       -23.1211
  39   2.0000      -0.843775       -22.9603
  40   2.0000      -0.840254       -22.8645
  41   2.0000      -0.821572       -22.3561
  42   2.0000      -0.745576       -20.2881
  43   2.0000      -0.737298       -20.0629
  44   2.0000      -0.716984       -19.5101
  45   2.0000      -0.701596       -19.0914
  46   2.0000      -0.689604       -18.7651
  47   2.0000      -0.675859       -18.3911
  48   2.0000      -0.669975       -18.2309
  49   2.0000      -0.660887       -17.9837
  50   2.0000      -0.651752       -17.7351
  51   2.0000      -0.643834       -17.5196
  52   2.0000      -0.637654       -17.3514
  53   2.0000      -0.623974       -16.9792
  54   2.0000      -0.613644       -16.6981
  55   2.0000      -0.605257       -16.4699
  56   2.0000      -0.603163       -16.4129
  57   2.0000      -0.582662       -15.8550
  58   2.0000      -0.571094       -15.5403
  59   2.0000      -0.567648       -15.4465
  60   2.0000      -0.546467       -14.8701
  61   2.0000      -0.541919       -14.7464
  62   2.0000      -0.536378       -14.5956
  63   2.0000      -0.530470       -14.4348
  64   2.0000      -0.526286       -14.3210
  65   2.0000      -0.515367       -14.0239
  66   2.0000      -0.503876       -13.7112
  67   2.0000      -0.491514       -13.3748
  68   2.0000      -0.485223       -13.2036
  69   2.0000      -0.464145       -12.6300
  70   2.0000      -0.453992       -12.3537
  71   2.0000      -0.440653       -11.9908
  72   2.0000      -0.357553        -9.7295
  73   2.0000      -0.353810        -9.6277
  74   2.0000      -0.331507        -9.0208
  75   2.0000      -0.327566        -8.9135
  76   2.0000      -0.320297        -8.7157
  77   0.0000       0.072146         1.9632
  78   0.0000       0.098592         2.6828
  79   0.0000       0.121049         3.2939
  80   0.0000       0.127752         3.4763
  81   0.0000       0.129499         3.5238

MULLIKEN ATOMIC CHARGES
-----------------------
   0 C :   -0.316202
   1 C :    0.033081
   2 O :   -0.392787
   3 C :    0.501979
   4 O :   -0.410332
   5 C :   -0.307216
   6 C :    0.184967
   7 C :   -0.268149
   8 N :   -0.127019
   9 C :    0.214348
  10 S :   -0.440892
  11 N :   -0.219551
  12 C :    0.076897
  13 C :    0.007236
  14 C :   -0.169011
  15 C :   -0.134169
  16 C :   -0.272116
  17 C :    0.311767
  18 O :   -0.357331
  19 C :   -0.242107
  20 H :    0.095972
  21 H :    0.107745
  22 H :    0.125541
  23 H :    0.105582
  24 H :    0.116265
  25 H :    0.129931
  26 H :    0.133865
  27 H :    0.094345
  28 H :    0.199309
  29 H :    0.200973
  30 H :    0.151425
  31 H :    0.153043
  32 H :    0.163725
  33 H :    0.134115
  34 H :    0.242426
  35 H :    0.172343
Sum of atomic charges:    0.0000000

LOEWDIN ATOMIC CHARGES
----------------------
   0 C :    0.104952
   1 C :   -0.011203
   2 O :    0.282631
   3 C :   -0.422454
   4 O :    0.116383
   5 C :   -0.102972
   6 C :   -0.054080
   7 C :    0.130973
   8 N :    0.407980
   9 C :   -0.456195
  10 S :   -0.035134
  11 N :    0.394413
  12 C :   -0.054478
  13 C :   -0.038691
  14 C :    0.016080
  15 C :    0.042113
  16 C :   -0.000630
  17 C :   -0.190693
  18 O :    0.396649
  19 C :    0.033818
  20 H :   -0.031037
  21 H :   -0.023220
  22 H :   -0.023664
  23 H :   -0.032116
  24 H :   -0.026246
  25 H :   -0.005246
  26 H :   -0.003857
  27 H :   -0.023560
  28 H :   -0.056679
  29 H :   -0.064917
  30 H :   -0.011601
  31 H :   -0.027701
  32 H :   -0.019247
  33 H :   -0.033962
  34 H :   -0.152256
  35 H :   -0.024152

  Mayer bond orders larger than 0.100000
B(  0-C ,  1-C ) :   0.9675 B(  0-C , 20-H ) :   0.9732 B(  0-C , 21-H ) :   0.9746
B(  0-C , 22-H ) :   0.9716 B(  1-C ,  2-O ) :   0.8949 B(  1-C , 23-H ) :   0.9697
B(  1-C , 24-H ) :   0.9837 B(  2-O ,  3-C ) :   1.0883 B(  3-C ,  4-O ) :   2.0164
B(  3-C ,  5-C ) :   1.0653 B(  5-C ,  6-C ) :   1.6236 B(  5-C , 12-C ) :   0.9541
B(  6-C ,  7-C ) :   0.9675 B(  6-C ,  8-N ) :   1.1621 B(  7-C , 25-H ) :   0.9638
B(  7-C , 26-H ) :   0.9562 B(  7-C , 27-H ) :   0.9887 B(  8-N ,  9-C ) :   1.1853
B(  8-N , 28-H ) :   0.9466 B(  9-C , 10-S ) :   1.6037 B(  9-C , 11-N ) :   1.3117
B( 11-N , 12-C ) :   0.9571 B( 11-N , 29-H ) :   0.9483 B( 12-C , 13-C ) :   0.9705
B( 12-C , 30-H ) :   1.0008 B( 13-C , 14-C ) :   1.3494 B( 13-C , 19-C ) :   1.3651
B( 14-C , 15-C ) :   1.3990 B( 14-C , 31-H ) :   0.9731 B( 15-C , 16-C ) :   1.3576
B( 15-C , 32-H ) :   0.9701 B( 16-C , 17-C ) :   1.3321 B( 16-C , 33-H ) :   0.9840
B( 17-C , 18-O ) :   1.1063 B( 17-C , 19-C ) :   1.3629 B( 18-O , 34-H ) :   0.9787
B( 19-C , 35-H ) :   0.9577

MP2 TOTAL ENERGY:    -1274.325712365 Eh
FINAL SINGLE POINT ENERGY     -1274.325712364903

DIPOLE MOMENT
-------------
                                X             Y             Z
Electronic contribution:      9.35271       8.72645       6.23216
Nuclear contribution   :    -10.40283     -10.36115      -5.96548
                        -----------------------------------------
Total Dipole Moment    :     -1.05012      -1.63469       0.26667
                        -----------------------------------------
Magnitude (a.u.)       :      1.96114
Magnitude (Debye)      :      4.98483

Rotational constants in cm-1:     0.012522     0.008732     0.006266
Rotational constants in MHz :   375.385886   261.777513   187.849573

                             ****ORCA TERMINATED NORMALLY****
TOTAL RUN TIME: 0 days 1 hours 48 minutes 49 seconds 487 msec
