                         Program Version 4.2.0 -  RELEASE  -
|  1> ! ri-mp2 cc-pvtz cc-pvtz/c TightSCF NoKeepInts
|  2>
|  3> %scf
|  4>   MaxCore 4096
|  5> end
|  6> *xyz  0  1
|  7>     C       14.5389315   16.2823491   16.1569261
|  8>     C       15.0978613   15.9576394   14.7536928
|  9>     O       16.4777064   16.3419043   14.5197001
| 10>     C       17.4208760   16.5113223   15.4977407
| 11>     O       18.3449762   15.7261330   15.6063903
| 12>     C       17.2089328   17.6392708   16.4639458
| 13>     C       16.8191263   18.8657378   16.0321285
| 14>     C       16.3420770   19.2410830   14.6429428
| 15>     N       16.9044931   19.9786004   16.8717864
| 16>     C       17.5902405   19.9988731   18.0568395
| 17>     S       17.7510170   21.3830342   18.9472632
| 18>     N       18.1580100   18.8141355   18.4541946
| 19>     C       17.9469770   17.5074143   17.8001655
| 20>     C       17.3501667   16.4464876   18.7143275
| 21>     C       17.9093614   15.1574202   18.7712534
| 22>     C       17.3497608   14.1717194   19.6012054
| 23>     C       16.2205350   14.4775225   20.3800430
| 24>     C       15.6591785   15.7604954   20.3227776
| 25>     O       14.5632028   16.0559784   21.0659301
| 26>     C       16.2181940   16.7396362   19.4953658
| 27>     H       15.1307324   15.7972047   16.9429019
| 28>     H       13.5139734   15.9016133   16.2443780
| 29>     H       14.4999482   17.3611432   16.3434286
| 30>     H       15.0246331   14.8708459   14.6144608
| 31>     H       14.4604133   16.4199787   13.9891071
| 32>     H       15.3267469   18.8710938   14.4607689
| 33>     H       17.0000723   18.8178508   13.8731209
| 34>     H       16.3311163   20.3262294   14.4820522
| 35>     H       16.5209056   20.8626785   16.5775637
| 36>     H       18.6505358   18.8530312   19.3378112
| 37>     H       18.9856599   17.2509864   17.5438310
| 38>     H       18.7746777   14.9158070   18.1574878
| 39>     H       17.7892422   13.1762013   19.6335880
| 40>     H       15.7842194   13.7182416   21.0205848
| 41>     H       14.3548287   15.2741727   21.5993636
| 42>     H       15.7676705   17.7261643   19.4629325
| 43> *
| 44>
| 45>                          ****END OF INPUT****

CARTESIAN COORDINATES (ANGSTROEM)
---------------------------------
  C     14.538932   16.282349   16.156926
  C     15.097861   15.957639   14.753693
  O     16.477706   16.341904   14.519700
  C     17.420876   16.511322   15.497741
  O     18.344976   15.726133   15.606390
  C     17.208933   17.639271   16.463946
  C     16.819126   18.865738   16.032128
  C     16.342077   19.241083   14.642943
  N     16.904493   19.978600   16.871786
  C     17.590240   19.998873   18.056839
  S     17.751017   21.383034   18.947263
  N     18.158010   18.814135   18.454195
  C     17.946977   17.507414   17.800165
  C     17.350167   16.446488   18.714327
  C     17.909361   15.157420   18.771253
  C     17.349761   14.171719   19.601205
  C     16.220535   14.477522   20.380043
  C     15.659178   15.760495   20.322778
  O     14.563203   16.055978   21.065930
  C     16.218194   16.739636   19.495366
  H     15.130732   15.797205   16.942902
  H     13.513973   15.901613   16.244378
  H     14.499948   17.361143   16.343429
  H     15.024633   14.870846   14.614461
  H     14.460413   16.419979   13.989107
  H     15.326747   18.871094   14.460769
  H     17.000072   18.817851   13.873121
  H     16.331116   20.326229   14.482052
  H     16.520906   20.862679   16.577564
  H     18.650536   18.853031   19.337811
  H     18.985660   17.250986   17.543831
  H     18.774678   14.915807   18.157488
  H     17.789242   13.176201   19.633588
  H     15.784219   13.718242   21.020585
  H     14.354829   15.274173   21.599364
  H     15.767670   17.726164   19.462933

 Total Charge           Charge          ....    0
 Multiplicity           Mult            ....    1
 Number of Electrons    NEL             ....  154
 Basis Dimension        Dim             ....  828

ORBITAL ENERGIES
----------------

  NO   OCC          E(Eh)            E(eV)
   0   2.0000     -91.890088     -2500.4564
   1   2.0000     -20.597041      -560.4740
   2   2.0000     -20.589001      -560.2552
   3   2.0000     -20.550418      -559.2053
   4   2.0000     -15.630030      -425.3147
   5   2.0000     -15.608239      -424.7218
   6   2.0000     -11.396087      -310.1033
   7   2.0000     -11.385062      -309.8033
   8   2.0000     -11.336842      -308.4912
   9   2.0000     -11.313635      -307.8597
  10   2.0000     -11.311548      -307.8029
  11   2.0000     -11.306986      -307.6787
  12   2.0000     -11.263962      -306.5080
  13   2.0000     -11.260759      -306.4208
  14   2.0000     -11.260653      -306.4179
  15   2.0000     -11.253693      -306.2286
  16   2.0000     -11.243496      -305.9511
  17   2.0000     -11.239242      -305.8353
  18   2.0000     -11.236498      -305.7606
  19   2.0000     -11.235804      -305.7418
  20   2.0000      -8.895173      -242.0500
  21   2.0000      -6.576749      -178.9624
  22   2.0000      -6.574745      -178.9079
  23   2.0000      -6.574156      -178.8919
  24   2.0000      -1.444108       -39.2962
  25   2.0000      -1.416829       -38.5539
  26   2.0000      -1.355766       -36.8923
  27   2.0000      -1.341663       -36.5085
  28   2.0000      -1.239073       -33.7169
  29   2.0000      -1.157869       -31.5072
  30   2.0000      -1.123681       -30.5769
  31   2.0000      -1.045763       -28.4567
  32   2.0000      -1.038153       -28.2496
  33   2.0000      -1.015718       -27.6391
  34   2.0000      -1.004127       -27.3237
  35   2.0000      -0.989181       -26.9170
  36   2.0000      -0.925238       -25.1770
  37   2.0000      -0.899872       -24.4868
  38   2.0000      -0.851348       -23.1664
  39   2.0000      -0.839904       -22.8549
  40   2.0000      -0.833538       -22.6817
  41   2.0000      -0.823304       -22.4032
  42   2.0000      -0.746675       -20.3181
  43   2.0000      -0.733557       -19.9611
  44   2.0000      -0.728784       -19.8312
  45   2.0000      -0.694123       -18.8880
  46   2.0000      -0.687234       -18.7006
  47   2.0000      -0.677329       -18.4311
  48   2.0000      -0.673209       -18.3189
  49   2.0000      -0.665590       -18.1116
  50   2.0000      -0.652421       -17.7533
  51   2.0000      -0.650980       -17.7141
  52   2.0000      -0.639530       -17.4025
  53   2.0000      -0.617283       -16.7971
  54   2.0000      -0.605334       -16.4720
  55   2.0000      -0.603316       -16.4171
  56   2.0000      -0.600882       -16.3508
  57   2.0000      -0.584513       -15.9054
  58   2.0000      -0.576384       -15.6842
  59   2.0000      -0.564476       -15.3602
  60   2.0000      -0.563392       -15.3307
  61   2.0000      -0.552140       -15.0245
  62   2.0000      -0.547233       -14.8910
  63   2.0000      -0.532756       -14.4970
  64   2.0000      -0.521489       -14.1904
  65   2.0000      -0.512418       -13.9436
  66   2.0000      -0.499300       -13.5867
  67   2.0000      -0.488978       -13.3058
  68   2.0000      -0.486306       -13.2331
  69   2.0000      -0.468990       -12.7619
  70   2.0000      -0.457776       -12.4567
  71   2.0000      -0.448317       -12.1993
  72   2.0000      -0.354633        -9.6501
  73   2.0000      -0.348420        -9.4810
  74   2.0000      -0.329300        -8.9607
  75   2.0000      -0.321252        -8.7417
  76   2.0000      -0.319354        -8.6901
  77   0.0000       0.075436         2.0527
  78   0.0000       0.106094         2.8870
  79   0.0000       0.116753         3.1770
  80   0.0000       0.131666         3.5828
  81   0.0000       0.132840         3.6147

MULLIKEN ATOMIC CHARGES
-----------------------
   0 C :   -0.336098
   1 C :    0.030108
   2 O :   -0.367852
   3 C :    0.454505
   4 O :   -0.379728
   5 C :   -0.239971
   6 C :    0.149254
   7 C :   -0.300694
   8 N :   -0.131442
   9 C :    0.205103
  10 S :   -0.440686
  11 N :   -0.217245
  12 C :    0.075353
  13 C :    0.009283
  14 C :   -0.191276
  15 C :   -0.133298
  16 C :   -0.277445
  17 C :    0.319174
  18 O :   -0.358301
  19 C :   -0.257662
  20 H :    0.126846
  21 H :    0.124205
  22 H :    0.105379
  23 H :    0.118499
  24 H :    0.105508
  25 H :    0.114696
  26 H :    0.140742
  27 H :    0.111792
  28 H :    0.197899
  29 H :    0.201029
  30 H :    0.161853
  31 H :    0.173369
  32 H :    0.163230
  33 H :    0.131399
  34 H :    0.240906
  35 H :    0.171565
Sum of atomic charges:   -0.0000000

LOEWDIN ATOMIC CHARGES
----------------------
   0 C :    0.103095
   1 C :   -0.015709
   2 O :    0.285277
   3 C :   -0.419856
   4 O :    0.125040
   5 C :   -0.091378
   6 C :   -0.074934
   7 C :    0.127756
   8 N :    0.405007
   9 C :   -0.458394
  10 S :   -0.036560
  11 N :    0.396471
  12 C :   -0.048293
  13 C :   -0.044153
  14 C :    0.022595
  15 C :    0.042870
  16 C :   -0.000867
  17 C :   -0.193782
  18 O :    0.394256
  19 C :    0.029005
  20 H :   -0.022434
  21 H :   -0.020745
  22 H :   -0.033443
  23 H :   -0.023920
  24 H :   -0.027368
  25 H :   -0.014845
  26 H :   -0.005201
  27 H :   -0.017823
  28 H :   -0.058682
  29 H :   -0.063296
  30 H :   -0.005668
  31 H :   -0.021654
  32 H :   -0.019331
  33 H :   -0.035219
  34 H :   -0.153824
  35 H :   -0.023992

  Mayer bond orders larger than 0.100000
B(  0-C ,  1-C ) :   0.9615 B(  0-C , 20-H ) :   0.9653 B(  0-C , 21-H ) :   0.9761
B(  0-C , 22-H ) :   0.9709 B(  1-C ,  2-O ) :   0.9028 B(  1-C , 23-H ) :   0.9834
B(  1-C , 24-H ) :   0.9797 B(  2-O ,  3-C ) :   1.1047 B(  3-C ,  4-O ) :   2.0710
B(  3-C ,  5-C ) :   0.9677 B(  5-C ,  6-C ) :   1.7040 B(  5-C , 12-C ) :   0.9355
B(  6-C ,  7-C ) :   0.9476 B(  6-C ,  8-N ) :   1.1211 B(  7-C , 25-H ) :   0.9663
B(  7-C , 26-H ) :   0.9648 B(  7-C , 27-H ) :   0.9889 B(  8-N ,  9-C ) :   1.1882
B(  8-N , 28-H ) :   0.9474 B(  9-C , 10-S ) :   1.6115 B(  9-C , 11-N ) :   1.2980
B( 11-N , 12-C ) :   0.9783 B( 11-N , 29-H ) :   0.9485 B( 12-C , 13-C ) :   0.9674
B( 12-C , 30-H ) :   0.9936 B( 13-C , 14-C ) :   1.3879 B( 13-C , 19-C ) :   1.3526
B( 14-C , 15-C ) :   1.3963 B( 14-C , 31-H ) :   0.9582 B( 15-C , 16-C ) :   1.3605
B( 15-C , 32-H ) :   0.9705 B( 16-C , 17-C ) :   1.3314 B( 16-C , 33-H ) :   0.9848
B( 17-C , 18-O ) :   1.1075 B( 17-C , 19-C ) :   1.3638 B( 18-O , 34-H ) :   0.9798
B( 19-C , 35-H ) :   0.9586

MP2 TOTAL ENERGY:    -1274.322348225 Eh
FINAL SINGLE POINT ENERGY     -1274.322348224884

DIPOLE MOMENT
-------------
                                X             Y             Z
Electronic contribution:      8.98827       6.89548       7.09777
Nuclear contribution   :    -10.52537      -8.09917      -7.71498
                        -----------------------------------------
Total Dipole Moment    :     -1.53710      -1.20368      -0.61721
                        -----------------------------------------
Magnitude (a.u.)       :      2.04756
Magnitude (Debye)      :      5.20447

Rotational constants in cm-1:     0.011259     0.009362     0.006459
Rotational constants in MHz :   337.526195   280.667011   193.643715

                             ****ORCA TERMINATED NORMALLY****
TOTAL RUN TIME: 0 days 1 hours 47 minutes 18 seconds 915 msec
