                         Program Version 4.2.0 -  RELEASE  -
|  1> ! ri-mp2 cc-pvtz cc-pvtz/c TightSCF NoKeepInts
|  2>
|  3> %scf
|  4>   MaxCore 4096
|  5> end
|  6> *xyz  0  1
|  7>     C       15.2900739   15.2033001   13.2782404
|  8>     C       14.5982236   15.6181126   14.5899086
|  9>     O       15.3409246   16.7076902   15.1667116
| 10>     C       16.3618024   16.4489550   16.0371373
| 11>     O       16.7939161   15.3224713   16.2206948
| 12>     C       16.8520686   17.6394380   16.8141170
| 13>     C       16.7901427   18.9113768   16.3363532
| 14>     C       16.0464900   19.4174129   15.1155695
| 15>     N       17.4992024   19.9421338   16.9588724
| 16>     C       18.4587192   19.7554373   17.9166691
| 17>     S       19.3380501   21.0154891   18.5287604
| 18>     N       18.6683747   18.4631073   18.3250502
| 19>     C       17.8493206   17.3007885   17.9304143
| 20>     C       17.2174564   16.5838785   19.1164513
| 21>     C       17.4368190   15.2102291   19.3245541
| 22>     C       16.8559532   14.5517891   20.4214036
| 23>     C       16.0501865   15.2736970   21.3186058
| 24>     C       15.8286088   16.6423794   21.1125083
| 25>     O       15.0480732   17.3409434   21.9751563
| 26>     C       16.4077801   17.2947851   20.0194117
| 27>     H       15.3671057   16.0559606   12.5924752
| 28>     H       14.7210128   14.4100104   12.7786083
| 29>     H       16.3005665   14.8235702   13.4760071
| 30>     H       13.5800388   15.9569487   14.3596339
| 31>     H       14.5248215   14.7677147   15.2821315
| 32>     H       14.9658406   19.2653681   15.2294287
| 33>     H       16.3711557   18.8851369   14.2127182
| 34>     H       16.2057247   20.4869133   14.9317424
| 35>     H       17.3718127   20.8938473   16.6542490
| 36>     H       19.3656567   18.3545748   19.0506973
| 37>     H       18.6192107   16.6701014   17.4624637
| 38>     H       18.0475232   14.6483978   18.6217254
| 39>     H       17.0271411   13.4869389   20.5682612
| 40>     H       15.5984190   14.7687814   22.1658655
| 41>     H       14.7609365   16.7271278   22.6676119
| 42>     H       16.2278477   18.3551930   19.8777909
| 43> *
| 44>
| 45>                          ****END OF INPUT****

CARTESIAN COORDINATES (ANGSTROEM)
---------------------------------
  C     15.290074   15.203300   13.278240
  C     14.598224   15.618113   14.589909
  O     15.340925   16.707690   15.166712
  C     16.361802   16.448955   16.037137
  O     16.793916   15.322471   16.220695
  C     16.852069   17.639438   16.814117
  C     16.790143   18.911377   16.336353
  C     16.046490   19.417413   15.115569
  N     17.499202   19.942134   16.958872
  C     18.458719   19.755437   17.916669
  S     19.338050   21.015489   18.528760
  N     18.668375   18.463107   18.325050
  C     17.849321   17.300788   17.930414
  C     17.217456   16.583879   19.116451
  C     17.436819   15.210229   19.324554
  C     16.855953   14.551789   20.421404
  C     16.050186   15.273697   21.318606
  C     15.828609   16.642379   21.112508
  O     15.048073   17.340943   21.975156
  C     16.407780   17.294785   20.019412
  H     15.367106   16.055961   12.592475
  H     14.721013   14.410010   12.778608
  H     16.300566   14.823570   13.476007
  H     13.580039   15.956949   14.359634
  H     14.524821   14.767715   15.282131
  H     14.965841   19.265368   15.229429
  H     16.371156   18.885137   14.212718
  H     16.205725   20.486913   14.931742
  H     17.371813   20.893847   16.654249
  H     19.365657   18.354575   19.050697
  H     18.619211   16.670101   17.462464
  H     18.047523   14.648398   18.621725
  H     17.027141   13.486939   20.568261
  H     15.598419   14.768781   22.165865
  H     14.760936   16.727128   22.667612
  H     16.227848   18.355193   19.877791

 Total Charge           Charge          ....    0
 Multiplicity           Mult            ....    1
 Number of Electrons    NEL             ....  154
 Basis Dimension        Dim             ....  828

ORBITAL ENERGIES
----------------

  NO   OCC          E(Eh)            E(eV)
   0   2.0000     -91.887783     -2500.3937
   1   2.0000     -20.604179      -560.6682
   2   2.0000     -20.591056      -560.3111
   3   2.0000     -20.545622      -559.0748
   4   2.0000     -15.628309      -425.2679
   5   2.0000     -15.605464      -424.6463
   6   2.0000     -11.396941      -310.1265
   7   2.0000     -11.382285      -309.7277
   8   2.0000     -11.338121      -308.5260
   9   2.0000     -11.307049      -307.6804
  10   2.0000     -11.304023      -307.5981
  11   2.0000     -11.300564      -307.5040
  12   2.0000     -11.261303      -306.4356
  13   2.0000     -11.258945      -306.3715
  14   2.0000     -11.254387      -306.2474
  15   2.0000     -11.247158      -306.0507
  16   2.0000     -11.237364      -305.7842
  17   2.0000     -11.233483      -305.6786
  18   2.0000     -11.230285      -305.5916
  19   2.0000     -11.228125      -305.5328
  20   2.0000      -8.892869      -241.9873
  21   2.0000      -6.574447      -178.8998
  22   2.0000      -6.572443      -178.8453
  23   2.0000      -6.571856      -178.8293
  24   2.0000      -1.454617       -39.5821
  25   2.0000      -1.410799       -38.3898
  26   2.0000      -1.357694       -36.9447
  27   2.0000      -1.339713       -36.4554
  28   2.0000      -1.236852       -33.6564
  29   2.0000      -1.151806       -31.3422
  30   2.0000      -1.120534       -30.4913
  31   2.0000      -1.042867       -28.3778
  32   2.0000      -1.035099       -28.1665
  33   2.0000      -1.009274       -27.4637
  34   2.0000      -0.998166       -27.1615
  35   2.0000      -0.983190       -26.7539
  36   2.0000      -0.920504       -25.0482
  37   2.0000      -0.892451       -24.2848
  38   2.0000      -0.847422       -23.0595
  39   2.0000      -0.834558       -22.7095
  40   2.0000      -0.827390       -22.5144
  41   2.0000      -0.817783       -22.2530
  42   2.0000      -0.757083       -20.6013
  43   2.0000      -0.735320       -20.0091
  44   2.0000      -0.725691       -19.7471
  45   2.0000      -0.690108       -18.7788
  46   2.0000      -0.685533       -18.6543
  47   2.0000      -0.680230       -18.5100
  48   2.0000      -0.671123       -18.2622
  49   2.0000      -0.657468       -17.8906
  50   2.0000      -0.647173       -17.6105
  51   2.0000      -0.639487       -17.4013
  52   2.0000      -0.629419       -17.1274
  53   2.0000      -0.612532       -16.6678
  54   2.0000      -0.602369       -16.3913
  55   2.0000      -0.597628       -16.2623
  56   2.0000      -0.594254       -16.1705
  57   2.0000      -0.584875       -15.9153
  58   2.0000      -0.572378       -15.5752
  59   2.0000      -0.565600       -15.3908
  60   2.0000      -0.560796       -15.2600
  61   2.0000      -0.546990       -14.8843
  62   2.0000      -0.535411       -14.5693
  63   2.0000      -0.529752       -14.4153
  64   2.0000      -0.515112       -14.0169
  65   2.0000      -0.509035       -13.8515
  66   2.0000      -0.500018       -13.6062
  67   2.0000      -0.493661       -13.4332
  68   2.0000      -0.480454       -13.0738
  69   2.0000      -0.464994       -12.6531
  70   2.0000      -0.455576       -12.3969
  71   2.0000      -0.454544       -12.3688
  72   2.0000      -0.352989        -9.6053
  73   2.0000      -0.343942        -9.3591
  74   2.0000      -0.326862        -8.8944
  75   2.0000      -0.316943        -8.6245
  76   2.0000      -0.313684        -8.5358
  77   0.0000       0.077838         2.1181
  78   0.0000       0.112403         3.0586
  79   0.0000       0.121459         3.3051
  80   0.0000       0.136311         3.7092
  81   0.0000       0.140604         3.8260

MULLIKEN ATOMIC CHARGES
-----------------------
   0 C :   -0.288760
   1 C :    0.029617
   2 O :   -0.343338
   3 C :    0.420707
   4 O :   -0.430126
   5 C :   -0.171634
   6 C :    0.165959
   7 C :   -0.281794
   8 N :   -0.129205
   9 C :    0.207479
  10 S :   -0.442861
  11 N :   -0.210728
  12 C :    0.041183
  13 C :    0.030969
  14 C :   -0.165851
  15 C :   -0.134338
  16 C :   -0.276785
  17 C :    0.314540
  18 O :   -0.359084
  19 C :   -0.250372
  20 H :    0.090294
  21 H :    0.096461
  22 H :    0.112846
  23 H :    0.107016
  24 H :    0.108015
  25 H :    0.130965
  26 H :    0.124360
  27 H :    0.101816
  28 H :    0.198854
  29 H :    0.199998
  30 H :    0.154997
  31 H :    0.158327
  32 H :    0.159592
  33 H :    0.127981
  34 H :    0.239813
  35 H :    0.163089
Sum of atomic charges:   -0.0000000

LOEWDIN ATOMIC CHARGES
----------------------
   0 C :    0.103890
   1 C :   -0.016095
   2 O :    0.307214
   3 C :   -0.414033
   4 O :    0.102074
   5 C :   -0.090341
   6 C :   -0.064000
   7 C :    0.124765
   8 N :    0.405389
   9 C :   -0.458792
  10 S :   -0.037944
  11 N :    0.396554
  12 C :   -0.048230
  13 C :   -0.040458
  14 C :    0.024921
  15 C :    0.040882
  16 C :   -0.001050
  17 C :   -0.192330
  18 O :    0.393097
  19 C :    0.029972
  20 H :   -0.030798
  21 H :   -0.026509
  22 H :   -0.024172
  23 H :   -0.026628
  24 H :   -0.026098
  25 H :   -0.008912
  26 H :   -0.010237
  27 H :   -0.021307
  28 H :   -0.058814
  29 H :   -0.063035
  30 H :   -0.008558
  31 H :   -0.024188
  32 H :   -0.021180
  33 H :   -0.036219
  34 H :   -0.154952
  35 H :   -0.023875

  Mayer bond orders larger than 0.100000
B(  0-C ,  1-C ) :   0.9645 B(  0-C , 20-H ) :   0.9782 B(  0-C , 21-H ) :   0.9764
B(  0-C , 22-H ) :   0.9754 B(  1-C ,  2-O ) :   0.8972 B(  1-C , 23-H ) :   0.9847
B(  1-C , 24-H ) :   0.9747 B(  2-O ,  3-C ) :   1.1504 B(  3-C ,  4-O ) :   1.9586
B(  3-C ,  5-C ) :   1.0634 B(  5-C ,  6-C ) :   1.6537 B(  5-C , 12-C ) :   0.9488
B(  6-C ,  7-C ) :   0.9534 B(  6-C ,  8-N ) :   1.1345 B(  7-C , 25-H ) :   0.9633
B(  7-C , 26-H ) :   0.9656 B(  7-C , 27-H ) :   0.9912 B(  8-N ,  9-C ) :   1.1857
B(  8-N , 28-H ) :   0.9468 B(  9-C , 10-S ) :   1.6075 B(  9-C , 11-N ) :   1.3066
B( 11-N , 12-C ) :   0.9763 B( 11-N , 29-H ) :   0.9484 B( 12-C , 13-C ) :   0.9751
B( 12-C , 30-H ) :   0.9975 B( 13-C , 14-C ) :   1.3750 B( 13-C , 19-C ) :   1.3673
B( 14-C , 15-C ) :   1.3970 B( 14-C , 31-H ) :   0.9642 B( 15-C , 16-C ) :   1.3587
B( 15-C , 32-H ) :   0.9713 B( 16-C , 17-C ) :   1.3334 B( 16-C , 33-H ) :   0.9861
B( 17-C , 18-O ) :   1.1031 B( 17-C , 19-C ) :   1.3675 B( 18-O , 34-H ) :   0.9807
B( 19-C , 35-H ) :   0.9601

MP2 TOTAL ENERGY:    -1274.341621643 Eh
FINAL SINGLE POINT ENERGY     -1274.341621643203

DIPOLE MOMENT
-------------
                                X             Y             Z
Electronic contribution:      8.58354       9.14224      13.23720
Nuclear contribution   :    -10.18212     -10.29574     -14.22622
                        -----------------------------------------
Total Dipole Moment    :     -1.59858      -1.15350      -0.98901
                        -----------------------------------------
Magnitude (a.u.)       :      2.20549
Magnitude (Debye)      :      5.60590

Rotational constants in cm-1:     0.010079     0.008706     0.005422
Rotational constants in MHz :   302.165232   261.014191   162.555972

                             ****ORCA TERMINATED NORMALLY****
TOTAL RUN TIME: 0 days 1 hours 33 minutes 19 seconds 610 msec
