                         Program Version 4.2.0 -  RELEASE  -
|  1> ! ri-mp2 cc-pvtz cc-pvtz/c TightSCF NoKeepInts
|  2>
|  3> %scf
|  4>   MaxCore 4096
|  5> end
|  6> *xyz  0  1
|  7>     C       14.2402561   15.6619761   15.7021172
|  8>     C       15.2414441   15.6246913   14.5310370
|  9>     O       16.1169882   16.7591912   14.6463637
| 10>     C       17.1321129   16.6902936   15.5530707
| 11>     O       17.8417071   15.7037979   15.6555515
| 12>     C       17.1529502   17.8153689   16.5453604
| 13>     C       16.8205708   19.0890378   16.2104377
| 14>     C       16.1849576   19.5720532   14.9219215
| 15>     N       17.1037835   20.1496104   17.0746047
| 16>     C       17.9005934   20.0525064   18.1837330
| 17>     S       18.2781468   21.3732226   19.1049086
| 18>     N       18.3872137   18.8038908   18.4789957
| 19>     C       18.0054934   17.5548151   17.7915627
| 20>     C       17.3965332   16.5140696   18.7214820
| 21>     C       17.9402538   15.2196376   18.8032517
| 22>     C       17.3702455   14.2577028   19.6539395
| 23>     C       16.2468348   14.5933385   20.4289926
| 24>     C       15.7010943   15.8817948   20.3466618
| 25>     O       14.6121140   16.2064390   21.0881768
| 26>     C       16.2705107   16.8369352   19.4986052
| 27>     H       14.7561450   15.5355156   16.6630050
| 28>     H       13.5066888   14.8525664   15.6040966
| 29>     H       13.6982696   16.6155539   15.7213976
| 30>     H       15.8058060   14.6817241   14.5308204
| 31>     H       14.6875032   15.6897594   13.5857726
| 32>     H       15.1612222   19.1889845   14.8274852
| 33>     H       16.7563404   19.2266869   14.0510691
| 34>     H       16.1332653   20.6657263   14.8569495
| 35>     H       16.7726156   21.0762014   16.8584466
| 36>     H       18.9551988   18.7560694   19.3154753
| 37>     H       18.9864026   17.2214104   17.4223406
| 38>     H       18.7983724   14.9546086   18.1898874
| 39>     H       17.7961201   13.2571881   19.7044245
| 40>     H       15.8024174   13.8527734   21.0855454
| 41>     H       14.3913831   15.4353432   21.6318855
| 42>     H       15.8354456   17.8295156   19.4486248
| 43> *
| 44>
| 45>                          ****END OF INPUT****

CARTESIAN COORDINATES (ANGSTROEM)
---------------------------------
  C     14.240256   15.661976   15.702117
  C     15.241444   15.624691   14.531037
  O     16.116988   16.759191   14.646364
  C     17.132113   16.690294   15.553071
  O     17.841707   15.703798   15.655551
  C     17.152950   17.815369   16.545360
  C     16.820571   19.089038   16.210438
  C     16.184958   19.572053   14.921921
  N     17.103783   20.149610   17.074605
  C     17.900593   20.052506   18.183733
  S     18.278147   21.373223   19.104909
  N     18.387214   18.803891   18.478996
  C     18.005493   17.554815   17.791563
  C     17.396533   16.514070   18.721482
  C     17.940254   15.219638   18.803252
  C     17.370245   14.257703   19.653939
  C     16.246835   14.593338   20.428993
  C     15.701094   15.881795   20.346662
  O     14.612114   16.206439   21.088177
  C     16.270511   16.836935   19.498605
  H     14.756145   15.535516   16.663005
  H     13.506689   14.852566   15.604097
  H     13.698270   16.615554   15.721398
  H     15.805806   14.681724   14.530820
  H     14.687503   15.689759   13.585773
  H     15.161222   19.188984   14.827485
  H     16.756340   19.226687   14.051069
  H     16.133265   20.665726   14.856949
  H     16.772616   21.076201   16.858447
  H     18.955199   18.756069   19.315475
  H     18.986403   17.221410   17.422341
  H     18.798372   14.954609   18.189887
  H     17.796120   13.257188   19.704424
  H     15.802417   13.852773   21.085545
  H     14.391383   15.435343   21.631885
  H     15.835446   17.829516   19.448625

 Total Charge           Charge          ....    0
 Multiplicity           Mult            ....    1
 Number of Electrons    NEL             ....  154
 Basis Dimension        Dim             ....  828

ORBITAL ENERGIES
----------------

  NO   OCC          E(Eh)            E(eV)
   0   2.0000     -91.888763     -2500.4204
   1   2.0000     -20.594087      -560.3936
   2   2.0000     -20.593367      -560.3740
   3   2.0000     -20.549390      -559.1773
   4   2.0000     -15.629241      -425.2933
   5   2.0000     -15.606596      -424.6771
   6   2.0000     -11.394619      -310.0634
   7   2.0000     -11.383546      -309.7620
   8   2.0000     -11.337931      -308.5208
   9   2.0000     -11.310343      -307.7701
  10   2.0000     -11.305176      -307.6295
  11   2.0000     -11.300523      -307.5029
  12   2.0000     -11.259638      -306.3903
  13   2.0000     -11.259581      -306.3888
  14   2.0000     -11.257246      -306.3252
  15   2.0000     -11.250369      -306.1381
  16   2.0000     -11.240536      -305.8705
  17   2.0000     -11.236532      -305.7616
  18   2.0000     -11.233323      -305.6743
  19   2.0000     -11.229566      -305.5720
  20   2.0000      -8.893841      -242.0137
  21   2.0000      -6.575416      -178.9262
  22   2.0000      -6.573415      -178.8717
  23   2.0000      -6.572825      -178.8557
  24   2.0000      -1.453169       -39.5427
  25   2.0000      -1.413864       -38.4732
  26   2.0000      -1.357584       -36.9417
  27   2.0000      -1.340366       -36.4732
  28   2.0000      -1.237656       -33.6783
  29   2.0000      -1.154798       -31.4237
  30   2.0000      -1.121885       -30.5280
  31   2.0000      -1.043775       -28.4026
  32   2.0000      -1.033761       -28.1301
  33   2.0000      -1.012217       -27.5438
  34   2.0000      -1.000285       -27.2191
  35   2.0000      -0.985447       -26.8154
  36   2.0000      -0.922225       -25.0950
  37   2.0000      -0.893527       -24.3141
  38   2.0000      -0.848074       -23.0773
  39   2.0000      -0.836753       -22.7692
  40   2.0000      -0.830485       -22.5986
  41   2.0000      -0.816746       -22.2248
  42   2.0000      -0.755299       -20.5527
  43   2.0000      -0.736550       -20.0425
  44   2.0000      -0.727745       -19.8029
  45   2.0000      -0.692528       -18.8447
  46   2.0000      -0.685948       -18.6656
  47   2.0000      -0.678846       -18.4723
  48   2.0000      -0.671616       -18.2756
  49   2.0000      -0.660637       -17.9769
  50   2.0000      -0.652476       -17.7548
  51   2.0000      -0.645401       -17.5623
  52   2.0000      -0.634226       -17.2582
  53   2.0000      -0.607425       -16.5289
  54   2.0000      -0.602136       -16.3850
  55   2.0000      -0.599459       -16.3121
  56   2.0000      -0.597494       -16.2586
  57   2.0000      -0.581491       -15.8232
  58   2.0000      -0.574802       -15.6412
  59   2.0000      -0.562412       -15.3040
  60   2.0000      -0.558452       -15.1962
  61   2.0000      -0.553139       -15.0517
  62   2.0000      -0.541692       -14.7402
  63   2.0000      -0.527987       -14.3673
  64   2.0000      -0.518327       -14.1044
  65   2.0000      -0.510629       -13.8949
  66   2.0000      -0.498368       -13.5613
  67   2.0000      -0.494882       -13.4664
  68   2.0000      -0.482124       -13.1193
  69   2.0000      -0.463915       -12.6238
  70   2.0000      -0.459409       -12.5011
  71   2.0000      -0.450501       -12.2587
  72   2.0000      -0.353601        -9.6220
  73   2.0000      -0.346817        -9.4374
  74   2.0000      -0.327845        -8.9211
  75   2.0000      -0.317993        -8.6530
  76   2.0000      -0.317093        -8.6286
  77   0.0000       0.074812         2.0357
  78   0.0000       0.108313         2.9473
  79   0.0000       0.119515         3.2522
  80   0.0000       0.133872         3.6428
  81   0.0000       0.140939         3.8351

MULLIKEN ATOMIC CHARGES
-----------------------
   0 C :   -0.298065
   1 C :    0.027092
   2 O :   -0.365600
   3 C :    0.433404
   4 O :   -0.406446
   5 C :   -0.177241
   6 C :    0.146395
   7 C :   -0.281835
   8 N :   -0.127630
   9 C :    0.208180
  10 S :   -0.441213
  11 N :   -0.210933
  12 C :    0.051352
  13 C :    0.026323
  14 C :   -0.170303
  15 C :   -0.134026
  16 C :   -0.278209
  17 C :    0.316152
  18 O :   -0.358984
  19 C :   -0.256566
  20 H :    0.115784
  21 H :    0.103319
  22 H :    0.092720
  23 H :    0.113872
  24 H :    0.106120
  25 H :    0.125972
  26 H :    0.127176
  27 H :    0.101838
  28 H :    0.198342
  29 H :    0.199415
  30 H :    0.155937
  31 H :    0.161738
  32 H :    0.160947
  33 H :    0.129842
  34 H :    0.240267
  35 H :    0.164865
Sum of atomic charges:   -0.0000000

LOEWDIN ATOMIC CHARGES
----------------------
   0 C :    0.104615
   1 C :   -0.019981
   2 O :    0.300116
   3 C :   -0.418057
   4 O :    0.113935
   5 C :   -0.094680
   6 C :   -0.066273
   7 C :    0.126178
   8 N :    0.405592
   9 C :   -0.457754
  10 S :   -0.036975
  11 N :    0.396159
  12 C :   -0.048183
  13 C :   -0.042029
  14 C :    0.024321
  15 C :    0.041358
  16 C :   -0.001193
  17 C :   -0.193431
  18 O :    0.393523
  19 C :    0.029434
  20 H :   -0.023979
  21 H :   -0.025194
  22 H :   -0.029239
  23 H :   -0.026317
  24 H :   -0.025218
  25 H :   -0.010669
  26 H :   -0.007967
  27 H :   -0.020771
  28 H :   -0.058492
  29 H :   -0.063472
  30 H :   -0.007529
  31 H :   -0.023363
  32 H :   -0.020532
  33 H :   -0.035774
  34 H :   -0.154466
  35 H :   -0.023692

  Mayer bond orders larger than 0.100000
B(  0-C ,  1-C ) :   0.9611 B(  0-C , 20-H ) :   0.9709 B(  0-C , 21-H ) :   0.9769
B(  0-C , 22-H ) :   0.9773 B(  1-C ,  2-O ) :   0.8970 B(  1-C , 23-H ) :   0.9775
B(  1-C , 24-H ) :   0.9847 B(  2-O ,  3-C ) :   1.0973 B(  3-C ,  4-O ) :   2.0150
B(  3-C ,  5-C ) :   1.0225 B(  5-C ,  6-C ) :   1.6681 B(  5-C , 12-C ) :   0.9487
B(  6-C ,  7-C ) :   0.9555 B(  6-C ,  8-N ) :   1.1383 B(  7-C , 25-H ) :   0.9640
B(  7-C , 26-H ) :   0.9658 B(  7-C , 27-H ) :   0.9898 B(  8-N ,  9-C ) :   1.1849
B(  8-N , 28-H ) :   0.9471 B(  9-C , 10-S ) :   1.6106 B(  9-C , 11-N ) :   1.3036
B( 11-N , 12-C ) :   0.9801 B( 11-N , 29-H ) :   0.9487 B( 12-C , 13-C ) :   0.9683
B( 12-C , 30-H ) :   0.9953 B( 13-C , 14-C ) :   1.3798 B( 13-C , 19-C ) :   1.3642
B( 14-C , 15-C ) :   1.3969 B( 14-C , 31-H ) :   0.9623 B( 15-C , 16-C ) :   1.3595
B( 15-C , 32-H ) :   0.9710 B( 16-C , 17-C ) :   1.3325 B( 16-C , 33-H ) :   0.9853
B( 17-C , 18-O ) :   1.1049 B( 17-C , 19-C ) :   1.3654 B( 18-O , 34-H ) :   0.9803
B( 19-C , 35-H ) :   0.9604

MP2 TOTAL ENERGY:    -1274.334347919 Eh
FINAL SINGLE POINT ENERGY     -1274.334347919042

DIPOLE MOMENT
-------------
                                X             Y             Z
Electronic contribution:      9.73128       8.83058       8.20111
Nuclear contribution   :    -11.07928     -10.16899      -9.12440
                        -----------------------------------------
Total Dipole Moment    :     -1.34800      -1.33841      -0.92328
                        -----------------------------------------
Magnitude (a.u.)       :      2.11209
Magnitude (Debye)      :      5.36850

Rotational constants in cm-1:     0.010824     0.009248     0.006146
Rotational constants in MHz :   324.507795   277.241436   184.246888

                             ****ORCA TERMINATED NORMALLY****
TOTAL RUN TIME: 0 days 1 hours 40 minutes 21 seconds 473 msec
