                         Program Version 4.2.0 -  RELEASE  -
|  1> ! ri-mp2 cc-pvtz cc-pvtz/c TightSCF NoKeepInts
|  2>
|  3> %scf
|  4>   MaxCore 4096
|  5> end
|  6> *xyz  0  1
|  7>     C       14.6617236   14.9832297   14.2141207
|  8>     C       15.5409351   14.7725119   15.4653264
|  9>     O       16.3556720   15.9075315   15.8572141
| 10>     C       16.0782241   17.2393081   15.6685213
| 11>     O       15.3025867   17.6645442   14.8316338
| 12>     C       16.8044971   18.1062108   16.6653564
| 13>     C       16.8878058   19.4511388   16.4906722
| 14>     C       16.1106995   20.3004390   15.5055774
| 15>     N       17.7687412   20.2235593   17.2513355
| 16>     C       18.7351871   19.7126771   18.0742587
| 17>     S       19.8091397   20.6840117   18.8736447
| 18>     N       18.7815062   18.3465260   18.1857035
| 19>     C       17.8058432   17.4067457   17.6022222
| 20>     C       17.1582366   16.5128003   18.6521133
| 21>     C       17.4935591   15.1488133   18.7370199
| 22>     C       16.8951900   14.3260070   19.7061705
| 23>     C       15.9571833   14.8728712   20.5987369
| 24>     C       15.6255793   16.2326555   20.5189243
| 25>     O       14.7218648   16.7634365   21.3806575
| 26>     C       16.2226064   17.0488303   19.5530794
| 27>     H       13.8283195   15.6653500   14.4233978
| 28>     H       14.2307080   14.0288547   13.8889275
| 29>     H       15.2520068   15.3885176   13.3826646
| 30>     H       14.8799094   14.5121095   16.3023574
| 31>     H       16.2009595   13.9118570   15.2979680
| 32>     H       15.0322894   20.1270970   15.6139177
| 33>     H       16.3820955   20.0424435   14.4739878
| 34>     H       16.2821833   21.3756116   15.6340353
| 35>     H       17.7593217   21.2269408   17.1616669
| 36>     H       19.4840098   18.0002146   18.8266996
| 37>     H       18.4667288   16.8206553   16.9479918
| 38>     H       18.2159134   14.7249725   18.0445473
| 39>     H       17.1591880   13.2714969   19.7643279
| 40>     H       15.4929963   14.2419368   21.3495871
| 41>     H       14.4446291   16.0577814   21.9839686
| 42>     H       15.9589608   18.1003131   19.5096660
| 43> *
| 44>
| 45>                          ****END OF INPUT****

CARTESIAN COORDINATES (ANGSTROEM)
---------------------------------
  C     14.661724   14.983230   14.214121
  C     15.540935   14.772512   15.465326
  O     16.355672   15.907531   15.857214
  C     16.078224   17.239308   15.668521
  O     15.302587   17.664544   14.831634
  C     16.804497   18.106211   16.665356
  C     16.887806   19.451139   16.490672
  C     16.110699   20.300439   15.505577
  N     17.768741   20.223559   17.251335
  C     18.735187   19.712677   18.074259
  S     19.809140   20.684012   18.873645
  N     18.781506   18.346526   18.185703
  C     17.805843   17.406746   17.602222
  C     17.158237   16.512800   18.652113
  C     17.493559   15.148813   18.737020
  C     16.895190   14.326007   19.706170
  C     15.957183   14.872871   20.598737
  C     15.625579   16.232655   20.518924
  O     14.721865   16.763437   21.380657
  C     16.222606   17.048830   19.553079
  H     13.828319   15.665350   14.423398
  H     14.230708   14.028855   13.888927
  H     15.252007   15.388518   13.382665
  H     14.879909   14.512109   16.302357
  H     16.200959   13.911857   15.297968
  H     15.032289   20.127097   15.613918
  H     16.382095   20.042443   14.473988
  H     16.282183   21.375612   15.634035
  H     17.759322   21.226941   17.161667
  H     19.484010   18.000215   18.826700
  H     18.466729   16.820655   16.947992
  H     18.215913   14.724972   18.044547
  H     17.159188   13.271497   19.764328
  H     15.492996   14.241937   21.349587
  H     14.444629   16.057781   21.983969
  H     15.958961   18.100313   19.509666

 Total Charge           Charge          ....    0
 Multiplicity           Mult            ....    1
 Number of Electrons    NEL             ....  154
 Basis Dimension        Dim             ....  828

ORBITAL ENERGIES
----------------

  NO   OCC          E(Eh)            E(eV)
   0   2.0000     -91.887992     -2500.3994
   1   2.0000     -20.596429      -560.4573
   2   2.0000     -20.596185      -560.4507
   3   2.0000     -20.540146      -558.9258
   4   2.0000     -15.628204      -425.2651
   5   2.0000     -15.605953      -424.6596
   6   2.0000     -11.397640      -310.1456
   7   2.0000     -11.382507      -309.7338
   8   2.0000     -11.336225      -308.4744
   9   2.0000     -11.313545      -307.8572
  10   2.0000     -11.306213      -307.6577
  11   2.0000     -11.302621      -307.5600
  12   2.0000     -11.260445      -306.4123
  13   2.0000     -11.258062      -306.3475
  14   2.0000     -11.255068      -306.2660
  15   2.0000     -11.250854      -306.1513
  16   2.0000     -11.243292      -305.9455
  17   2.0000     -11.238462      -305.8141
  18   2.0000     -11.238378      -305.8118
  19   2.0000     -11.221486      -305.3522
  20   2.0000      -8.893073      -241.9928
  21   2.0000      -6.574649      -178.9053
  22   2.0000      -6.572648      -178.8509
  23   2.0000      -6.572060      -178.8349
  24   2.0000      -1.442336       -39.2480
  25   2.0000      -1.416078       -38.5334
  26   2.0000      -1.353877       -36.8409
  27   2.0000      -1.339466       -36.4487
  28   2.0000      -1.237330       -33.6695
  29   2.0000      -1.157022       -31.4842
  30   2.0000      -1.119581       -30.4653
  31   2.0000      -1.042037       -28.3553
  32   2.0000      -1.035916       -28.1887
  33   2.0000      -1.014702       -27.6114
  34   2.0000      -0.995117       -27.0785
  35   2.0000      -0.983170       -26.7534
  36   2.0000      -0.920936       -25.0599
  37   2.0000      -0.896146       -24.3854
  38   2.0000      -0.846170       -23.0255
  39   2.0000      -0.837737       -22.7960
  40   2.0000      -0.833864       -22.6906
  41   2.0000      -0.818436       -22.2708
  42   2.0000      -0.745778       -20.2936
  43   2.0000      -0.731460       -19.9040
  44   2.0000      -0.717235       -19.5170
  45   2.0000      -0.694958       -18.9108
  46   2.0000      -0.687251       -18.7011
  47   2.0000      -0.676677       -18.4133
  48   2.0000      -0.667668       -18.1682
  49   2.0000      -0.660632       -17.9767
  50   2.0000      -0.647940       -17.6313
  51   2.0000      -0.643966       -17.5232
  52   2.0000      -0.634178       -17.2569
  53   2.0000      -0.606721       -16.5097
  54   2.0000      -0.600772       -16.3478
  55   2.0000      -0.598868       -16.2960
  56   2.0000      -0.596391       -16.2286
  57   2.0000      -0.581743       -15.8300
  58   2.0000      -0.575227       -15.6527
  59   2.0000      -0.568994       -15.4831
  60   2.0000      -0.561422       -15.2771
  61   2.0000      -0.539631       -14.6841
  62   2.0000      -0.535135       -14.5618
  63   2.0000      -0.523663       -14.2496
  64   2.0000      -0.522809       -14.2263
  65   2.0000      -0.511888       -13.9292
  66   2.0000      -0.500997       -13.6328
  67   2.0000      -0.496960       -13.5230
  68   2.0000      -0.483143       -13.1470
  69   2.0000      -0.462462       -12.5842
  70   2.0000      -0.451434       -12.2841
  71   2.0000      -0.439056       -11.9473
  72   2.0000      -0.351840        -9.5741
  73   2.0000      -0.349335        -9.5059
  74   2.0000      -0.327269        -8.9054
  75   2.0000      -0.320930        -8.7329
  76   2.0000      -0.317236        -8.6324
  77   0.0000       0.077650         2.1130
  78   0.0000       0.105801         2.8790
  79   0.0000       0.124836         3.3970
  80   0.0000       0.133246         3.6258
  81   0.0000       0.137238         3.7344

MULLIKEN ATOMIC CHARGES
-----------------------
   0 C :   -0.281403
   1 C :    0.047493
   2 O :   -0.365387
   3 C :    0.436447
   4 O :   -0.432802
   5 C :   -0.214362
   6 C :    0.174325
   7 C :   -0.267389
   8 N :   -0.126022
   9 C :    0.211219
  10 S :   -0.443597
  11 N :   -0.215980
  12 C :    0.064074
  13 C :    0.048154
  14 C :   -0.186773
  15 C :   -0.132346
  16 C :   -0.277559
  17 C :    0.317006
  18 O :   -0.356785
  19 C :   -0.250611
  20 H :    0.112682
  21 H :    0.094719
  22 H :    0.103865
  23 H :    0.092440
  24 H :    0.094655
  25 H :    0.132973
  26 H :    0.128641
  27 H :    0.094409
  28 H :    0.199549
  29 H :    0.200217
  30 H :    0.151101
  31 H :    0.153087
  32 H :    0.160575
  33 H :    0.130088
  34 H :    0.240522
  35 H :    0.162773
Sum of atomic charges:   -0.0000000

LOEWDIN ATOMIC CHARGES
----------------------
   0 C :    0.102250
   1 C :   -0.009707
   2 O :    0.294993
   3 C :   -0.412403
   4 O :    0.107735
   5 C :   -0.094601
   6 C :   -0.056521
   7 C :    0.130240
   8 N :    0.406976
   9 C :   -0.456809
  10 S :   -0.037768
  11 N :    0.394533
  12 C :   -0.054887
  13 C :   -0.038568
  14 C :    0.016686
  15 C :    0.038676
  16 C :   -0.001488
  17 C :   -0.189740
  18 O :    0.395032
  19 C :    0.032824
  20 H :   -0.025881
  21 H :   -0.028843
  22 H :   -0.024940
  23 H :   -0.028585
  24 H :   -0.025879
  25 H :   -0.004705
  26 H :   -0.005384
  27 H :   -0.023928
  28 H :   -0.057371
  29 H :   -0.064592
  30 H :   -0.014038
  31 H :   -0.029422
  32 H :   -0.021433
  33 H :   -0.035585
  34 H :   -0.154031
  35 H :   -0.022835

  Mayer bond orders larger than 0.100000
B(  0-C ,  1-C ) :   0.9832 B(  0-C , 20-H ) :   0.9730 B(  0-C , 21-H ) :   0.9745
B(  0-C , 22-H ) :   0.9744 B(  1-C ,  2-O ) :   0.8983 B(  1-C , 23-H ) :   0.9734
B(  1-C , 24-H ) :   0.9806 B(  2-O ,  3-C ) :   1.1311 B(  3-C ,  4-O ) :   1.9705
B(  3-C ,  5-C ) :   1.0781 B(  5-C ,  6-C ) :   1.6384 B(  5-C , 12-C ) :   0.9582
B(  6-C ,  7-C ) :   0.9654 B(  6-C ,  8-N ) :   1.1505 B(  7-C , 25-H ) :   0.9611
B(  7-C , 26-H ) :   0.9590 B(  7-C , 27-H ) :   0.9911 B(  8-N ,  9-C ) :   1.1882
B(  8-N , 28-H ) :   0.9464 B(  9-C , 10-S ) :   1.6039 B(  9-C , 11-N ) :   1.3105
B( 11-N , 12-C ) :   0.9650 B( 11-N , 29-H ) :   0.9485 B( 12-C , 13-C ) :   0.9629
B( 12-C , 30-H ) :   1.0010 B( 13-C , 14-C ) :   1.3505 B( 13-C , 19-C ) :   1.3817
B( 14-C , 15-C ) :   1.3935 B( 14-C , 31-H ) :   0.9720 B( 15-C , 16-C ) :   1.3593
B( 15-C , 32-H ) :   0.9707 B( 16-C , 17-C ) :   1.3339 B( 16-C , 33-H ) :   0.9852
B( 17-C , 18-O ) :   1.1046 B( 17-C , 19-C ) :   1.3647 B( 18-O , 34-H ) :   0.9799
B( 19-C , 35-H ) :   0.9597

MP2 TOTAL ENERGY:    -1274.331676089 Eh
FINAL SINGLE POINT ENERGY     -1274.331676088590

DIPOLE MOMENT
-------------
                                X             Y             Z
Electronic contribution:      9.48785       9.95119      10.01909
Nuclear contribution   :    -10.54277     -11.73891     -10.33815
                        -----------------------------------------
Total Dipole Moment    :     -1.05492      -1.78772      -0.31906
                        -----------------------------------------
Magnitude (a.u.)       :      2.10014
Magnitude (Debye)      :      5.33813

Rotational constants in cm-1:     0.010849     0.008726     0.005792
Rotational constants in MHz :   325.252478   261.589697   173.629039

                             ****ORCA TERMINATED NORMALLY****
TOTAL RUN TIME: 0 days 1 hours 37 minutes 31 seconds 208 msec
