                         Program Version 4.2.0 -  RELEASE  -
|  1> ! ri-mp2 cc-pvtz cc-pvtz/c TightSCF NoKeepInts
|  2>
|  3> %scf
|  4>   MaxCore 4096
|  5> end
|  6> *xyz  0  1
|  7>     C       14.5351029   14.9859798   14.4265009
|  8>     C       15.6790885   14.7390534   15.4327694
|  9>     O       16.4588185   15.9023937   15.8176426
| 10>     C       16.1568287   17.2283103   15.6236108
| 11>     O       15.4110860   17.6398215   14.7531824
| 12>     C       16.8400439   18.1092717   16.6384491
| 13>     C       16.9048567   19.4553179   16.4646998
| 14>     C       16.1408959   20.2903956   15.4574425
| 15>     N       17.7496635   20.2435306   17.2497548
| 16>     C       18.6990337   19.7502417   18.1027550
| 17>     S       19.7312125   20.7407741   18.9330243
| 18>     N       18.7650117   18.3852339   18.2182970
| 19>     C       17.8246913   17.4280117   17.6058939
| 20>     C       17.1608869   16.5231578   18.6361487
| 21>     C       17.5207200   15.1663902   18.7353101
| 22>     C       16.9067303   14.3330308   19.6854771
| 23>     C       15.9281767   14.8620579   20.5446301
| 24>     C       15.5720501   16.2147308   20.4507793
| 25>     O       14.6291315   16.7283257   21.2803122
| 26>     C       16.1847263   17.0414357   19.5038792
| 27>     H       13.7755414   15.6574314   14.8462287
| 28>     H       14.0398472   14.0401339   14.1766024
| 29>     H       14.9175628   15.4198506   13.4939764
| 30>     H       15.2390508   14.3078844   16.3415263
| 31>     H       16.3587884   13.9833870   15.0187638
| 32>     H       15.0635798   20.0938477   15.5315082
| 33>     H       16.4499579   20.0408378   14.4343946
| 34>     H       16.2851675   21.3686370   15.5933750
| 35>     H       17.7260843   21.2464772   17.1578671
| 36>     H       19.4533196   18.0518404   18.8811602
| 37>     H       18.5152930   16.8532209   16.9726634
| 38>     H       18.2745639   14.7563062   18.0685805
| 39>     H       17.1900422   13.2842240   19.7549555
| 40>     H       15.4517651   14.2229672   21.2807903
| 41>     H       14.3462742   16.0182249   21.8757533
| 42>     H       15.9014063   18.0872648   19.4492951
| 43> *
| 44>
| 45>                          ****END OF INPUT****

CARTESIAN COORDINATES (ANGSTROEM)
---------------------------------
  C     14.535103   14.985980   14.426501
  C     15.679088   14.739053   15.432769
  O     16.458818   15.902394   15.817643
  C     16.156829   17.228310   15.623611
  O     15.411086   17.639822   14.753182
  C     16.840044   18.109272   16.638449
  C     16.904857   19.455318   16.464700
  C     16.140896   20.290396   15.457442
  N     17.749664   20.243531   17.249755
  C     18.699034   19.750242   18.102755
  S     19.731212   20.740774   18.933024
  N     18.765012   18.385234   18.218297
  C     17.824691   17.428012   17.605894
  C     17.160887   16.523158   18.636149
  C     17.520720   15.166390   18.735310
  C     16.906730   14.333031   19.685477
  C     15.928177   14.862058   20.544630
  C     15.572050   16.214731   20.450779
  O     14.629131   16.728326   21.280312
  C     16.184726   17.041436   19.503879
  H     13.775541   15.657431   14.846229
  H     14.039847   14.040134   14.176602
  H     14.917563   15.419851   13.493976
  H     15.239051   14.307884   16.341526
  H     16.358788   13.983387   15.018764
  H     15.063580   20.093848   15.531508
  H     16.449958   20.040838   14.434395
  H     16.285168   21.368637   15.593375
  H     17.726084   21.246477   17.157867
  H     19.453320   18.051840   18.881160
  H     18.515293   16.853221   16.972663
  H     18.274564   14.756306   18.068580
  H     17.190042   13.284224   19.754956
  H     15.451765   14.222967   21.280790
  H     14.346274   16.018225   21.875753
  H     15.901406   18.087265   19.449295

 Total Charge           Charge          ....    0
 Multiplicity           Mult            ....    1
 Number of Electrons    NEL             ....  154
 Basis Dimension        Dim             ....  828

ORBITAL ENERGIES
----------------

  NO   OCC          E(Eh)            E(eV)
   0   2.0000     -91.887945     -2500.3981
   1   2.0000     -20.596716      -560.4651
   2   2.0000     -20.595650      -560.4361
   3   2.0000     -20.539790      -558.9161
   4   2.0000     -15.628128      -425.2630
   5   2.0000     -15.605938      -424.6592
   6   2.0000     -11.397695      -310.1470
   7   2.0000     -11.382472      -309.7328
   8   2.0000     -11.336095      -308.4708
   9   2.0000     -11.313872      -307.8661
  10   2.0000     -11.306194      -307.6572
  11   2.0000     -11.302669      -307.5613
  12   2.0000     -11.260726      -306.4199
  13   2.0000     -11.257974      -306.3451
  14   2.0000     -11.255418      -306.2755
  15   2.0000     -11.250744      -306.1483
  16   2.0000     -11.243634      -305.9548
  17   2.0000     -11.238754      -305.8220
  18   2.0000     -11.238683      -305.8201
  19   2.0000     -11.222271      -305.3735
  20   2.0000      -8.893026      -241.9916
  21   2.0000      -6.574602      -178.9040
  22   2.0000      -6.572602      -178.8496
  23   2.0000      -6.572014      -178.8336
  24   2.0000      -1.441441       -39.2236
  25   2.0000      -1.416365       -38.5413
  26   2.0000      -1.353329       -36.8260
  27   2.0000      -1.339395       -36.4468
  28   2.0000      -1.237296       -33.6685
  29   2.0000      -1.157295       -31.4916
  30   2.0000      -1.119540       -30.4642
  31   2.0000      -1.042189       -28.3594
  32   2.0000      -1.036012       -28.1913
  33   2.0000      -1.015025       -27.6202
  34   2.0000      -0.995216       -27.0812
  35   2.0000      -0.983209       -26.7545
  36   2.0000      -0.920989       -25.0614
  37   2.0000      -0.896889       -24.4056
  38   2.0000      -0.846154       -23.0250
  39   2.0000      -0.837953       -22.8019
  40   2.0000      -0.834156       -22.6986
  41   2.0000      -0.818144       -22.2628
  42   2.0000      -0.744464       -20.2579
  43   2.0000      -0.731567       -19.9070
  44   2.0000      -0.716690       -19.5021
  45   2.0000      -0.695136       -18.9156
  46   2.0000      -0.686800       -18.6888
  47   2.0000      -0.675142       -18.3715
  48   2.0000      -0.668551       -18.1922
  49   2.0000      -0.662735       -18.0339
  50   2.0000      -0.647850       -17.6289
  51   2.0000      -0.643265       -17.5041
  52   2.0000      -0.634356       -17.2617
  53   2.0000      -0.607052       -16.5187
  54   2.0000      -0.601778       -16.3752
  55   2.0000      -0.600333       -16.3359
  56   2.0000      -0.598491       -16.2858
  57   2.0000      -0.578359       -15.7380
  58   2.0000      -0.574448       -15.6315
  59   2.0000      -0.568800       -15.4778
  60   2.0000      -0.560802       -15.2602
  61   2.0000      -0.539931       -14.6923
  62   2.0000      -0.534929       -14.5562
  63   2.0000      -0.524532       -14.2732
  64   2.0000      -0.523085       -14.2339
  65   2.0000      -0.511974       -13.9315
  66   2.0000      -0.500637       -13.6230
  67   2.0000      -0.496733       -13.5168
  68   2.0000      -0.483771       -13.1641
  69   2.0000      -0.462249       -12.5784
  70   2.0000      -0.450207       -12.2507
  71   2.0000      -0.439738       -11.9659
  72   2.0000      -0.351798        -9.5729
  73   2.0000      -0.349573        -9.5124
  74   2.0000      -0.327265        -8.9053
  75   2.0000      -0.321284        -8.7426
  76   2.0000      -0.317199        -8.6314
  77   0.0000       0.077868         2.1189
  78   0.0000       0.105358         2.8669
  79   0.0000       0.125069         3.4033
  80   0.0000       0.133161         3.6235
  81   0.0000       0.137845         3.7510

MULLIKEN ATOMIC CHARGES
-----------------------
   0 C :   -0.284505
   1 C :    0.047051
   2 O :   -0.365401
   3 C :    0.434051
   4 O :   -0.430011
   5 C :   -0.218399
   6 C :    0.176273
   7 C :   -0.267090
   8 N :   -0.126573
   9 C :    0.211051
  10 S :   -0.443761
  11 N :   -0.216192
  12 C :    0.066723
  13 C :    0.046515
  14 C :   -0.186853
  15 C :   -0.132691
  16 C :   -0.278081
  17 C :    0.317067
  18 O :   -0.356719
  19 C :   -0.250529
  20 H :    0.107105
  21 H :    0.096273
  22 H :    0.110997
  23 H :    0.095745
  24 H :    0.092765
  25 H :    0.132530
  26 H :    0.129065
  27 H :    0.094326
  28 H :    0.199571
  29 H :    0.200270
  30 H :    0.151146
  31 H :    0.153176
  32 H :    0.161307
  33 H :    0.130294
  34 H :    0.240556
  35 H :    0.162951
Sum of atomic charges:   -0.0000000

LOEWDIN ATOMIC CHARGES
----------------------
   0 C :    0.102436
   1 C :   -0.009353
   2 O :    0.294599
   3 C :   -0.412655
   4 O :    0.107603
   5 C :   -0.094866
   6 C :   -0.056609
   7 C :    0.130224
   8 N :    0.406953
   9 C :   -0.456738
  10 S :   -0.037871
  11 N :    0.394527
  12 C :   -0.054903
  13 C :   -0.038560
  14 C :    0.016905
  15 C :    0.038449
  16 C :   -0.001602
  17 C :   -0.189709
  18 O :    0.395081
  19 C :    0.032853
  20 H :   -0.025837
  21 H :   -0.027894
  22 H :   -0.024702
  23 H :   -0.028119
  24 H :   -0.027222
  25 H :   -0.004802
  26 H :   -0.005292
  27 H :   -0.023956
  28 H :   -0.057372
  29 H :   -0.064629
  30 H :   -0.013991
  31 H :   -0.029235
  32 H :   -0.021384
  33 H :   -0.035541
  34 H :   -0.153990
  35 H :   -0.022800

  Mayer bond orders larger than 0.100000
B(  0-C ,  1-C ) :   0.9848 B(  0-C , 20-H ) :   0.9740 B(  0-C , 21-H ) :   0.9730
B(  0-C , 22-H ) :   0.9734 B(  1-C ,  2-O ) :   0.8983 B(  1-C , 23-H ) :   0.9728
B(  1-C , 24-H ) :   0.9791 B(  2-O ,  3-C ) :   1.1348 B(  3-C ,  4-O ) :   1.9764
B(  3-C ,  5-C ) :   1.0691 B(  5-C ,  6-C ) :   1.6397 B(  5-C , 12-C ) :   0.9596
B(  6-C ,  7-C ) :   0.9650 B(  6-C ,  8-N ) :   1.1498 B(  7-C , 25-H ) :   0.9613
B(  7-C , 26-H ) :   0.9589 B(  7-C , 27-H ) :   0.9910 B(  8-N ,  9-C ) :   1.1886
B(  8-N , 28-H ) :   0.9465 B(  9-C , 10-S ) :   1.6036 B(  9-C , 11-N ) :   1.3107
B( 11-N , 12-C ) :   0.9655 B( 11-N , 29-H ) :   0.9486 B( 12-C , 13-C ) :   0.9624
B( 12-C , 30-H ) :   1.0008 B( 13-C , 14-C ) :   1.3501 B( 13-C , 19-C ) :   1.3820
B( 14-C , 15-C ) :   1.3929 B( 14-C , 31-H ) :   0.9723 B( 15-C , 16-C ) :   1.3588
B( 15-C , 32-H ) :   0.9706 B( 16-C , 17-C ) :   1.3336 B( 16-C , 33-H ) :   0.9851
B( 17-C , 18-O ) :   1.1046 B( 17-C , 19-C ) :   1.3645 B( 18-O , 34-H ) :   0.9798
B( 19-C , 35-H ) :   0.9596

MP2 TOTAL ENERGY:    -1274.331096880 Eh
FINAL SINGLE POINT ENERGY     -1274.331096880333

DIPOLE MOMENT
-------------
                                X             Y             Z
Electronic contribution:      9.56680      10.07499       9.63482
Nuclear contribution   :    -10.60263     -11.88811      -9.95384
                        -----------------------------------------
Total Dipole Moment    :     -1.03583      -1.81312      -0.31902
                        -----------------------------------------
Magnitude (a.u.)       :      2.11238
Magnitude (Debye)      :      5.36924

Rotational constants in cm-1:     0.011040     0.008674     0.005823
Rotational constants in MHz :   330.956486   260.044727   174.574524

                             ****ORCA TERMINATED NORMALLY****
TOTAL RUN TIME: 0 days 1 hours 39 minutes 20 seconds 950 msec
