                         Program Version 4.2.0 -  RELEASE  -
|  1> ! ri-mp2 cc-pvtz cc-pvtz/c TightSCF NoKeepInts
|  2>
|  3> %scf
|  4>   MaxCore 4096
|  5> end
|  6> *xyz  0  1
|  7>     C       14.5148026   15.7327440   13.1441126
|  8>     C       14.7592563   15.4185807   14.6296919
|  9>     O       15.5336963   16.5039686   15.1718200
| 10>     C       16.5005668   16.2613369   16.1053895
| 11>     O       16.8680879   15.1331969   16.3898124
| 12>     C       17.0129721   17.4820451   16.8190250
| 13>     C       17.0297933   18.7184781   16.2522036
| 14>     C       16.3606193   19.1692807   14.9681364
| 15>     N       17.7593256   19.7591894   16.8331169
| 16>     C       18.6683547   19.5998305   17.8436151
| 17>     S       19.5787520   20.8610548   18.4058454
| 18>     N       18.8007010   18.3320185   18.3494975
| 19>     C       17.9460206   17.1810183   17.9998630
| 20>     C       17.2327786   16.5788034   19.2034200
| 21>     C       17.3824878   15.2162437   19.5186321
| 22>     C       16.7267159   14.6638944   20.6316980
| 23>     C       15.9156810   15.4816273   21.4372556
| 24>     C       15.7635166   16.8394865   21.1243249
| 25>     O       14.9781646   17.6304183   21.8983047
| 26>     C       16.4171932   17.3861713   20.0153752
| 27>     H       13.9688487   16.6777437   13.0326885
| 28>     H       13.9233073   14.9367598   12.6754832
| 29>     H       15.4667555   15.8152103   12.6048921
| 30>     H       13.8092312   15.3192952   15.1706663
| 31>     H       15.2980682   14.4634782   14.6955423
| 32>     H       16.6987714   18.5631744   14.1183544
| 33>     H       16.5739413   20.2161833   14.7202757
| 34>     H       15.2705043   19.0696655   15.0435718
| 35>     H       17.6888911   20.6914579   16.4580327
| 36>     H       19.4611725   18.2454381   19.1116190
| 37>     H       18.7048314   16.4859351   17.6118914
| 38>     H       17.9975018   14.5801729   18.8863992
| 39>     H       16.8444528   13.6065267   20.8616703
| 40>     H       15.4062031   15.0587637   22.2966149
| 41>     H       14.6346614   17.0809427   22.6185768
| 42>     H       16.2903717   18.4398652   19.7905816
| 43> *
| 44>
| 45>                          ****END OF INPUT****

CARTESIAN COORDINATES (ANGSTROEM)
---------------------------------
  C     14.514803   15.732744   13.144113
  C     14.759256   15.418581   14.629692
  O     15.533696   16.503969   15.171820
  C     16.500567   16.261337   16.105390
  O     16.868088   15.133197   16.389812
  C     17.012972   17.482045   16.819025
  C     17.029793   18.718478   16.252204
  C     16.360619   19.169281   14.968136
  N     17.759326   19.759189   16.833117
  C     18.668355   19.599830   17.843615
  S     19.578752   20.861055   18.405845
  N     18.800701   18.332019   18.349497
  C     17.946021   17.181018   17.999863
  C     17.232779   16.578803   19.203420
  C     17.382488   15.216244   19.518632
  C     16.726716   14.663894   20.631698
  C     15.915681   15.481627   21.437256
  C     15.763517   16.839486   21.124325
  O     14.978165   17.630418   21.898305
  C     16.417193   17.386171   20.015375
  H     13.968849   16.677744   13.032688
  H     13.923307   14.936760   12.675483
  H     15.466755   15.815210   12.604892
  H     13.809231   15.319295   15.170666
  H     15.298068   14.463478   14.695542
  H     16.698771   18.563174   14.118354
  H     16.573941   20.216183   14.720276
  H     15.270504   19.069665   15.043572
  H     17.688891   20.691458   16.458033
  H     19.461172   18.245438   19.111619
  H     18.704831   16.485935   17.611891
  H     17.997502   14.580173   18.886399
  H     16.844453   13.606527   20.861670
  H     15.406203   15.058764   22.296615
  H     14.634661   17.080943   22.618577
  H     16.290372   18.439865   19.790582

 Total Charge           Charge          ....    0
 Multiplicity           Mult            ....    1
 Number of Electrons    NEL             ....  154
 Basis Dimension        Dim             ....  828

ORBITAL ENERGIES
----------------

  NO   OCC          E(Eh)            E(eV)
   0   2.0000     -91.887667     -2500.3905
   1   2.0000     -20.604549      -560.6783
   2   2.0000     -20.590859      -560.3058
   3   2.0000     -20.544585      -559.0466
   4   2.0000     -15.628216      -425.2654
   5   2.0000     -15.605267      -424.6409
   6   2.0000     -11.396140      -310.1047
   7   2.0000     -11.382146      -309.7239
   8   2.0000     -11.338079      -308.5248
   9   2.0000     -11.306785      -307.6733
  10   2.0000     -11.303718      -307.5898
  11   2.0000     -11.298978      -307.4608
  12   2.0000     -11.261072      -306.4294
  13   2.0000     -11.259002      -306.3730
  14   2.0000     -11.254085      -306.2392
  15   2.0000     -11.246847      -306.0423
  16   2.0000     -11.237087      -305.7767
  17   2.0000     -11.234639      -305.7101
  18   2.0000     -11.233223      -305.6715
  19   2.0000     -11.229970      -305.5830
  20   2.0000      -8.892754      -241.9841
  21   2.0000      -6.574333      -178.8967
  22   2.0000      -6.572329      -178.8422
  23   2.0000      -6.571742      -178.8262
  24   2.0000      -1.454085       -39.5677
  25   2.0000      -1.410602       -38.3844
  26   2.0000      -1.357393       -36.9365
  27   2.0000      -1.339591       -36.4521
  28   2.0000      -1.236699       -33.6523
  29   2.0000      -1.151514       -31.3343
  30   2.0000      -1.120296       -30.4848
  31   2.0000      -1.045120       -28.4391
  32   2.0000      -1.036732       -28.2109
  33   2.0000      -1.009042       -27.4574
  34   2.0000      -0.998289       -27.1648
  35   2.0000      -0.983434       -26.7606
  36   2.0000      -0.920128       -25.0380
  37   2.0000      -0.889387       -24.2015
  38   2.0000      -0.846820       -23.0431
  39   2.0000      -0.834090       -22.6967
  40   2.0000      -0.827097       -22.5064
  41   2.0000      -0.817762       -22.2524
  42   2.0000      -0.762414       -20.7463
  43   2.0000      -0.736096       -20.0302
  44   2.0000      -0.725405       -19.7393
  45   2.0000      -0.689248       -18.7554
  46   2.0000      -0.684182       -18.6175
  47   2.0000      -0.680294       -18.5118
  48   2.0000      -0.675275       -18.3752
  49   2.0000      -0.655024       -17.8241
  50   2.0000      -0.651600       -17.7309
  51   2.0000      -0.639865       -17.4116
  52   2.0000      -0.631708       -17.1896
  53   2.0000      -0.605640       -16.4803
  54   2.0000      -0.602673       -16.3996
  55   2.0000      -0.597365       -16.2551
  56   2.0000      -0.594164       -16.1680
  57   2.0000      -0.580128       -15.7861
  58   2.0000      -0.572186       -15.5700
  59   2.0000      -0.563711       -15.3393
  60   2.0000      -0.562488       -15.3061
  61   2.0000      -0.546225       -14.8635
  62   2.0000      -0.544896       -14.8274
  63   2.0000      -0.528938       -14.3931
  64   2.0000      -0.514954       -14.0126
  65   2.0000      -0.508087       -13.8257
  66   2.0000      -0.499513       -13.5924
  67   2.0000      -0.493354       -13.4248
  68   2.0000      -0.481570       -13.1042
  69   2.0000      -0.463934       -12.6243
  70   2.0000      -0.461544       -12.5593
  71   2.0000      -0.451591       -12.2884
  72   2.0000      -0.352886        -9.6025
  73   2.0000      -0.343690        -9.3523
  74   2.0000      -0.326744        -8.8912
  75   2.0000      -0.316830        -8.6214
  76   2.0000      -0.313396        -8.5279
  77   0.0000       0.077767         2.1161
  78   0.0000       0.112636         3.0650
  79   0.0000       0.120609         3.2819
  80   0.0000       0.136007         3.7009
  81   0.0000       0.138833         3.7778

MULLIKEN ATOMIC CHARGES
-----------------------
   0 C :   -0.272217
   1 C :    0.026091
   2 O :   -0.341002
   3 C :    0.428280
   4 O :   -0.425568
   5 C :   -0.178424
   6 C :    0.161523
   7 C :   -0.286880
   8 N :   -0.129063
   9 C :    0.207581
  10 S :   -0.442999
  11 N :   -0.210749
  12 C :    0.040780
  13 C :    0.032217
  14 C :   -0.165475
  15 C :   -0.134208
  16 C :   -0.276868
  17 C :    0.314343
  18 O :   -0.359236
  19 C :   -0.250692
  20 H :    0.092371
  21 H :    0.099547
  22 H :    0.096381
  23 H :    0.095167
  24 H :    0.117201
  25 H :    0.124591
  26 H :    0.104774
  27 H :    0.130707
  28 H :    0.198734
  29 H :    0.199978
  30 H :    0.154929
  31 H :    0.158076
  32 H :    0.159492
  33 H :    0.127878
  34 H :    0.239807
  35 H :    0.162933
Sum of atomic charges:   -0.0000000

LOEWDIN ATOMIC CHARGES
----------------------
   0 C :    0.104447
   1 C :   -0.011605
   2 O :    0.307160
   3 C :   -0.414464
   4 O :    0.102723
   5 C :   -0.090933
   6 C :   -0.064046
   7 C :    0.124658
   8 N :    0.405365
   9 C :   -0.458809
  10 S :   -0.038063
  11 N :    0.396573
  12 C :   -0.048314
  13 C :   -0.040400
  14 C :    0.025254
  15 C :    0.041036
  16 C :   -0.001099
  17 C :   -0.192426
  18 O :    0.392997
  19 C :    0.029813
  20 H :   -0.029949
  21 H :   -0.023817
  22 H :   -0.026827
  23 H :   -0.030056
  24 H :   -0.027393
  25 H :   -0.010107
  26 H :   -0.021235
  27 H :   -0.009558
  28 H :   -0.058865
  29 H :   -0.063032
  30 H :   -0.008517
  31 H :   -0.024129
  32 H :   -0.021173
  33 H :   -0.036257
  34 H :   -0.154988
  35 H :   -0.023964

  Mayer bond orders larger than 0.100000
B(  0-C ,  1-C ) :   0.9720 B(  0-C , 20-H ) :   0.9790 B(  0-C , 21-H ) :   0.9774
B(  0-C , 22-H ) :   0.9776 B(  1-C ,  2-O ) :   0.8929 B(  1-C , 23-H ) :   0.9791
B(  1-C , 24-H ) :   0.9748 B(  2-O ,  3-C ) :   1.1607 B(  3-C ,  4-O ) :   1.9838
B(  3-C ,  5-C ) :   1.0454 B(  5-C ,  6-C ) :   1.6537 B(  5-C , 12-C ) :   0.9505
B(  6-C ,  7-C ) :   0.9521 B(  6-C ,  8-N ) :   1.1353 B(  7-C , 25-H ) :   0.9655
B(  7-C , 26-H ) :   0.9927 B(  7-C , 27-H ) :   0.9629 B(  8-N ,  9-C ) :   1.1852
B(  8-N , 28-H ) :   0.9469 B(  9-C , 10-S ) :   1.6075 B(  9-C , 11-N ) :   1.3070
B( 11-N , 12-C ) :   0.9763 B( 11-N , 29-H ) :   0.9485 B( 12-C , 13-C ) :   0.9751
B( 12-C , 30-H ) :   0.9974 B( 13-C , 14-C ) :   1.3761 B( 13-C , 19-C ) :   1.3664
B( 14-C , 15-C ) :   1.3974 B( 14-C , 31-H ) :   0.9640 B( 15-C , 16-C ) :   1.3587
B( 15-C , 32-H ) :   0.9713 B( 16-C , 17-C ) :   1.3334 B( 16-C , 33-H ) :   0.9861
B( 17-C , 18-O ) :   1.1030 B( 17-C , 19-C ) :   1.3678 B( 18-O , 34-H ) :   0.9808
B( 19-C , 35-H ) :   0.9602

MP2 TOTAL ENERGY:    -1274.341155165 Eh
FINAL SINGLE POINT ENERGY     -1274.341155164630

DIPOLE MOMENT
-------------
                                X             Y             Z
Electronic contribution:     10.40976       7.90928      13.43826
Nuclear contribution   :    -12.04308      -9.03790     -14.45739
                        -----------------------------------------
Total Dipole Moment    :     -1.63332      -1.12862      -1.01912
                        -----------------------------------------
Magnitude (a.u.)       :      2.23162
Magnitude (Debye)      :      5.67233

Rotational constants in cm-1:     0.010114     0.008495     0.005367
Rotational constants in MHz :   303.220166   254.658921   160.908217

                             ****ORCA TERMINATED NORMALLY****
TOTAL RUN TIME: 0 days 1 hours 39 minutes 46 seconds 837 msec
