                         Program Version 4.2.0 -  RELEASE  -
|  1> ! ri-mp2 cc-pvtz cc-pvtz/c TightSCF NoKeepInts
|  2>
|  3> %scf
|  4>   MaxCore 4096
|  5> end
|  6> *xyz  0  1
|  7>     C       15.4994911   13.9398071   15.1532602
|  8>     C       15.0299105   15.3972366   15.0110124
|  9>     O       15.9859038   16.2244582   15.6918195
| 10>     C       15.8450710   17.5819653   15.6352423
| 11>     O       15.0713062   18.1186813   14.8601068
| 12>     C       16.7003486   18.2968865   16.6471284
| 13>     C       16.8911439   19.6392608   16.5712076
| 14>     C       16.1293874   20.6257638   15.7102548
| 15>     N       17.8838693   20.2692323   17.3252667
| 16>     C       18.8518187   19.6112886   18.0345639
| 17>     S       20.0577854   20.4187223   18.8279558
| 18>     N       18.7830721   18.2412039   18.0353569
| 19>     C       17.6912809   17.4386238   17.4522708
| 20>     C       17.0350163   16.5157660   18.4709600
| 21>     C       17.2289208   15.1236454   18.4058738
| 22>     C       16.6237234   14.2740869   19.3472295
| 23>     C       15.8219107   14.8220532   20.3632821
| 24>     C       15.6315771   16.2092510   20.4326739
| 25>     O       14.8592924   16.7408381   21.4135347
| 26>     C       16.2350734   17.0521115   19.4941081
| 27>     H       15.5433466   13.6510427   16.2108507
| 28>     H       16.4967442   13.8097436   14.7151123
| 29>     H       14.8070367   13.2612792   14.6404530
| 30>     H       14.9778211   15.6664104   13.9471152
| 31>     H       14.0326296   15.5212648   15.4540368
| 32>     H       15.0482488   20.5217157   15.8685965
| 33>     H       16.3241875   20.4417521   14.6460245
| 34>     H       16.3897524   21.6700112   15.9194122
| 35>     H       17.9587631   21.2738530   17.3148208
| 36>     H       19.4916439   17.7843730   18.5954007
| 37>     H       18.2533321   16.8562965   16.7084014
| 38>     H       17.8435734   14.6992567   17.6165372
| 39>     H       16.7763316   13.1979511   19.2875692
| 40>     H       15.3525475   14.1703125   21.0927695
| 41>     H       14.5528913   16.0101552   21.9712019
| 42>     H       16.0822469   18.1236998   19.5665901
| 43> *
| 44>
| 45>                          ****END OF INPUT****

CARTESIAN COORDINATES (ANGSTROEM)
---------------------------------
  C     15.499491   13.939807   15.153260
  C     15.029910   15.397237   15.011012
  O     15.985904   16.224458   15.691819
  C     15.845071   17.581965   15.635242
  O     15.071306   18.118681   14.860107
  C     16.700349   18.296886   16.647128
  C     16.891144   19.639261   16.571208
  C     16.129387   20.625764   15.710255
  N     17.883869   20.269232   17.325267
  C     18.851819   19.611289   18.034564
  S     20.057785   20.418722   18.827956
  N     18.783072   18.241204   18.035357
  C     17.691281   17.438624   17.452271
  C     17.035016   16.515766   18.470960
  C     17.228921   15.123645   18.405874
  C     16.623723   14.274087   19.347230
  C     15.821911   14.822053   20.363282
  C     15.631577   16.209251   20.432674
  O     14.859292   16.740838   21.413535
  C     16.235073   17.052111   19.494108
  H     15.543347   13.651043   16.210851
  H     16.496744   13.809744   14.715112
  H     14.807037   13.261279   14.640453
  H     14.977821   15.666410   13.947115
  H     14.032630   15.521265   15.454037
  H     15.048249   20.521716   15.868597
  H     16.324188   20.441752   14.646024
  H     16.389752   21.670011   15.919412
  H     17.958763   21.273853   17.314821
  H     19.491644   17.784373   18.595401
  H     18.253332   16.856296   16.708401
  H     17.843573   14.699257   17.616537
  H     16.776332   13.197951   19.287569
  H     15.352548   14.170312   21.092769
  H     14.552891   16.010155   21.971202
  H     16.082247   18.123700   19.566590

 Total Charge           Charge          ....    0
 Multiplicity           Mult            ....    1
 Number of Electrons    NEL             ....  154
 Basis Dimension        Dim             ....  828

ORBITAL ENERGIES
----------------

  NO   OCC          E(Eh)            E(eV)
   0   2.0000     -91.888871     -2500.4233
   1   2.0000     -20.601433      -560.5935
   2   2.0000     -20.596347      -560.4551
   3   2.0000     -20.541239      -558.9555
   4   2.0000     -15.629163      -425.2912
   5   2.0000     -15.607066      -424.6899
   6   2.0000     -11.393957      -310.0453
   7   2.0000     -11.383527      -309.7615
   8   2.0000     -11.337303      -308.5037
   9   2.0000     -11.313516      -307.8564
  10   2.0000     -11.307697      -307.6981
  11   2.0000     -11.295897      -307.3770
  12   2.0000     -11.260612      -306.4168
  13   2.0000     -11.259166      -306.3775
  14   2.0000     -11.255037      -306.2651
  15   2.0000     -11.251496      -306.1688
  16   2.0000     -11.243618      -305.9544
  17   2.0000     -11.238897      -305.8259
  18   2.0000     -11.238566      -305.8169
  19   2.0000     -11.230678      -305.6023
  20   2.0000      -8.893941      -242.0164
  21   2.0000      -6.575514      -178.9288
  22   2.0000      -6.573516      -178.8745
  23   2.0000      -6.572925      -178.8584
  24   2.0000      -1.452754       -39.5314
  25   2.0000      -1.416020       -38.5319
  26   2.0000      -1.354352       -36.8538
  27   2.0000      -1.340358       -36.4730
  28   2.0000      -1.238280       -33.6953
  29   2.0000      -1.157530       -31.4980
  30   2.0000      -1.121198       -30.5093
  31   2.0000      -1.043392       -28.3922
  32   2.0000      -1.040271       -28.3072
  33   2.0000      -1.015045       -27.6208
  34   2.0000      -0.996395       -27.1133
  35   2.0000      -0.984791       -26.7975
  36   2.0000      -0.921798       -25.0834
  37   2.0000      -0.887881       -24.1605
  38   2.0000      -0.846173       -23.0255
  39   2.0000      -0.837713       -22.7953
  40   2.0000      -0.834061       -22.6959
  41   2.0000      -0.817237       -22.2382
  42   2.0000      -0.765844       -20.8397
  43   2.0000      -0.733274       -19.9534
  44   2.0000      -0.719988       -19.5919
  45   2.0000      -0.695257       -18.9189
  46   2.0000      -0.685270       -18.6471
  47   2.0000      -0.680339       -18.5130
  48   2.0000      -0.678339       -18.4585
  49   2.0000      -0.665417       -18.1069
  50   2.0000      -0.646524       -17.5928
  51   2.0000      -0.641991       -17.4695
  52   2.0000      -0.634726       -17.2718
  53   2.0000      -0.606802       -16.5119
  54   2.0000      -0.600794       -16.3484
  55   2.0000      -0.598981       -16.2991
  56   2.0000      -0.591823       -16.1043
  57   2.0000      -0.577039       -15.7020
  58   2.0000      -0.569869       -15.5069
  59   2.0000      -0.568912       -15.4809
  60   2.0000      -0.561240       -15.2721
  61   2.0000      -0.551284       -15.0012
  62   2.0000      -0.541159       -14.7257
  63   2.0000      -0.523988       -14.2584
  64   2.0000      -0.517804       -14.0902
  65   2.0000      -0.512943       -13.9579
  66   2.0000      -0.507755       -13.8167
  67   2.0000      -0.497956       -13.5501
  68   2.0000      -0.484480       -13.1834
  69   2.0000      -0.463843       -12.6218
  70   2.0000      -0.459166       -12.4945
  71   2.0000      -0.447253       -12.1704
  72   2.0000      -0.353040        -9.6067
  73   2.0000      -0.349797        -9.5185
  74   2.0000      -0.328019        -8.9259
  75   2.0000      -0.320792        -8.7292
  76   2.0000      -0.318094        -8.6558
  77   0.0000       0.077473         2.1082
  78   0.0000       0.103961         2.8289
  79   0.0000       0.124955         3.4002
  80   0.0000       0.132889         3.6161
  81   0.0000       0.137235         3.7344

MULLIKEN ATOMIC CHARGES
-----------------------
   0 C :   -0.284265
   1 C :    0.047274
   2 O :   -0.336608
   3 C :    0.425064
   4 O :   -0.433864
   5 C :   -0.219466
   6 C :    0.174838
   7 C :   -0.268631
   8 N :   -0.126750
   9 C :    0.210259
  10 S :   -0.441952
  11 N :   -0.214932
  12 C :    0.056395
  13 C :    0.048386
  14 C :   -0.188228
  15 C :   -0.130953
  16 C :   -0.278076
  17 C :    0.316725
  18 O :   -0.356992
  19 C :   -0.248813
  20 H :    0.098355
  21 H :    0.095883
  22 H :    0.102521
  23 H :    0.103102
  24 H :    0.087869
  25 H :    0.133607
  26 H :    0.129202
  27 H :    0.094518
  28 H :    0.199863
  29 H :    0.200528
  30 H :    0.152095
  31 H :    0.156772
  32 H :    0.162862
  33 H :    0.130277
  34 H :    0.240513
  35 H :    0.162624
Sum of atomic charges:   -0.0000000

LOEWDIN ATOMIC CHARGES
----------------------
   0 C :    0.106531
   1 C :   -0.017354
   2 O :    0.310397
   3 C :   -0.414369
   4 O :    0.095342
   5 C :   -0.095352
   6 C :   -0.056480
   7 C :    0.131165
   8 N :    0.407148
   9 C :   -0.456529
  10 S :   -0.036516
  11 N :    0.394624
  12 C :   -0.054794
  13 C :   -0.039573
  14 C :    0.017831
  15 C :    0.038429
  16 C :   -0.000498
  17 C :   -0.189599
  18 O :    0.394994
  19 C :    0.033683
  20 H :   -0.028237
  21 H :   -0.028039
  22 H :   -0.024176
  23 H :   -0.028151
  24 H :   -0.028700
  25 H :   -0.004157
  26 H :   -0.005045
  27 H :   -0.023668
  28 H :   -0.057132
  29 H :   -0.064365
  30 H :   -0.014012
  31 H :   -0.029466
  32 H :   -0.021743
  33 H :   -0.035385
  34 H :   -0.154049
  35 H :   -0.022755

  Mayer bond orders larger than 0.100000
B(  0-C ,  1-C ) :   0.9712 B(  0-C , 20-H ) :   0.9749 B(  0-C , 21-H ) :   0.9766
B(  0-C , 22-H ) :   0.9796 B(  1-C ,  2-O ) :   0.9059 B(  1-C , 23-H ) :   0.9799
B(  1-C , 24-H ) :   0.9750 B(  2-O ,  3-C ) :   1.1763 B(  3-C ,  4-O ) :   1.9652
B(  3-C ,  5-C ) :   1.0685 B(  5-C ,  6-C ) :   1.6421 B(  5-C , 12-C ) :   0.9562
B(  6-C ,  7-C ) :   0.9653 B(  6-C ,  8-N ) :   1.1526 B(  7-C , 25-H ) :   0.9613
B(  7-C , 26-H ) :   0.9587 B(  7-C , 27-H ) :   0.9904 B(  8-N ,  9-C ) :   1.1879
B(  8-N , 28-H ) :   0.9463 B(  9-C , 10-S ) :   1.6058 B(  9-C , 11-N ) :   1.3093
B( 11-N , 12-C ) :   0.9679 B( 11-N , 29-H ) :   0.9484 B( 12-C , 13-C ) :   0.9639
B( 12-C , 30-H ) :   1.0014 B( 13-C , 14-C ) :   1.3554 B( 13-C , 19-C ) :   1.3797
B( 14-C , 15-C ) :   1.3896 B( 14-C , 31-H ) :   0.9696 B( 15-C , 16-C ) :   1.3614
B( 15-C , 32-H ) :   0.9697 B( 16-C , 17-C ) :   1.3333 B( 16-C , 33-H ) :   0.9849
B( 17-C , 18-O ) :   1.1040 B( 17-C , 19-C ) :   1.3654 B( 18-O , 34-H ) :   0.9799
B( 19-C , 35-H ) :   0.9596

MP2 TOTAL ENERGY:    -1274.345198290 Eh
FINAL SINGLE POINT ENERGY     -1274.345198289629

DIPOLE MOMENT
-------------
                                X             Y             Z
Electronic contribution:      8.28915      11.22304       8.44820
Nuclear contribution   :     -9.43461     -12.85332      -8.83480
                        -----------------------------------------
Total Dipole Moment    :     -1.14546      -1.63028      -0.38660
                        -----------------------------------------
Magnitude (a.u.)       :      2.02962
Magnitude (Debye)      :      5.15889

Rotational constants in cm-1:     0.011368     0.008397     0.005913
Rotational constants in MHz :   340.817790   251.720795   177.262741

                             ****ORCA TERMINATED NORMALLY****
TOTAL RUN TIME: 0 days 1 hours 39 minutes 17 seconds 92 msec
