                         Program Version 4.2.0 -  RELEASE  -
|  1> ! ri-mp2 cc-pvtz cc-pvtz/c TightSCF NoKeepInts
|  2>
|  3> %scf
|  4>   MaxCore 4096
|  5> end
|  6> *xyz  0  1
|  7>     C       14.2090943   16.8184366   15.8389979
|  8>     C       15.2040560   15.6436600   15.7432640
|  9>     O       16.3621536   15.9628656   14.9381749
| 10>     C       17.4572517   16.6323871   15.4210088
| 11>     O       18.5854365   16.3544197   15.0608672
| 12>     C       17.1970275   17.6738116   16.4493636
| 13>     C       16.8012419   18.9047638   16.0506447
| 14>     C       16.3219576   19.2996740   14.6693554
| 15>     N       16.8878520   19.9989253   16.9125168
| 16>     C       17.5741306   19.9864741   18.0990049
| 17>     S       17.7322038   21.3444589   19.0292476
| 18>     N       18.1464141   18.7916917   18.4645623
| 19>     C       17.9517304   17.5060115   17.7646072
| 20>     C       17.3917281   16.3794240   18.6171475
| 21>     C       17.9659170   15.0970702   18.5588025
| 22>     C       17.4300855   14.0412890   19.3149455
| 23>     C       16.3087599   14.2698827   20.1311007
| 24>     C       15.7310052   15.5458863   20.1848755
| 25>     O       14.6408692   15.7663389   20.9615124
| 26>     C       16.2654562   16.5948013   19.4298790
| 27>     H       14.5224002   17.5610987   16.5800194
| 28>     H       13.2268873   16.4470334   16.1562686
| 29>     H       14.0823429   17.3069107   14.8653701
| 30>     H       15.5028644   15.3084074   16.7456769
| 31>     H       14.6848002   14.8042538   15.2627459
| 32>     H       16.1631674   18.4372717   14.0114833
| 33>     H       17.0600737   19.9454756   14.1766815
| 34>     H       15.3721485   19.8458275   14.7201971
| 35>     H       16.5142345   20.8922387   16.6326268
| 36>     H       18.6451838   18.8100613   19.3453868
| 37>     H       18.9906789   17.2815171   17.4792175
| 38>     H       18.8260037   14.9171693   17.9168219
| 39>     H       17.8823349   13.0519735   19.2642944
| 40>     H       15.8913428   13.4566163   20.7159254
| 41>     H       14.4567355   14.9472288   21.4459939
| 42>     H       15.8014301   17.5746439   19.4794120
| 43> *
| 44>
| 45>                          ****END OF INPUT****

CARTESIAN COORDINATES (ANGSTROEM)
---------------------------------
  C     14.209094   16.818437   15.838998
  C     15.204056   15.643660   15.743264
  O     16.362154   15.962866   14.938175
  C     17.457252   16.632387   15.421009
  O     18.585437   16.354420   15.060867
  C     17.197028   17.673812   16.449364
  C     16.801242   18.904764   16.050645
  C     16.321958   19.299674   14.669355
  N     16.887852   19.998925   16.912517
  C     17.574131   19.986474   18.099005
  S     17.732204   21.344459   19.029248
  N     18.146414   18.791692   18.464562
  C     17.951730   17.506011   17.764607
  C     17.391728   16.379424   18.617148
  C     17.965917   15.097070   18.558802
  C     17.430085   14.041289   19.314946
  C     16.308760   14.269883   20.131101
  C     15.731005   15.545886   20.184876
  O     14.640869   15.766339   20.961512
  C     16.265456   16.594801   19.429879
  H     14.522400   17.561099   16.580019
  H     13.226887   16.447033   16.156269
  H     14.082343   17.306911   14.865370
  H     15.502864   15.308407   16.745677
  H     14.684800   14.804254   15.262746
  H     16.163167   18.437272   14.011483
  H     17.060074   19.945476   14.176681
  H     15.372148   19.845827   14.720197
  H     16.514235   20.892239   16.632627
  H     18.645184   18.810061   19.345387
  H     18.990679   17.281517   17.479217
  H     18.826004   14.917169   17.916822
  H     17.882335   13.051974   19.264294
  H     15.891343   13.456616   20.715925
  H     14.456736   14.947229   21.445994
  H     15.801430   17.574644   19.479412

 Total Charge           Charge          ....    0
 Multiplicity           Mult            ....    1
 Number of Electrons    NEL             ....  154
 Basis Dimension        Dim             ....  828

ORBITAL ENERGIES
----------------

  NO   OCC          E(Eh)            E(eV)
   0   2.0000     -91.889257     -2500.4338
   1   2.0000     -20.603962      -560.6623
   2   2.0000     -20.597192      -560.4781
   3   2.0000     -20.553609      -559.2921
   4   2.0000     -15.625980      -425.2045
   5   2.0000     -15.610100      -424.7724
   6   2.0000     -11.398034      -310.1563
   7   2.0000     -11.385461      -309.8142
   8   2.0000     -11.328431      -308.2623
   9   2.0000     -11.322249      -308.0941
  10   2.0000     -11.312191      -307.8204
  11   2.0000     -11.305715      -307.6441
  12   2.0000     -11.269173      -306.6498
  13   2.0000     -11.263038      -306.4828
  14   2.0000     -11.262503      -306.4683
  15   2.0000     -11.259013      -306.3733
  16   2.0000     -11.251293      -306.1632
  17   2.0000     -11.246576      -306.0349
  18   2.0000     -11.245527      -306.0063
  19   2.0000     -11.233237      -305.6719
  20   2.0000      -8.894359      -242.0278
  21   2.0000      -6.575941      -178.9404
  22   2.0000      -6.573929      -178.8857
  23   2.0000      -6.573348      -178.8699
  24   2.0000      -1.446746       -39.3680
  25   2.0000      -1.423672       -38.7401
  26   2.0000      -1.361211       -37.0404
  27   2.0000      -1.339517       -36.4501
  28   2.0000      -1.238886       -33.7118
  29   2.0000      -1.166046       -31.7297
  30   2.0000      -1.126967       -30.6663
  31   2.0000      -1.051244       -28.6058
  32   2.0000      -1.037496       -28.2317
  33   2.0000      -1.023646       -27.8548
  34   2.0000      -1.006037       -27.3757
  35   2.0000      -0.990401       -26.9502
  36   2.0000      -0.927688       -25.2437
  37   2.0000      -0.893233       -24.3061
  38   2.0000      -0.852290       -23.1920
  39   2.0000      -0.843711       -22.9585
  40   2.0000      -0.841925       -22.9099
  41   2.0000      -0.833219       -22.6731
  42   2.0000      -0.755515       -20.5586
  43   2.0000      -0.738430       -20.0937
  44   2.0000      -0.729494       -19.8505
  45   2.0000      -0.701819       -19.0975
  46   2.0000      -0.692067       -18.8321
  47   2.0000      -0.680740       -18.5239
  48   2.0000      -0.675954       -18.3936
  49   2.0000      -0.664796       -18.0900
  50   2.0000      -0.653475       -17.7820
  51   2.0000      -0.640888       -17.4395
  52   2.0000      -0.639354       -17.3977
  53   2.0000      -0.616113       -16.7653
  54   2.0000      -0.610998       -16.6261
  55   2.0000      -0.607768       -16.5382
  56   2.0000      -0.606130       -16.4936
  57   2.0000      -0.585890       -15.9429
  58   2.0000      -0.582892       -15.8613
  59   2.0000      -0.578589       -15.7442
  60   2.0000      -0.565626       -15.3915
  61   2.0000      -0.555776       -15.1234
  62   2.0000      -0.540601       -14.7105
  63   2.0000      -0.533541       -14.5184
  64   2.0000      -0.525150       -14.2901
  65   2.0000      -0.515463       -14.0265
  66   2.0000      -0.503948       -13.7131
  67   2.0000      -0.498910       -13.5760
  68   2.0000      -0.491810       -13.3828
  69   2.0000      -0.464208       -12.6318
  70   2.0000      -0.456489       -12.4217
  71   2.0000      -0.453283       -12.3345
  72   2.0000      -0.356424        -9.6988
  73   2.0000      -0.354078        -9.6350
  74   2.0000      -0.330873        -9.0035
  75   2.0000      -0.328262        -8.9325
  76   2.0000      -0.319063        -8.6821
  77   0.0000       0.089017         2.4223
  78   0.0000       0.099258         2.7010
  79   0.0000       0.119620         3.2550
  80   0.0000       0.123928         3.3722
  81   0.0000       0.127171         3.4605

MULLIKEN ATOMIC CHARGES
-----------------------
   0 C :   -0.324919
   1 C :    0.030539
   2 O :   -0.331099
   3 C :    0.416907
   4 O :   -0.374506
   5 C :   -0.203923
   6 C :    0.137229
   7 C :   -0.330547
   8 N :   -0.137615
   9 C :    0.209113
  10 S :   -0.443493
  11 N :   -0.220054
  12 C :    0.057602
  13 C :    0.000864
  14 C :   -0.213811
  15 C :   -0.128339
  16 C :   -0.276138
  17 C :    0.310243
  18 O :   -0.354285
  19 C :   -0.237573
  20 H :    0.107471
  21 H :    0.120099
  22 H :    0.105851
  23 H :    0.105637
  24 H :    0.125003
  25 H :    0.125293
  26 H :    0.149614
  27 H :    0.116287
  28 H :    0.198043
  29 H :    0.200832
  30 H :    0.168473
  31 H :    0.172942
  32 H :    0.165962
  33 H :    0.134440
  34 H :    0.241935
  35 H :    0.175921
Sum of atomic charges:    0.0000000

LOEWDIN ATOMIC CHARGES
----------------------
   0 C :    0.102274
   1 C :   -0.014394
   2 O :    0.293592
   3 C :   -0.417620
   4 O :    0.126948
   5 C :   -0.084203
   6 C :   -0.091772
   7 C :    0.126269
   8 N :    0.403583
   9 C :   -0.454611
  10 S :   -0.038716
  11 N :    0.395718
  12 C :   -0.052634
  13 C :   -0.046087
  14 C :    0.016287
  15 C :    0.045195
  16 C :    0.000672
  17 C :   -0.191114
  18 O :    0.396679
  19 C :    0.029168
  20 H :   -0.035140
  21 H :   -0.023141
  22 H :   -0.028732
  23 H :   -0.029141
  24 H :   -0.019839
  25 H :   -0.010860
  26 H :   -0.007937
  27 H :   -0.016868
  28 H :   -0.056724
  29 H :   -0.064446
  30 H :   -0.004075
  31 H :   -0.022184
  32 H :   -0.017774
  33 H :   -0.033789
  34 H :   -0.152344
  35 H :   -0.022244

  Mayer bond orders larger than 0.100000
B(  0-C ,  1-C ) :   0.9558 B(  0-C , 20-H ) :   0.9742 B(  0-C , 21-H ) :   0.9789
B(  0-C , 22-H ) :   0.9746 B(  1-C ,  2-O ) :   0.9011 B(  1-C , 23-H ) :   0.9698
B(  1-C , 24-H ) :   0.9853 B(  2-O ,  3-C ) :   1.1609 B(  3-C ,  4-O ) :   2.1222
B(  3-C ,  5-C ) :   0.9062 B(  5-C ,  6-C ) :   1.7306 B(  5-C , 12-C ) :   0.9373
B(  6-C ,  7-C ) :   0.9502 B(  6-C ,  8-N ) :   1.1030 B(  7-C , 25-H ) :   0.9771
B(  7-C , 26-H ) :   0.9652 B(  7-C , 27-H ) :   0.9689 B(  8-N ,  9-C ) :   1.2001
B(  8-N , 28-H ) :   0.9497 B(  9-C , 10-S ) :   1.6111 B(  9-C , 11-N ) :   1.2872
B( 11-N , 12-C ) :   0.9860 B( 11-N , 29-H ) :   0.9480 B( 12-C , 13-C ) :   0.9637
B( 12-C , 30-H ) :   0.9921 B( 13-C , 14-C ) :   1.3844 B( 13-C , 19-C ) :   1.3537
B( 14-C , 15-C ) :   1.3927 B( 14-C , 31-H ) :   0.9622 B( 15-C , 16-C ) :   1.3643
B( 15-C , 32-H ) :   0.9693 B( 16-C , 17-C ) :   1.3284 B( 16-C , 33-H ) :   0.9839
B( 17-C , 18-O ) :   1.1129 B( 17-C , 19-C ) :   1.3664 B( 18-O , 34-H ) :   0.9786
B( 19-C , 35-H ) :   0.9558

MP2 TOTAL ENERGY:    -1274.326686656 Eh
FINAL SINGLE POINT ENERGY     -1274.326686655752

DIPOLE MOMENT
-------------
                                X             Y             Z
Electronic contribution:      9.44291       5.81784       6.90342
Nuclear contribution   :    -10.98157      -7.38182      -6.98857
                        -----------------------------------------
Total Dipole Moment    :     -1.53866      -1.56398      -0.08515
                        -----------------------------------------
Magnitude (a.u.)       :      2.19562
Magnitude (Debye)      :      5.58083

Rotational constants in cm-1:     0.011840     0.009058     0.006629
Rotational constants in MHz :   354.968461   271.550997   198.725676

                             ****ORCA TERMINATED NORMALLY****
TOTAL RUN TIME: 0 days 1 hours 44 minutes 54 seconds 597 msec
