                         Program Version 4.2.0 -  RELEASE  -
|  1> ! ri-mp2 cc-pvtz cc-pvtz/c TightSCF NoKeepInts
|  2>
|  3> %scf
|  4>   MaxCore 4096
|  5> end
|  6> *xyz  0  1
|  7>     C       14.4675360   14.9558512   15.5473783
|  8>     C       14.8386665   16.4202928   15.2553535
|  9>     O       16.1706065   16.4364411   14.7077253
| 10>     C       17.2305539   16.5201898   15.5639164
| 11>     O       18.0786154   15.6478513   15.6080287
| 12>     C       17.2348932   17.7043261   16.4821085
| 13>     C       16.9690237   18.9558345   16.0307354
| 14>     C       16.4525549   19.3469213   14.6603634
| 15>     N       17.2412685   20.0717962   16.8251778
| 16>     C       17.9824341   20.0360886   17.9765254
| 17>     S       18.3562564   21.4116855   18.8145721
| 18>     N       18.4159910   18.7998340   18.3873555
| 19>     C       18.0227294   17.5132019   17.7792758
| 20>     C       17.3374966   16.5528306   18.7409940
| 21>     C       17.7539315   15.2123231   18.8262587
| 22>     C       17.1083170   14.3175840   19.6958392
| 23>     C       16.0357600   14.7670011   20.4851066
| 24>     C       15.6152477   16.1012105   20.3978456
| 25>     O       14.5736575   16.5356300   21.1509480
| 26>     C       16.2590179   16.9893886   19.5302009
| 27>     H       15.1294467   14.5333430   16.3146522
| 28>     H       14.5583361   14.3448631   14.6403951
| 29>     H       13.4349034   14.8834863   15.9095844
| 30>     H       14.1370301   16.8175808   14.5105607
| 31>     H       14.7523500   17.0278459   16.1659496
| 32>     H       16.9473607   18.7683143   13.8696303
| 33>     H       16.6376935   20.4040184   14.4319979
| 34>     H       15.3728825   19.1760088   14.5809361
| 35>     H       16.9563540   20.9892899   16.5208431
| 36>     H       18.9512959   18.8000694   19.2466889
| 37>     H       19.0074076   17.1234366   17.4808771
| 38>     H       18.5733573   14.8599570   18.2031069
| 39>     H       17.4373371   13.2812084   19.7505412
| 40>     H       15.5334095   14.0785104   21.1565637
| 41>     H       14.2950409   15.7977512   21.7141732
| 42>     H       15.9182369   18.0180348   19.4757905
| 43> *
| 44>
| 45>                          ****END OF INPUT****

CARTESIAN COORDINATES (ANGSTROEM)
---------------------------------
  C     14.467536   14.955851   15.547378
  C     14.838667   16.420293   15.255354
  O     16.170607   16.436441   14.707725
  C     17.230554   16.520190   15.563916
  O     18.078615   15.647851   15.608029
  C     17.234893   17.704326   16.482108
  C     16.969024   18.955835   16.030735
  C     16.452555   19.346921   14.660363
  N     17.241269   20.071796   16.825178
  C     17.982434   20.036089   17.976525
  S     18.356256   21.411686   18.814572
  N     18.415991   18.799834   18.387356
  C     18.022729   17.513202   17.779276
  C     17.337497   16.552831   18.740994
  C     17.753932   15.212323   18.826259
  C     17.108317   14.317584   19.695839
  C     16.035760   14.767001   20.485107
  C     15.615248   16.101211   20.397846
  O     14.573657   16.535630   21.150948
  C     16.259018   16.989389   19.530201
  H     15.129447   14.533343   16.314652
  H     14.558336   14.344863   14.640395
  H     13.434903   14.883486   15.909584
  H     14.137030   16.817581   14.510561
  H     14.752350   17.027846   16.165950
  H     16.947361   18.768314   13.869630
  H     16.637694   20.404018   14.431998
  H     15.372882   19.176009   14.580936
  H     16.956354   20.989290   16.520843
  H     18.951296   18.800069   19.246689
  H     19.007408   17.123437   17.480877
  H     18.573357   14.859957   18.203107
  H     17.437337   13.281208   19.750541
  H     15.533409   14.078510   21.156564
  H     14.295041   15.797751   21.714173
  H     15.918237   18.018035   19.475790

 Total Charge           Charge          ....    0
 Multiplicity           Mult            ....    1
 Number of Electrons    NEL             ....  154
 Basis Dimension        Dim             ....  828

ORBITAL ENERGIES
----------------

  NO   OCC          E(Eh)            E(eV)
   0   2.0000     -91.890450     -2500.4663
   1   2.0000     -20.597510      -560.4867
   2   2.0000     -20.595510      -560.4323
   3   2.0000     -20.552217      -559.2542
   4   2.0000     -15.630456      -425.3263
   5   2.0000     -15.608847      -424.7383
   6   2.0000     -11.395891      -310.0980
   7   2.0000     -11.385723      -309.8213
   8   2.0000     -11.338383      -308.5331
   9   2.0000     -11.314264      -307.8768
  10   2.0000     -11.307467      -307.6918
  11   2.0000     -11.306714      -307.6713
  12   2.0000     -11.264738      -306.5291
  13   2.0000     -11.261766      -306.4482
  14   2.0000     -11.261471      -306.4402
  15   2.0000     -11.254187      -306.2420
  16   2.0000     -11.243836      -305.9603
  17   2.0000     -11.240201      -305.8614
  18   2.0000     -11.236534      -305.7616
  19   2.0000     -11.228761      -305.5501
  20   2.0000      -8.895536      -242.0598
  21   2.0000      -6.577111      -178.9723
  22   2.0000      -6.575106      -178.9177
  23   2.0000      -6.574517      -178.9017
  24   2.0000      -1.451523       -39.4980
  25   2.0000      -1.417257       -38.5655
  26   2.0000      -1.361921       -37.0598
  27   2.0000      -1.341987       -36.5173
  28   2.0000      -1.239488       -33.7282
  29   2.0000      -1.158619       -31.5276
  30   2.0000      -1.124647       -30.6032
  31   2.0000      -1.046477       -28.4761
  32   2.0000      -1.036108       -28.1939
  33   2.0000      -1.016304       -27.6550
  34   2.0000      -1.004068       -27.3221
  35   2.0000      -0.988562       -26.9001
  36   2.0000      -0.925168       -25.1751
  37   2.0000      -0.886778       -24.1304
  38   2.0000      -0.854249       -23.2453
  39   2.0000      -0.841647       -22.9024
  40   2.0000      -0.834660       -22.7122
  41   2.0000      -0.833221       -22.6731
  42   2.0000      -0.750800       -20.4303
  43   2.0000      -0.737545       -20.0696
  44   2.0000      -0.730754       -19.8848
  45   2.0000      -0.695459       -18.9244
  46   2.0000      -0.687077       -18.6963
  47   2.0000      -0.680228       -18.5099
  48   2.0000      -0.678241       -18.4559
  49   2.0000      -0.664097       -18.0710
  50   2.0000      -0.655081       -17.8257
  51   2.0000      -0.646111       -17.5816
  52   2.0000      -0.637998       -17.3608
  53   2.0000      -0.610595       -16.6151
  54   2.0000      -0.605228       -16.4691
  55   2.0000      -0.603084       -16.4108
  56   2.0000      -0.600835       -16.3495
  57   2.0000      -0.580436       -15.7945
  58   2.0000      -0.576422       -15.6852
  59   2.0000      -0.571123       -15.5410
  60   2.0000      -0.560336       -15.2475
  61   2.0000      -0.557606       -15.1732
  62   2.0000      -0.545539       -14.8449
  63   2.0000      -0.526219       -14.3192
  64   2.0000      -0.518636       -14.1128
  65   2.0000      -0.513365       -13.9694
  66   2.0000      -0.500011       -13.6060
  67   2.0000      -0.498553       -13.5663
  68   2.0000      -0.488012       -13.2795
  69   2.0000      -0.469126       -12.7656
  70   2.0000      -0.460144       -12.5212
  71   2.0000      -0.449572       -12.2335
  72   2.0000      -0.356121        -9.6905
  73   2.0000      -0.350127        -9.5274
  74   2.0000      -0.329650        -8.9702
  75   2.0000      -0.321525        -8.7491
  76   2.0000      -0.319727        -8.7002
  77   0.0000       0.075461         2.0534
  78   0.0000       0.104179         2.8349
  79   0.0000       0.118708         3.2302
  80   0.0000       0.131247         3.5714
  81   0.0000       0.135487         3.6868

MULLIKEN ATOMIC CHARGES
-----------------------
   0 C :   -0.260365
   1 C :    0.003738
   2 O :   -0.348106
   3 C :    0.448089
   4 O :   -0.381429
   5 C :   -0.263654
   6 C :    0.182997
   7 C :   -0.302435
   8 N :   -0.131528
   9 C :    0.205920
  10 S :   -0.440129
  11 N :   -0.216823
  12 C :    0.062225
  13 C :    0.025433
  14 C :   -0.200993
  15 C :   -0.130573
  16 C :   -0.277515
  17 C :    0.314515
  18 O :   -0.357479
  19 C :   -0.256132
  20 H :    0.105377
  21 H :    0.103399
  22 H :    0.090430
  23 H :    0.109287
  24 H :    0.105751
  25 H :    0.139702
  26 H :    0.113047
  27 H :    0.120079
  28 H :    0.198190
  29 H :    0.200617
  30 H :    0.161601
  31 H :    0.171267
  32 H :    0.163912
  33 H :    0.130880
  34 H :    0.241064
  35 H :    0.169639
Sum of atomic charges:   -0.0000000

LOEWDIN ATOMIC CHARGES
----------------------
   0 C :    0.109190
   1 C :   -0.027436
   2 O :    0.302908
   3 C :   -0.420654
   4 O :    0.125435
   5 C :   -0.095101
   6 C :   -0.075069
   7 C :    0.128605
   8 N :    0.404488
   9 C :   -0.457589
  10 S :   -0.036101
  11 N :    0.396050
  12 C :   -0.049615
  13 C :   -0.043468
  14 C :    0.022701
  15 C :    0.042680
  16 C :   -0.000519
  17 C :   -0.192585
  18 O :    0.393905
  19 C :    0.026931
  20 H :   -0.023579
  21 H :   -0.022854
  22 H :   -0.027092
  23 H :   -0.027523
  24 H :   -0.036122
  25 H :   -0.005618
  26 H :   -0.016896
  27 H :   -0.013737
  28 H :   -0.058120
  29 H :   -0.063432
  30 H :   -0.005857
  31 H :   -0.021898
  32 H :   -0.019369
  33 H :   -0.035183
  34 H :   -0.153609
  35 H :   -0.023866

  Mayer bond orders larger than 0.100000
B(  0-C ,  1-C ) :   0.9867 B(  0-C , 20-H ) :   0.9725 B(  0-C , 21-H ) :   0.9774
B(  0-C , 22-H ) :   0.9761 B(  1-C ,  2-O ) :   0.8943 B(  1-C , 23-H ) :   0.9787
B(  1-C , 24-H ) :   0.9597 B(  2-O ,  3-C ) :   1.1261 B(  3-C ,  4-O ) :   2.0770
B(  3-C ,  5-C ) :   0.9585 B(  5-C ,  6-C ) :   1.6881 B(  5-C , 12-C ) :   0.9467
B(  6-C ,  7-C ) :   0.9401 B(  6-C ,  8-N ) :   1.1296 B(  7-C , 25-H ) :   0.9664
B(  7-C , 26-H ) :   0.9872 B(  7-C , 27-H ) :   0.9662 B(  8-N ,  9-C ) :   1.1883
B(  8-N , 28-H ) :   0.9481 B(  9-C , 10-S ) :   1.6122 B(  9-C , 11-N ) :   1.2977
B( 11-N , 12-C ) :   0.9849 B( 11-N , 29-H ) :   0.9486 B( 12-C , 13-C ) :   0.9673
B( 12-C , 30-H ) :   0.9930 B( 13-C , 14-C ) :   1.3822 B( 13-C , 19-C ) :   1.3579
B( 14-C , 15-C ) :   1.3940 B( 14-C , 31-H ) :   0.9600 B( 15-C , 16-C ) :   1.3608
B( 15-C , 32-H ) :   0.9700 B( 16-C , 17-C ) :   1.3313 B( 16-C , 33-H ) :   0.9852
B( 17-C , 18-O ) :   1.1071 B( 17-C , 19-C ) :   1.3658 B( 18-O , 34-H ) :   0.9797
B( 19-C , 35-H ) :   0.9581

MP2 TOTAL ENERGY:    -1274.330934658 Eh
FINAL SINGLE POINT ENERGY     -1274.330934658494

DIPOLE MOMENT
-------------
                                X             Y             Z
Electronic contribution:      9.91277       9.09375       7.61412
Nuclear contribution   :    -11.52818     -10.09599      -8.08348
                        -----------------------------------------
Total Dipole Moment    :     -1.61541      -1.00224      -0.46936
                        -----------------------------------------
Magnitude (a.u.)       :      1.95814
Magnitude (Debye)      :      4.97721

Rotational constants in cm-1:     0.011166     0.009168     0.006217
Rotational constants in MHz :   334.741040   274.862704   186.381513

                             ****ORCA TERMINATED NORMALLY****
TOTAL RUN TIME: 0 days 1 hours 41 minutes 46 seconds 338 msec
