                         Program Version 4.2.0 -  RELEASE  -
|  1> ! ri-mp2 cc-pvtz cc-pvtz/c TightSCF NoKeepInts
|  2>
|  3> %scf
|  4>   MaxCore 4096
|  5> end
|  6> *xyz  0  1
|  7>     C       14.7661480   14.7554540   16.0844104
|  8>     C       15.9455502   14.8902901   15.1022209
|  9>     O       16.8170132   15.9335432   15.5735767
| 10>     C       16.4769252   17.2389275   15.3544678
| 11>     O       15.8104495   17.5779940   14.3912953
| 12>     C       16.9242061   18.1516858   16.4646629
| 13>     C       16.8881254   19.5006099   16.3124571
| 14>     C       16.1977401   20.2803175   15.2124130
| 15>     N       17.5407096   20.3445638   17.2139871
| 16>     C       18.4063649   19.9191977   18.1848603
| 17>     S       19.2206079   20.9797829   19.1585121
| 18>     N       18.5820725   18.5631320   18.2946397
| 19>     C       17.8252007   17.5389066   17.5505027
| 20>     C       17.1173029   16.5533525   18.4710169
| 21>     C       17.6288558   15.2558419   18.6572174
| 22>     C       16.9770983   14.3472911   19.5081867
| 23>     C       15.8058626   14.7405394   20.1783801
| 24>     C       15.2971382   16.0342360   19.9972916
| 25>     O       14.1666996   16.4163606   20.6429334
| 26>     C       15.9488604   16.9367159   19.1510552
| 27>     H       15.1270045   14.5454871   17.0985491
| 28>     H       14.1056296   13.9349006   15.7797415
| 29>     H       14.1720506   15.6775090   16.1121140
| 30>     H       16.4973324   13.9419567   15.0786628
| 31>     H       15.5845116   15.0985972   14.0856347
| 32>     H       15.1433544   19.9856425   15.1338760
| 33>     H       16.6676295   20.0782215   14.2414192
| 34>     H       16.2219200   21.3645801   15.3729136
| 35>     H       17.4380008   21.3431908   17.1292505
| 36>     H       19.2017532   18.2783400   19.0424624
| 37>     H       18.6440704   17.0427269   17.0104373
| 38>     H       18.5310638   14.9493657   18.1346332
| 39>     H       17.3788305   13.3448089   19.6452588
| 40>     H       15.2986983   14.0424449   20.8362484
| 41>     H       13.8870467   15.6773219   21.2037765
| 42>     H       15.5451725   17.9361635   19.0289344
| 43> *
| 44>
| 45>                          ****END OF INPUT****

CARTESIAN COORDINATES (ANGSTROEM)
---------------------------------
  C     14.766148   14.755454   16.084410
  C     15.945550   14.890290   15.102221
  O     16.817013   15.933543   15.573577
  C     16.476925   17.238927   15.354468
  O     15.810450   17.577994   14.391295
  C     16.924206   18.151686   16.464663
  C     16.888125   19.500610   16.312457
  C     16.197740   20.280317   15.212413
  N     17.540710   20.344564   17.213987
  C     18.406365   19.919198   18.184860
  S     19.220608   20.979783   19.158512
  N     18.582072   18.563132   18.294640
  C     17.825201   17.538907   17.550503
  C     17.117303   16.553352   18.471017
  C     17.628856   15.255842   18.657217
  C     16.977098   14.347291   19.508187
  C     15.805863   14.740539   20.178380
  C     15.297138   16.034236   19.997292
  O     14.166700   16.416361   20.642933
  C     15.948860   16.936716   19.151055
  H     15.127004   14.545487   17.098549
  H     14.105630   13.934901   15.779742
  H     14.172051   15.677509   16.112114
  H     16.497332   13.941957   15.078663
  H     15.584512   15.098597   14.085635
  H     15.143354   19.985642   15.133876
  H     16.667630   20.078222   14.241419
  H     16.221920   21.364580   15.372914
  H     17.438001   21.343191   17.129250
  H     19.201753   18.278340   19.042462
  H     18.644070   17.042727   17.010437
  H     18.531064   14.949366   18.134633
  H     17.378830   13.344809   19.645259
  H     15.298698   14.042445   20.836248
  H     13.887047   15.677322   21.203776
  H     15.545172   17.936163   19.028934

 Total Charge           Charge          ....    0
 Multiplicity           Mult            ....    1
 Number of Electrons    NEL             ....  154
 Basis Dimension        Dim             ....  828

ORBITAL ENERGIES
----------------

  NO   OCC          E(Eh)            E(eV)
   0   2.0000     -91.889415     -2500.4381
   1   2.0000     -20.598578      -560.5158
   2   2.0000     -20.595559      -560.4336
   3   2.0000     -20.541486      -558.9623
   4   2.0000     -15.629898      -425.3111
   5   2.0000     -15.607557      -424.7032
   6   2.0000     -11.394042      -310.0477
   7   2.0000     -11.384086      -309.7767
   8   2.0000     -11.338133      -308.5263
   9   2.0000     -11.316040      -307.9251
  10   2.0000     -11.308241      -307.7129
  11   2.0000     -11.294621      -307.3423
  12   2.0000     -11.262651      -306.4723
  13   2.0000     -11.259087      -306.3753
  14   2.0000     -11.257390      -306.3292
  15   2.0000     -11.252106      -306.1854
  16   2.0000     -11.245794      -306.0136
  17   2.0000     -11.240666      -305.8741
  18   2.0000     -11.240480      -305.8690
  19   2.0000     -11.221930      -305.3642
  20   2.0000      -8.894478      -242.0311
  21   2.0000      -6.576049      -178.9434
  22   2.0000      -6.574052      -178.8891
  23   2.0000      -6.573460      -178.8729
  24   2.0000      -1.449614       -39.4460
  25   2.0000      -1.418268       -38.5930
  26   2.0000      -1.353033       -36.8179
  27   2.0000      -1.340983       -36.4900
  28   2.0000      -1.238916       -33.7126
  29   2.0000      -1.159537       -31.5526
  30   2.0000      -1.121833       -30.5266
  31   2.0000      -1.044215       -28.4145
  32   2.0000      -1.033974       -28.1359
  33   2.0000      -1.017095       -27.6766
  34   2.0000      -0.996851       -27.1257
  35   2.0000      -0.985341       -26.8125
  36   2.0000      -0.922835       -25.1116
  37   2.0000      -0.892755       -24.2931
  38   2.0000      -0.847233       -23.0544
  39   2.0000      -0.839664       -22.8484
  40   2.0000      -0.835951       -22.7474
  41   2.0000      -0.814555       -22.1652
  42   2.0000      -0.756084       -20.5741
  43   2.0000      -0.735123       -20.0037
  44   2.0000      -0.722637       -19.6639
  45   2.0000      -0.697451       -18.9786
  46   2.0000      -0.689343       -18.7580
  47   2.0000      -0.677897       -18.4465
  48   2.0000      -0.671240       -18.2654
  49   2.0000      -0.662924       -18.0391
  50   2.0000      -0.647220       -17.6118
  51   2.0000      -0.640754       -17.4358
  52   2.0000      -0.635430       -17.2909
  53   2.0000      -0.608949       -16.5703
  54   2.0000      -0.605642       -16.4804
  55   2.0000      -0.600695       -16.3457
  56   2.0000      -0.600522       -16.3410
  57   2.0000      -0.578897       -15.7526
  58   2.0000      -0.570083       -15.5127
  59   2.0000      -0.566567       -15.4171
  60   2.0000      -0.555968       -15.1287
  61   2.0000      -0.546607       -14.8739
  62   2.0000      -0.536120       -14.5886
  63   2.0000      -0.529663       -14.4129
  64   2.0000      -0.525806       -14.3079
  65   2.0000      -0.513689       -13.9782
  66   2.0000      -0.501874       -13.6567
  67   2.0000      -0.498407       -13.5624
  68   2.0000      -0.479534       -13.0488
  69   2.0000      -0.464105       -12.6289
  70   2.0000      -0.453397       -12.3376
  71   2.0000      -0.445715       -12.1285
  72   2.0000      -0.353955        -9.6316
  73   2.0000      -0.351702        -9.5703
  74   2.0000      -0.328759        -8.9460
  75   2.0000      -0.323500        -8.8029
  76   2.0000      -0.318878        -8.6771
  77   0.0000       0.075637         2.0582
  78   0.0000       0.102880         2.7995
  79   0.0000       0.123970         3.3734
  80   0.0000       0.131716         3.5842
  81   0.0000       0.135618         3.6904

MULLIKEN ATOMIC CHARGES
-----------------------
   0 C :   -0.304288
   1 C :    0.017364
   2 O :   -0.360361
   3 C :    0.440634
   4 O :   -0.432300
   5 C :   -0.239730
   6 C :    0.179033
   7 C :   -0.266432
   8 N :   -0.126653
   9 C :    0.212042
  10 S :   -0.441434
  11 N :   -0.217691
  12 C :    0.070789
  13 C :    0.029191
  14 C :   -0.181250
  15 C :   -0.135101
  16 C :   -0.277393
  17 C :    0.311626
  18 O :   -0.357425
  19 C :   -0.231537
  20 H :    0.108248
  21 H :    0.105121
  22 H :    0.103533
  23 H :    0.108708
  24 H :    0.122521
  25 H :    0.133164
  26 H :    0.130025
  27 H :    0.094659
  28 H :    0.199693
  29 H :    0.200954
  30 H :    0.152435
  31 H :    0.153124
  32 H :    0.161483
  33 H :    0.131590
  34 H :    0.241001
  35 H :    0.164656
Sum of atomic charges:   -0.0000000

LOEWDIN ATOMIC CHARGES
----------------------
   0 C :    0.104747
   1 C :   -0.018338
   2 O :    0.304870
   3 C :   -0.416666
   4 O :    0.097706
   5 C :   -0.096833
   6 C :   -0.055546
   7 C :    0.131456
   8 N :    0.407470
   9 C :   -0.455921
  10 S :   -0.035976
  11 N :    0.394505
  12 C :   -0.054001
  13 C :   -0.039074
  14 C :    0.015661
  15 C :    0.039140
  16 C :   -0.001503
  17 C :   -0.189964
  18 O :    0.396027
  19 C :    0.034070
  20 H :   -0.025365
  21 H :   -0.027080
  22 H :   -0.026939
  23 H :   -0.025808
  24 H :   -0.028166
  25 H :   -0.004399
  26 H :   -0.004587
  27 H :   -0.023602
  28 H :   -0.057032
  29 H :   -0.064567
  30 H :   -0.013014
  31 H :   -0.028708
  32 H :   -0.020847
  33 H :   -0.035113
  34 H :   -0.153534
  35 H :   -0.023067

  Mayer bond orders larger than 0.100000
B(  0-C ,  1-C ) :   0.9606 B(  0-C , 20-H ) :   0.9706 B(  0-C , 21-H ) :   0.9782
B(  0-C , 22-H ) :   0.9763 B(  1-C ,  2-O ) :   0.8917 B(  1-C , 23-H ) :   0.9846
B(  1-C , 24-H ) :   0.9789 B(  2-O ,  3-C ) :   1.1442 B(  3-C ,  4-O ) :   1.9736
B(  3-C ,  5-C ) :   1.0660 B(  5-C ,  6-C ) :   1.6318 B(  5-C , 12-C ) :   0.9535
B(  6-C ,  7-C ) :   0.9653 B(  6-C ,  8-N ) :   1.1573 B(  7-C , 25-H ) :   0.9613
B(  7-C , 26-H ) :   0.9584 B(  7-C , 27-H ) :   0.9904 B(  8-N ,  9-C ) :   1.1865
B(  8-N , 28-H ) :   0.9464 B(  9-C , 10-S ) :   1.6050 B(  9-C , 11-N ) :   1.3110
B( 11-N , 12-C ) :   0.9640 B( 11-N , 29-H ) :   0.9484 B( 12-C , 13-C ) :   0.9624
B( 12-C , 30-H ) :   1.0013 B( 13-C , 14-C ) :   1.3526 B( 13-C , 19-C ) :   1.3809
B( 14-C , 15-C ) :   1.3931 B( 14-C , 31-H ) :   0.9721 B( 15-C , 16-C ) :   1.3554
B( 15-C , 32-H ) :   0.9716 B( 16-C , 17-C ) :   1.3337 B( 16-C , 33-H ) :   0.9852
B( 17-C , 18-O ) :   1.1060 B( 17-C , 19-C ) :   1.3642 B( 18-O , 34-H ) :   0.9795
B( 19-C , 35-H ) :   0.9585

MP2 TOTAL ENERGY:    -1274.342904496 Eh
FINAL SINGLE POINT ENERGY     -1274.342904495521

DIPOLE MOMENT
-------------
                                X             Y             Z
Electronic contribution:      8.54655      10.62307       6.61859
Nuclear contribution   :     -9.39378     -12.39109      -6.86701
                        -----------------------------------------
Total Dipole Moment    :     -0.84724      -1.76802      -0.24842
                        -----------------------------------------
Magnitude (a.u.)       :      1.97621
Magnitude (Debye)      :      5.02313

Rotational constants in cm-1:     0.012377     0.008569     0.006117
Rotational constants in MHz :   371.066184   256.893416   183.396672

                             ****ORCA TERMINATED NORMALLY****
TOTAL RUN TIME: 0 days 1 hours 42 minutes 16 seconds 837 msec
