                         Program Version 4.2.0 -  RELEASE  -
|  1> ! ri-mp2 cc-pvtz cc-pvtz/c TightSCF NoKeepInts
|  2>
|  3> %scf
|  4>   MaxCore 4096
|  5> end
|  6> *xyz  0  1
|  7>     C       14.7003416   15.3245991   16.5309981
|  8>     C       15.5687268   15.2600850   15.2645967
|  9>     O       16.9216752   15.6616010   15.5558148
| 10>     C       17.2630716   16.9316285   15.2061701
| 11>     O       17.4869863   17.2168513   14.0435068
| 12>     C       17.1199533   17.9282462   16.3197597
| 13>     C       16.9275912   19.2379393   16.0210447
| 14>     C       16.4305326   19.8048801   14.7074981
| 15>     N       17.1686419   20.2393275   16.9633223
| 16>     C       17.8403881   20.0413371   18.1389353
| 17>     S       18.2090741   21.2896155   19.1591355
| 18>     N       18.2156377   18.7508681   18.4157595
| 19>     C       17.8081866   17.5584312   17.6464885
| 20>     C       17.1298190   16.5089883   18.5154276
| 21>     C       17.6529404   15.2055673   18.6037555
| 22>     C       17.0551190   14.2517834   19.4448783
| 23>     C       15.9287962   14.6060460   20.2075544
| 24>     C       15.4108921   15.9062220   20.1275154
| 25>     O       14.3239541   16.2510986   20.8623172
| 26>     C       16.0094046   16.8541293   19.2913180
| 27>     H       15.1131610   14.6822826   17.3169090
| 28>     H       13.6830023   14.9779084   16.3134461
| 29>     H       14.6323757   16.3515697   16.9079668
| 30>     H       15.5792876   14.2233017   14.9041867
| 31>     H       15.1331505   15.8817731   14.4697457
| 32>     H       15.6770461   19.1479803   14.2555027
| 33>     H       17.2576768   19.8947620   13.9911969
| 34>     H       15.9712414   20.7940604   14.8205795
| 35>     H       16.9333833   21.1957423   16.7507566
| 36>     H       18.6933759   18.6316535   19.3004175
| 37>     H       18.8034212   17.1978992   17.3493925
| 38>     H       18.5227449   14.9294023   18.0131159
| 39>     H       17.4645191   13.2446294   19.5028394
| 40>     H       15.4635378   13.8725020   20.8578323
| 41>     H       14.0848847   15.4859858   21.4069282
| 42>     H       15.6024591   17.8593023   19.2513876
| 43> *
| 44>
| 45>                          ****END OF INPUT****

CARTESIAN COORDINATES (ANGSTROEM)
---------------------------------
  C     14.700342   15.324599   16.530998
  C     15.568727   15.260085   15.264597
  O     16.921675   15.661601   15.555815
  C     17.263072   16.931628   15.206170
  O     17.486986   17.216851   14.043507
  C     17.119953   17.928246   16.319760
  C     16.927591   19.237939   16.021045
  C     16.430533   19.804880   14.707498
  N     17.168642   20.239328   16.963322
  C     17.840388   20.041337   18.138935
  S     18.209074   21.289616   19.159136
  N     18.215638   18.750868   18.415760
  C     17.808187   17.558431   17.646489
  C     17.129819   16.508988   18.515428
  C     17.652940   15.205567   18.603755
  C     17.055119   14.251783   19.444878
  C     15.928796   14.606046   20.207554
  C     15.410892   15.906222   20.127515
  O     14.323954   16.251099   20.862317
  C     16.009405   16.854129   19.291318
  H     15.113161   14.682283   17.316909
  H     13.683002   14.977908   16.313446
  H     14.632376   16.351570   16.907967
  H     15.579288   14.223302   14.904187
  H     15.133150   15.881773   14.469746
  H     15.677046   19.147980   14.255503
  H     17.257677   19.894762   13.991197
  H     15.971241   20.794060   14.820579
  H     16.933383   21.195742   16.750757
  H     18.693376   18.631653   19.300417
  H     18.803421   17.197899   17.349392
  H     18.522745   14.929402   18.013116
  H     17.464519   13.244629   19.502839
  H     15.463538   13.872502   20.857832
  H     14.084885   15.485986   21.406928
  H     15.602459   17.859302   19.251388

 Total Charge           Charge          ....    0
 Multiplicity           Mult            ....    1
 Number of Electrons    NEL             ....  154
 Basis Dimension        Dim             ....  828

ORBITAL ENERGIES
----------------

  NO   OCC          E(Eh)            E(eV)
   0   2.0000     -91.891025     -2500.4819
   1   2.0000     -20.599152      -560.5314
   2   2.0000     -20.582128      -560.0682
   3   2.0000     -20.554103      -559.3056
   4   2.0000     -15.630095      -425.3165
   5   2.0000     -15.609578      -424.7582
   6   2.0000     -11.393599      -310.0356
   7   2.0000     -11.385502      -309.8152
   8   2.0000     -11.336540      -308.4829
   9   2.0000     -11.316300      -307.9322
  10   2.0000     -11.313155      -307.8466
  11   2.0000     -11.300021      -307.4892
  12   2.0000     -11.263674      -306.5002
  13   2.0000     -11.258535      -306.3603
  14   2.0000     -11.257395      -306.3293
  15   2.0000     -11.255283      -306.2718
  16   2.0000     -11.246846      -306.0422
  17   2.0000     -11.241597      -305.8994
  18   2.0000     -11.241272      -305.8906
  19   2.0000     -11.221638      -305.3563
  20   2.0000      -8.896069      -242.0744
  21   2.0000      -6.577635      -178.9865
  22   2.0000      -6.575643      -178.9323
  23   2.0000      -6.575045      -178.9161
  24   2.0000      -1.450269       -39.4638
  25   2.0000      -1.418937       -38.6112
  26   2.0000      -1.356566       -36.9140
  27   2.0000      -1.342229       -36.5239
  28   2.0000      -1.240626       -33.7591
  29   2.0000      -1.160158       -31.5695
  30   2.0000      -1.123221       -30.5644
  31   2.0000      -1.045763       -28.4567
  32   2.0000      -1.033424       -28.1209
  33   2.0000      -1.017921       -27.6990
  34   2.0000      -1.001083       -27.2408
  35   2.0000      -0.987956       -26.8837
  36   2.0000      -0.924768       -25.1642
  37   2.0000      -0.886767       -24.1302
  38   2.0000      -0.848727       -23.0950
  39   2.0000      -0.841187       -22.8899
  40   2.0000      -0.837109       -22.7789
  41   2.0000      -0.823273       -22.4024
  42   2.0000      -0.759964       -20.6797
  43   2.0000      -0.735858       -20.0237
  44   2.0000      -0.725149       -19.7323
  45   2.0000      -0.697719       -18.9859
  46   2.0000      -0.689906       -18.7733
  47   2.0000      -0.677150       -18.4262
  48   2.0000      -0.674906       -18.3651
  49   2.0000      -0.667603       -18.1664
  50   2.0000      -0.648422       -17.6444
  51   2.0000      -0.645870       -17.5750
  52   2.0000      -0.635233       -17.2856
  53   2.0000      -0.609631       -16.5889
  54   2.0000      -0.603758       -16.4291
  55   2.0000      -0.601690       -16.3728
  56   2.0000      -0.587086       -15.9754
  57   2.0000      -0.582460       -15.8496
  58   2.0000      -0.578497       -15.7417
  59   2.0000      -0.573190       -15.5973
  60   2.0000      -0.565804       -15.3963
  61   2.0000      -0.550566       -14.9817
  62   2.0000      -0.540894       -14.7185
  63   2.0000      -0.524743       -14.2790
  64   2.0000      -0.514609       -14.0032
  65   2.0000      -0.512159       -13.9366
  66   2.0000      -0.507868       -13.8198
  67   2.0000      -0.501637       -13.6502
  68   2.0000      -0.478529       -13.0214
  69   2.0000      -0.463764       -12.6197
  70   2.0000      -0.453382       -12.3371
  71   2.0000      -0.451709       -12.2916
  72   2.0000      -0.356210        -9.6930
  73   2.0000      -0.349257        -9.5038
  74   2.0000      -0.329953        -8.9785
  75   2.0000      -0.324146        -8.8205
  76   2.0000      -0.320767        -8.7285
  77   0.0000       0.072702         1.9783
  78   0.0000       0.101219         2.7543
  79   0.0000       0.119681         3.2567
  80   0.0000       0.129813         3.5324
  81   0.0000       0.131092         3.5672

MULLIKEN ATOMIC CHARGES
-----------------------
   0 C :   -0.310663
   1 C :    0.044739
   2 O :   -0.368735
   3 C :    0.441518
   4 O :   -0.380905
   5 C :   -0.215038
   6 C :    0.149537
   7 C :   -0.272242
   8 N :   -0.128733
   9 C :    0.207622
  10 S :   -0.437281
  11 N :   -0.211698
  12 C :    0.030810
  13 C :    0.035162
  14 C :   -0.171062
  15 C :   -0.140343
  16 C :   -0.277788
  17 C :    0.323734
  18 O :   -0.358609
  19 C :   -0.256762
  20 H :    0.110715
  21 H :    0.115578
  22 H :    0.100329
  23 H :    0.110334
  24 H :    0.092448
  25 H :    0.119444
  26 H :    0.139202
  27 H :    0.096093
  28 H :    0.199730
  29 H :    0.201041
  30 H :    0.152184
  31 H :    0.150942
  32 H :    0.163343
  33 H :    0.132514
  34 H :    0.241058
  35 H :    0.171783
Sum of atomic charges:   -0.0000000

LOEWDIN ATOMIC CHARGES
----------------------
   0 C :    0.103594
   1 C :   -0.017361
   2 O :    0.292328
   3 C :   -0.426377
   4 O :    0.128299
   5 C :   -0.100852
   6 C :   -0.063192
   7 C :    0.129099
   8 N :    0.407212
   9 C :   -0.457640
  10 S :   -0.033210
  11 N :    0.396016
  12 C :   -0.053187
  13 C :   -0.041484
  14 C :    0.020692
  15 C :    0.039619
  16 C :   -0.000747
  17 C :   -0.191560
  18 O :    0.396041
  19 C :    0.035229
  20 H :   -0.023707
  21 H :   -0.026891
  22 H :   -0.032888
  23 H :   -0.023332
  24 H :   -0.029881
  25 H :   -0.008386
  26 H :   -0.004428
  27 H :   -0.022149
  28 H :   -0.056738
  29 H :   -0.063270
  30 H :   -0.012127
  31 H :   -0.027388
  32 H :   -0.020274
  33 H :   -0.034831
  34 H :   -0.153388
  35 H :   -0.022842

  Mayer bond orders larger than 0.100000
B(  0-C ,  1-C ) :   0.9694 B(  0-C , 20-H ) :   0.9716 B(  0-C , 21-H ) :   0.9774
B(  0-C , 22-H ) :   0.9712 B(  1-C ,  2-O ) :   0.8853 B(  1-C , 23-H ) :   0.9869
B(  1-C , 24-H ) :   0.9766 B(  2-O ,  3-C ) :   1.1122 B(  3-C ,  4-O ) :   2.0808
B(  3-C ,  5-C ) :   1.0058 B(  5-C ,  6-C ) :   1.6479 B(  5-C , 12-C ) :   0.9615
B(  6-C ,  7-C ) :   0.9600 B(  6-C ,  8-N ) :   1.1420 B(  7-C , 25-H ) :   0.9718
B(  7-C , 26-H ) :   0.9554 B(  7-C , 27-H ) :   0.9859 B(  8-N ,  9-C ) :   1.1886
B(  8-N , 28-H ) :   0.9481 B(  9-C , 10-S ) :   1.6149 B(  9-C , 11-N ) :   1.2979
B( 11-N , 12-C ) :   0.9796 B( 11-N , 29-H ) :   0.9474 B( 12-C , 13-C ) :   0.9570
B( 12-C , 30-H ) :   1.0049 B( 13-C , 14-C ) :   1.3659 B( 13-C , 19-C ) :   1.3544
B( 14-C , 15-C ) :   1.3976 B( 14-C , 31-H ) :   0.9705 B( 15-C , 16-C ) :   1.3544
B( 15-C , 32-H ) :   0.9707 B( 16-C , 17-C ) :   1.3345 B( 16-C , 33-H ) :   0.9847
B( 17-C , 18-O ) :   1.1065 B( 17-C , 19-C ) :   1.3553 B( 18-O , 34-H ) :   0.9795
B( 19-C , 35-H ) :   0.9595

MP2 TOTAL ENERGY:    -1274.318463744 Eh
FINAL SINGLE POINT ENERGY     -1274.318463744491

DIPOLE MOMENT
-------------
                                X             Y             Z
Electronic contribution:      8.66698       9.25460       5.96615
Nuclear contribution   :     -9.86520     -10.87673      -6.10786
                        -----------------------------------------
Total Dipole Moment    :     -1.19822      -1.62214      -0.14171
                        -----------------------------------------
Magnitude (a.u.)       :      2.02167
Magnitude (Debye)      :      5.13867

Rotational constants in cm-1:     0.012126     0.009134     0.006154
Rotational constants in MHz :   363.537163   273.827012   184.502580

                             ****ORCA TERMINATED NORMALLY****
TOTAL RUN TIME: 0 days 1 hours 46 minutes 25 seconds 709 msec
