                         Program Version 4.2.0 -  RELEASE  -
|  1> ! ri-mp2 cc-pvtz cc-pvtz/c TightSCF NoKeepInts
|  2>
|  3> %scf
|  4>   MaxCore 4096
|  5> end
|  6> *xyz  0  1
|  7>     C       14.1608207   15.0438990   15.0501616
|  8>     C       14.9108006   16.3329012   15.4231775
|  9>     O       16.2297011   16.2354523   14.8522214
| 10>     C       17.3246423   16.4557202   15.6399729
| 11>     O       18.2622002   15.6796504   15.6549349
| 12>     C       17.2592945   17.6607807   16.5261529
| 13>     C       16.9600477   18.8858106   16.0262500
| 14>     C       16.4758338   19.2181054   14.6285724
| 15>     N       17.1747991   20.0371103   16.7868286
| 16>     C       17.9020844   20.0689011   17.9471921
| 17>     S       18.2134074   21.4853126   18.7415639
| 18>     N       18.3783922   18.8647760   18.4037771
| 19>     C       18.0366786   17.5444874   17.8380467
| 20>     C       17.3807701   16.5884951   18.8236190
| 21>     C       17.8251076   15.2581390   18.9249361
| 22>     C       17.2091288   14.3654987   19.8178610
| 23>     C       16.1379941   14.8066141   20.6137674
| 24>     C       15.6891308   16.1303569   20.5098250
| 25>     O       14.6486234   16.5563489   21.2691467
| 26>     C       16.3033297   17.0165386   19.6189372
| 27>     H       14.6807181   14.1653790   15.4532972
| 28>     H       14.0953416   14.9354417   13.9602679
| 29>     H       13.1424703   15.0570306   15.4572004
| 30>     H       14.3776404   17.2036781   15.0230771
| 31>     H       14.9497801   16.4134384   16.5186288
| 32>     H       16.8599187   18.5108448   13.8828791
| 33>     H       16.8162515   20.2107169   14.3072080
| 34>     H       15.3814346   19.2110651   14.5749061
| 35>     H       16.8605824   20.9322067   16.4463880
| 36>     H       18.9055511   18.9144633   19.2667473
| 37>     H       19.0386021   17.1821815   17.5630119
| 38>     H       18.6445104   14.9122136   18.2979137
| 39>     H       17.5600747   13.3370926   19.8859032
| 40>     H       15.6586191   14.1196351   21.3033709
| 41>     H       14.3920877   15.8227184   21.8482448
| 42>     H       15.9406298   18.0369958   19.5520109
| 43> *
| 44>
| 45>                          ****END OF INPUT****

CARTESIAN COORDINATES (ANGSTROEM)
---------------------------------
  C     14.160821   15.043899   15.050162
  C     14.910801   16.332901   15.423177
  O     16.229701   16.235452   14.852221
  C     17.324642   16.455720   15.639973
  O     18.262200   15.679650   15.654935
  C     17.259294   17.660781   16.526153
  C     16.960048   18.885811   16.026250
  C     16.475834   19.218105   14.628572
  N     17.174799   20.037110   16.786829
  C     17.902084   20.068901   17.947192
  S     18.213407   21.485313   18.741564
  N     18.378392   18.864776   18.403777
  C     18.036679   17.544487   17.838047
  C     17.380770   16.588495   18.823619
  C     17.825108   15.258139   18.924936
  C     17.209129   14.365499   19.817861
  C     16.137994   14.806614   20.613767
  C     15.689131   16.130357   20.509825
  O     14.648623   16.556349   21.269147
  C     16.303330   17.016539   19.618937
  H     14.680718   14.165379   15.453297
  H     14.095342   14.935442   13.960268
  H     13.142470   15.057031   15.457200
  H     14.377640   17.203678   15.023077
  H     14.949780   16.413438   16.518629
  H     16.859919   18.510845   13.882879
  H     16.816251   20.210717   14.307208
  H     15.381435   19.211065   14.574906
  H     16.860582   20.932207   16.446388
  H     18.905551   18.914463   19.266747
  H     19.038602   17.182181   17.563012
  H     18.644510   14.912214   18.297914
  H     17.560075   13.337093   19.885903
  H     15.658619   14.119635   21.303371
  H     14.392088   15.822718   21.848245
  H     15.940630   18.036996   19.552011

 Total Charge           Charge          ....    0
 Multiplicity           Mult            ....    1
 Number of Electrons    NEL             ....  154
 Basis Dimension        Dim             ....  828

ORBITAL ENERGIES
----------------

  NO   OCC          E(Eh)            E(eV)
   0   2.0000     -91.890088     -2500.4564
   1   2.0000     -20.598749      -560.5205
   2   2.0000     -20.598291      -560.5080
   3   2.0000     -20.551987      -559.2480
   4   2.0000     -15.629254      -425.2936
   5   2.0000     -15.608937      -424.7408
   6   2.0000     -11.396968      -310.1273
   7   2.0000     -11.385604      -309.8180
   8   2.0000     -11.337023      -308.4961
   9   2.0000     -11.315268      -307.9041
  10   2.0000     -11.308230      -307.7126
  11   2.0000     -11.307024      -307.6798
  12   2.0000     -11.265210      -306.5420
  13   2.0000     -11.262828      -306.4771
  14   2.0000     -11.262606      -306.4711
  15   2.0000     -11.255238      -306.2706
  16   2.0000     -11.244629      -305.9819
  17   2.0000     -11.240944      -305.8816
  18   2.0000     -11.237523      -305.7886
  19   2.0000     -11.232201      -305.6437
  20   2.0000      -8.895186      -242.0503
  21   2.0000      -6.576764      -178.9629
  22   2.0000      -6.574756      -178.9082
  23   2.0000      -6.574170      -178.8923
  24   2.0000      -1.451431       -39.4955
  25   2.0000      -1.418032       -38.5866
  26   2.0000      -1.362848       -37.0850
  27   2.0000      -1.341560       -36.5057
  28   2.0000      -1.239369       -33.7249
  29   2.0000      -1.159540       -31.5527
  30   2.0000      -1.125035       -30.6138
  31   2.0000      -1.047236       -28.4967
  32   2.0000      -1.039404       -28.2836
  33   2.0000      -1.017303       -27.6822
  34   2.0000      -1.004782       -27.3415
  35   2.0000      -0.988672       -26.9031
  36   2.0000      -0.925542       -25.1853
  37   2.0000      -0.881533       -23.9877
  38   2.0000      -0.855539       -23.2804
  39   2.0000      -0.842537       -22.9266
  40   2.0000      -0.836467       -22.7614
  41   2.0000      -0.834625       -22.7113
  42   2.0000      -0.756681       -20.5903
  43   2.0000      -0.738779       -20.1032
  44   2.0000      -0.731331       -19.9005
  45   2.0000      -0.696039       -18.9402
  46   2.0000      -0.688290       -18.7293
  47   2.0000      -0.681933       -18.5563
  48   2.0000      -0.675916       -18.3926
  49   2.0000      -0.663563       -18.0565
  50   2.0000      -0.656994       -17.8777
  51   2.0000      -0.647194       -17.6111
  52   2.0000      -0.639487       -17.4013
  53   2.0000      -0.611241       -16.6327
  54   2.0000      -0.605483       -16.4760
  55   2.0000      -0.601825       -16.3765
  56   2.0000      -0.595769       -16.2117
  57   2.0000      -0.581775       -15.8309
  58   2.0000      -0.577551       -15.7160
  59   2.0000      -0.570663       -15.5285
  60   2.0000      -0.563203       -15.3255
  61   2.0000      -0.559528       -15.2255
  62   2.0000      -0.548550       -14.9268
  63   2.0000      -0.525002       -14.2860
  64   2.0000      -0.517244       -14.0749
  65   2.0000      -0.514250       -13.9935
  66   2.0000      -0.501973       -13.6594
  67   2.0000      -0.500220       -13.6117
  68   2.0000      -0.489336       -13.3155
  69   2.0000      -0.471738       -12.8366
  70   2.0000      -0.457874       -12.4594
  71   2.0000      -0.451662       -12.2903
  72   2.0000      -0.356457        -9.6997
  73   2.0000      -0.350720        -9.5436
  74   2.0000      -0.329422        -8.9640
  75   2.0000      -0.322630        -8.7792
  76   2.0000      -0.319823        -8.7028
  77   0.0000       0.078662         2.1405
  78   0.0000       0.104280         2.8376
  79   0.0000       0.118146         3.2149
  80   0.0000       0.131214         3.5705
  81   0.0000       0.133415         3.6304

MULLIKEN ATOMIC CHARGES
-----------------------
   0 C :   -0.250047
   1 C :    0.018445
   2 O :   -0.332157
   3 C :    0.435948
   4 O :   -0.379459
   5 C :   -0.243073
   6 C :    0.169247
   7 C :   -0.322701
   8 N :   -0.135613
   9 C :    0.206908
  10 S :   -0.441391
  11 N :   -0.217682
  12 C :    0.062367
  13 C :    0.024389
  14 C :   -0.207220
  15 C :   -0.129004
  16 C :   -0.277001
  17 C :    0.314390
  18 O :   -0.356861
  19 C :   -0.255202
  20 H :    0.105865
  21 H :    0.098630
  22 H :    0.088515
  23 H :    0.088111
  24 H :    0.106031
  25 H :    0.140969
  26 H :    0.120691
  27 H :    0.122466
  28 H :    0.198427
  29 H :    0.201179
  30 H :    0.163336
  31 H :    0.173830
  32 H :    0.163853
  33 H :    0.131195
  34 H :    0.241148
  35 H :    0.171472
Sum of atomic charges:   -0.0000000

LOEWDIN ATOMIC CHARGES
----------------------
   0 C :    0.110002
   1 C :   -0.022434
   2 O :    0.304422
   3 C :   -0.420058
   4 O :    0.123661
   5 C :   -0.091753
   6 C :   -0.079177
   7 C :    0.127689
   8 N :    0.403757
   9 C :   -0.457530
  10 S :   -0.037040
  11 N :    0.395937
  12 C :   -0.049477
  13 C :   -0.044134
  14 C :    0.021594
  15 C :    0.043759
  16 C :   -0.000268
  17 C :   -0.192648
  18 O :    0.394300
  19 C :    0.026679
  20 H :   -0.021730
  21 H :   -0.025607
  22 H :   -0.026377
  23 H :   -0.036345
  24 H :   -0.029686
  25 H :   -0.006871
  26 H :   -0.014337
  27 H :   -0.017617
  28 H :   -0.057504
  29 H :   -0.063491
  30 H :   -0.005176
  31 H :   -0.021471
  32 H :   -0.019080
  33 H :   -0.035056
  34 H :   -0.153416
  35 H :   -0.023517

  Mayer bond orders larger than 0.100000
B(  0-C ,  1-C ) :   0.9857 B(  0-C , 20-H ) :   0.9773 B(  0-C , 21-H ) :   0.9785
B(  0-C , 22-H ) :   0.9762 B(  1-C ,  2-O ) :   0.8969 B(  1-C , 23-H ) :   0.9752
B(  1-C , 24-H ) :   0.9630 B(  2-O ,  3-C ) :   1.1524 B(  3-C ,  4-O ) :   2.0845
B(  3-C ,  5-C ) :   0.9481 B(  5-C ,  6-C ) :   1.6972 B(  5-C , 12-C ) :   0.9429
B(  6-C ,  7-C ) :   0.9377 B(  6-C ,  8-N ) :   1.1201 B(  7-C , 25-H ) :   0.9685
B(  7-C , 26-H ) :   0.9832 B(  7-C , 27-H ) :   0.9679 B(  8-N ,  9-C ) :   1.1920
B(  8-N , 28-H ) :   0.9496 B(  9-C , 10-S ) :   1.6114 B(  9-C , 11-N ) :   1.2949
B( 11-N , 12-C ) :   0.9854 B( 11-N , 29-H ) :   0.9483 B( 12-C , 13-C ) :   0.9679
B( 12-C , 30-H ) :   0.9912 B( 13-C , 14-C ) :   1.3862 B( 13-C , 19-C ) :   1.3548
B( 14-C , 15-C ) :   1.3939 B( 14-C , 31-H ) :   0.9592 B( 15-C , 16-C ) :   1.3612
B( 15-C , 32-H ) :   0.9701 B( 16-C , 17-C ) :   1.3317 B( 16-C , 33-H ) :   0.9849
B( 17-C , 18-O ) :   1.1080 B( 17-C , 19-C ) :   1.3647 B( 18-O , 34-H ) :   0.9796
B( 19-C , 35-H ) :   0.9574

MP2 TOTAL ENERGY:    -1274.330611776 Eh
FINAL SINGLE POINT ENERGY     -1274.330611775633

DIPOLE MOMENT
-------------
                                X             Y             Z
Electronic contribution:     10.32012       8.97852       8.60645
Nuclear contribution   :    -11.93582     -10.05640      -9.01233
                        -----------------------------------------
Total Dipole Moment    :     -1.61570      -1.07788      -0.40587
                        -----------------------------------------
Magnitude (a.u.)       :      1.98420
Magnitude (Debye)      :      5.04344

Rotational constants in cm-1:     0.010652     0.009168     0.006138
Rotational constants in MHz :   319.334284   274.848337   184.001979

                             ****ORCA TERMINATED NORMALLY****
TOTAL RUN TIME: 0 days 1 hours 38 minutes 43 seconds 225 msec
