                         Program Version 4.2.0 -  RELEASE  -
|  1> ! ri-mp2 cc-pvtz cc-pvtz/c TightSCF NoKeepInts
|  2>
|  3> %scf
|  4>   MaxCore 4096
|  5> end
|  6> *xyz  0  1
|  7>     C       14.6388678   15.3112807   16.1314783
|  8>     C       14.8803383   16.4220696   15.0893024
|  9>     O       16.2437407   16.3564604   14.6185451
| 10>     C       17.2973852   16.5097280   15.4784357
| 11>     O       18.2181538   15.7136367   15.4986032
| 12>     C       17.2111622   17.6677999   16.4250532
| 13>     C       16.9414070   18.9191916   15.9736962
| 14>     C       16.5140992   19.3220881   14.5749918
| 15>     N       17.1481418   20.0325664   16.7910854
| 16>     C       17.8537287   20.0059031   17.9645649
| 17>     S       18.1653359   21.3828356   18.8255084
| 18>     N       18.3111156   18.7782343   18.3743159
| 19>     C       17.9603127   17.4880342   17.7483378
| 20>     C       17.2860806   16.4987274   18.6870473
| 21>     C       17.7142179   15.1599752   18.7339861
| 22>     C       17.0787004   14.2362982   19.5803588
| 23>     C       16.0051259   14.6549412   20.3850281
| 24>     C       15.5739472   15.9877409   20.3369483
| 25>     O       14.5310378   16.3922057   21.1046346
| 26>     C       16.2075413   16.9049783   19.4923524
| 27>     H       15.2088106   15.4897941   17.0501116
| 28>     H       14.9323822   14.3332886   15.7291606
| 29>     H       13.5769403   15.2637696   16.4013056
| 30>     H       14.2009707   16.2726133   14.2400745
| 31>     H       14.6521298   17.3970798   15.5361121
| 32>     H       16.9744592   18.6826553   13.8111792
| 33>     H       16.8192031   20.3484384   14.3344403
| 34>     H       15.4262370   19.2657298   14.4560624
| 35>     H       16.8497270   20.9452043   16.4849074
| 36>     H       18.8237635   18.7838814   19.2473474
| 37>     H       18.9633054   17.1272009   17.4754897
| 38>     H       18.5349876   14.8319375   18.0991978
| 39>     H       17.4164329   13.2015542   19.6055947
| 40>     H       15.5104781   13.9439368   21.0385378
| 41>     H       14.2597825   15.6367106   21.6477390
| 42>     H       15.8569501   17.9315097   19.4664661
| 43> *
| 44>
| 45>                          ****END OF INPUT****

CARTESIAN COORDINATES (ANGSTROEM)
---------------------------------
  C     14.638868   15.311281   16.131478
  C     14.880338   16.422070   15.089302
  O     16.243741   16.356460   14.618545
  C     17.297385   16.509728   15.478436
  O     18.218154   15.713637   15.498603
  C     17.211162   17.667800   16.425053
  C     16.941407   18.919192   15.973696
  C     16.514099   19.322088   14.574992
  N     17.148142   20.032566   16.791085
  C     17.853729   20.005903   17.964565
  S     18.165336   21.382836   18.825508
  N     18.311116   18.778234   18.374316
  C     17.960313   17.488034   17.748338
  C     17.286081   16.498727   18.687047
  C     17.714218   15.159975   18.733986
  C     17.078700   14.236298   19.580359
  C     16.005126   14.654941   20.385028
  C     15.573947   15.987741   20.336948
  O     14.531038   16.392206   21.104635
  C     16.207541   16.904978   19.492352
  H     15.208811   15.489794   17.050112
  H     14.932382   14.333289   15.729161
  H     13.576940   15.263770   16.401306
  H     14.200971   16.272613   14.240075
  H     14.652130   17.397080   15.536112
  H     16.974459   18.682655   13.811179
  H     16.819203   20.348438   14.334440
  H     15.426237   19.265730   14.456062
  H     16.849727   20.945204   16.484907
  H     18.823763   18.783881   19.247347
  H     18.963305   17.127201   17.475490
  H     18.534988   14.831938   18.099198
  H     17.416433   13.201554   19.605595
  H     15.510478   13.943937   21.038538
  H     14.259782   15.636711   21.647739
  H     15.856950   17.931510   19.466466

 Total Charge           Charge          ....    0
 Multiplicity           Mult            ....    1
 Number of Electrons    NEL             ....  154
 Basis Dimension        Dim             ....  828

ORBITAL ENERGIES
----------------

  NO   OCC          E(Eh)            E(eV)
   0   2.0000     -91.890429     -2500.4657
   1   2.0000     -20.598473      -560.5129
   2   2.0000     -20.596345      -560.4550
   3   2.0000     -20.552062      -559.2500
   4   2.0000     -15.629813      -425.3088
   5   2.0000     -15.609095      -424.7451
   6   2.0000     -11.397331      -310.1372
   7   2.0000     -11.385756      -309.8222
   8   2.0000     -11.338064      -308.5244
   9   2.0000     -11.315593      -307.9129
  10   2.0000     -11.308403      -307.7173
  11   2.0000     -11.307902      -307.7037
  12   2.0000     -11.265101      -306.5390
  13   2.0000     -11.263282      -306.4895
  14   2.0000     -11.262482      -306.4677
  15   2.0000     -11.255610      -306.2807
  16   2.0000     -11.245157      -305.9963
  17   2.0000     -11.241000      -305.8832
  18   2.0000     -11.237566      -305.7897
  19   2.0000     -11.228972      -305.5559
  20   2.0000      -8.895521      -242.0594
  21   2.0000      -6.577098      -178.9719
  22   2.0000      -6.575091      -178.9173
  23   2.0000      -6.574503      -178.9013
  24   2.0000      -1.448853       -39.4253
  25   2.0000      -1.418236       -38.5922
  26   2.0000      -1.361118       -37.0379
  27   2.0000      -1.342112       -36.5207
  28   2.0000      -1.239758       -33.7355
  29   2.0000      -1.159815       -31.5602
  30   2.0000      -1.125130       -30.6163
  31   2.0000      -1.047232       -28.4966
  32   2.0000      -1.035163       -28.1682
  33   2.0000      -1.017577       -27.6897
  34   2.0000      -1.005134       -27.3511
  35   2.0000      -0.989370       -26.9221
  36   2.0000      -0.925992       -25.1975
  37   2.0000      -0.893560       -24.3150
  38   2.0000      -0.853726       -23.2311
  39   2.0000      -0.841491       -22.8981
  40   2.0000      -0.835308       -22.7299
  41   2.0000      -0.831378       -22.6229
  42   2.0000      -0.746466       -20.3124
  43   2.0000      -0.736817       -20.0498
  44   2.0000      -0.731316       -19.9001
  45   2.0000      -0.695939       -18.9375
  46   2.0000      -0.687217       -18.7001
  47   2.0000      -0.682633       -18.5754
  48   2.0000      -0.676933       -18.4203
  49   2.0000      -0.661867       -18.0103
  50   2.0000      -0.656392       -17.8613
  51   2.0000      -0.646644       -17.5961
  52   2.0000      -0.637655       -17.3515
  53   2.0000      -0.620596       -16.8873
  54   2.0000      -0.609300       -16.5799
  55   2.0000      -0.605220       -16.4689
  56   2.0000      -0.601731       -16.3739
  57   2.0000      -0.583228       -15.8704
  58   2.0000      -0.575943       -15.6722
  59   2.0000      -0.566033       -15.4025
  60   2.0000      -0.561224       -15.2717
  61   2.0000      -0.547714       -14.9041
  62   2.0000      -0.547266       -14.8919
  63   2.0000      -0.534107       -14.5338
  64   2.0000      -0.520658       -14.1678
  65   2.0000      -0.512220       -13.9382
  66   2.0000      -0.500661       -13.6237
  67   2.0000      -0.498057       -13.5528
  68   2.0000      -0.485703       -13.2167
  69   2.0000      -0.469285       -12.7699
  70   2.0000      -0.459450       -12.5023
  71   2.0000      -0.449329       -12.2269
  72   2.0000      -0.357107        -9.7174
  73   2.0000      -0.350960        -9.5501
  74   2.0000      -0.329738        -8.9726
  75   2.0000      -0.323064        -8.7910
  76   2.0000      -0.320316        -8.7162
  77   0.0000       0.077609         2.1118
  78   0.0000       0.104188         2.8351
  79   0.0000       0.118122         3.2143
  80   0.0000       0.130477         3.5504
  81   0.0000       0.133074         3.6211

MULLIKEN ATOMIC CHARGES
-----------------------
   0 C :   -0.296008
   1 C :    0.023725
   2 O :   -0.349036
   3 C :    0.446525
   4 O :   -0.381014
   5 C :   -0.237702
   6 C :    0.149917
   7 C :   -0.309687
   8 N :   -0.133787
   9 C :    0.206590
  10 S :   -0.440743
  11 N :   -0.218129
  12 C :    0.065320
  13 C :   -0.022681
  14 C :   -0.182504
  15 C :   -0.136640
  16 C :   -0.269115
  17 C :    0.303543
  18 O :   -0.357582
  19 C :   -0.219896
  20 H :    0.116723
  21 H :    0.112249
  22 H :    0.098580
  23 H :    0.121712
  24 H :    0.084139
  25 H :    0.140973
  26 H :    0.118047
  27 H :    0.121297
  28 H :    0.198102
  29 H :    0.201632
  30 H :    0.163660
  31 H :    0.174436
  32 H :    0.163245
  33 H :    0.132372
  34 H :    0.241047
  35 H :    0.170690
Sum of atomic charges:   -0.0000000

LOEWDIN ATOMIC CHARGES
----------------------
   0 C :    0.110044
   1 C :   -0.023863
   2 O :    0.297562
   3 C :   -0.419298
   4 O :    0.124464
   5 C :   -0.091919
   6 C :   -0.078319
   7 C :    0.127988
   8 N :    0.404021
   9 C :   -0.458208
  10 S :   -0.036545
  11 N :    0.396230
  12 C :   -0.049080
  13 C :   -0.046000
  14 C :    0.021900
  15 C :    0.043752
  16 C :   -0.000046
  17 C :   -0.192354
  18 O :    0.394950
  19 C :    0.027026
  20 H :   -0.027053
  21 H :   -0.021574
  22 H :   -0.025097
  23 H :   -0.021698
  24 H :   -0.040491
  25 H :   -0.006345
  26 H :   -0.015061
  27 H :   -0.016620
  28 H :   -0.057703
  29 H :   -0.063260
  30 H :   -0.005272
  31 H :   -0.021522
  32 H :   -0.018914
  33 H :   -0.034807
  34 H :   -0.153412
  35 H :   -0.023475

  Mayer bond orders larger than 0.100000
B(  0-C ,  1-C ) :   0.9747 B(  0-C , 20-H ) :   0.9649 B(  0-C , 21-H ) :   0.9761
B(  0-C , 22-H ) :   0.9768 B(  1-C ,  2-O ) :   0.8980 B(  1-C , 23-H ) :   0.9791
B(  1-C , 24-H ) :   0.9685 B(  2-O ,  3-C ) :   1.1255 B(  3-C ,  4-O ) :   2.0815
B(  3-C ,  5-C ) :   0.9508 B(  5-C ,  6-C ) :   1.7062 B(  5-C , 12-C ) :   0.9375
B(  6-C ,  7-C ) :   0.9379 B(  6-C ,  8-N ) :   1.1229 B(  7-C , 25-H ) :   0.9678
B(  7-C , 26-H ) :   0.9853 B(  7-C , 27-H ) :   0.9662 B(  8-N ,  9-C ) :   1.1902
B(  8-N , 28-H ) :   0.9491 B(  9-C , 10-S ) :   1.6119 B(  9-C , 11-N ) :   1.2956
B( 11-N , 12-C ) :   0.9844 B( 11-N , 29-H ) :   0.9482 B( 12-C , 13-C ) :   0.9694
B( 12-C , 30-H ) :   0.9921 B( 13-C , 14-C ) :   1.3915 B( 13-C , 19-C ) :   1.3596
B( 14-C , 15-C ) :   1.3935 B( 14-C , 31-H ) :   0.9580 B( 15-C , 16-C ) :   1.3606
B( 15-C , 32-H ) :   0.9708 B( 16-C , 17-C ) :   1.3326 B( 16-C , 33-H ) :   0.9843
B( 17-C , 18-O ) :   1.1091 B( 17-C , 19-C ) :   1.3656 B( 18-O , 34-H ) :   0.9796
B( 19-C , 35-H ) :   0.9578

MP2 TOTAL ENERGY:    -1274.331432049 Eh
FINAL SINGLE POINT ENERGY     -1274.331432048805

DIPOLE MOMENT
-------------
                                X             Y             Z
Electronic contribution:      9.16940       8.16677       6.60881
Nuclear contribution   :    -10.79123      -9.19984      -7.06404
                        -----------------------------------------
Total Dipole Moment    :     -1.62183      -1.03307      -0.45523
                        -----------------------------------------
Magnitude (a.u.)       :      1.97606
Magnitude (Debye)      :      5.02274

Rotational constants in cm-1:     0.011525     0.009248     0.006363
Rotational constants in MHz :   345.504890   277.249330   190.761818

                             ****ORCA TERMINATED NORMALLY****
TOTAL RUN TIME: 0 days 2 hours 1 minutes 43 seconds 424 msec
