                         Program Version 4.2.0 -  RELEASE  -
|  1> ! ri-mp2 cc-pvtz cc-pvtz/c TightSCF NoKeepInts
|  2>
|  3> %scf
|  4>   MaxCore 4096
|  5> end
|  6> *xyz  0  1
|  7>     C       14.4652296   16.5609974   16.1659815
|  8>     C       15.3809566   15.3474637   15.8867675
|  9>     O       16.6263888   15.6527118   15.2046047
| 10>     C       17.4550494   16.7456951   15.3012021
| 11>     O       18.3859021   16.8890918   14.5309748
| 12>     C       17.1660073   17.7563301   16.3538184
| 13>     C       16.9106519   19.0253044   15.9638154
| 14>     C       16.5379113   19.4545019   14.5613140
| 15>     N       17.0316763   20.0945580   16.8525878
| 16>     C       17.6421786   20.0041228   18.0761164
| 17>     S       17.8598728   21.3265266   19.0448936
| 18>     N       18.0888677   18.7589297   18.4480048
| 19>     C       17.8214425   17.5047665   17.7156400
| 20>     C       17.1978745   16.3989129   18.5535424
| 21>     C       17.7215878   15.0939838   18.5021333
| 22>     C       17.1488108   14.0646838   19.2677889
| 23>     C       16.0462570   14.3437310   20.0935013
| 24>     C       15.5279585   15.6446797   20.1526097
| 25>     O       14.4618995   15.9165661   20.9459912
| 26>     C       16.1003896   16.6674970   19.3898031
| 27>     H       14.7840239   17.1387574   17.0382372
| 28>     H       13.4481234   16.2102079   16.3795556
| 29>     H       14.4085074   17.2213954   15.2928539
| 30>     H       15.5958180   14.8484731   16.8394848
| 31>     H       14.8283550   14.6250350   15.2722338
| 32>     H       15.9392938   18.6898681   14.0517644
| 33>     H       17.4436498   19.6110387   13.9603927
| 34>     H       15.9573589   20.3847143   14.5508403
| 35>     H       16.7558330   21.0210985   16.5680767
| 36>     H       18.5332122   18.7216750   19.3569945
| 37>     H       18.8544945   17.2173321   17.4690555
| 38>     H       18.5709045   14.8746977   17.8589025
| 39>     H       17.5595057   13.0572174   19.2195422
| 40>     H       15.6005418   13.5514647   20.6863580
| 41>     H       14.2444469   15.1070138   21.4327140
| 42>     H       15.6860189   17.6689568   19.4499029
| 43> *
| 44>
| 45>                          ****END OF INPUT****

CARTESIAN COORDINATES (ANGSTROEM)
---------------------------------
  C     14.465230   16.560997   16.165982
  C     15.380957   15.347464   15.886767
  O     16.626389   15.652712   15.204605
  C     17.455049   16.745695   15.301202
  O     18.385902   16.889092   14.530975
  C     17.166007   17.756330   16.353818
  C     16.910652   19.025304   15.963815
  C     16.537911   19.454502   14.561314
  N     17.031676   20.094558   16.852588
  C     17.642179   20.004123   18.076116
  S     17.859873   21.326527   19.044894
  N     18.088868   18.758930   18.448005
  C     17.821442   17.504766   17.715640
  C     17.197874   16.398913   18.553542
  C     17.721588   15.093984   18.502133
  C     17.148811   14.064684   19.267789
  C     16.046257   14.343731   20.093501
  C     15.527958   15.644680   20.152610
  O     14.461899   15.916566   20.945991
  C     16.100390   16.667497   19.389803
  H     14.784024   17.138757   17.038237
  H     13.448123   16.210208   16.379556
  H     14.408507   17.221395   15.292854
  H     15.595818   14.848473   16.839485
  H     14.828355   14.625035   15.272234
  H     15.939294   18.689868   14.051764
  H     17.443650   19.611039   13.960393
  H     15.957359   20.384714   14.550840
  H     16.755833   21.021099   16.568077
  H     18.533212   18.721675   19.356994
  H     18.854495   17.217332   17.469055
  H     18.570904   14.874698   17.858902
  H     17.559506   13.057217   19.219542
  H     15.600542   13.551465   20.686358
  H     14.244447   15.107014   21.432714
  H     15.686019   17.668957   19.449903

 Total Charge           Charge          ....    0
 Multiplicity           Mult            ....    1
 Number of Electrons    NEL             ....  154
 Basis Dimension        Dim             ....  828

ORBITAL ENERGIES
----------------

  NO   OCC          E(Eh)            E(eV)
   0   2.0000     -91.889199     -2500.4322
   1   2.0000     -20.606030      -560.7186
   2   2.0000     -20.596560      -560.4609
   3   2.0000     -20.550129      -559.1974
   4   2.0000     -15.624885      -425.1747
   5   2.0000     -15.610835      -424.7924
   6   2.0000     -11.398408      -310.1664
   7   2.0000     -11.384953      -309.8003
   8   2.0000     -11.324747      -308.1620
   9   2.0000     -11.323771      -308.1355
  10   2.0000     -11.316662      -307.9420
  11   2.0000     -11.305377      -307.6349
  12   2.0000     -11.272162      -306.7311
  13   2.0000     -11.265560      -306.5515
  14   2.0000     -11.257589      -306.3346
  15   2.0000     -11.255266      -306.2714
  16   2.0000     -11.254283      -306.2446
  17   2.0000     -11.249479      -306.1139
  18   2.0000     -11.249111      -306.1039
  19   2.0000     -11.233480      -305.6785
  20   2.0000      -8.894291      -242.0260
  21   2.0000      -6.575871      -178.9386
  22   2.0000      -6.573863      -178.8839
  23   2.0000      -6.573280      -178.8681
  24   2.0000      -1.441349       -39.2211
  25   2.0000      -1.425783       -38.7975
  26   2.0000      -1.356381       -36.9090
  27   2.0000      -1.338408       -36.4199
  28   2.0000      -1.238853       -33.7109
  29   2.0000      -1.168073       -31.7849
  30   2.0000      -1.125691       -30.6316
  31   2.0000      -1.052224       -28.6325
  32   2.0000      -1.036243       -28.1976
  33   2.0000      -1.026387       -27.9294
  34   2.0000      -1.004561       -27.3355
  35   2.0000      -0.990001       -26.9393
  36   2.0000      -0.927513       -25.2389
  37   2.0000      -0.899952       -24.4889
  38   2.0000      -0.851600       -23.1732
  39   2.0000      -0.845373       -23.0038
  40   2.0000      -0.843614       -22.9559
  41   2.0000      -0.828635       -22.5483
  42   2.0000      -0.750205       -20.4141
  43   2.0000      -0.740024       -20.1371
  44   2.0000      -0.722805       -19.6685
  45   2.0000      -0.704702       -19.1759
  46   2.0000      -0.691577       -18.8188
  47   2.0000      -0.677970       -18.4485
  48   2.0000      -0.676243       -18.4015
  49   2.0000      -0.661607       -18.0032
  50   2.0000      -0.654812       -17.8184
  51   2.0000      -0.650333       -17.6965
  52   2.0000      -0.638094       -17.3634
  53   2.0000      -0.617231       -16.7957
  54   2.0000      -0.612059       -16.6550
  55   2.0000      -0.607142       -16.5212
  56   2.0000      -0.605229       -16.4691
  57   2.0000      -0.585219       -15.9246
  58   2.0000      -0.578390       -15.7388
  59   2.0000      -0.573377       -15.6024
  60   2.0000      -0.566319       -15.4103
  61   2.0000      -0.554920       -15.1002
  62   2.0000      -0.540438       -14.7061
  63   2.0000      -0.534441       -14.5429
  64   2.0000      -0.525206       -14.2916
  65   2.0000      -0.515658       -14.0318
  66   2.0000      -0.505224       -13.7478
  67   2.0000      -0.502097       -13.6628
  68   2.0000      -0.491949       -13.3866
  69   2.0000      -0.463820       -12.6212
  70   2.0000      -0.453466       -12.3394
  71   2.0000      -0.446862       -12.1597
  72   2.0000      -0.359938        -9.7944
  73   2.0000      -0.349149        -9.5008
  74   2.0000      -0.332992        -9.0612
  75   2.0000      -0.328320        -8.9340
  76   2.0000      -0.318110        -8.6562
  77   0.0000       0.086814         2.3623
  78   0.0000       0.097006         2.6397
  79   0.0000       0.120307         3.2737
  80   0.0000       0.127030         3.4567
  81   0.0000       0.127550         3.4708

MULLIKEN ATOMIC CHARGES
-----------------------
   0 C :   -0.327573
   1 C :    0.038066
   2 O :   -0.323212
   3 C :    0.410117
   4 O :   -0.378852
   5 C :   -0.228756
   6 C :    0.154187
   7 C :   -0.296326
   8 N :   -0.136560
   9 C :    0.214824
  10 S :   -0.442783
  11 N :   -0.225487
  12 C :    0.061764
  13 C :    0.005800
  14 C :   -0.217700
  15 C :   -0.129774
  16 C :   -0.274687
  17 C :    0.320143
  18 O :   -0.353211
  19 C :   -0.249758
  20 H :    0.117128
  21 H :    0.119668
  22 H :    0.100843
  23 H :    0.101016
  24 H :    0.125777
  25 H :    0.112505
  26 H :    0.148318
  27 H :    0.100221
  28 H :    0.197063
  29 H :    0.202377
  30 H :    0.166652
  31 H :    0.161051
  32 H :    0.166553
  33 H :    0.135658
  34 H :    0.242139
  35 H :    0.182808
Sum of atomic charges:   -0.0000000

LOEWDIN ATOMIC CHARGES
----------------------
   0 C :    0.101242
   1 C :   -0.010310
   2 O :    0.294390
   3 C :   -0.418882
   4 O :    0.125668
   5 C :   -0.087602
   6 C :   -0.088103
   7 C :    0.128462
   8 N :    0.404197
   9 C :   -0.454138
  10 S :   -0.038204
  11 N :    0.395644
  12 C :   -0.054879
  13 C :   -0.044229
  14 C :    0.018357
  15 C :    0.043686
  16 C :    0.001189
  17 C :   -0.190584
  18 O :    0.397707
  19 C :    0.032429
  20 H :   -0.035376
  21 H :   -0.022288
  22 H :   -0.031234
  23 H :   -0.031252
  24 H :   -0.020994
  25 H :   -0.012860
  26 H :   -0.003267
  27 H :   -0.019656
  28 H :   -0.058471
  29 H :   -0.064540
  30 H :   -0.006940
  31 H :   -0.024675
  32 H :   -0.017961
  33 H :   -0.033152
  34 H :   -0.151960
  35 H :   -0.021417

  Mayer bond orders larger than 0.100000
B(  0-C ,  1-C ) :   0.9562 B(  0-C , 20-H ) :   0.9696 B(  0-C , 21-H ) :   0.9768
B(  0-C , 22-H ) :   0.9751 B(  1-C ,  2-O ) :   0.9058 B(  1-C , 23-H ) :   0.9693
B(  1-C , 24-H ) :   0.9825 B(  2-O ,  3-C ) :   1.1967 B(  3-C ,  4-O ) :   2.1186
B(  3-C ,  5-C ) :   0.9129 B(  5-C ,  6-C ) :   1.7173 B(  5-C , 12-C ) :   0.9410
B(  6-C ,  7-C ) :   0.9429 B(  6-C ,  8-N ) :   1.1197 B(  7-C , 25-H ) :   0.9787
B(  7-C , 26-H ) :   0.9588 B(  7-C , 27-H ) :   0.9834 B(  8-N ,  9-C ) :   1.2035
B(  8-N , 28-H ) :   0.9501 B(  9-C , 10-S ) :   1.6095 B(  9-C , 11-N ) :   1.2827
B( 11-N , 12-C ) :   0.9773 B( 11-N , 29-H ) :   0.9465 B( 12-C , 13-C ) :   0.9516
B( 12-C , 30-H ) :   1.0014 B( 13-C , 14-C ) :   1.3700 B( 13-C , 19-C ) :   1.3480
B( 14-C , 15-C ) :   1.3995 B( 14-C , 31-H ) :   0.9711 B( 15-C , 16-C ) :   1.3593
B( 15-C , 32-H ) :   0.9695 B( 16-C , 17-C ) :   1.3300 B( 16-C , 33-H ) :   0.9834
B( 17-C , 18-O ) :   1.1131 B( 17-C , 19-C ) :   1.3599 B( 18-O , 34-H ) :   0.9784
B( 19-C , 35-H ) :   0.9530

MP2 TOTAL ENERGY:    -1274.317238929 Eh
FINAL SINGLE POINT ENERGY     -1274.317238929236

DIPOLE MOMENT
-------------
                                X             Y             Z
Electronic contribution:      8.65321       6.62898       6.15873
Nuclear contribution   :    -10.21994      -8.40105      -5.99886
                        -----------------------------------------
Total Dipole Moment    :     -1.56673      -1.77207       0.15987
                        -----------------------------------------
Magnitude (a.u.)       :      2.37074
Magnitude (Debye)      :      6.02595

Rotational constants in cm-1:     0.012407     0.009061     0.006425
Rotational constants in MHz :   371.958851   271.629900   192.622689

                             ****ORCA TERMINATED NORMALLY****
TOTAL RUN TIME: 0 days 1 hours 51 minutes 46 seconds 936 msec
