                         Program Version 4.2.0 -  RELEASE  -
|  1> ! ri-mp2 cc-pvtz cc-pvtz/c TightSCF NoKeepInts
|  2>
|  3> %scf
|  4>   MaxCore 4096
|  5> end
|  6> *xyz  0  1
|  7>     C       14.4266254   15.9012637   15.4658812
|  8>     C       15.6470728   15.1043961   15.9791901
|  9>     O       16.9038960   15.6676462   15.5278606
| 10>     C       17.0283623   16.9928659   15.2229335
| 11>     O       17.0495000   17.3477342   14.0584022
| 12>     C       17.0806591   17.9244892   16.4054350
| 13>     C       16.9237628   19.2590094   16.2065614
| 14>     C       16.3102834   19.9354813   14.9977830
| 15>     N       17.3148306   20.1877387   17.1727830
| 16>     C       18.0916273   19.8877272   18.2580095
| 17>     S       18.6290687   21.0523514   19.3019310
| 18>     N       18.4238888   18.5670490   18.4208802
| 19>     C       17.8805893   17.4450814   17.6314836
| 20>     C       17.2120302   16.4028304   18.5121731
| 21>     C       17.7927580   15.1334139   18.6894135
| 22>     C       17.1737720   14.1761838   19.5109226
| 23>     C       15.9706635   14.4942649   20.1647239
| 24>     C       15.3975399   15.7627568   19.9986812
| 25>     O       14.2359655   16.0721740   20.6271323
| 26>     C       16.0141170   16.7129119   19.1785723
| 27>     H       14.3745460   16.8956855   15.9259285
| 28>     H       13.4988408   15.3720088   15.7150026
| 29>     H       14.4659317   16.0171330   14.3748438
| 30>     H       15.6027314   15.0632035   17.0709904
| 31>     H       15.5789756   14.0696976   15.6193790
| 32>     H       15.4593496   19.3585017   14.6143786
| 33>     H       17.0454666   20.0112204   14.1859438
| 34>     H       15.9431716   20.9452265   15.2163280
| 35>     H       17.1094350   21.1652859   17.0404014
| 36>     H       18.9814204   18.3728682   19.2432866
| 37>     H       18.8192300   17.0492450   17.2177562
| 38>     H       18.7214439   14.8852471   18.1815417
| 39>     H       17.6270070   13.1944682   19.6398833
| 40>     H       15.4900612   13.7578812   20.8007998
| 41>     H       14.0006130   15.3220418   21.1941564
| 42>     H       15.5617637   17.6929160   19.0666265
| 43> *
| 44>
| 45>                          ****END OF INPUT****

CARTESIAN COORDINATES (ANGSTROEM)
---------------------------------
  C     14.426625   15.901264   15.465881
  C     15.647073   15.104396   15.979190
  O     16.903896   15.667646   15.527861
  C     17.028362   16.992866   15.222933
  O     17.049500   17.347734   14.058402
  C     17.080659   17.924489   16.405435
  C     16.923763   19.259009   16.206561
  C     16.310283   19.935481   14.997783
  N     17.314831   20.187739   17.172783
  C     18.091627   19.887727   18.258010
  S     18.629069   21.052351   19.301931
  N     18.423889   18.567049   18.420880
  C     17.880589   17.445081   17.631484
  C     17.212030   16.402830   18.512173
  C     17.792758   15.133414   18.689414
  C     17.173772   14.176184   19.510923
  C     15.970664   14.494265   20.164724
  C     15.397540   15.762757   19.998681
  O     14.235965   16.072174   20.627132
  C     16.014117   16.712912   19.178572
  H     14.374546   16.895685   15.925928
  H     13.498841   15.372009   15.715003
  H     14.465932   16.017133   14.374844
  H     15.602731   15.063203   17.070990
  H     15.578976   14.069698   15.619379
  H     15.459350   19.358502   14.614379
  H     17.045467   20.011220   14.185944
  H     15.943172   20.945227   15.216328
  H     17.109435   21.165286   17.040401
  H     18.981420   18.372868   19.243287
  H     18.819230   17.049245   17.217756
  H     18.721444   14.885247   18.181542
  H     17.627007   13.194468   19.639883
  H     15.490061   13.757881   20.800800
  H     14.000613   15.322042   21.194156
  H     15.561764   17.692916   19.066627

 Total Charge           Charge          ....    0
 Multiplicity           Mult            ....    1
 Number of Electrons    NEL             ....  154
 Basis Dimension        Dim             ....  828

ORBITAL ENERGIES
----------------

  NO   OCC          E(Eh)            E(eV)
   0   2.0000     -91.891077     -2500.4833
   1   2.0000     -20.603596      -560.6524
   2   2.0000     -20.580510      -560.0241
   3   2.0000     -20.548254      -559.1464
   4   2.0000     -15.630417      -425.3253
   5   2.0000     -15.609732      -424.7624
   6   2.0000     -11.392513      -310.0060
   7   2.0000     -11.385430      -309.8133
   8   2.0000     -11.337294      -308.5035
   9   2.0000     -11.321679      -308.0785
  10   2.0000     -11.313241      -307.8489
  11   2.0000     -11.297499      -307.4206
  12   2.0000     -11.267128      -306.5941
  13   2.0000     -11.262581      -306.4704
  14   2.0000     -11.258354      -306.3554
  15   2.0000     -11.253840      -306.2326
  16   2.0000     -11.251612      -306.1719
  17   2.0000     -11.246123      -306.0226
  18   2.0000     -11.245500      -306.0056
  19   2.0000     -11.229924      -305.5818
  20   2.0000      -8.896128      -242.0759
  21   2.0000      -6.577694      -178.9882
  22   2.0000      -6.575702      -178.9339
  23   2.0000      -6.575105      -178.9177
  24   2.0000      -1.442027       -39.2395
  25   2.0000      -1.423354       -38.7314
  26   2.0000      -1.351363       -36.7724
  27   2.0000      -1.342715       -36.5371
  28   2.0000      -1.241280       -33.7769
  29   2.0000      -1.164538       -31.6887
  30   2.0000      -1.123026       -30.5591
  31   2.0000      -1.048570       -28.5330
  32   2.0000      -1.031193       -28.0602
  33   2.0000      -1.022419       -27.8214
  34   2.0000      -1.001679       -27.2571
  35   2.0000      -0.988196       -26.8902
  36   2.0000      -0.926039       -25.1988
  37   2.0000      -0.894506       -24.3407
  38   2.0000      -0.850069       -23.1316
  39   2.0000      -0.844191       -22.9716
  40   2.0000      -0.841275       -22.8923
  41   2.0000      -0.825163       -22.4538
  42   2.0000      -0.748167       -20.3587
  43   2.0000      -0.738245       -20.0887
  44   2.0000      -0.716448       -19.4955
  45   2.0000      -0.701609       -19.0917
  46   2.0000      -0.689380       -18.7590
  47   2.0000      -0.678431       -18.4611
  48   2.0000      -0.672367       -18.2960
  49   2.0000      -0.662957       -18.0400
  50   2.0000      -0.653098       -17.7717
  51   2.0000      -0.645990       -17.5783
  52   2.0000      -0.637144       -17.3376
  53   2.0000      -0.624368       -16.9899
  54   2.0000      -0.613151       -16.6847
  55   2.0000      -0.605849       -16.4860
  56   2.0000      -0.602788       -16.4027
  57   2.0000      -0.582205       -15.8426
  58   2.0000      -0.573672       -15.6104
  59   2.0000      -0.567261       -15.4360
  60   2.0000      -0.548747       -14.9322
  61   2.0000      -0.544288       -14.8108
  62   2.0000      -0.540616       -14.7109
  63   2.0000      -0.532481       -14.4895
  64   2.0000      -0.529577       -14.4105
  65   2.0000      -0.516819       -14.0634
  66   2.0000      -0.504227       -13.7207
  67   2.0000      -0.493782       -13.4365
  68   2.0000      -0.479667       -13.0524
  69   2.0000      -0.468934       -12.7603
  70   2.0000      -0.452714       -12.3190
  71   2.0000      -0.445224       -12.1152
  72   2.0000      -0.357129        -9.7180
  73   2.0000      -0.354441        -9.6448
  74   2.0000      -0.331438        -9.0189
  75   2.0000      -0.328390        -8.9359
  76   2.0000      -0.320710        -8.7270
  77   0.0000       0.073162         1.9908
  78   0.0000       0.097785         2.6609
  79   0.0000       0.121444         3.3047
  80   0.0000       0.127094         3.4584
  81   0.0000       0.130467         3.5502

MULLIKEN ATOMIC CHARGES
-----------------------
   0 C :   -0.316386
   1 C :    0.039007
   2 O :   -0.375776
   3 C :    0.469162
   4 O :   -0.384800
   5 C :   -0.284923
   6 C :    0.183000
   7 C :   -0.271340
   8 N :   -0.126934
   9 C :    0.208626
  10 S :   -0.438527
  11 N :   -0.209097
  12 C :    0.051349
  13 C :   -0.012323
  14 C :   -0.158748
  15 C :   -0.132405
  16 C :   -0.271496
  17 C :    0.303247
  18 O :   -0.357092
  19 C :   -0.225194
  20 H :    0.094046
  21 H :    0.110206
  22 H :    0.119289
  23 H :    0.100179
  24 H :    0.117250
  25 H :    0.123089
  26 H :    0.139449
  27 H :    0.094447
  28 H :    0.199401
  29 H :    0.200082
  30 H :    0.151394
  31 H :    0.154689
  32 H :    0.164266
  33 H :    0.134489
  34 H :    0.241952
  35 H :    0.166420
Sum of atomic charges:   -0.0000000

LOEWDIN ATOMIC CHARGES
----------------------
   0 C :    0.104476
   1 C :   -0.011833
   2 O :    0.284825
   3 C :   -0.426970
   4 O :    0.125554
   5 C :   -0.103015
   6 C :   -0.059288
   7 C :    0.129680
   8 N :    0.407616
   9 C :   -0.457628
  10 S :   -0.033740
  11 N :    0.395494
  12 C :   -0.054523
  13 C :   -0.043830
  14 C :    0.020033
  15 C :    0.042936
  16 C :    0.000482
  17 C :   -0.192514
  18 O :    0.396615
  19 C :    0.032678
  20 H :   -0.033097
  21 H :   -0.022538
  22 H :   -0.022930
  23 H :   -0.035703
  24 H :   -0.023610
  25 H :   -0.007520
  26 H :   -0.003946
  27 H :   -0.022772
  28 H :   -0.056356
  29 H :   -0.063695
  30 H :   -0.011115
  31 H :   -0.026525
  32 H :   -0.018941
  33 H :   -0.033685
  34 H :   -0.152397
  35 H :   -0.022218

  Mayer bond orders larger than 0.100000
B(  0-C ,  1-C ) :   0.9678 B(  0-C , 20-H ) :   0.9734 B(  0-C , 21-H ) :   0.9763
B(  0-C , 22-H ) :   0.9724 B(  1-C ,  2-O ) :   0.8961 B(  1-C , 23-H ) :   0.9657
B(  1-C , 24-H ) :   0.9829 B(  2-O ,  3-C ) :   1.1087 B(  3-C ,  4-O ) :   2.0684
B(  3-C ,  5-C ) :   1.0250 B(  5-C ,  6-C ) :   1.6287 B(  5-C , 12-C ) :   0.9697
B(  6-C ,  7-C ) :   0.9620 B(  6-C ,  8-N ) :   1.1517 B(  7-C , 25-H ) :   0.9694
B(  7-C , 26-H ) :   0.9546 B(  7-C , 27-H ) :   0.9867 B(  8-N ,  9-C ) :   1.1881
B(  8-N , 28-H ) :   0.9477 B(  9-C , 10-S ) :   1.6120 B(  9-C , 11-N ) :   1.3024
B( 11-N , 12-C ) :   0.9716 B( 11-N , 29-H ) :   0.9486 B( 12-C , 13-C ) :   0.9596
B( 12-C , 30-H ) :   1.0045 B( 13-C , 14-C ) :   1.3600 B( 13-C , 19-C ) :   1.3706
B( 14-C , 15-C ) :   1.3941 B( 14-C , 31-H ) :   0.9703 B( 15-C , 16-C ) :   1.3602
B( 15-C , 32-H ) :   0.9700 B( 16-C , 17-C ) :   1.3300 B( 16-C , 33-H ) :   0.9837
B( 17-C , 18-O ) :   1.1082 B( 17-C , 19-C ) :   1.3664 B( 18-O , 34-H ) :   0.9785
B( 19-C , 35-H ) :   0.9604

MP2 TOTAL ENERGY:    -1274.321644580 Eh
FINAL SINGLE POINT ENERGY     -1274.321644580124

DIPOLE MOMENT
-------------
                                X             Y             Z
Electronic contribution:      9.49811       7.76790       6.97087
Nuclear contribution   :    -10.74580      -9.38821      -6.69154
                        -----------------------------------------
Total Dipole Moment    :     -1.24769      -1.62031       0.27933
                        -----------------------------------------
Magnitude (a.u.)       :      2.06401
Magnitude (Debye)      :      5.24631

Rotational constants in cm-1:     0.012002     0.009074     0.006280
Rotational constants in MHz :   359.814725   272.042582   188.260146

                             ****ORCA TERMINATED NORMALLY****
TOTAL RUN TIME: 0 days 1 hours 48 minutes 32 seconds 992 msec
