                         Program Version 4.2.0 -  RELEASE  -
|  1> ! ri-mp2 cc-pvtz cc-pvtz/c TightSCF NoKeepInts
|  2>
|  3> %scf
|  4>   MaxCore 4096
|  5> end
|  6> *xyz  0  1
|  7>     C       14.5946098   15.6016044   16.2570881
|  8>     C       14.9760460   16.3665813   14.9741894
|  9>     O       16.3676002   16.1384965   14.6597723
| 10>     C       17.4171271   16.4853113   15.4740012
| 11>     O       18.4511038   15.8431957   15.4629455
| 12>     C       17.2064934   17.6269459   16.4191375
| 13>     C       16.9158165   18.8643601   15.9428042
| 14>     C       16.5758668   19.2534566   14.5162795
| 15>     N       17.0339074   19.9915040   16.7584140
| 16>     C       17.6934808   20.0065572   17.9584123
| 17>     S       17.9155470   21.4039836   18.8139971
| 18>     N       18.1893805   18.8040229   18.3962092
| 19>     C       17.9082481   17.4941212   17.7756701
| 20>     C       17.2594122   16.4770863   18.7036365
| 21>     C       17.6681814   15.1316727   18.6724460
| 22>     C       17.0602364   14.1804124   19.5083322
| 23>     C       16.0339560   14.5777537   20.3823300
| 24>     C       15.6226565   15.9172401   20.4139143
| 25>     O       14.6255501   16.3017260   21.2496653
| 26>     C       16.2288204   16.8623471   19.5798746
| 27>     H       15.0100797   16.0800998   17.1489353
| 28>     H       14.9578791   14.5666609   16.2167693
| 29>     H       13.5045526   15.5744972   16.3747675
| 30>     H       14.3648555   15.9901653   14.1435666
| 31>     H       14.7467736   17.4297184   15.0979200
| 32>     H       16.8541331   18.4820270   13.7885985
| 33>     H       17.1198355   20.1585482   14.2161951
| 34>     H       15.5049257   19.4592652   14.4030039
| 35>     H       16.7141118   20.8883219   16.4277200
| 36>     H       18.6742173   18.8397133   19.2843168
| 37>     H       18.9357640   17.1763624   17.5431413
| 38>     H       18.4555678   14.8209401   17.9883732
| 39>     H       17.3838057   13.1414118   19.4734998
| 40>     H       15.5608825   13.8456325   21.0284604
| 41>     H       14.3649749   15.5254429   21.7680653
| 42>     H       15.8906007   17.8928139   19.6155479
| 43> *
| 44>
| 45>                          ****END OF INPUT****

CARTESIAN COORDINATES (ANGSTROEM)
---------------------------------
  C     14.594610   15.601604   16.257088
  C     14.976046   16.366581   14.974189
  O     16.367600   16.138496   14.659772
  C     17.417127   16.485311   15.474001
  O     18.451104   15.843196   15.462945
  C     17.206493   17.626946   16.419138
  C     16.915816   18.864360   15.942804
  C     16.575867   19.253457   14.516279
  N     17.033907   19.991504   16.758414
  C     17.693481   20.006557   17.958412
  S     17.915547   21.403984   18.813997
  N     18.189380   18.804023   18.396209
  C     17.908248   17.494121   17.775670
  C     17.259412   16.477086   18.703637
  C     17.668181   15.131673   18.672446
  C     17.060236   14.180412   19.508332
  C     16.033956   14.577754   20.382330
  C     15.622656   15.917240   20.413914
  O     14.625550   16.301726   21.249665
  C     16.228820   16.862347   19.579875
  H     15.010080   16.080100   17.148935
  H     14.957879   14.566661   16.216769
  H     13.504553   15.574497   16.374768
  H     14.364856   15.990165   14.143567
  H     14.746774   17.429718   15.097920
  H     16.854133   18.482027   13.788599
  H     17.119836   20.158548   14.216195
  H     15.504926   19.459265   14.403004
  H     16.714112   20.888322   16.427720
  H     18.674217   18.839713   19.284317
  H     18.935764   17.176362   17.543141
  H     18.455568   14.820940   17.988373
  H     17.383806   13.141412   19.473500
  H     15.560882   13.845632   21.028460
  H     14.364975   15.525443   21.768065
  H     15.890601   17.892814   19.615548

 Total Charge           Charge          ....    0
 Multiplicity           Mult            ....    1
 Number of Electrons    NEL             ....  154
 Basis Dimension        Dim             ....  828

ORBITAL ENERGIES
----------------

  NO   OCC          E(Eh)            E(eV)
   0   2.0000     -91.890281     -2500.4617
   1   2.0000     -20.600973      -560.5810
   2   2.0000     -20.598825      -560.5225
   3   2.0000     -20.550789      -559.2154
   4   2.0000     -15.628567      -425.2749
   5   2.0000     -15.609569      -424.7580
   6   2.0000     -11.400224      -310.2159
   7   2.0000     -11.385871      -309.8253
   8   2.0000     -11.336738      -308.4883
   9   2.0000     -11.316183      -307.9290
  10   2.0000     -11.310086      -307.7631
  11   2.0000     -11.308587      -307.7223
  12   2.0000     -11.267058      -306.5922
  13   2.0000     -11.266218      -306.5694
  14   2.0000     -11.263855      -306.5051
  15   2.0000     -11.256414      -306.3026
  16   2.0000     -11.245257      -305.9990
  17   2.0000     -11.241097      -305.8858
  18   2.0000     -11.237777      -305.7955
  19   2.0000     -11.229250      -305.5634
  20   2.0000      -8.895382      -242.0557
  21   2.0000      -6.576963      -178.9683
  22   2.0000      -6.574951      -178.9135
  23   2.0000      -6.574367      -178.8976
  24   2.0000      -1.447977       -39.4015
  25   2.0000      -1.418571       -38.6013
  26   2.0000      -1.361297       -37.0428
  27   2.0000      -1.342073       -36.5197
  28   2.0000      -1.240046       -33.7434
  29   2.0000      -1.160303       -31.5735
  30   2.0000      -1.125957       -30.6388
  31   2.0000      -1.047793       -28.5119
  32   2.0000      -1.037030       -28.2190
  33   2.0000      -1.018570       -27.7167
  34   2.0000      -1.006403       -27.3856
  35   2.0000      -0.990070       -26.9412
  36   2.0000      -0.926685       -25.2164
  37   2.0000      -0.895663       -24.3722
  38   2.0000      -0.854347       -23.2480
  39   2.0000      -0.841755       -22.9053
  40   2.0000      -0.835657       -22.7394
  41   2.0000      -0.831510       -22.6265
  42   2.0000      -0.747212       -20.3327
  43   2.0000      -0.739362       -20.1191
  44   2.0000      -0.731649       -19.9092
  45   2.0000      -0.696124       -18.9425
  46   2.0000      -0.688503       -18.7351
  47   2.0000      -0.682445       -18.5703
  48   2.0000      -0.675275       -18.3752
  49   2.0000      -0.662227       -18.0201
  50   2.0000      -0.655354       -17.8331
  51   2.0000      -0.646985       -17.6054
  52   2.0000      -0.638095       -17.3634
  53   2.0000      -0.621795       -16.9199
  54   2.0000      -0.611450       -16.6384
  55   2.0000      -0.606283       -16.4978
  56   2.0000      -0.602153       -16.3854
  57   2.0000      -0.586624       -15.9628
  58   2.0000      -0.576263       -15.6809
  59   2.0000      -0.566075       -15.4037
  60   2.0000      -0.563973       -15.3465
  61   2.0000      -0.551852       -15.0167
  62   2.0000      -0.542143       -14.7525
  63   2.0000      -0.536846       -14.6083
  64   2.0000      -0.520810       -14.1720
  65   2.0000      -0.512311       -13.9407
  66   2.0000      -0.502891       -13.6844
  67   2.0000      -0.500976       -13.6323
  68   2.0000      -0.484373       -13.1805
  69   2.0000      -0.468515       -12.7489
  70   2.0000      -0.457283       -12.4433
  71   2.0000      -0.450245       -12.2518
  72   2.0000      -0.358227        -9.7479
  73   2.0000      -0.350222        -9.5300
  74   2.0000      -0.329767        -8.9734
  75   2.0000      -0.323908        -8.8140
  76   2.0000      -0.320609        -8.7242
  77   0.0000       0.082556         2.2465
  78   0.0000       0.104699         2.8490
  79   0.0000       0.116516         3.1705
  80   0.0000       0.128144         3.4870
  81   0.0000       0.130448         3.5497

MULLIKEN ATOMIC CHARGES
-----------------------
   0 C :   -0.310010
   1 C :    0.032991
   2 O :   -0.334672
   3 C :    0.444378
   4 O :   -0.381821
   5 C :   -0.231545
   6 C :    0.139990
   7 C :   -0.329740
   8 N :   -0.138540
   9 C :    0.207432
  10 S :   -0.442076
  11 N :   -0.227411
  12 C :    0.074483
  13 C :   -0.003053
  14 C :   -0.208059
  15 C :   -0.136710
  16 C :   -0.270157
  17 C :    0.315168
  18 O :   -0.356634
  19 C :   -0.240395
  20 H :    0.115803
  21 H :    0.114019
  22 H :    0.104014
  23 H :    0.124286
  24 H :    0.081847
  25 H :    0.138923
  26 H :    0.130891
  27 H :    0.123436
  28 H :    0.197533
  29 H :    0.204698
  30 H :    0.167490
  31 H :    0.180508
  32 H :    0.164736
  33 H :    0.132303
  34 H :    0.241011
  35 H :    0.174884
Sum of atomic charges:   -0.0000000

LOEWDIN ATOMIC CHARGES
----------------------
   0 C :    0.108320
   1 C :   -0.021147
   2 O :    0.299891
   3 C :   -0.415162
   4 O :    0.121457
   5 C :   -0.085606
   6 C :   -0.087107
   7 C :    0.124567
   8 N :    0.403244
   9 C :   -0.458517
  10 S :   -0.037483
  11 N :    0.396528
  12 C :   -0.047953
  13 C :   -0.044739
  14 C :    0.020974
  15 C :    0.044889
  16 C :   -0.000131
  17 C :   -0.191624
  18 O :    0.395566
  19 C :    0.026281
  20 H :   -0.031437
  21 H :   -0.021869
  22 H :   -0.025177
  23 H :   -0.020591
  24 H :   -0.039338
  25 H :   -0.008119
  26 H :   -0.010897
  27 H :   -0.018577
  28 H :   -0.056753
  29 H :   -0.063170
  30 H :   -0.004213
  31 H :   -0.021521
  32 H :   -0.018599
  33 H :   -0.034851
  34 H :   -0.153283
  35 H :   -0.023853

  Mayer bond orders larger than 0.100000
B(  0-C ,  1-C ) :   0.9659 B(  0-C , 20-H ) :   0.9667 B(  0-C , 21-H ) :   0.9741
B(  0-C , 22-H ) :   0.9772 B(  1-C ,  2-O ) :   0.8990 B(  1-C , 23-H ) :   0.9816
B(  1-C , 24-H ) :   0.9688 B(  2-O ,  3-C ) :   1.1558 B(  3-C ,  4-O ) :   2.0821
B(  3-C ,  5-C ) :   0.9316 B(  5-C ,  6-C ) :   1.7165 B(  5-C , 12-C ) :   0.9339
B(  6-C ,  7-C ) :   0.9335 B(  6-C ,  8-N ) :   1.1107 B(  7-C , 25-H ) :   0.9728
B(  7-C , 26-H ) :   0.9770 B(  7-C , 27-H ) :   0.9659 B(  8-N ,  9-C ) :   1.1959
B(  8-N , 28-H ) :   0.9509 B(  9-C , 10-S ) :   1.6100 B(  9-C , 11-N ) :   1.2932
B( 11-N , 12-C ) :   0.9776 B( 11-N , 29-H ) :   0.9469 B( 12-C , 13-C ) :   0.9744
B( 12-C , 30-H ) :   0.9895 B( 13-C , 14-C ) :   1.3904 B( 13-C , 19-C ) :   1.3446
B( 14-C , 15-C ) :   1.3973 B( 14-C , 31-H ) :   0.9563 B( 15-C , 16-C ) :   1.3592
B( 15-C , 32-H ) :   0.9698 B( 16-C , 17-C ) :   1.3327 B( 16-C , 33-H ) :   0.9843
B( 17-C , 18-O ) :   1.1091 B( 17-C , 19-C ) :   1.3624 B( 18-O , 34-H ) :   0.9795
B( 19-C , 35-H ) :   0.9583

MP2 TOTAL ENERGY:    -1274.330092623 Eh
FINAL SINGLE POINT ENERGY     -1274.330092623335

DIPOLE MOMENT
-------------
                                X             Y             Z
Electronic contribution:      8.89015       7.48231       6.72314
Nuclear contribution   :    -10.53463      -8.56054      -7.23715
                        -----------------------------------------
Total Dipole Moment    :     -1.64448      -1.07823      -0.51401
                        -----------------------------------------
Magnitude (a.u.)       :      2.03251
Magnitude (Debye)      :      5.16624

Rotational constants in cm-1:     0.011484     0.009285     0.006358
Rotational constants in MHz :   344.284256   278.349485   190.613128

                             ****ORCA TERMINATED NORMALLY****
TOTAL RUN TIME: 0 days 2 hours 10 minutes 32 seconds 44 msec
