                         Program Version 4.2.0 -  RELEASE  -
|  1> ! ri-mp2 cc-pvtz cc-pvtz/c TightSCF NoKeepInts
|  2>
|  3> %scf
|  4>   MaxCore 4096
|  5> end
|  6> *xyz  0  1
|  7>     C       14.7835671   14.2510995   15.6208228
|  8>     C       15.0826694   15.7073841   16.0111794
|  9>     O       16.3595331   16.0476194   15.4424028
| 10>     C       16.5986084   17.3638965   15.1914225
| 11>     O       16.4578518   17.8053863   14.0660776
| 12>     C       16.9398469   18.1845314   16.4074857
| 13>     C       16.9265615   19.5402243   16.3235971
| 14>     C       16.2402155   20.3828912   15.2682415
| 15>     N       17.5696063   20.3321442   17.2768894
| 16>     C       18.4526109   19.8538219   18.2058617
| 17>     S       19.2796957   20.8564183   19.2283348
| 18>     N       18.6350102   18.4945850   18.2278986
| 19>     C       17.8439683   17.5134388   17.4604444
| 20>     C       17.1881843   16.4770909   18.3597879
| 21>     C       17.5479953   15.1195052   18.2724227
| 22>     C       16.9385840   14.1658877   19.1049541
| 23>     C       15.9691490   14.5746756   20.0369868
| 24>     C       15.6182703   15.9283187   20.1338751
| 25>     O       14.6817945   16.3256241   21.0311610
| 26>     C       16.2236459   16.8751199   19.3014390
| 27>     H       13.8005252   13.9448095   15.9982255
| 28>     H       15.5393711   13.5771932   16.0429139
| 29>     H       14.7858481   14.1351718   14.5296082
| 30>     H       14.2984572   16.3496052   15.5871187
| 31>     H       15.0682469   15.8223961   17.0993932
| 32>     H       15.2693080   19.9526161   14.9922965
| 33>     H       16.8491763   20.4267249   14.3557817
| 34>     H       16.0547009   21.4115038   15.5994884
| 35>     H       17.4724975   21.3345604   17.2435751
| 36>     H       19.2786783   18.1684122   18.9380931
| 37>     H       18.6545935   17.0499376   16.8798766
| 38>     H       18.2925546   14.8010256   17.5469995
| 39>     H       17.2183994   13.1165187   19.0264482
| 40>     H       15.4965884   13.8412502   20.6823619
| 41>     H       14.4263106   15.5487688   21.5515179
| 42>     H       15.9443756   17.9198430   19.3930166
| 43> *
| 44>
| 45>                          ****END OF INPUT****

CARTESIAN COORDINATES (ANGSTROEM)
---------------------------------
  C     14.783567   14.251100   15.620823
  C     15.082669   15.707384   16.011179
  O     16.359533   16.047619   15.442403
  C     16.598608   17.363896   15.191422
  O     16.457852   17.805386   14.066078
  C     16.939847   18.184531   16.407486
  C     16.926561   19.540224   16.323597
  C     16.240216   20.382891   15.268241
  N     17.569606   20.332144   17.276889
  C     18.452611   19.853822   18.205862
  S     19.279696   20.856418   19.228335
  N     18.635010   18.494585   18.227899
  C     17.843968   17.513439   17.460444
  C     17.188184   16.477091   18.359788
  C     17.547995   15.119505   18.272423
  C     16.938584   14.165888   19.104954
  C     15.969149   14.574676   20.036987
  C     15.618270   15.928319   20.133875
  O     14.681795   16.325624   21.031161
  C     16.223646   16.875120   19.301439
  H     13.800525   13.944809   15.998225
  H     15.539371   13.577193   16.042914
  H     14.785848   14.135172   14.529608
  H     14.298457   16.349605   15.587119
  H     15.068247   15.822396   17.099393
  H     15.269308   19.952616   14.992297
  H     16.849176   20.426725   14.355782
  H     16.054701   21.411504   15.599488
  H     17.472497   21.334560   17.243575
  H     19.278678   18.168412   18.938093
  H     18.654594   17.049938   16.879877
  H     18.292555   14.801026   17.546999
  H     17.218399   13.116519   19.026448
  H     15.496588   13.841250   20.682362
  H     14.426311   15.548769   21.551518
  H     15.944376   17.919843   19.393017

 Total Charge           Charge          ....    0
 Multiplicity           Mult            ....    1
 Number of Electrons    NEL             ....  154
 Basis Dimension        Dim             ....  828

ORBITAL ENERGIES
----------------

  NO   OCC          E(Eh)            E(eV)
   0   2.0000     -91.891610     -2500.4978
   1   2.0000     -20.602724      -560.6286
   2   2.0000     -20.583260      -560.0990
   3   2.0000     -20.549603      -559.1831
   4   2.0000     -15.631043      -425.3423
   5   2.0000     -15.610233      -424.7760
   6   2.0000     -11.391743      -309.9851
   7   2.0000     -11.385960      -309.8277
   8   2.0000     -11.338304      -308.5309
   9   2.0000     -11.320815      -308.0550
  10   2.0000     -11.313695      -307.8613
  11   2.0000     -11.295879      -307.3765
  12   2.0000     -11.266873      -306.5872
  13   2.0000     -11.261855      -306.4507
  14   2.0000     -11.258874      -306.3695
  15   2.0000     -11.254084      -306.2392
  16   2.0000     -11.250872      -306.1518
  17   2.0000     -11.245534      -306.0065
  18   2.0000     -11.244878      -305.9887
  19   2.0000     -11.226592      -305.4911
  20   2.0000      -8.896657      -242.0903
  21   2.0000      -6.578222      -179.0025
  22   2.0000      -6.576231      -178.9483
  23   2.0000      -6.575632      -178.9320
  24   2.0000      -1.448118       -39.4053
  25   2.0000      -1.422509       -38.7084
  26   2.0000      -1.355588       -36.8874
  27   2.0000      -1.343195       -36.5502
  28   2.0000      -1.241659       -33.7873
  29   2.0000      -1.163934       -31.6723
  30   2.0000      -1.123293       -30.5664
  31   2.0000      -1.048246       -28.5242
  32   2.0000      -1.034376       -28.1468
  33   2.0000      -1.021974       -27.8093
  34   2.0000      -1.000442       -27.2234
  35   2.0000      -0.988038       -26.8859
  36   2.0000      -0.926099       -25.2004
  37   2.0000      -0.875296       -23.8180
  38   2.0000      -0.850729       -23.1495
  39   2.0000      -0.843515       -22.9532
  40   2.0000      -0.840819       -22.8799
  41   2.0000      -0.834146       -22.6983
  42   2.0000      -0.762362       -20.7449
  43   2.0000      -0.738744       -20.1023
  44   2.0000      -0.725793       -19.7498
  45   2.0000      -0.701167       -19.0797
  46   2.0000      -0.690933       -18.8012
  47   2.0000      -0.679963       -18.5027
  48   2.0000      -0.674043       -18.3416
  49   2.0000      -0.657186       -17.8829
  50   2.0000      -0.649044       -17.6614
  51   2.0000      -0.645355       -17.5610
  52   2.0000      -0.639750       -17.4085
  53   2.0000      -0.614558       -16.7230
  54   2.0000      -0.610583       -16.6148
  55   2.0000      -0.604366       -16.4456
  56   2.0000      -0.601160       -16.3584
  57   2.0000      -0.581844       -15.8328
  58   2.0000      -0.573566       -15.6075
  59   2.0000      -0.566611       -15.4183
  60   2.0000      -0.556322       -15.1383
  61   2.0000      -0.546315       -14.8660
  62   2.0000      -0.540080       -14.6963
  63   2.0000      -0.528860       -14.3910
  64   2.0000      -0.517627       -14.0854
  65   2.0000      -0.513959       -13.9855
  66   2.0000      -0.505009       -13.7420
  67   2.0000      -0.499400       -13.5894
  68   2.0000      -0.484478       -13.1833
  69   2.0000      -0.467938       -12.7332
  70   2.0000      -0.458907       -12.4875
  71   2.0000      -0.447900       -12.1880
  72   2.0000      -0.356760        -9.7079
  73   2.0000      -0.354222        -9.6389
  74   2.0000      -0.331084        -9.0093
  75   2.0000      -0.328125        -8.9287
  76   2.0000      -0.321400        -8.7457
  77   0.0000       0.072412         1.9704
  78   0.0000       0.097969         2.6659
  79   0.0000       0.121979         3.3192
  80   0.0000       0.128018         3.4835
  81   0.0000       0.129403         3.5212

MULLIKEN ATOMIC CHARGES
-----------------------
   0 C :   -0.261862
   1 C :    0.014285
   2 O :   -0.359907
   3 C :    0.439102
   4 O :   -0.378544
   5 C :   -0.257339
   6 C :    0.172117
   7 C :   -0.267477
   8 N :   -0.128320
   9 C :    0.207720
  10 S :   -0.437028
  11 N :   -0.208425
  12 C :    0.043363
  13 C :   -0.019780
  14 C :   -0.145529
  15 C :   -0.146015
  16 C :   -0.267022
  17 C :    0.301325
  18 O :   -0.356326
  19 C :   -0.226163
  20 H :    0.087209
  21 H :    0.092806
  22 H :    0.108107
  23 H :    0.100119
  24 H :    0.119183
  25 H :    0.124027
  26 H :    0.137554
  27 H :    0.094453
  28 H :    0.200165
  29 H :    0.199990
  30 H :    0.152280
  31 H :    0.155182
  32 H :    0.166936
  33 H :    0.134669
  34 H :    0.241486
  35 H :    0.167661
Sum of atomic charges:   -0.0000000

LOEWDIN ATOMIC CHARGES
----------------------
   0 C :    0.110798
   1 C :   -0.021210
   2 O :    0.297248
   3 C :   -0.428980
   4 O :    0.125211
   5 C :   -0.104082
   6 C :   -0.057427
   7 C :    0.129993
   8 N :    0.407586
   9 C :   -0.458056
  10 S :   -0.032774
  11 N :    0.395401
  12 C :   -0.053905
  13 C :   -0.044428
  14 C :    0.020857
  15 C :    0.042944
  16 C :    0.000599
  17 C :   -0.192530
  18 O :    0.396557
  19 C :    0.031859
  20 H :   -0.026235
  21 H :   -0.029430
  22 H :   -0.023365
  23 H :   -0.031963
  24 H :   -0.035739
  25 H :   -0.006453
  26 H :   -0.004064
  27 H :   -0.022763
  28 H :   -0.056288
  29 H :   -0.063392
  30 H :   -0.011600
  31 H :   -0.026801
  32 H :   -0.019434
  33 H :   -0.033800
  34 H :   -0.152569
  35 H :   -0.021766

  Mayer bond orders larger than 0.100000
B(  0-C ,  1-C ) :   0.9833 B(  0-C , 20-H ) :   0.9761 B(  0-C , 21-H ) :   0.9784
B(  0-C , 22-H ) :   0.9781 B(  1-C ,  2-O ) :   0.8800 B(  1-C , 23-H ) :   0.9784
B(  1-C , 24-H ) :   0.9621 B(  2-O ,  3-C ) :   1.1250 B(  3-C ,  4-O ) :   2.0861
B(  3-C ,  5-C ) :   1.0167 B(  5-C ,  6-C ) :   1.6370 B(  5-C , 12-C ) :   0.9603
B(  6-C ,  7-C ) :   0.9637 B(  6-C ,  8-N ) :   1.1500 B(  7-C , 25-H ) :   0.9691
B(  7-C , 26-H ) :   0.9541 B(  7-C , 27-H ) :   0.9871 B(  8-N ,  9-C ) :   1.1875
B(  8-N , 28-H ) :   0.9474 B(  9-C , 10-S ) :   1.6145 B(  9-C , 11-N ) :   1.3005
B( 11-N , 12-C ) :   0.9753 B( 11-N , 29-H ) :   0.9483 B( 12-C , 13-C ) :   0.9612
B( 12-C , 30-H ) :   1.0057 B( 13-C , 14-C ) :   1.3656 B( 13-C , 19-C ) :   1.3693
B( 14-C , 15-C ) :   1.3893 B( 14-C , 31-H ) :   0.9698 B( 15-C , 16-C ) :   1.3597
B( 15-C , 32-H ) :   0.9688 B( 16-C , 17-C ) :   1.3318 B( 16-C , 33-H ) :   0.9834
B( 17-C , 18-O ) :   1.1086 B( 17-C , 19-C ) :   1.3661 B( 18-O , 34-H ) :   0.9788
B( 19-C , 35-H ) :   0.9596

MP2 TOTAL ENERGY:    -1274.324512564 Eh
FINAL SINGLE POINT ENERGY     -1274.324512564340

DIPOLE MOMENT
-------------
                                X             Y             Z
Electronic contribution:      9.78532      10.57678       6.40942
Nuclear contribution   :    -11.09432     -12.06088      -6.12629
                        -----------------------------------------
Total Dipole Moment    :     -1.30900      -1.48410       0.28313
                        -----------------------------------------
Magnitude (a.u.)       :      1.99905
Magnitude (Debye)      :      5.08117

Rotational constants in cm-1:     0.012345     0.008689     0.005951
Rotational constants in MHz :   370.106690   260.492615   178.408989

                             ****ORCA TERMINATED NORMALLY****
TOTAL RUN TIME: 0 days 1 hours 46 minutes 46 seconds 861 msec
