                         Program Version 4.2.0 -  RELEASE  -
|  1> ! ri-mp2 cc-pvtz cc-pvtz/c TightSCF NoKeepInts
|  2>
|  3> %scf
|  4>   MaxCore 4096
|  5> end
|  6> *xyz  0  1
|  7>     C       14.4270259   16.1218503   15.5836908
|  8>     C       15.5782827   15.1789322   16.0003073
|  9>     O       16.8618284   15.6155733   15.4890343
| 10>     C       17.1464404   16.9242377   15.2155839
| 11>     O       17.3945730   17.2663934   14.0739039
| 12>     C       17.1032860   17.8684406   16.3857323
| 13>     C       16.9170455   19.1919648   16.1500467
| 14>     C       16.3377436   19.8149698   14.8968391
| 15>     N       17.2395447   20.1536147   17.1089259
| 16>     C       17.9840571   19.9006311   18.2285946
| 17>     S       18.4437971   21.1028251   19.2669547
| 18>     N       18.3519754   18.5946282   18.4320449
| 19>     C       17.8732144   17.4394545   17.6480334
| 20>     C       17.2184793   16.3838874   18.5223704
| 21>     C       17.7978228   15.1095043   18.6647827
| 22>     C       17.1909548   14.1391955   19.4799426
| 23>     C       16.0013953   14.4488092   20.1620052
| 24>     C       15.4293961   15.7217722   20.0299467
| 25>     O       14.2802807   16.0227076   20.6848065
| 26>     C       16.0338266   16.6851010   19.2161578
| 27>     H       14.4813910   17.0823757   16.1094984
| 28>     H       13.4606476   15.6662370   15.8319525
| 29>     H       14.4436716   16.3063048   14.5016448
| 30>     H       15.5909980   15.0922741   17.0897350
| 31>     H       15.3754862   14.1739666   15.6082564
| 32>     H       15.5651065   19.1723045   14.4567060
| 33>     H       17.1207008   19.9481214   14.1387226
| 34>     H       15.8774177   20.7921689   15.0848710
| 35>     H       17.0113901   21.1214340   16.9455943
| 36>     H       18.8866742   18.4355134   19.2769083
| 37>     H       18.8387631   17.0705387   17.2729456
| 38>     H       18.7155987   14.8673894   18.1345024
| 39>     H       17.6429101   13.1536815   19.5817267
| 40>     H       15.5301435   13.7020700   20.7929971
| 41>     H       14.0530784   15.2630835   21.2424788
| 42>     H       15.5820525   17.6680438   19.1297563
| 43> *
| 44>
| 45>                          ****END OF INPUT****

CARTESIAN COORDINATES (ANGSTROEM)
---------------------------------
  C     14.427026   16.121850   15.583691
  C     15.578283   15.178932   16.000307
  O     16.861828   15.615573   15.489034
  C     17.146440   16.924238   15.215584
  O     17.394573   17.266393   14.073904
  C     17.103286   17.868441   16.385732
  C     16.917046   19.191965   16.150047
  C     16.337744   19.814970   14.896839
  N     17.239545   20.153615   17.108926
  C     17.984057   19.900631   18.228595
  S     18.443797   21.102825   19.266955
  N     18.351975   18.594628   18.432045
  C     17.873214   17.439455   17.648033
  C     17.218479   16.383887   18.522370
  C     17.797823   15.109504   18.664783
  C     17.190955   14.139195   19.479943
  C     16.001395   14.448809   20.162005
  C     15.429396   15.721772   20.029947
  O     14.280281   16.022708   20.684807
  C     16.033827   16.685101   19.216158
  H     14.481391   17.082376   16.109498
  H     13.460648   15.666237   15.831952
  H     14.443672   16.306305   14.501645
  H     15.590998   15.092274   17.089735
  H     15.375486   14.173967   15.608256
  H     15.565107   19.172304   14.456706
  H     17.120701   19.948121   14.138723
  H     15.877418   20.792169   15.084871
  H     17.011390   21.121434   16.945594
  H     18.886674   18.435513   19.276908
  H     18.838763   17.070539   17.272946
  H     18.715599   14.867389   18.134502
  H     17.642910   13.153681   19.581727
  H     15.530143   13.702070   20.792997
  H     14.053078   15.263084   21.242479
  H     15.582052   17.668044   19.129756

 Total Charge           Charge          ....    0
 Multiplicity           Mult            ....    1
 Number of Electrons    NEL             ....  154
 Basis Dimension        Dim             ....  828

ORBITAL ENERGIES
----------------

  NO   OCC          E(Eh)            E(eV)
   0   2.0000     -91.890872     -2500.4778
   1   2.0000     -20.604280      -560.6710
   2   2.0000     -20.583783      -560.1132
   3   2.0000     -20.549428      -559.1784
   4   2.0000     -15.629366      -425.2967
   5   2.0000     -15.610112      -424.7727
   6   2.0000     -11.393263      -310.0264
   7   2.0000     -11.385437      -309.8135
   8   2.0000     -11.334726      -308.4336
   9   2.0000     -11.322496      -308.1008
  10   2.0000     -11.314573      -307.8852
  11   2.0000     -11.298376      -307.4444
  12   2.0000     -11.268076      -306.6199
  13   2.0000     -11.263374      -306.4920
  14   2.0000     -11.257580      -306.3343
  15   2.0000     -11.254218      -306.2428
  16   2.0000     -11.252550      -306.1974
  17   2.0000     -11.247014      -306.0468
  18   2.0000     -11.246501      -306.0328
  19   2.0000     -11.232007      -305.6384
  20   2.0000      -8.895929      -242.0705
  21   2.0000      -6.577497      -178.9828
  22   2.0000      -6.575503      -178.9285
  23   2.0000      -6.574908      -178.9123
  24   2.0000      -1.442140       -39.2426
  25   2.0000      -1.424054       -38.7505
  26   2.0000      -1.352961       -36.8159
  27   2.0000      -1.342091       -36.5202
  28   2.0000      -1.241068       -33.7712
  29   2.0000      -1.165440       -31.7132
  30   2.0000      -1.123440       -30.5704
  31   2.0000      -1.049477       -28.5577
  32   2.0000      -1.032310       -28.0906
  33   2.0000      -1.023324       -27.8461
  34   2.0000      -1.002534       -27.2803
  35   2.0000      -0.988688       -26.9036
  36   2.0000      -0.926469       -25.2105
  37   2.0000      -0.896308       -24.3898
  38   2.0000      -0.850164       -23.1341
  39   2.0000      -0.844579       -22.9822
  40   2.0000      -0.842258       -22.9190
  41   2.0000      -0.826128       -22.4801
  42   2.0000      -0.748987       -20.3810
  43   2.0000      -0.739004       -20.1093
  44   2.0000      -0.716913       -19.5082
  45   2.0000      -0.702390       -19.1130
  46   2.0000      -0.689746       -18.7689
  47   2.0000      -0.678990       -18.4763
  48   2.0000      -0.674044       -18.3417
  49   2.0000      -0.662804       -18.0358
  50   2.0000      -0.653573       -17.7846
  51   2.0000      -0.647085       -17.6081
  52   2.0000      -0.637823       -17.3560
  53   2.0000      -0.624135       -16.9836
  54   2.0000      -0.613572       -16.6962
  55   2.0000      -0.606716       -16.5096
  56   2.0000      -0.602762       -16.4020
  57   2.0000      -0.582788       -15.8585
  58   2.0000      -0.575164       -15.6510
  59   2.0000      -0.567017       -15.4293
  60   2.0000      -0.550126       -14.9697
  61   2.0000      -0.547191       -14.8898
  62   2.0000      -0.542026       -14.7493
  63   2.0000      -0.534747       -14.5512
  64   2.0000      -0.530170       -14.4267
  65   2.0000      -0.517108       -14.0712
  66   2.0000      -0.504772       -13.7355
  67   2.0000      -0.495314       -13.4782
  68   2.0000      -0.479908       -13.0590
  69   2.0000      -0.470136       -12.7931
  70   2.0000      -0.450793       -12.2667
  71   2.0000      -0.447678       -12.1819
  72   2.0000      -0.357857        -9.7378
  73   2.0000      -0.353621        -9.6225
  74   2.0000      -0.331850        -9.0301
  75   2.0000      -0.328755        -8.9459
  76   2.0000      -0.320464        -8.7203
  77   0.0000       0.075730         2.0607
  78   0.0000       0.097029         2.6403
  79   0.0000       0.121028         3.2933
  80   0.0000       0.126505         3.4424
  81   0.0000       0.129970         3.5367

MULLIKEN ATOMIC CHARGES
-----------------------
   0 C :   -0.328439
   1 C :    0.038213
   2 O :   -0.359929
   3 C :    0.451788
   4 O :   -0.375608
   5 C :   -0.282169
   6 C :    0.180488
   7 C :   -0.275785
   8 N :   -0.127987
   9 C :    0.207879
  10 S :   -0.438914
  11 N :   -0.207971
  12 C :    0.046003
  13 C :   -0.010105
  14 C :   -0.159153
  15 C :   -0.133057
  16 C :   -0.271018
  17 C :    0.302911
  18 O :   -0.356688
  19 C :   -0.229361
  20 H :    0.102221
  21 H :    0.113084
  22 H :    0.116913
  23 H :    0.100410
  24 H :    0.120480
  25 H :    0.121084
  26 H :    0.142869
  27 H :    0.095655
  28 H :    0.198931
  29 H :    0.199719
  30 H :    0.152712
  31 H :    0.154689
  32 H :    0.164524
  33 H :    0.134872
  34 H :    0.242013
  35 H :    0.168725
Sum of atomic charges:   -0.0000000

LOEWDIN ATOMIC CHARGES
----------------------
   0 C :    0.103375
   1 C :   -0.011892
   2 O :    0.288162
   3 C :   -0.426492
   4 O :    0.127936
   5 C :   -0.100159
   6 C :   -0.065191
   7 C :    0.129153
   8 N :    0.407148
   9 C :   -0.457251
  10 S :   -0.034192
  11 N :    0.395636
  12 C :   -0.054802
  13 C :   -0.045015
  14 C :    0.020396
  15 C :    0.043466
  16 C :    0.001095
  17 C :   -0.192640
  18 O :    0.396809
  19 C :    0.032989
  20 H :   -0.034844
  21 H :   -0.021895
  22 H :   -0.024569
  23 H :   -0.036022
  24 H :   -0.023106
  25 H :   -0.008577
  26 H :   -0.003879
  27 H :   -0.022239
  28 H :   -0.056503
  29 H :   -0.063651
  30 H :   -0.010825
  31 H :   -0.026241
  32 H :   -0.018642
  33 H :   -0.033439
  34 H :   -0.152275
  35 H :   -0.021823

  Mayer bond orders larger than 0.100000
B(  0-C ,  1-C ) :   0.9633 B(  0-C , 20-H ) :   0.9709 B(  0-C , 21-H ) :   0.9769
B(  0-C , 22-H ) :   0.9733 B(  1-C ,  2-O ) :   0.8990 B(  1-C , 23-H ) :   0.9655
B(  1-C , 24-H ) :   0.9838 B(  2-O ,  3-C ) :   1.1330 B(  3-C ,  4-O ) :   2.0919
B(  3-C ,  5-C ) :   0.9884 B(  5-C ,  6-C ) :   1.6459 B(  5-C , 12-C ) :   0.9704
B(  6-C ,  7-C ) :   0.9540 B(  6-C ,  8-N ) :   1.1451 B(  7-C , 25-H ) :   0.9719
B(  7-C , 26-H ) :   0.9553 B(  7-C , 27-H ) :   0.9856 B(  8-N ,  9-C ) :   1.1913
B(  8-N , 28-H ) :   0.9484 B(  9-C , 10-S ) :   1.6129 B(  9-C , 11-N ) :   1.2976
B( 11-N , 12-C ) :   0.9751 B( 11-N , 29-H ) :   0.9483 B( 12-C , 13-C ) :   0.9570
B( 12-C , 30-H ) :   1.0058 B( 13-C , 14-C ) :   1.3635 B( 13-C , 19-C ) :   1.3664
B( 14-C , 15-C ) :   1.3942 B( 14-C , 31-H ) :   0.9699 B( 15-C , 16-C ) :   1.3611
B( 15-C , 32-H ) :   0.9699 B( 16-C , 17-C ) :   1.3295 B( 16-C , 33-H ) :   0.9836
B( 17-C , 18-O ) :   1.1092 B( 17-C , 19-C ) :   1.3661 B( 18-O , 34-H ) :   0.9785
B( 19-C , 35-H ) :   0.9597

MP2 TOTAL ENERGY:    -1274.321024694 Eh
FINAL SINGLE POINT ENERGY     -1274.321024694353

DIPOLE MOMENT
-------------
                                X             Y             Z
Electronic contribution:      9.41636       7.25296       6.82015
Nuclear contribution   :    -10.75755      -8.89055      -6.51893
                        -----------------------------------------
Total Dipole Moment    :     -1.34120      -1.63759       0.30123
                        -----------------------------------------
Magnitude (a.u.)       :      2.13805
Magnitude (Debye)      :      5.43449

Rotational constants in cm-1:     0.012054     0.009111     0.006332
Rotational constants in MHz :   361.381269   273.126305   189.838440

                             ****ORCA TERMINATED NORMALLY****
TOTAL RUN TIME: 0 days 1 hours 47 minutes 5 seconds 746 msec
