                         Program Version 4.2.0 -  RELEASE  -
|  1> ! ri-mp2 cc-pvtz cc-pvtz/c TightSCF NoKeepInts
|  2>
|  3> %scf
|  4>   MaxCore 4096
|  5> end
|  6> *xyz  0  1
|  7>     C       14.6326334   16.1114252   16.2575139
|  8>     C       15.0769570   16.1022144   14.7768634
|  9>     O       16.5039295   16.2543223   14.5542926
| 10>     C       17.4576783   16.4925759   15.5102320
| 11>     O       18.4320325   15.7683138   15.6015811
| 12>     C       17.2236299   17.6325814   16.4555413
| 13>     C       16.8344988   18.8522607   16.0050954
| 14>     C       16.3873568   19.2212665   14.6047271
| 15>     N       16.8930203   19.9719873   16.8377803
| 16>     C       17.5555753   20.0079376   18.0356237
| 17>     S       17.6860449   21.4004273   18.9178937
| 18>     N       18.1262165   18.8315853   18.4531357
| 19>     C       17.9383426   17.5181763   17.8055877
| 20>     C       17.3309346   16.4580761   18.7133860
| 21>     C       17.8891433   15.1687922   18.7747576
| 22>     C       17.3179214   14.1811639   19.5943999
| 23>     C       16.1776115   14.4850878   20.3576632
| 24>     C       15.6169479   15.7681253   20.2953496
| 25>     O       14.5099066   16.0615797   21.0227053
| 26>     C       16.1876880   16.7493136   19.4784734
| 27>     H       15.2482928   15.4330999   16.8623647
| 28>     H       13.5946228   15.7656444   16.3351878
| 29>     H       14.6665722   17.1167349   16.6919050
| 30>     H       14.7722762   15.1431697   14.3376495
| 31>     H       14.5325602   16.8832369   14.2321800
| 32>     H       15.3165219   19.0329879   14.4707023
| 33>     H       16.9359276   18.6556002   13.8413351
| 34>     H       16.5660901   20.2811798   14.3837311
| 35>     H       16.5072981   20.8502284   16.5289010
| 36>     H       18.6027208   18.8818204   19.3449471
| 37>     H       18.9834759   17.2668420   17.5711096
| 38>     H       18.7627392   14.9284985   18.1721704
| 39>     H       17.7568664   13.1855131   19.6306175
| 40>     H       15.7321752   13.7242191   20.9900112
| 41>     H       14.2937273   15.2784104   21.5510484
| 42>     H       15.7370642   17.7356017   19.4415364
| 43> *
| 44>
| 45>                          ****END OF INPUT****

CARTESIAN COORDINATES (ANGSTROEM)
---------------------------------
  C     14.632633   16.111425   16.257514
  C     15.076957   16.102214   14.776863
  O     16.503930   16.254322   14.554293
  C     17.457678   16.492576   15.510232
  O     18.432032   15.768314   15.601581
  C     17.223630   17.632581   16.455541
  C     16.834499   18.852261   16.005095
  C     16.387357   19.221266   14.604727
  N     16.893020   19.971987   16.837780
  C     17.555575   20.007938   18.035624
  S     17.686045   21.400427   18.917894
  N     18.126217   18.831585   18.453136
  C     17.938343   17.518176   17.805588
  C     17.330935   16.458076   18.713386
  C     17.889143   15.168792   18.774758
  C     17.317921   14.181164   19.594400
  C     16.177612   14.485088   20.357663
  C     15.616948   15.768125   20.295350
  O     14.509907   16.061580   21.022705
  C     16.187688   16.749314   19.478473
  H     15.248293   15.433100   16.862365
  H     13.594623   15.765644   16.335188
  H     14.666572   17.116735   16.691905
  H     14.772276   15.143170   14.337649
  H     14.532560   16.883237   14.232180
  H     15.316522   19.032988   14.470702
  H     16.935928   18.655600   13.841335
  H     16.566090   20.281180   14.383731
  H     16.507298   20.850228   16.528901
  H     18.602721   18.881820   19.344947
  H     18.983476   17.266842   17.571110
  H     18.762739   14.928498   18.172170
  H     17.756866   13.185513   19.630617
  H     15.732175   13.724219   20.990011
  H     14.293727   15.278410   21.551048
  H     15.737064   17.735602   19.441536

 Total Charge           Charge          ....    0
 Multiplicity           Mult            ....    1
 Number of Electrons    NEL             ....  154
 Basis Dimension        Dim             ....  828

ORBITAL ENERGIES
----------------

  NO   OCC          E(Eh)            E(eV)
   0   2.0000     -91.889994     -2500.4539
   1   2.0000     -20.597576      -560.4885
   2   2.0000     -20.592979      -560.3634
   3   2.0000     -20.549374      -559.1769
   4   2.0000     -15.629414      -425.2980
   5   2.0000     -15.608496      -424.7288
   6   2.0000     -11.397612      -310.1448
   7   2.0000     -11.385199      -309.8070
   8   2.0000     -11.336299      -308.4764
   9   2.0000     -11.314208      -307.8753
  10   2.0000     -11.312044      -307.8164
  11   2.0000     -11.307628      -307.6962
  12   2.0000     -11.264874      -306.5328
  13   2.0000     -11.262605      -306.4710
  14   2.0000     -11.261170      -306.4320
  15   2.0000     -11.254351      -306.2465
  16   2.0000     -11.244028      -305.9656
  17   2.0000     -11.239646      -305.8463
  18   2.0000     -11.236337      -305.7563
  19   2.0000     -11.236184      -305.7521
  20   2.0000      -8.895089      -242.0477
  21   2.0000      -6.576668      -178.9602
  22   2.0000      -6.574660      -178.9056
  23   2.0000      -6.574073      -178.8896
  24   2.0000      -1.443794       -39.2876
  25   2.0000      -1.417353       -38.5681
  26   2.0000      -1.356402       -36.9096
  27   2.0000      -1.341691       -36.5093
  28   2.0000      -1.239274       -33.7224
  29   2.0000      -1.158536       -31.5254
  30   2.0000      -1.124203       -30.5911
  31   2.0000      -1.046269       -28.4704
  32   2.0000      -1.038313       -28.2539
  33   2.0000      -1.016445       -27.6589
  34   2.0000      -1.005269       -27.3548
  35   2.0000      -0.989323       -26.9208
  36   2.0000      -0.925940       -25.1961
  37   2.0000      -0.900929       -24.5155
  38   2.0000      -0.852299       -23.1922
  39   2.0000      -0.840325       -22.8664
  40   2.0000      -0.834176       -22.6991
  41   2.0000      -0.825236       -22.4558
  42   2.0000      -0.744743       -20.2655
  43   2.0000      -0.732968       -19.9451
  44   2.0000      -0.730253       -19.8712
  45   2.0000      -0.694449       -18.8969
  46   2.0000      -0.686646       -18.6846
  47   2.0000      -0.679552       -18.4915
  48   2.0000      -0.674329       -18.3494
  49   2.0000      -0.664226       -18.0745
  50   2.0000      -0.655725       -17.8432
  51   2.0000      -0.650332       -17.6964
  52   2.0000      -0.639411       -17.3993
  53   2.0000      -0.619488       -16.8571
  54   2.0000      -0.607989       -16.5442
  55   2.0000      -0.604665       -16.4538
  56   2.0000      -0.601368       -16.3641
  57   2.0000      -0.584747       -15.9118
  58   2.0000      -0.576352       -15.6833
  59   2.0000      -0.564127       -15.3507
  60   2.0000      -0.563175       -15.3248
  61   2.0000      -0.552524       -15.0349
  62   2.0000      -0.544711       -14.8224
  63   2.0000      -0.533842       -14.5266
  64   2.0000      -0.522078       -14.2065
  65   2.0000      -0.512286       -13.9400
  66   2.0000      -0.499687       -13.5972
  67   2.0000      -0.491309       -13.3692
  68   2.0000      -0.486407       -13.2358
  69   2.0000      -0.471722       -12.8362
  70   2.0000      -0.456579       -12.4242
  71   2.0000      -0.447772       -12.1845
  72   2.0000      -0.355244        -9.6667
  73   2.0000      -0.348783        -9.4909
  74   2.0000      -0.329307        -8.9609
  75   2.0000      -0.321978        -8.7615
  76   2.0000      -0.319518        -8.6945
  77   0.0000       0.077775         2.1164
  78   0.0000       0.105720         2.8768
  79   0.0000       0.116063         3.1582
  80   0.0000       0.131186         3.5697
  81   0.0000       0.133021         3.6197

MULLIKEN ATOMIC CHARGES
-----------------------
   0 C :   -0.336040
   1 C :    0.034910
   2 O :   -0.353683
   3 C :    0.444711
   4 O :   -0.380088
   5 C :   -0.256372
   6 C :    0.179455
   7 C :   -0.325060
   8 N :   -0.135256
   9 C :    0.204181
  10 S :   -0.441588
  11 N :   -0.218010
  12 C :    0.069976
  13 C :    0.009924
  14 C :   -0.197108
  15 C :   -0.131724
  16 C :   -0.278341
  17 C :    0.315361
  18 O :   -0.358036
  19 C :   -0.252395
  20 H :    0.127181
  21 H :    0.121870
  22 H :    0.110267
  23 H :    0.124965
  24 H :    0.091208
  25 H :    0.117538
  26 H :    0.145646
  27 H :    0.119845
  28 H :    0.198428
  29 H :    0.201306
  30 H :    0.163664
  31 H :    0.174565
  32 H :    0.163644
  33 H :    0.131523
  34 H :    0.241047
  35 H :    0.172487
Sum of atomic charges:   -0.0000000

LOEWDIN ATOMIC CHARGES
----------------------
   0 C :    0.103386
   1 C :   -0.013337
   2 O :    0.288282
   3 C :   -0.420372
   4 O :    0.123287
   5 C :   -0.088003
   6 C :   -0.078486
   7 C :    0.128076
   8 N :    0.404050
   9 C :   -0.458613
  10 S :   -0.037265
  11 N :    0.396490
  12 C :   -0.048029
  13 C :   -0.043749
  14 C :    0.021958
  15 C :    0.042759
  16 C :   -0.000872
  17 C :   -0.193304
  18 O :    0.394415
  19 C :    0.029755
  20 H :   -0.019944
  21 H :   -0.021287
  22 H :   -0.033787
  23 H :   -0.021498
  24 H :   -0.035122
  25 H :   -0.017430
  26 H :   -0.006170
  27 H :   -0.015023
  28 H :   -0.058088
  29 H :   -0.063250
  30 H :   -0.004999
  31 H :   -0.021472
  32 H :   -0.019143
  33 H :   -0.035117
  34 H :   -0.153701
  35 H :   -0.024398

  Mayer bond orders larger than 0.100000
B(  0-C ,  1-C ) :   0.9587 B(  0-C , 20-H ) :   0.9671 B(  0-C , 21-H ) :   0.9755
B(  0-C , 22-H ) :   0.9711 B(  1-C ,  2-O ) :   0.9040 B(  1-C , 23-H ) :   0.9814
B(  1-C , 24-H ) :   0.9768 B(  2-O ,  3-C ) :   1.1327 B(  3-C ,  4-O ) :   2.0791
B(  3-C ,  5-C ) :   0.9507 B(  5-C ,  6-C ) :   1.7023 B(  5-C , 12-C ) :   0.9420
B(  6-C ,  7-C ) :   0.9402 B(  6-C ,  8-N ) :   1.1179 B(  7-C , 25-H ) :   0.9666
B(  7-C , 26-H ) :   0.9670 B(  7-C , 27-H ) :   0.9860 B(  8-N ,  9-C ) :   1.1915
B(  8-N , 28-H ) :   0.9487 B(  9-C , 10-S ) :   1.6107 B(  9-C , 11-N ) :   1.2960
B( 11-N , 12-C ) :   0.9805 B( 11-N , 29-H ) :   0.9485 B( 12-C , 13-C ) :   0.9681
B( 12-C , 30-H ) :   0.9923 B( 13-C , 14-C ) :   1.3880 B( 13-C , 19-C ) :   1.3519
B( 14-C , 15-C ) :   1.3949 B( 14-C , 31-H ) :   0.9583 B( 15-C , 16-C ) :   1.3605
B( 15-C , 32-H ) :   0.9704 B( 16-C , 17-C ) :   1.3306 B( 16-C , 33-H ) :   0.9849
B( 17-C , 18-O ) :   1.1079 B( 17-C , 19-C ) :   1.3676 B( 18-O , 34-H ) :   0.9798
B( 19-C , 35-H ) :   0.9579

MP2 TOTAL ENERGY:    -1274.323917264 Eh
FINAL SINGLE POINT ENERGY     -1274.323917264014

DIPOLE MOMENT
-------------
                                X             Y             Z
Electronic contribution:      8.74928       6.90917       6.92933
Nuclear contribution   :    -10.32299      -8.08169      -7.52443
                        -----------------------------------------
Total Dipole Moment    :     -1.57371      -1.17252      -0.59511
                        -----------------------------------------
Magnitude (a.u.)       :      2.05073
Magnitude (Debye)      :      5.21255

Rotational constants in cm-1:     0.011408     0.009344     0.006498
Rotational constants in MHz :   342.000420   280.130697   194.815930

                             ****ORCA TERMINATED NORMALLY****
TOTAL RUN TIME: 0 days 2 hours 2 minutes 47 seconds 783 msec
