                         Program Version 4.2.0 -  RELEASE  -
|  1> ! ri-mp2 cc-pvtz cc-pvtz/c TightSCF NoKeepInts
|  2>
|  3> %scf
|  4>   MaxCore 4096
|  5> end
|  6> *xyz  0  1
|  7>     C       14.0628196   15.9205873   15.2744954
|  8>     C       15.2995600   15.6569518   16.1498954
|  9>     O       16.4636523   15.8256179   15.3141649
| 10>     C       17.2761412   16.9301939   15.3207189
| 11>     O       18.0789260   17.1302838   14.4287704
| 12>     C       17.1148359   17.8764326   16.4621245
| 13>     C       16.8342541   19.1674601   16.1771792
| 14>     C       16.2998843   19.6748695   14.8556129
| 15>     N       17.0636058   20.1816737   17.1082067
| 16>     C       17.8024222   20.0154669   18.2502580
| 17>     S       18.1411848   21.2768736   19.2644131
| 18>     N       18.2694789   18.7473027   18.4993438
| 19>     C       17.9069870   17.5393060   17.7307966
| 20>     C       17.3458744   16.4010103   18.5692550
| 21>     C       17.8144414   15.0874559   18.3847851
| 22>     C       17.2830553   14.0282831   19.1392665
| 23>     C       16.2766849   14.2854204   20.0860491
| 24>     C       15.8096366   15.5936299   20.2730414
| 25>     O       14.8327937   15.8437282   21.1802300
| 26>     C       16.3382143   16.6460230   19.5185858
| 27>     H       14.0505860   16.9577031   14.9185787
| 28>     H       13.1431675   15.7430530   15.8453085
| 29>     H       14.0586168   15.2550886   14.4018796
| 30>     H       15.2798476   16.3214679   17.0190228
| 31>     H       15.2643520   14.6222685   16.5153690
| 32>     H       15.5684302   18.9781779   14.4285716
| 33>     H       17.1175679   19.7763872   14.1293182
| 34>     H       15.8075674   20.6502591   14.9489648
| 35>     H       16.7690934   21.1249377   16.9104545
| 36>     H       18.8090083   18.6543852   19.3511329
| 37>     H       18.9044744   17.2546879   17.3638531
| 38>     H       18.5870490   14.8850333   17.6463549
| 39>     H       17.6510684   13.0144379   18.9885563
| 40>     H       15.8637777   13.4698512   20.6710622
| 41>     H       14.6373088   15.0118885   21.6379280
| 42>     H       15.9606318   17.6518022   19.6744526
| 43> *
| 44>
| 45>                          ****END OF INPUT****

CARTESIAN COORDINATES (ANGSTROEM)
---------------------------------
  C     14.062820   15.920587   15.274495
  C     15.299560   15.656952   16.149895
  O     16.463652   15.825618   15.314165
  C     17.276141   16.930194   15.320719
  O     18.078926   17.130284   14.428770
  C     17.114836   17.876433   16.462125
  C     16.834254   19.167460   16.177179
  C     16.299884   19.674869   14.855613
  N     17.063606   20.181674   17.108207
  C     17.802422   20.015467   18.250258
  S     18.141185   21.276874   19.264413
  N     18.269479   18.747303   18.499344
  C     17.906987   17.539306   17.730797
  C     17.345874   16.401010   18.569255
  C     17.814441   15.087456   18.384785
  C     17.283055   14.028283   19.139267
  C     16.276685   14.285420   20.086049
  C     15.809637   15.593630   20.273041
  O     14.832794   15.843728   21.180230
  C     16.338214   16.646023   19.518586
  H     14.050586   16.957703   14.918579
  H     13.143168   15.743053   15.845308
  H     14.058617   15.255089   14.401880
  H     15.279848   16.321468   17.019023
  H     15.264352   14.622268   16.515369
  H     15.568430   18.978178   14.428572
  H     17.117568   19.776387   14.129318
  H     15.807567   20.650259   14.948965
  H     16.769093   21.124938   16.910455
  H     18.809008   18.654385   19.351133
  H     18.904474   17.254688   17.363853
  H     18.587049   14.885033   17.646355
  H     17.651068   13.014438   18.988556
  H     15.863778   13.469851   20.671062
  H     14.637309   15.011888   21.637928
  H     15.960632   17.651802   19.674453

 Total Charge           Charge          ....    0
 Multiplicity           Mult            ....    1
 Number of Electrons    NEL             ....  154
 Basis Dimension        Dim             ....  828

ORBITAL ENERGIES
----------------

  NO   OCC          E(Eh)            E(eV)
   0   2.0000     -91.890118     -2500.4572
   1   2.0000     -20.605193      -560.6958
   2   2.0000     -20.600848      -560.5776
   3   2.0000     -20.550851      -559.2171
   4   2.0000     -15.626522      -425.2193
   5   2.0000     -15.611359      -424.8067
   6   2.0000     -11.397387      -310.1387
   7   2.0000     -11.385800      -309.8234
   8   2.0000     -11.327797      -308.2450
   9   2.0000     -11.323825      -308.1369
  10   2.0000     -11.317267      -307.9585
  11   2.0000     -11.300001      -307.4887
  12   2.0000     -11.271147      -306.7035
  13   2.0000     -11.264941      -306.5346
  14   2.0000     -11.258398      -306.3566
  15   2.0000     -11.257088      -306.3209
  16   2.0000     -11.253081      -306.2119
  17   2.0000     -11.248052      -306.0751
  18   2.0000     -11.247897      -306.0708
  19   2.0000     -11.232109      -305.6412
  20   2.0000      -8.895196      -242.0506
  21   2.0000      -6.576771      -178.9630
  22   2.0000      -6.574767      -178.9085
  23   2.0000      -6.574181      -178.8925
  24   2.0000      -1.446723       -39.3673
  25   2.0000      -1.424928       -38.7743
  26   2.0000      -1.360960       -37.0336
  27   2.0000      -1.339668       -36.4542
  28   2.0000      -1.239757       -33.7355
  29   2.0000      -1.167156       -31.7599
  30   2.0000      -1.126395       -30.6508
  31   2.0000      -1.052002       -28.6264
  32   2.0000      -1.037627       -28.2353
  33   2.0000      -1.025283       -27.8994
  34   2.0000      -1.004143       -27.3241
  35   2.0000      -0.990084       -26.9416
  36   2.0000      -0.927685       -25.2436
  37   2.0000      -0.887533       -24.1510
  38   2.0000      -0.852854       -23.2073
  39   2.0000      -0.844948       -22.9922
  40   2.0000      -0.843366       -22.9491
  41   2.0000      -0.836773       -22.7697
  42   2.0000      -0.758826       -20.6487
  43   2.0000      -0.739735       -20.1292
  44   2.0000      -0.725234       -19.7346
  45   2.0000      -0.703481       -19.1427
  46   2.0000      -0.694196       -18.8900
  47   2.0000      -0.678882       -18.4733
  48   2.0000      -0.677796       -18.4438
  49   2.0000      -0.668532       -18.1917
  50   2.0000      -0.651946       -17.7404
  51   2.0000      -0.645300       -17.5595
  52   2.0000      -0.633343       -17.2341
  53   2.0000      -0.614730       -16.7277
  54   2.0000      -0.611142       -16.6300
  55   2.0000      -0.607750       -16.5377
  56   2.0000      -0.604191       -16.4409
  57   2.0000      -0.584485       -15.9046
  58   2.0000      -0.579012       -15.7557
  59   2.0000      -0.568068       -15.4579
  60   2.0000      -0.563112       -15.3231
  61   2.0000      -0.553508       -15.0617
  62   2.0000      -0.548726       -14.9316
  63   2.0000      -0.532661       -14.4944
  64   2.0000      -0.528247       -14.3743
  65   2.0000      -0.518422       -14.1070
  66   2.0000      -0.505998       -13.7689
  67   2.0000      -0.504592       -13.7306
  68   2.0000      -0.489011       -13.3067
  69   2.0000      -0.467669       -12.7259
  70   2.0000      -0.454839       -12.3768
  71   2.0000      -0.448492       -12.2041
  72   2.0000      -0.358671        -9.7599
  73   2.0000      -0.351690        -9.5700
  74   2.0000      -0.332114        -9.0373
  75   2.0000      -0.329047        -8.9538
  76   2.0000      -0.319797        -8.7021
  77   0.0000       0.086599         2.3565
  78   0.0000       0.095777         2.6062
  79   0.0000       0.120698         3.2844
  80   0.0000       0.126531         3.4431
  81   0.0000       0.128533         3.4976

MULLIKEN ATOMIC CHARGES
-----------------------
   0 C :   -0.269346
   1 C :    0.028796
   2 O :   -0.313030
   3 C :    0.402440
   4 O :   -0.379434
   5 C :   -0.213337
   6 C :    0.146871
   7 C :   -0.290982
   8 N :   -0.134923
   9 C :    0.214423
  10 S :   -0.440677
  11 N :   -0.223848
  12 C :    0.035418
  13 C :    0.003617
  14 C :   -0.187811
  15 C :   -0.144805
  16 C :   -0.269295
  17 C :    0.310583
  18 O :   -0.352842
  19 C :   -0.234823
  20 H :    0.084224
  21 H :    0.095076
  22 H :    0.109126
  23 H :    0.101191
  24 H :    0.117877
  25 H :    0.113819
  26 H :    0.146077
  27 H :    0.099420
  28 H :    0.197552
  29 H :    0.202387
  30 H :    0.165050
  31 H :    0.157566
  32 H :    0.166748
  33 H :    0.135718
  34 H :    0.241878
  35 H :    0.179297
Sum of atomic charges:   -0.0000000

LOEWDIN ATOMIC CHARGES
----------------------
   0 C :    0.105198
   1 C :   -0.019753
   2 O :    0.310240
   3 C :   -0.419511
   4 O :    0.123751
   5 C :   -0.095477
   6 C :   -0.086776
   7 C :    0.129738
   8 N :    0.404269
   9 C :   -0.454149
  10 S :   -0.036366
  11 N :    0.395501
  12 C :   -0.054310
  13 C :   -0.044741
  14 C :    0.019716
  15 C :    0.045375
  16 C :    0.001154
  17 C :   -0.190797
  18 O :    0.397412
  19 C :    0.030180
  20 H :   -0.032949
  21 H :   -0.025452
  22 H :   -0.023491
  23 H :   -0.039164
  24 H :   -0.023547
  25 H :   -0.012525
  26 H :   -0.003139
  27 H :   -0.019759
  28 H :   -0.058378
  29 H :   -0.064245
  30 H :   -0.007939
  31 H :   -0.025103
  32 H :   -0.017932
  33 H :   -0.033504
  34 H :   -0.152057
  35 H :   -0.021474

  Mayer bond orders larger than 0.100000
B(  0-C ,  1-C ) :   0.9800 B(  0-C , 20-H ) :   0.9784 B(  0-C , 21-H ) :   0.9767
B(  0-C , 22-H ) :   0.9788 B(  1-C ,  2-O ) :   0.8834 B(  1-C , 23-H ) :   0.9519
B(  1-C , 24-H ) :   0.9785 B(  2-O ,  3-C ) :   1.1955 B(  3-C ,  4-O ) :   2.1265
B(  3-C ,  5-C ) :   0.9081 B(  5-C ,  6-C ) :   1.7131 B(  5-C , 12-C ) :   0.9521
B(  6-C ,  7-C ) :   0.9406 B(  6-C ,  8-N ) :   1.1193 B(  7-C , 25-H ) :   0.9777
B(  7-C , 26-H ) :   0.9581 B(  7-C , 27-H ) :   0.9855 B(  8-N ,  9-C ) :   1.2004
B(  8-N , 28-H ) :   0.9493 B(  9-C , 10-S ) :   1.6122 B(  9-C , 11-N ) :   1.2847
B( 11-N , 12-C ) :   0.9790 B( 11-N , 29-H ) :   0.9460 B( 12-C , 13-C ) :   0.9628
B( 12-C , 30-H ) :   1.0017 B( 13-C , 14-C ) :   1.3734 B( 13-C , 19-C ) :   1.3458
B( 14-C , 15-C ) :   1.3993 B( 14-C , 31-H ) :   0.9723 B( 15-C , 16-C ) :   1.3608
B( 15-C , 32-H ) :   0.9693 B( 16-C , 17-C ) :   1.3298 B( 16-C , 33-H ) :   0.9830
B( 17-C , 18-O ) :   1.1129 B( 17-C , 19-C ) :   1.3629 B( 18-O , 34-H ) :   0.9785
B( 19-C , 35-H ) :   0.9555

MP2 TOTAL ENERGY:    -1274.325281907 Eh
FINAL SINGLE POINT ENERGY     -1274.325281907377

DIPOLE MOMENT
-------------
                                X             Y             Z
Electronic contribution:     10.11457       7.57654       7.95653
Nuclear contribution   :    -11.62937      -9.28935      -7.77557
                        -----------------------------------------
Total Dipole Moment    :     -1.51481      -1.71281       0.18096
                        -----------------------------------------
Magnitude (a.u.)       :      2.29371
Magnitude (Debye)      :      5.83014

Rotational constants in cm-1:     0.011626     0.009043     0.006199
Rotational constants in MHz :   348.549605   271.101073   185.852152

                             ****ORCA TERMINATED NORMALLY****
TOTAL RUN TIME: 0 days 2 hours 10 minutes 22 seconds 574 msec
