                         Program Version 4.2.0 -  RELEASE  -
|  1> ! ri-mp2 cc-pvtz cc-pvtz/c TightSCF NoKeepInts
|  2>
|  3> %scf
|  4>   MaxCore 4096
|  5> end
|  6> *xyz  0  1
|  7>     C       15.1261893   14.5400440   14.1564654
|  8>     C       14.7024494   16.0243459   14.1443991
|  9>     O       15.4245939   16.9167740   15.0371606
| 10>     C       16.4535555   16.6258677   15.8980890
| 11>     O       16.9806898   15.5323279   16.0040034
| 12>     C       16.8759933   17.7844268   16.7619696
| 13>     C       16.7560603   19.0840308   16.3767278
| 14>     C       16.0050479   19.6449111   15.1843900
| 15>     N       17.4032483   20.1006527   17.0843871
| 16>     C       18.3582334   19.8937947   18.0422404
| 17>     S       19.1629645   21.1490952   18.7580501
| 18>     N       18.6284750   18.5876516   18.3598852
| 19>     C       17.8754003   17.4176930   17.8686508
| 20>     C       17.2650601   16.5872228   18.9902998
| 21>     C       17.5506804   15.2146927   19.1040198
| 22>     C       16.9893549   14.4512781   20.1413771
| 23>     C       16.1363945   15.0662051   21.0739491
| 24>     C       15.8487473   16.4335293   20.9618686
| 25>     O       15.0225564   17.0288754   21.8587610
| 26>     C       16.4086835   17.1905827   19.9278166
| 27>     H       16.1701380   14.4234378   13.8393486
| 28>     H       14.5024363   13.9626847   13.4636464
| 29>     H       15.0061317   14.1026482   15.1557631
| 30>     H       14.8058721   16.4022288   13.1191454
| 31>     H       13.6351448   16.0772261   14.3951475
| 32>     H       14.9309366   19.4386454   15.2711301
| 33>     H       16.3648852   19.1953763   14.2505781
| 34>     H       16.1187344   20.7309331   15.0808875
| 35>     H       17.2310162   21.0644503   16.8475423
| 36>     H       19.3208008   18.4613672   19.0873406
| 37>     H       18.6832369   16.8617360   17.3708669
| 38>     H       18.1979940   14.7357065   18.3731462
| 39>     H       17.2119902   13.3883707   20.2148368
| 40>     H       15.6994371   14.4800242   21.8753860
| 41>     H       14.7566586   16.3529975   22.4999826
| 42>     H       16.1772090   18.2481657   19.8587415
| 43> *
| 44>
| 45>                          ****END OF INPUT****

CARTESIAN COORDINATES (ANGSTROEM)
---------------------------------
  C     15.126189   14.540044   14.156465
  C     14.702449   16.024346   14.144399
  O     15.424594   16.916774   15.037161
  C     16.453556   16.625868   15.898089
  O     16.980690   15.532328   16.004003
  C     16.875993   17.784427   16.761970
  C     16.756060   19.084031   16.376728
  C     16.005048   19.644911   15.184390
  N     17.403248   20.100653   17.084387
  C     18.358233   19.893795   18.042240
  S     19.162965   21.149095   18.758050
  N     18.628475   18.587652   18.359885
  C     17.875400   17.417693   17.868651
  C     17.265060   16.587223   18.990300
  C     17.550680   15.214693   19.104020
  C     16.989355   14.451278   20.141377
  C     16.136395   15.066205   21.073949
  C     15.848747   16.433529   20.961869
  O     15.022556   17.028875   21.858761
  C     16.408683   17.190583   19.927817
  H     16.170138   14.423438   13.839349
  H     14.502436   13.962685   13.463646
  H     15.006132   14.102648   15.155763
  H     14.805872   16.402229   13.119145
  H     13.635145   16.077226   14.395148
  H     14.930937   19.438645   15.271130
  H     16.364885   19.195376   14.250578
  H     16.118734   20.730933   15.080887
  H     17.231016   21.064450   16.847542
  H     19.320801   18.461367   19.087341
  H     18.683237   16.861736   17.370867
  H     18.197994   14.735706   18.373146
  H     17.211990   13.388371   20.214837
  H     15.699437   14.480024   21.875386
  H     14.756659   16.352998   22.499983
  H     16.177209   18.248166   19.858742

 Total Charge           Charge          ....    0
 Multiplicity           Mult            ....    1
 Number of Electrons    NEL             ....  154
 Basis Dimension        Dim             ....  828

ORBITAL ENERGIES
----------------

  NO   OCC          E(Eh)            E(eV)
   0   2.0000     -91.886636     -2500.3625
   1   2.0000     -20.601752      -560.6022
   2   2.0000     -20.590679      -560.3009
   3   2.0000     -20.542824      -558.9987
   4   2.0000     -15.626690      -425.2239
   5   2.0000     -15.604360      -424.6162
   6   2.0000     -11.399659      -310.2005
   7   2.0000     -11.381017      -309.6932
   8   2.0000     -11.336097      -308.4709
   9   2.0000     -11.307975      -307.7056
  10   2.0000     -11.306615      -307.6686
  11   2.0000     -11.302701      -307.5621
  12   2.0000     -11.260039      -306.4012
  13   2.0000     -11.257907      -306.3432
  14   2.0000     -11.253774      -306.2308
  15   2.0000     -11.246775      -306.0403
  16   2.0000     -11.236929      -305.7724
  17   2.0000     -11.232920      -305.6633
  18   2.0000     -11.229761      -305.5773
  19   2.0000     -11.225514      -305.4618
  20   2.0000      -8.891736      -241.9564
  21   2.0000      -6.573319      -178.8691
  22   2.0000      -6.571312      -178.8145
  23   2.0000      -6.570728      -178.7986
  24   2.0000      -1.444670       -39.3115
  25   2.0000      -1.410421       -38.3795
  26   2.0000      -1.356928       -36.9239
  27   2.0000      -1.338393       -36.4195
  28   2.0000      -1.235658       -33.6240
  29   2.0000      -1.150993       -31.3201
  30   2.0000      -1.118602       -30.4387
  31   2.0000      -1.042091       -28.3567
  32   2.0000      -1.034625       -28.1536
  33   2.0000      -1.008656       -27.4469
  34   2.0000      -0.997069       -27.1316
  35   2.0000      -0.981798       -26.7161
  36   2.0000      -0.919979       -25.0339
  37   2.0000      -0.897558       -24.4238
  38   2.0000      -0.847027       -23.0488
  39   2.0000      -0.834175       -22.6990
  40   2.0000      -0.826912       -22.5014
  41   2.0000      -0.817273       -22.2391
  42   2.0000      -0.742619       -20.2077
  43   2.0000      -0.726558       -19.7706
  44   2.0000      -0.723631       -19.6910
  45   2.0000      -0.688470       -18.7342
  46   2.0000      -0.683089       -18.5878
  47   2.0000      -0.677160       -18.4265
  48   2.0000      -0.673687       -18.3320
  49   2.0000      -0.664839       -18.0912
  50   2.0000      -0.646105       -17.5814
  51   2.0000      -0.642316       -17.4783
  52   2.0000      -0.631804       -17.1923
  53   2.0000      -0.603641       -16.4259
  54   2.0000      -0.600393       -16.3375
  55   2.0000      -0.596535       -16.2325
  56   2.0000      -0.594003       -16.1637
  57   2.0000      -0.582875       -15.8608
  58   2.0000      -0.571482       -15.5508
  59   2.0000      -0.570475       -15.5234
  60   2.0000      -0.558756       -15.2045
  61   2.0000      -0.542795       -14.7702
  62   2.0000      -0.538171       -14.6444
  63   2.0000      -0.526864       -14.3367
  64   2.0000      -0.514534       -14.0012
  65   2.0000      -0.509769       -13.8715
  66   2.0000      -0.497737       -13.5441
  67   2.0000      -0.492785       -13.4094
  68   2.0000      -0.479794       -13.0559
  69   2.0000      -0.462918       -12.5966
  70   2.0000      -0.451166       -12.2768
  71   2.0000      -0.446323       -12.1451
  72   2.0000      -0.351486        -9.5644
  73   2.0000      -0.343334        -9.3426
  74   2.0000      -0.325822        -8.8661
  75   2.0000      -0.315784        -8.5929
  76   2.0000      -0.313244        -8.5238
  77   0.0000       0.079378         2.1600
  78   0.0000       0.112948         3.0735
  79   0.0000       0.120563         3.2807
  80   0.0000       0.136523         3.7150
  81   0.0000       0.139229         3.7886

MULLIKEN ATOMIC CHARGES
-----------------------
   0 C :   -0.288180
   1 C :    0.049944
   2 O :   -0.357981
   3 C :    0.411723
   4 O :   -0.423100
   5 C :   -0.150592
   6 C :    0.161182
   7 C :   -0.284562
   8 N :   -0.128973
   9 C :    0.207453
  10 S :   -0.444959
  11 N :   -0.210754
  12 C :    0.039509
  13 C :    0.032037
  14 C :   -0.168370
  15 C :   -0.134482
  16 C :   -0.277082
  17 C :    0.314300
  18 O :   -0.359083
  19 C :   -0.250163
  20 H :    0.111333
  21 H :    0.097733
  22 H :    0.112205
  23 H :    0.087545
  24 H :    0.093388
  25 H :    0.130504
  26 H :    0.122726
  27 H :    0.103394
  28 H :    0.198395
  29 H :    0.199750
  30 H :    0.155810
  31 H :    0.159005
  32 H :    0.159496
  33 H :    0.127830
  34 H :    0.239712
  35 H :    0.163309
Sum of atomic charges:    0.0000000

LOEWDIN ATOMIC CHARGES
----------------------
   0 C :    0.102624
   1 C :   -0.008037
   2 O :    0.293353
   3 C :   -0.412850
   4 O :    0.113327
   5 C :   -0.089597
   6 C :   -0.064736
   7 C :    0.123910
   8 N :    0.404926
   9 C :   -0.459192
  10 S :   -0.039582
  11 N :    0.396633
  12 C :   -0.048301
  13 C :   -0.040264
  14 C :    0.024329
  15 C :    0.040487
  16 C :   -0.001362
  17 C :   -0.192360
  18 O :    0.393062
  19 C :    0.030065
  20 H :   -0.025071
  21 H :   -0.027539
  22 H :   -0.023864
  23 H :   -0.029703
  24 H :   -0.026978
  25 H :   -0.009360
  26 H :   -0.010270
  27 H :   -0.021573
  28 H :   -0.059203
  29 H :   -0.063138
  30 H :   -0.009027
  31 H :   -0.024201
  32 H :   -0.021316
  33 H :   -0.036340
  34 H :   -0.155052
  35 H :   -0.023799

  Mayer bond orders larger than 0.100000
B(  0-C ,  1-C ) :   0.9841 B(  0-C , 20-H ) :   0.9731 B(  0-C , 21-H ) :   0.9723
B(  0-C , 22-H ) :   0.9734 B(  1-C ,  2-O ) :   0.8994 B(  1-C , 23-H ) :   0.9772
B(  1-C , 24-H ) :   0.9786 B(  2-O ,  3-C ) :   1.1432 B(  3-C ,  4-O ) :   1.9818
B(  3-C ,  5-C ) :   1.0457 B(  5-C ,  6-C ) :   1.6624 B(  5-C , 12-C ) :   0.9505
B(  6-C ,  7-C ) :   0.9517 B(  6-C ,  8-N ) :   1.1321 B(  7-C , 25-H ) :   0.9635
B(  7-C , 26-H ) :   0.9666 B(  7-C , 27-H ) :   0.9924 B(  8-N ,  9-C ) :   1.1871
B(  8-N , 28-H ) :   0.9470 B(  9-C , 10-S ) :   1.6055 B(  9-C , 11-N ) :   1.3071
B( 11-N , 12-C ) :   0.9765 B( 11-N , 29-H ) :   0.9487 B( 12-C , 13-C ) :   0.9742
B( 12-C , 30-H ) :   0.9974 B( 13-C , 14-C ) :   1.3751 B( 13-C , 19-C ) :   1.3678
B( 14-C , 15-C ) :   1.3968 B( 14-C , 31-H ) :   0.9639 B( 15-C , 16-C ) :   1.3587
B( 15-C , 32-H ) :   0.9714 B( 16-C , 17-C ) :   1.3334 B( 16-C , 33-H ) :   0.9861
B( 17-C , 18-O ) :   1.1031 B( 17-C , 19-C ) :   1.3672 B( 18-O , 34-H ) :   0.9808
B( 19-C , 35-H ) :   0.9600

MP2 TOTAL ENERGY:    -1274.329760089 Eh
FINAL SINGLE POINT ENERGY     -1274.329760089294

DIPOLE MOMENT
-------------
                                X             Y             Z
Electronic contribution:      8.81922      10.22420      12.03833
Nuclear contribution   :    -10.39420     -11.43371     -13.23553
                        -----------------------------------------
Total Dipole Moment    :     -1.57498      -1.20951      -1.19720
                        -----------------------------------------
Magnitude (a.u.)       :      2.31879
Magnitude (Debye)      :      5.89389

Rotational constants in cm-1:     0.009877     0.009006     0.005487
Rotational constants in MHz :   296.100616   269.995290   164.502016

                             ****ORCA TERMINATED NORMALLY****
TOTAL RUN TIME: 0 days 1 hours 49 minutes 25 seconds 762 msec
