                         Program Version 4.2.0 -  RELEASE  -
|  1> ! ri-mp2 cc-pvtz cc-pvtz/c TightSCF NoKeepInts
|  2>
|  3> %scf
|  4>   MaxCore 4096
|  5> end
|  6> *xyz  0  1
|  7>     C       15.1766708   14.5305369   13.7648612
|  8>     C       14.7717143   15.5248613   14.8663075
|  9>     O       15.9464547   16.1561800   15.4119125
| 10>     C       15.7085872   17.0629840   16.4022972
| 11>     O       14.6011899   17.2980364   16.8578297
| 12>     C       16.8815721   17.9129804   16.7140372
| 13>     C       16.9270203   19.1850420   16.2640015
| 14>     C       15.9772455   19.7923846   15.2474796
| 15>     N       17.9123255   20.0621208   16.7163364
| 16>     C       18.7506243   19.7794281   17.7646843
| 17>     S       19.6848508   20.9520796   18.4678909
| 18>     N       18.6958238   18.4975833   18.2690923
| 19>     C       17.9063709   17.3722066   17.7168850
| 20>     C       17.3087765   16.5911206   18.8941442
| 21>     C       17.8572980   15.3374266   19.2370272
| 22>     C       17.3395764   14.5853756   20.3056508
| 23>     C       16.2547085   15.0854956   21.0417455
| 24>     C       15.7086577   16.3340720   20.7138530
| 25>     O       14.6611509   16.8123206   21.4303185
| 26>     C       16.2338830   17.0872142   19.6548981
| 27>     H       15.9720916   14.9500836   13.1329009
| 28>     H       14.3144068   14.3009139   13.1208496
| 29>     H       15.5303352   13.5904889   14.2037210
| 30>     H       14.0910425   16.2872107   14.4639431
| 31>     H       14.2314362   14.9850689   15.6568457
| 32>     H       15.4592607   19.0192329   14.6619775
| 33>     H       16.5058814   20.4277357   14.5255739
| 34>     H       15.2068011   20.3980833   15.7409267
| 35>     H       17.9331233   21.0106026   16.3790376
| 36>     H       19.2077388   18.3628704   19.1311056
| 37>     H       18.5807165   16.7004634   17.1702380
| 38>     H       18.6941491   14.9380459   18.6704327
| 39>     H       17.7776136   13.6213265   20.5611865
| 40>     H       15.8483704   14.5108993   21.8679667
| 41>     H       14.3423773   16.0909592   21.9924304
| 42>     H       15.7871543   18.0465658   19.4176113
| 43> *
| 44>
| 45>                          ****END OF INPUT****

CARTESIAN COORDINATES (ANGSTROEM)
---------------------------------
  C     15.176671   14.530537   13.764861
  C     14.771714   15.524861   14.866307
  O     15.946455   16.156180   15.411912
  C     15.708587   17.062984   16.402297
  O     14.601190   17.298036   16.857830
  C     16.881572   17.912980   16.714037
  C     16.927020   19.185042   16.264001
  C     15.977246   19.792385   15.247480
  N     17.912325   20.062121   16.716336
  C     18.750624   19.779428   17.764684
  S     19.684851   20.952080   18.467891
  N     18.695824   18.497583   18.269092
  C     17.906371   17.372207   17.716885
  C     17.308777   16.591121   18.894144
  C     17.857298   15.337427   19.237027
  C     17.339576   14.585376   20.305651
  C     16.254708   15.085496   21.041746
  C     15.708658   16.334072   20.713853
  O     14.661151   16.812321   21.430318
  C     16.233883   17.087214   19.654898
  H     15.972092   14.950084   13.132901
  H     14.314407   14.300914   13.120850
  H     15.530335   13.590489   14.203721
  H     14.091043   16.287211   14.463943
  H     14.231436   14.985069   15.656846
  H     15.459261   19.019233   14.661978
  H     16.505881   20.427736   14.525574
  H     15.206801   20.398083   15.740927
  H     17.933123   21.010603   16.379038
  H     19.207739   18.362870   19.131106
  H     18.580717   16.700463   17.170238
  H     18.694149   14.938046   18.670433
  H     17.777614   13.621327   20.561186
  H     15.848370   14.510899   21.867967
  H     14.342377   16.090959   21.992430
  H     15.787154   18.046566   19.417611

 Total Charge           Charge          ....    0
 Multiplicity           Mult            ....    1
 Number of Electrons    NEL             ....  154
 Basis Dimension        Dim             ....  828

ORBITAL ENERGIES
----------------

  NO   OCC          E(Eh)            E(eV)
   0   2.0000     -91.883952     -2500.2894
   1   2.0000     -20.612050      -560.8824
   2   2.0000     -20.593152      -560.3682
   3   2.0000     -20.553051      -559.2769
   4   2.0000     -15.619789      -425.0361
   5   2.0000     -15.604374      -424.6166
   6   2.0000     -11.394610      -310.0631
   7   2.0000     -11.380641      -309.6830
   8   2.0000     -11.320078      -308.0350
   9   2.0000     -11.313878      -307.8663
  10   2.0000     -11.312223      -307.8212
  11   2.0000     -11.298122      -307.4375
  12   2.0000     -11.263028      -306.4826
  13   2.0000     -11.257866      -306.3421
  14   2.0000     -11.254795      -306.2585
  15   2.0000     -11.254535      -306.2515
  16   2.0000     -11.244207      -305.9704
  17   2.0000     -11.241792      -305.9047
  18   2.0000     -11.239162      -305.8332
  19   2.0000     -11.234733      -305.7126
  20   2.0000      -8.888991      -241.8818
  21   2.0000      -6.570572      -178.7943
  22   2.0000      -6.568563      -178.7397
  23   2.0000      -6.567991      -178.7241
  24   2.0000      -1.459766       -39.7222
  25   2.0000      -1.413622       -38.4666
  26   2.0000      -1.361914       -37.0596
  27   2.0000      -1.332007       -36.2457
  28   2.0000      -1.231936       -33.5227
  29   2.0000      -1.156747       -31.4767
  30   2.0000      -1.120719       -30.4963
  31   2.0000      -1.044321       -28.4174
  32   2.0000      -1.040801       -28.3216
  33   2.0000      -1.013854       -27.5884
  34   2.0000      -0.997425       -27.1413
  35   2.0000      -0.982039       -26.7226
  36   2.0000      -0.921617       -25.0785
  37   2.0000      -0.888520       -24.1779
  38   2.0000      -0.843381       -22.9496
  39   2.0000      -0.833912       -22.6919
  40   2.0000      -0.833005       -22.6672
  41   2.0000      -0.820007       -22.3135
  42   2.0000      -0.764703       -20.8086
  43   2.0000      -0.730195       -19.8696
  44   2.0000      -0.726836       -19.7782
  45   2.0000      -0.694147       -18.8887
  46   2.0000      -0.688196       -18.7268
  47   2.0000      -0.681883       -18.5550
  48   2.0000      -0.676915       -18.4198
  49   2.0000      -0.668059       -18.1788
  50   2.0000      -0.650217       -17.6933
  51   2.0000      -0.645691       -17.5702
  52   2.0000      -0.631604       -17.1868
  53   2.0000      -0.606324       -16.4989
  54   2.0000      -0.601149       -16.3581
  55   2.0000      -0.597892       -16.2695
  56   2.0000      -0.589841       -16.0504
  57   2.0000      -0.578477       -15.7412
  58   2.0000      -0.572282       -15.5726
  59   2.0000      -0.568212       -15.4618
  60   2.0000      -0.564925       -15.3724
  61   2.0000      -0.555738       -15.1224
  62   2.0000      -0.539062       -14.6686
  63   2.0000      -0.524387       -14.2693
  64   2.0000      -0.514570       -14.0021
  65   2.0000      -0.511177       -13.9098
  66   2.0000      -0.506103       -13.7718
  67   2.0000      -0.495305       -13.4779
  68   2.0000      -0.488191       -13.2843
  69   2.0000      -0.464083       -12.6284
  70   2.0000      -0.460574       -12.5329
  71   2.0000      -0.456582       -12.4242
  72   2.0000      -0.352519        -9.5925
  73   2.0000      -0.347642        -9.4598
  74   2.0000      -0.324580        -8.8323
  75   2.0000      -0.320264        -8.7148
  76   2.0000      -0.311692        -8.4816
  77   0.0000       0.098527         2.6811
  78   0.0000       0.106921         2.9095
  79   0.0000       0.121274         3.3000
  80   0.0000       0.133148         3.6231
  81   0.0000       0.138451         3.7675

MULLIKEN ATOMIC CHARGES
-----------------------
   0 C :   -0.264328
   1 C :    0.047857
   2 O :   -0.329219
   3 C :    0.368923
   4 O :   -0.402146
   5 C :   -0.093318
   6 C :    0.123323
   7 C :   -0.284716
   8 N :   -0.136294
   9 C :    0.223885
  10 S :   -0.450183
  11 N :   -0.222311
  12 C :    0.080366
  13 C :   -0.049591
  14 C :   -0.185422
  15 C :   -0.133898
  16 C :   -0.264934
  17 C :    0.299311
  18 O :   -0.353291
  19 C :   -0.175278
  20 H :    0.096618
  21 H :    0.092399
  22 H :    0.098305
  23 H :    0.080222
  24 H :    0.097512
  25 H :    0.109453
  26 H :    0.104535
  27 H :    0.131234
  28 H :    0.194183
  29 H :    0.201697
  30 H :    0.146271
  31 H :    0.151318
  32 H :    0.159711
  33 H :    0.131711
  34 H :    0.239413
  35 H :    0.166681
Sum of atomic charges:    0.0000000

LOEWDIN ATOMIC CHARGES
----------------------
   0 C :    0.108246
   1 C :   -0.020609
   2 O :    0.300810
   3 C :   -0.418148
   4 O :    0.120674
   5 C :   -0.080126
   6 C :   -0.095023
   7 C :    0.129567
   8 N :    0.401146
   9 C :   -0.445202
  10 S :   -0.045822
  11 N :    0.389498
  12 C :   -0.042200
  13 C :   -0.043974
  14 C :    0.009827
  15 C :    0.038715
  16 C :    0.004514
  17 C :   -0.187014
  18 O :    0.397800
  19 C :    0.048261
  20 H :   -0.025620
  21 H :   -0.021597
  22 H :   -0.027484
  23 H :   -0.032690
  24 H :   -0.026688
  25 H :   -0.008673
  26 H :   -0.017703
  27 H :   -0.010033
  28 H :   -0.059268
  29 H :   -0.068409
  30 H :   -0.014931
  31 H :   -0.030099
  32 H :   -0.020525
  33 H :   -0.033407
  34 H :   -0.154787
  35 H :   -0.019027

  Mayer bond orders larger than 0.100000
B(  0-C ,  1-C ) :   0.9611 B(  0-C , 20-H ) :   0.9745 B(  0-C , 21-H ) :   0.9800
B(  0-C , 22-H ) :   0.9824 B(  1-C ,  2-O ) :   0.9101 B(  1-C , 23-H ) :   0.9771
B(  1-C , 24-H ) :   0.9799 B(  2-O ,  3-C ) :   1.2040 B(  3-C ,  4-O ) :   2.0085
B(  3-C ,  5-C ) :   0.9177 B(  5-C ,  6-C ) :   1.7404 B(  5-C , 12-C ) :   0.9615
B(  6-C ,  7-C ) :   0.9499 B(  6-C ,  8-N ) :   1.1252 B(  7-C , 25-H ) :   0.9791
B(  7-C , 26-H ) :   0.9785 B(  7-C , 27-H ) :   0.9653 B(  8-N ,  9-C ) :   1.2028
B(  8-N , 28-H ) :   0.9528 B(  9-C , 10-S ) :   1.5928 B(  9-C , 11-N ) :   1.2970
B( 11-N , 12-C ) :   0.9714 B( 11-N , 29-H ) :   0.9450 B( 12-C , 13-C ) :   0.9856
B( 12-C , 30-H ) :   0.9957 B( 13-C , 14-C ) :   1.3598 B( 13-C , 19-C ) :   1.3694
B( 14-C , 15-C ) :   1.3947 B( 14-C , 31-H ) :   0.9730 B( 15-C , 16-C ) :   1.3685
B( 15-C , 32-H ) :   0.9708 B( 16-C , 17-C ) :   1.3275 B( 16-C , 33-H ) :   0.9846
B( 17-C , 18-O ) :   1.1007 B( 17-C , 19-C ) :   1.3708 B( 18-O , 34-H ) :   0.9805
B( 19-C , 35-H ) :   0.9558

MP2 TOTAL ENERGY:    -1274.336396402 Eh
FINAL SINGLE POINT ENERGY     -1274.336396402500

DIPOLE MOMENT
-------------
                                X             Y             Z
Electronic contribution:      8.52407      10.43356      11.99313
Nuclear contribution   :     -9.57356     -12.39343     -13.04576
                        -----------------------------------------
Total Dipole Moment    :     -1.04949      -1.95987      -1.05264
                        -----------------------------------------
Magnitude (a.u.)       :      2.45979
Magnitude (Debye)      :      6.25230

Rotational constants in cm-1:     0.010029     0.008829     0.005669
Rotational constants in MHz :   300.648672   264.674372   169.961329

                             ****ORCA TERMINATED NORMALLY****
TOTAL RUN TIME: 0 days 1 hours 41 minutes 57 seconds 213 msec
