                         Program Version 4.2.0 -  RELEASE  -
|  1> ! ri-mp2 cc-pvtz cc-pvtz/c TightSCF NoKeepInts
|  2>
|  3> %scf
|  4>   MaxCore 4096
|  5> end
|  6> *xyz  0  1
|  7>     C       14.6613280   15.9409562   16.3203759
|  8>     C       15.0123468   16.1809936   14.8341466
|  9>     O       16.4356530   16.2497692   14.5623892
| 10>     C       17.4144563   16.4682129   15.4964693
| 11>     O       18.3713718   15.7198752   15.5772712
| 12>     C       17.2240120   17.6242415   16.4317477
| 13>     C       16.8786017   18.8544712   15.9740455
| 14>     C       16.4554240   19.2387781   14.5699568
| 15>     N       16.9792883   19.9762179   16.7999565
| 16>     C       17.6482924   19.9967593   17.9945448
| 17>     S       17.8326036   21.3896517   18.8664773
| 18>     N       18.1795792   18.8039450   18.4169573
| 19>     C       17.9402653   17.4937315   17.7801266
| 20>     C       17.3034954   16.4608171   18.6997089
| 21>     C       17.8033229   15.1471102   18.7472172
| 22>     C       17.2051619   14.1842740   19.5770116
| 23>     C       16.0968028   14.5379020   20.3654045
| 24>     C       15.5950777   15.8457145   20.3184133
| 25>     O       14.5191828   16.1877436   21.0708232
| 26>     C       16.1926081   16.8022013   19.4914274
| 27>     H       15.2860218   15.1497974   16.7555847
| 28>     H       13.6158084   15.6218308   16.4098023
| 29>     H       14.7687398   16.8529953   16.9179046
| 30>     H       14.5933661   15.3595454   14.2382756
| 31>     H       14.5194664   17.1001955   14.4971772
| 32>     H       16.9221033   18.6000722   13.8102029
| 33>     H       16.7555425   20.2653735   14.3239849
| 34>     H       15.3678929   19.1777663   14.4533027
| 35>     H       16.6240335   20.8656615   16.4864662
| 36>     H       18.6631043   18.8432762   19.3055527
| 37>     H       18.9744620   17.2034479   17.5420419
| 38>     H       18.6525002   14.8686780   18.1263882
| 39>     H       17.5988740   13.1695365   19.6020137
| 40>     H       15.6305883   13.7964215   21.0057615
| 41>     H       14.2785823   15.4137610   21.6021455
| 42>     H       15.7870401   17.8082747   19.4669247
| 43> *
| 44>
| 45>                          ****END OF INPUT****

CARTESIAN COORDINATES (ANGSTROEM)
---------------------------------
  C     14.661328   15.940956   16.320376
  C     15.012347   16.180994   14.834147
  O     16.435653   16.249769   14.562389
  C     17.414456   16.468213   15.496469
  O     18.371372   15.719875   15.577271
  C     17.224012   17.624241   16.431748
  C     16.878602   18.854471   15.974045
  C     16.455424   19.238778   14.569957
  N     16.979288   19.976218   16.799957
  C     17.648292   19.996759   17.994545
  S     17.832604   21.389652   18.866477
  N     18.179579   18.803945   18.416957
  C     17.940265   17.493731   17.780127
  C     17.303495   16.460817   18.699709
  C     17.803323   15.147110   18.747217
  C     17.205162   14.184274   19.577012
  C     16.096803   14.537902   20.365405
  C     15.595078   15.845714   20.318413
  O     14.519183   16.187744   21.070823
  C     16.192608   16.802201   19.491427
  H     15.286022   15.149797   16.755585
  H     13.615808   15.621831   16.409802
  H     14.768740   16.852995   16.917905
  H     14.593366   15.359545   14.238276
  H     14.519466   17.100196   14.497177
  H     16.922103   18.600072   13.810203
  H     16.755543   20.265373   14.323985
  H     15.367893   19.177766   14.453303
  H     16.624033   20.865661   16.486466
  H     18.663104   18.843276   19.305553
  H     18.974462   17.203448   17.542042
  H     18.652500   14.868678   18.126388
  H     17.598874   13.169536   19.602014
  H     15.630588   13.796421   21.005761
  H     14.278582   15.413761   21.602145
  H     15.787040   17.808275   19.466925

 Total Charge           Charge          ....    0
 Multiplicity           Mult            ....    1
 Number of Electrons    NEL             ....  154
 Basis Dimension        Dim             ....  828

ORBITAL ENERGIES
----------------

  NO   OCC          E(Eh)            E(eV)
   0   2.0000     -91.890012     -2500.4543
   1   2.0000     -20.597718      -560.4924
   2   2.0000     -20.593587      -560.3800
   3   2.0000     -20.550471      -559.2068
   4   2.0000     -15.629122      -425.2900
   5   2.0000     -15.608636      -424.7326
   6   2.0000     -11.397992      -310.1551
   7   2.0000     -11.385291      -309.8095
   8   2.0000     -11.336806      -308.4902
   9   2.0000     -11.314416      -307.8809
  10   2.0000     -11.311039      -307.7890
  11   2.0000     -11.308112      -307.7094
  12   2.0000     -11.264703      -306.5281
  13   2.0000     -11.263717      -306.5013
  14   2.0000     -11.261504      -306.4411
  15   2.0000     -11.254500      -306.2505
  16   2.0000     -11.244093      -305.9673
  17   2.0000     -11.239768      -305.8496
  18   2.0000     -11.236289      -305.7550
  19   2.0000     -11.234103      -305.6955
  20   2.0000      -8.895109      -242.0482
  21   2.0000      -6.576689      -178.9608
  22   2.0000      -6.574680      -178.9061
  23   2.0000      -6.574094      -178.8902
  24   2.0000      -1.444989       -39.3202
  25   2.0000      -1.417492       -38.5719
  26   2.0000      -1.357686       -36.9445
  27   2.0000      -1.341765       -36.5113
  28   2.0000      -1.239430       -33.7266
  29   2.0000      -1.158649       -31.5284
  30   2.0000      -1.124316       -30.5942
  31   2.0000      -1.046353       -28.4727
  32   2.0000      -1.037071       -28.2201
  33   2.0000      -1.016706       -27.6660
  34   2.0000      -1.005455       -27.3598
  35   2.0000      -0.989239       -26.9186
  36   2.0000      -0.925988       -25.1974
  37   2.0000      -0.900260       -24.4973
  38   2.0000      -0.852583       -23.2000
  39   2.0000      -0.840482       -22.8707
  40   2.0000      -0.834327       -22.7032
  41   2.0000      -0.826229       -22.4828
  42   2.0000      -0.744429       -20.2570
  43   2.0000      -0.733112       -19.9490
  44   2.0000      -0.730927       -19.8895
  45   2.0000      -0.694680       -18.9032
  46   2.0000      -0.686434       -18.6788
  47   2.0000      -0.680735       -18.5237
  48   2.0000      -0.674954       -18.3664
  49   2.0000      -0.663114       -18.0442
  50   2.0000      -0.656503       -17.8644
  51   2.0000      -0.649840       -17.6830
  52   2.0000      -0.638770       -17.3818
  53   2.0000      -0.621573       -16.9138
  54   2.0000      -0.609217       -16.5776
  55   2.0000      -0.604843       -16.4586
  56   2.0000      -0.601365       -16.3640
  57   2.0000      -0.584527       -15.9058
  58   2.0000      -0.575777       -15.6677
  59   2.0000      -0.564161       -15.3516
  60   2.0000      -0.562132       -15.2964
  61   2.0000      -0.551200       -14.9989
  62   2.0000      -0.542633       -14.7658
  63   2.0000      -0.535142       -14.5620
  64   2.0000      -0.521886       -14.2012
  65   2.0000      -0.512051       -13.9336
  66   2.0000      -0.499892       -13.6028
  67   2.0000      -0.493260       -13.4223
  68   2.0000      -0.486058       -13.2263
  69   2.0000      -0.471726       -12.8363
  70   2.0000      -0.456556       -12.4235
  71   2.0000      -0.448331       -12.1997
  72   2.0000      -0.356231        -9.6935
  73   2.0000      -0.348687        -9.4882
  74   2.0000      -0.329362        -8.9624
  75   2.0000      -0.322210        -8.7678
  76   2.0000      -0.319748        -8.7008
  77   0.0000       0.078246         2.1292
  78   0.0000       0.105176         2.8620
  79   0.0000       0.116403         3.1675
  80   0.0000       0.131047         3.5660
  81   0.0000       0.132744         3.6122

MULLIKEN ATOMIC CHARGES
-----------------------
   0 C :   -0.335581
   1 C :    0.038695
   2 O :   -0.351356
   3 C :    0.446399
   4 O :   -0.380532
   5 C :   -0.267334
   6 C :    0.196589
   7 C :   -0.331657
   8 N :   -0.136672
   9 C :    0.204196
  10 S :   -0.441751
  11 N :   -0.220136
  12 C :    0.069685
  13 C :    0.020113
  14 C :   -0.209227
  15 C :   -0.130156
  16 C :   -0.278594
  17 C :    0.318425
  18 O :   -0.357718
  19 C :   -0.260530
  20 H :    0.126110
  21 H :    0.118620
  22 H :    0.111994
  23 H :    0.125311
  24 H :    0.084609
  25 H :    0.145516
  26 H :    0.121895
  27 H :    0.121115
  28 H :    0.198622
  29 H :    0.201866
  30 H :    0.164019
  31 H :    0.175793
  32 H :    0.163990
  33 H :    0.131480
  34 H :    0.241011
  35 H :    0.175191
Sum of atomic charges:   -0.0000000

LOEWDIN ATOMIC CHARGES
----------------------
   0 C :    0.104458
   1 C :   -0.013333
   2 O :    0.289741
   3 C :   -0.420402
   4 O :    0.124029
   5 C :   -0.087075
   6 C :   -0.079094
   7 C :    0.127227
   8 N :    0.403779
   9 C :   -0.458776
  10 S :   -0.037372
  11 N :    0.396399
  12 C :   -0.047800
  13 C :   -0.042778
  14 C :    0.021828
  15 C :    0.042515
  16 C :   -0.000884
  17 C :   -0.192776
  18 O :    0.394568
  19 C :    0.029343
  20 H :   -0.019515
  21 H :   -0.022248
  22 H :   -0.033733
  23 H :   -0.020991
  24 H :   -0.037672
  25 H :   -0.007036
  26 H :   -0.014187
  27 H :   -0.018428
  28 H :   -0.057646
  29 H :   -0.063233
  30 H :   -0.004810
  31 H :   -0.021676
  32 H :   -0.019155
  33 H :   -0.035128
  34 H :   -0.153631
  35 H :   -0.024505

  Mayer bond orders larger than 0.100000
B(  0-C ,  1-C ) :   0.9562 B(  0-C , 20-H ) :   0.9673 B(  0-C , 21-H ) :   0.9755
B(  0-C , 22-H ) :   0.9713 B(  1-C ,  2-O ) :   0.9052 B(  1-C , 23-H ) :   0.9819
B(  1-C , 24-H ) :   0.9759 B(  2-O ,  3-C ) :   1.1362 B(  3-C ,  4-O ) :   2.0807
B(  3-C ,  5-C ) :   0.9466 B(  5-C ,  6-C ) :   1.6912 B(  5-C , 12-C ) :   0.9432
B(  6-C ,  7-C ) :   0.9384 B(  6-C ,  8-N ) :   1.1186 B(  7-C , 25-H ) :   0.9677
B(  7-C , 26-H ) :   0.9837 B(  7-C , 27-H ) :   0.9672 B(  8-N ,  9-C ) :   1.1929
B(  8-N , 28-H ) :   0.9494 B(  9-C , 10-S ) :   1.6104 B(  9-C , 11-N ) :   1.2955
B( 11-N , 12-C ) :   0.9802 B( 11-N , 29-H ) :   0.9483 B( 12-C , 13-C ) :   0.9694
B( 12-C , 30-H ) :   0.9917 B( 13-C , 14-C ) :   1.3885 B( 13-C , 19-C ) :   1.3462
B( 14-C , 15-C ) :   1.3944 B( 14-C , 31-H ) :   0.9582 B( 15-C , 16-C ) :   1.3600
B( 15-C , 32-H ) :   0.9703 B( 16-C , 17-C ) :   1.3312 B( 16-C , 33-H ) :   0.9849
B( 17-C , 18-O ) :   1.1079 B( 17-C , 19-C ) :   1.3641 B( 18-O , 34-H ) :   0.9798
B( 19-C , 35-H ) :   0.9572

MP2 TOTAL ENERGY:    -1274.325212169 Eh
FINAL SINGLE POINT ENERGY     -1274.325212169251

DIPOLE MOMENT
-------------
                                X             Y             Z
Electronic contribution:      8.82466       7.05151       6.66647
Nuclear contribution   :    -10.42524      -8.18142      -7.23096
                        -----------------------------------------
Total Dipole Moment    :     -1.60058      -1.12991      -0.56448
                        -----------------------------------------
Magnitude (a.u.)       :      2.03892
Magnitude (Debye)      :      5.18252

Rotational constants in cm-1:     0.011485     0.009347     0.006469
Rotational constants in MHz :   344.321315   280.204871   193.945998

                             ****ORCA TERMINATED NORMALLY****
TOTAL RUN TIME: 0 days 2 hours 10 minutes 28 seconds 966 msec
