                         Program Version 4.2.0 -  RELEASE  -
|  1> ! ri-mp2 cc-pvtz cc-pvtz/c TightSCF NoKeepInts
|  2>
|  3> %scf
|  4>   MaxCore 4096
|  5> end
|  6> *xyz  0  1
|  7>     C       14.5435994   15.5956791   16.0482422
|  8>     C       15.1234755   15.7393757   14.6227538
|  9>     O       16.1588523   16.7417510   14.5859489
| 10>     C       17.1629121   16.6826178   15.5048550
| 11>     O       17.8691113   15.6952212   15.6161164
| 12>     C       17.1688575   17.8094404   16.4949011
| 13>     C       16.8517474   19.0833681   16.1482094
| 14>     C       16.2503483   19.5632575   14.8424189
| 15>     N       17.1200268   20.1450059   17.0156984
| 16>     C       17.8881094   20.0459824   18.1448972
| 17>     S       18.2494010   21.3667740   19.0723929
| 18>     N       18.3598004   18.7952354   18.4557161
| 19>     C       17.9892577   17.5465413   17.7613952
| 20>     C       17.3486919   16.5110731   18.6755344
| 21>     C       17.8761323   15.2105779   18.7663889
| 22>     C       17.2724990   14.2512765   19.5965405
| 23>     C       16.1314098   14.5955978   20.3413487
| 24>     C       15.6019917   15.8902042   20.2498900
| 25>     O       14.4953189   16.2229872   20.9608879
| 26>     C       16.2049940   16.8427838   19.4225092
| 27>     H       15.2794076   15.1626999   16.7386187
| 28>     H       13.6710728   14.9313871   16.0375189
| 29>     H       14.2247960   16.5686401   16.4424802
| 30>     H       15.5332141   14.7721746   14.3012135
| 31>     H       14.3237003   16.0170255   13.9243003
| 32>     H       15.2237041   19.1935000   14.7292619
| 33>     H       16.8352964   19.2023707   13.9869178
| 34>     H       16.2159029   20.6569604   14.7669935
| 35>     H       16.8004944   21.0730828   16.7885294
| 36>     H       18.9069418   18.7465572   19.3059490
| 37>     H       18.9769329   17.2062235   17.4172691
| 38>     H       18.7473221   14.9385348   18.1748129
| 39>     H       17.6860542   13.2459493   19.6540603
| 40>     H       15.6608203   13.8569079   20.9816050
| 41>     H       14.2534701   15.4534243   21.4978188
| 42>     H       15.7813331   17.8398115   19.3640057
| 43> *
| 44>
| 45>                          ****END OF INPUT****

CARTESIAN COORDINATES (ANGSTROEM)
---------------------------------
  C     14.543599   15.595679   16.048242
  C     15.123475   15.739376   14.622754
  O     16.158852   16.741751   14.585949
  C     17.162912   16.682618   15.504855
  O     17.869111   15.695221   15.616116
  C     17.168858   17.809440   16.494901
  C     16.851747   19.083368   16.148209
  C     16.250348   19.563257   14.842419
  N     17.120027   20.145006   17.015698
  C     17.888109   20.045982   18.144897
  S     18.249401   21.366774   19.072393
  N     18.359800   18.795235   18.455716
  C     17.989258   17.546541   17.761395
  C     17.348692   16.511073   18.675534
  C     17.876132   15.210578   18.766389
  C     17.272499   14.251276   19.596540
  C     16.131410   14.595598   20.341349
  C     15.601992   15.890204   20.249890
  O     14.495319   16.222987   20.960888
  C     16.204994   16.842784   19.422509
  H     15.279408   15.162700   16.738619
  H     13.671073   14.931387   16.037519
  H     14.224796   16.568640   16.442480
  H     15.533214   14.772175   14.301213
  H     14.323700   16.017025   13.924300
  H     15.223704   19.193500   14.729262
  H     16.835296   19.202371   13.986918
  H     16.215903   20.656960   14.766993
  H     16.800494   21.073083   16.788529
  H     18.906942   18.746557   19.305949
  H     18.976933   17.206224   17.417269
  H     18.747322   14.938535   18.174813
  H     17.686054   13.245949   19.654060
  H     15.660820   13.856908   20.981605
  H     14.253470   15.453424   21.497819
  H     15.781333   17.839811   19.364006

 Total Charge           Charge          ....    0
 Multiplicity           Mult            ....    1
 Number of Electrons    NEL             ....  154
 Basis Dimension        Dim             ....  828

ORBITAL ENERGIES
----------------

  NO   OCC          E(Eh)            E(eV)
   0   2.0000     -91.889201     -2500.4323
   1   2.0000     -20.595030      -560.4193
   2   2.0000     -20.587803      -560.2226
   3   2.0000     -20.550189      -559.1991
   4   2.0000     -15.629704      -425.3059
   5   2.0000     -15.607035      -424.6890
   6   2.0000     -11.393921      -310.0443
   7   2.0000     -11.384036      -309.7754
   8   2.0000     -11.338169      -308.5273
   9   2.0000     -11.311297      -307.7960
  10   2.0000     -11.305548      -307.6396
  11   2.0000     -11.303210      -307.5760
  12   2.0000     -11.259954      -306.3989
  13   2.0000     -11.259407      -306.3840
  14   2.0000     -11.257967      -306.3449
  15   2.0000     -11.251441      -306.1673
  16   2.0000     -11.241589      -305.8992
  17   2.0000     -11.237297      -305.7824
  18   2.0000     -11.234238      -305.6992
  19   2.0000     -11.228619      -305.5462
  20   2.0000      -8.894277      -242.0256
  21   2.0000      -6.575851      -178.9380
  22   2.0000      -6.573851      -178.8836
  23   2.0000      -6.573260      -178.8675
  24   2.0000      -1.450324       -39.4653
  25   2.0000      -1.414810       -38.4989
  26   2.0000      -1.356041       -36.8997
  27   2.0000      -1.340761       -36.4840
  28   2.0000      -1.238057       -33.6892
  29   2.0000      -1.155750       -31.4495
  30   2.0000      -1.122211       -30.5369
  31   2.0000      -1.044075       -28.4107
  32   2.0000      -1.031668       -28.0731
  33   2.0000      -1.013147       -27.5691
  34   2.0000      -1.001094       -27.2412
  35   2.0000      -0.986323       -26.8392
  36   2.0000      -0.923013       -25.1164
  37   2.0000      -0.895958       -24.3803
  38   2.0000      -0.848746       -23.0955
  39   2.0000      -0.837654       -22.7937
  40   2.0000      -0.831466       -22.6253
  41   2.0000      -0.817277       -22.2392
  42   2.0000      -0.748845       -20.3771
  43   2.0000      -0.734948       -19.9990
  44   2.0000      -0.728198       -19.8153
  45   2.0000      -0.692967       -18.8566
  46   2.0000      -0.686529       -18.6814
  47   2.0000      -0.677868       -18.4457
  48   2.0000      -0.670724       -18.2513
  49   2.0000      -0.661411       -17.9979
  50   2.0000      -0.653191       -17.7742
  51   2.0000      -0.646432       -17.5903
  52   2.0000      -0.634603       -17.2684
  53   2.0000      -0.615280       -16.7426
  54   2.0000      -0.604727       -16.4555
  55   2.0000      -0.601073       -16.3560
  56   2.0000      -0.598568       -16.2879
  57   2.0000      -0.579949       -15.7812
  58   2.0000      -0.575300       -15.6547
  59   2.0000      -0.563267       -15.3273
  60   2.0000      -0.554072       -15.0771
  61   2.0000      -0.548631       -14.9290
  62   2.0000      -0.539052       -14.6683
  63   2.0000      -0.532743       -14.4967
  64   2.0000      -0.519351       -14.1323
  65   2.0000      -0.510981       -13.9045
  66   2.0000      -0.498125       -13.5547
  67   2.0000      -0.493164       -13.4197
  68   2.0000      -0.481855       -13.1119
  69   2.0000      -0.464408       -12.6372
  70   2.0000      -0.457652       -12.4534
  71   2.0000      -0.449950       -12.2438
  72   2.0000      -0.353922        -9.6307
  73   2.0000      -0.347594        -9.4585
  74   2.0000      -0.328278        -8.9329
  75   2.0000      -0.318600        -8.6695
  76   2.0000      -0.318098        -8.6559
  77   0.0000       0.073639         2.0038
  78   0.0000       0.106817         2.9066
  79   0.0000       0.118787         3.2324
  80   0.0000       0.133047         3.6204
  81   0.0000       0.139794         3.8040

MULLIKEN ATOMIC CHARGES
-----------------------
   0 C :   -0.330627
   1 C :    0.044694
   2 O :   -0.377273
   3 C :    0.440168
   4 O :   -0.402790
   5 C :   -0.195187
   6 C :    0.156929
   7 C :   -0.280319
   8 N :   -0.127625
   9 C :    0.207869
  10 S :   -0.440656
  11 N :   -0.211508
  12 C :    0.054820
  13 C :    0.012727
  14 C :   -0.169320
  15 C :   -0.134375
  16 C :   -0.278281
  17 C :    0.313850
  18 O :   -0.358827
  19 C :   -0.247016
  20 H :    0.126886
  21 H :    0.111033
  22 H :    0.100099
  23 H :    0.107913
  24 H :    0.106989
  25 H :    0.123578
  26 H :    0.128899
  27 H :    0.102646
  28 H :    0.198410
  29 H :    0.199184
  30 H :    0.156042
  31 H :    0.162623
  32 H :    0.161581
  33 H :    0.130345
  34 H :    0.240499
  35 H :    0.166022
Sum of atomic charges:   -0.0000000

LOEWDIN ATOMIC CHARGES
----------------------
   0 C :    0.104990
   1 C :   -0.017845
   2 O :    0.291638
   3 C :   -0.420997
   4 O :    0.117898
   5 C :   -0.094713
   6 C :   -0.066998
   7 C :    0.126411
   8 N :    0.405666
   9 C :   -0.457619
  10 S :   -0.036560
  11 N :    0.396152
  12 C :   -0.048160
  13 C :   -0.042572
  14 C :    0.023698
  15 C :    0.040997
  16 C :   -0.001162
  17 C :   -0.193303
  18 O :    0.393730
  19 C :    0.030782
  20 H :   -0.021706
  21 H :   -0.024184
  22 H :   -0.029607
  23 H :   -0.027082
  24 H :   -0.024605
  25 H :   -0.010482
  26 H :   -0.007306
  27 H :   -0.020678
  28 H :   -0.058429
  29 H :   -0.063523
  30 H :   -0.007260
  31 H :   -0.023167
  32 H :   -0.020263
  33 H :   -0.035576
  34 H :   -0.154292
  35 H :   -0.023872

  Mayer bond orders larger than 0.100000
B(  0-C ,  1-C ) :   0.9563 B(  0-C , 20-H ) :   0.9672 B(  0-C , 21-H ) :   0.9765
B(  0-C , 22-H ) :   0.9730 B(  1-C ,  2-O ) :   0.9024 B(  1-C , 23-H ) :   0.9843
B(  1-C , 24-H ) :   0.9829 B(  2-O ,  3-C ) :   1.0772 B(  3-C ,  4-O ) :   2.0277
B(  3-C ,  5-C ) :   1.0209 B(  5-C ,  6-C ) :   1.6650 B(  5-C , 12-C ) :   0.9491
B(  6-C ,  7-C ) :   0.9551 B(  6-C ,  8-N ) :   1.1393 B(  7-C , 25-H ) :   0.9645
B(  7-C , 26-H ) :   0.9653 B(  7-C , 27-H ) :   0.9900 B(  8-N ,  9-C ) :   1.1847
B(  8-N , 28-H ) :   0.9470 B(  9-C , 10-S ) :   1.6114 B(  9-C , 11-N ) :   1.3031
B( 11-N , 12-C ) :   0.9803 B( 11-N , 29-H ) :   0.9488 B( 12-C , 13-C ) :   0.9637
B( 12-C , 30-H ) :   0.9957 B( 13-C , 14-C ) :   1.3820 B( 13-C , 19-C ) :   1.3649
B( 14-C , 15-C ) :   1.3959 B( 14-C , 31-H ) :   0.9622 B( 15-C , 16-C ) :   1.3596
B( 15-C , 32-H ) :   0.9710 B( 16-C , 17-C ) :   1.3319 B( 16-C , 33-H ) :   0.9852
B( 17-C , 18-O ) :   1.1055 B( 17-C , 19-C ) :   1.3660 B( 18-O , 34-H ) :   0.9802
B( 19-C , 35-H ) :   0.9599

MP2 TOTAL ENERGY:    -1274.330605372 Eh
FINAL SINGLE POINT ENERGY     -1274.330605371940

DIPOLE MOMENT
-------------
                                X             Y             Z
Electronic contribution:      9.21621       8.83789       7.30959
Nuclear contribution   :    -10.62164     -10.12052      -8.11498
                        -----------------------------------------
Total Dipole Moment    :     -1.40542      -1.28263      -0.80539
                        -----------------------------------------
Magnitude (a.u.)       :      2.06616
Magnitude (Debye)      :      5.25175

Rotational constants in cm-1:     0.011289     0.009264     0.006267
Rotational constants in MHz :   338.422530   277.725651   187.867154

                             ****ORCA TERMINATED NORMALLY****
TOTAL RUN TIME: 0 days 1 hours 45 minutes 49 seconds 813 msec
