                         Program Version 4.2.0 -  RELEASE  -
|  1> ! ri-mp2 cc-pvtz cc-pvtz/c TightSCF NoKeepInts
|  2>
|  3> %scf
|  4>   MaxCore 4096
|  5> end
|  6> *xyz  0  1
|  7>     C       14.6950403   15.7187665   16.2981956
|  8>     C       15.0286348   16.2593741   14.8909209
|  9>     O       16.4448057   16.1813018   14.6020462
| 10>     C       17.4445959   16.4825497   15.4915251
| 11>     O       18.4559659   15.8068429   15.5408366
| 12>     C       17.2102955   17.6313903   16.4238896
| 13>     C       16.8814146   18.8592672   15.9474936
| 14>     C       16.5266221   19.2422489   14.5233888
| 15>     N       16.9597044   19.9873404   16.7668946
| 16>     C       17.6066930   20.0196047   17.9733092
| 17>     S       17.7760266   21.4208704   18.8346994
| 18>     N       18.1337725   18.8316977   18.4142892
| 19>     C       17.9009736   17.5152398   17.7878338
| 20>     C       17.2632587   16.4830518   18.7079740
| 21>     C       17.7233388   15.1539153   18.7074893
| 22>     C       17.1267610   14.1903061   19.5374236
| 23>     C       16.0603305   14.5586737   20.3752176
| 24>     C       15.5987154   15.8819765   20.3773135
| 25>     O       14.5634664   16.2386252   21.1783320
| 26>     C       16.1942376   16.8393540   19.5497404
| 27>     H       15.2658520   14.8070560   16.5181375
| 28>     H       13.6286314   15.4711331   16.3638428
| 29>     H       14.9016611   16.4615010   17.0754295
| 30>     H       14.4909435   15.6634563   14.1419002
| 31>     H       14.6646019   17.2890104   14.8093386
| 32>     H       16.8902228   18.5145871   13.7883925
| 33>     H       16.9854005   20.2001026   14.2459041
| 34>     H       15.4431107   19.3482154   14.3967253
| 35>     H       16.6132141   20.8742932   16.4366627
| 36>     H       18.6060775   18.8799487   19.3085112
| 37>     H       18.9397359   17.2261966   17.5684477
| 38>     H       18.5420729   14.8648039   18.0515027
| 39>     H       17.4901363   13.1640454   19.5256567
| 40>     H       15.5957156   13.8168721   21.0163975
| 41>     H       14.3171506   15.4593889   21.6992541
| 42>     H       15.8178200   17.8569925   19.5630839
| 43> *
| 44>
| 45>                          ****END OF INPUT****

CARTESIAN COORDINATES (ANGSTROEM)
---------------------------------
  C     14.695040   15.718766   16.298196
  C     15.028635   16.259374   14.890921
  O     16.444806   16.181302   14.602046
  C     17.444596   16.482550   15.491525
  O     18.455966   15.806843   15.540837
  C     17.210295   17.631390   16.423890
  C     16.881415   18.859267   15.947494
  C     16.526622   19.242249   14.523389
  N     16.959704   19.987340   16.766895
  C     17.606693   20.019605   17.973309
  S     17.776027   21.420870   18.834699
  N     18.133772   18.831698   18.414289
  C     17.900974   17.515240   17.787834
  C     17.263259   16.483052   18.707974
  C     17.723339   15.153915   18.707489
  C     17.126761   14.190306   19.537424
  C     16.060330   14.558674   20.375218
  C     15.598715   15.881977   20.377313
  O     14.563466   16.238625   21.178332
  C     16.194238   16.839354   19.549740
  H     15.265852   14.807056   16.518138
  H     13.628631   15.471133   16.363843
  H     14.901661   16.461501   17.075429
  H     14.490944   15.663456   14.141900
  H     14.664602   17.289010   14.809339
  H     16.890223   18.514587   13.788393
  H     16.985401   20.200103   14.245904
  H     15.443111   19.348215   14.396725
  H     16.613214   20.874293   16.436663
  H     18.606078   18.879949   19.308511
  H     18.939736   17.226197   17.568448
  H     18.542073   14.864804   18.051503
  H     17.490136   13.164045   19.525657
  H     15.595716   13.816872   21.016398
  H     14.317151   15.459389   21.699254
  H     15.817820   17.856993   19.563084

 Total Charge           Charge          ....    0
 Multiplicity           Mult            ....    1
 Number of Electrons    NEL             ....  154
 Basis Dimension        Dim             ....  828

ORBITAL ENERGIES
----------------

  NO   OCC          E(Eh)            E(eV)
   0   2.0000     -91.890157     -2500.4583
   1   2.0000     -20.598253      -560.5070
   2   2.0000     -20.597682      -560.4914
   3   2.0000     -20.551078      -559.2233
   4   2.0000     -15.628676      -425.2779
   5   2.0000     -15.609165      -424.7470
   6   2.0000     -11.399447      -310.1947
   7   2.0000     -11.385625      -309.8186
   8   2.0000     -11.336981      -308.4949
   9   2.0000     -11.315292      -307.9047
  10   2.0000     -11.309790      -307.7550
  11   2.0000     -11.309350      -307.7431
  12   2.0000     -11.265800      -306.5580
  13   2.0000     -11.265682      -306.5548
  14   2.0000     -11.262872      -306.4783
  15   2.0000     -11.255430      -306.2758
  16   2.0000     -11.244555      -305.9799
  17   2.0000     -11.240323      -305.8647
  18   2.0000     -11.236795      -305.7687
  19   2.0000     -11.230981      -305.6105
  20   2.0000      -8.895259      -242.0523
  21   2.0000      -6.576840      -178.9649
  22   2.0000      -6.574828      -178.9102
  23   2.0000      -6.574243      -178.8943
  24   2.0000      -1.446865       -39.3712
  25   2.0000      -1.418010       -38.5860
  26   2.0000      -1.359990       -37.0072
  27   2.0000      -1.341967       -36.5168
  28   2.0000      -1.239824       -33.7373
  29   2.0000      -1.159383       -31.5484
  30   2.0000      -1.125134       -30.6165
  31   2.0000      -1.046970       -28.4895
  32   2.0000      -1.036701       -28.2101
  33   2.0000      -1.017717       -27.6935
  34   2.0000      -1.006033       -27.3755
  35   2.0000      -0.989651       -26.9298
  36   2.0000      -0.926374       -25.2079
  37   2.0000      -0.898406       -24.4469
  38   2.0000      -0.853569       -23.2268
  39   2.0000      -0.841157       -22.8890
  40   2.0000      -0.834925       -22.7195
  41   2.0000      -0.829061       -22.5599
  42   2.0000      -0.745120       -20.2758
  43   2.0000      -0.736452       -20.0399
  44   2.0000      -0.731398       -19.9023
  45   2.0000      -0.695411       -18.9231
  46   2.0000      -0.687155       -18.6984
  47   2.0000      -0.682020       -18.5587
  48   2.0000      -0.675260       -18.3747
  49   2.0000      -0.661406       -17.9978
  50   2.0000      -0.657589       -17.8939
  51   2.0000      -0.648911       -17.6578
  52   2.0000      -0.638322       -17.3696
  53   2.0000      -0.622330       -16.9345
  54   2.0000      -0.610691       -16.6178
  55   2.0000      -0.605484       -16.4760
  56   2.0000      -0.601714       -16.3735
  57   2.0000      -0.585930       -15.9440
  58   2.0000      -0.575593       -15.6627
  59   2.0000      -0.564429       -15.3589
  60   2.0000      -0.563853       -15.3432
  61   2.0000      -0.551083       -14.9957
  62   2.0000      -0.540948       -14.7199
  63   2.0000      -0.536860       -14.6087
  64   2.0000      -0.521447       -14.1893
  65   2.0000      -0.512124       -13.9356
  66   2.0000      -0.500688       -13.6244
  67   2.0000      -0.498653       -13.5690
  68   2.0000      -0.484653       -13.1881
  69   2.0000      -0.469802       -12.7840
  70   2.0000      -0.457077       -12.4377
  71   2.0000      -0.449742       -12.2381
  72   2.0000      -0.357792        -9.7360
  73   2.0000      -0.349096        -9.4994
  74   2.0000      -0.329602        -8.9689
  75   2.0000      -0.323105        -8.7921
  76   2.0000      -0.320249        -8.7144
  77   0.0000       0.080667         2.1951
  78   0.0000       0.104694         2.8489
  79   0.0000       0.116679         3.1750
  80   0.0000       0.129692         3.5291
  81   0.0000       0.130848         3.5606

MULLIKEN ATOMIC CHARGES
-----------------------
   0 C :   -0.326081
   1 C :    0.039402
   2 O :   -0.341588
   3 C :    0.446275
   4 O :   -0.381073
   5 C :   -0.250508
   6 C :    0.169954
   7 C :   -0.335196
   8 N :   -0.138627
   9 C :    0.205915
  10 S :   -0.442042
  11 N :   -0.226084
  12 C :    0.076661
  13 C :    0.016984
  14 C :   -0.221729
  15 C :   -0.131432
  16 C :   -0.275224
  17 C :    0.321195
  18 O :   -0.356741
  19 C :   -0.258314
  20 H :    0.120874
  21 H :    0.112247
  22 H :    0.113270
  23 H :    0.125836
  24 H :    0.079120
  25 H :    0.142573
  26 H :    0.127480
  27 H :    0.123700
  28 H :    0.198065
  29 H :    0.203861
  30 H :    0.166331
  31 H :    0.180060
  32 H :    0.164919
  33 H :    0.131673
  34 H :    0.240993
  35 H :    0.177248
Sum of atomic charges:   -0.0000000

LOEWDIN ATOMIC CHARGES
----------------------
   0 C :    0.106461
   1 C :   -0.017310
   2 O :    0.294740
   3 C :   -0.417303
   4 O :    0.123159
   5 C :   -0.085334
   6 C :   -0.083509
   7 C :    0.125167
   8 N :    0.403421
   9 C :   -0.458799
  10 S :   -0.037518
  11 N :    0.396442
  12 C :   -0.047486
  13 C :   -0.042680
  14 C :    0.021577
  15 C :    0.043606
  16 C :   -0.000650
  17 C :   -0.192015
  18 O :    0.395148
  19 C :    0.027425
  20 H :   -0.020639
  21 H :   -0.024068
  22 H :   -0.033214
  23 H :   -0.020187
  24 H :   -0.039083
  25 H :   -0.008139
  26 H :   -0.012079
  27 H :   -0.019157
  28 H :   -0.056942
  29 H :   -0.063195
  30 H :   -0.004343
  31 H :   -0.021769
  32 H :   -0.018920
  33 H :   -0.035042
  34 H :   -0.153444
  35 H :   -0.024319

  Mayer bond orders larger than 0.100000
B(  0-C ,  1-C ) :   0.9555 B(  0-C , 20-H ) :   0.9701 B(  0-C , 21-H ) :   0.9772
B(  0-C , 22-H ) :   0.9703 B(  1-C ,  2-O ) :   0.9037 B(  1-C , 23-H ) :   0.9820
B(  1-C , 24-H ) :   0.9734 B(  2-O ,  3-C ) :   1.1488 B(  3-C ,  4-O ) :   2.0814
B(  3-C ,  5-C ) :   0.9379 B(  5-C ,  6-C ) :   1.6981 B(  5-C , 12-C ) :   0.9364
B(  6-C ,  7-C ) :   0.9357 B(  6-C ,  8-N ) :   1.1147 B(  7-C , 25-H ) :   0.9708
B(  7-C , 26-H ) :   0.9789 B(  7-C , 27-H ) :   0.9662 B(  8-N ,  9-C ) :   1.1952
B(  8-N , 28-H ) :   0.9507 B(  9-C , 10-S ) :   1.6098 B(  9-C , 11-N ) :   1.2939
B( 11-N , 12-C ) :   0.9777 B( 11-N , 29-H ) :   0.9474 B( 12-C , 13-C ) :   0.9723
B( 12-C , 30-H ) :   0.9902 B( 13-C , 14-C ) :   1.3868 B( 13-C , 19-C ) :   1.3424
B( 14-C , 15-C ) :   1.3961 B( 14-C , 31-H ) :   0.9570 B( 15-C , 16-C ) :   1.3593
B( 15-C , 32-H ) :   0.9698 B( 16-C , 17-C ) :   1.3321 B( 16-C , 33-H ) :   0.9847
B( 17-C , 18-O ) :   1.1086 B( 17-C , 19-C ) :   1.3604 B( 18-O , 34-H ) :   0.9797
B( 19-C , 35-H ) :   0.9573

MP2 TOTAL ENERGY:    -1274.327774471 Eh
FINAL SINGLE POINT ENERGY     -1274.327774471377

DIPOLE MOMENT
-------------
                                X             Y             Z
Electronic contribution:      8.55416       7.39896       6.70910
Nuclear contribution   :    -10.15321      -8.53086      -7.26652
                        -----------------------------------------
Total Dipole Moment    :     -1.59905      -1.13191      -0.55742
                        -----------------------------------------
Magnitude (a.u.)       :      2.03689
Magnitude (Debye)      :      5.17735

Rotational constants in cm-1:     0.011510     0.009332     0.006402
Rotational constants in MHz :   345.074009   279.772900   191.927621

                             ****ORCA TERMINATED NORMALLY****
TOTAL RUN TIME: 0 days 2 hours 4 minutes 13 seconds 196 msec
