                         Program Version 4.2.0 -  RELEASE  -
|  1> ! ri-mp2 cc-pvtz cc-pvtz/c TightSCF NoKeepInts
|  2>
|  3> %scf
|  4>   MaxCore 4096
|  5> end
|  6> *xyz  0  1
|  7>     C       15.0763126   14.6213025   14.2087285
|  8>     C       15.0983799   15.1922452   15.6375162
|  9>     O       16.2085000   16.0997807   15.7357324
| 10>     C       15.9658503   17.4417663   15.6739773
| 11>     O       15.1261542   17.9083969   14.9233864
| 12>     C       16.7406283   18.2213120   16.7020861
| 13>     C       16.8205831   19.5749327   16.6323050
| 14>     C       16.0007315   20.4960138   15.7525656
| 15>     N       17.7406834   20.2824631   17.4093154
| 16>     C       18.7431252   19.7042942   18.1400845
| 17>     S       19.8587152   20.6058175   18.9637082
| 18>     N       18.7883972   18.3331197   18.1371158
| 19>     C       17.7814246   17.4448092   17.5264339
| 20>     C       17.1784701   16.4666446   18.5264367
| 21>     C       17.4960450   15.0970277   18.4691954
| 22>     C       16.9351235   14.1954989   19.3893881
| 23>     C       16.0529409   14.6685726   20.3760506
| 24>     C       15.7393265   16.0335300   20.4378847
| 25>     O       14.8887189   16.4929888   21.3898340
| 26>     C       16.2983154   16.9280685   19.5198199
| 27>     H       14.9170017   15.4228227   13.4760662
| 28>     H       14.2654143   13.8913643   14.0982193
| 29>     H       16.0246895   14.1219023   13.9753855
| 30>     H       14.1476648   15.6910484   15.8721522
| 31>     H       15.2376556   14.3695103   16.3507599
| 32>     H       14.9279376   20.3194963   15.9032299
| 33>     H       16.2170610   20.3124432   14.6923717
| 34>     H       16.1874493   21.5582660   15.9493675
| 35>     H       17.7323441   21.2898963   17.4020106
| 36>     H       19.5205670   17.9348922   18.7114016
| 37>     H       18.4057528   16.9139648   16.7936219
| 38>     H       18.1740149   14.7300915   17.7029891
| 39>     H       17.1851512   13.1371967   19.3371138
| 40>     H       15.6181078   13.9765505   21.0898098
| 41>     H       14.6387504   15.7400415   21.9461880
| 42>     H       16.0490121   17.9819281   19.5857484
| 43> *
| 44>
| 45>                          ****END OF INPUT****

CARTESIAN COORDINATES (ANGSTROEM)
---------------------------------
  C     15.076313   14.621302   14.208728
  C     15.098380   15.192245   15.637516
  O     16.208500   16.099781   15.735732
  C     15.965850   17.441766   15.673977
  O     15.126154   17.908397   14.923386
  C     16.740628   18.221312   16.702086
  C     16.820583   19.574933   16.632305
  C     16.000732   20.496014   15.752566
  N     17.740683   20.282463   17.409315
  C     18.743125   19.704294   18.140084
  S     19.858715   20.605817   18.963708
  N     18.788397   18.333120   18.137116
  C     17.781425   17.444809   17.526434
  C     17.178470   16.466645   18.526437
  C     17.496045   15.097028   18.469195
  C     16.935123   14.195499   19.389388
  C     16.052941   14.668573   20.376051
  C     15.739327   16.033530   20.437885
  O     14.888719   16.492989   21.389834
  C     16.298315   16.928068   19.519820
  H     14.917002   15.422823   13.476066
  H     14.265414   13.891364   14.098219
  H     16.024690   14.121902   13.975385
  H     14.147665   15.691048   15.872152
  H     15.237656   14.369510   16.350760
  H     14.927938   20.319496   15.903230
  H     16.217061   20.312443   14.692372
  H     16.187449   21.558266   15.949367
  H     17.732344   21.289896   17.402011
  H     19.520567   17.934892   18.711402
  H     18.405753   16.913965   16.793622
  H     18.174015   14.730092   17.702989
  H     17.185151   13.137197   19.337114
  H     15.618108   13.976550   21.089810
  H     14.638750   15.740041   21.946188
  H     16.049012   17.981928   19.585748

 Total Charge           Charge          ....    0
 Multiplicity           Mult            ....    1
 Number of Electrons    NEL             ....  154
 Basis Dimension        Dim             ....  828

ORBITAL ENERGIES
----------------

  NO   OCC          E(Eh)            E(eV)
   0   2.0000     -91.889683     -2500.4454
   1   2.0000     -20.598009      -560.5003
   2   2.0000     -20.593320      -560.3727
   3   2.0000     -20.543671      -559.0217
   4   2.0000     -15.630188      -425.3190
   5   2.0000     -15.607745      -424.7083
   6   2.0000     -11.394377      -310.0568
   7   2.0000     -11.384344      -309.7838
   8   2.0000     -11.338257      -308.5297
   9   2.0000     -11.315400      -307.9077
  10   2.0000     -11.308315      -307.7149
  11   2.0000     -11.296126      -307.3832
  12   2.0000     -11.262320      -306.4633
  13   2.0000     -11.258787      -306.3672
  14   2.0000     -11.256841      -306.3142
  15   2.0000     -11.252524      -306.1968
  16   2.0000     -11.245187      -305.9971
  17   2.0000     -11.240501      -305.8696
  18   2.0000     -11.240175      -305.8607
  19   2.0000     -11.221346      -305.3484
  20   2.0000      -8.894744      -242.0383
  21   2.0000      -6.576314      -178.9506
  22   2.0000      -6.574318      -178.8963
  23   2.0000      -6.573725      -178.8801
  24   2.0000      -1.450700       -39.4756
  25   2.0000      -1.417674       -38.5769
  26   2.0000      -1.354314       -36.8528
  27   2.0000      -1.341177       -36.4953
  28   2.0000      -1.239037       -33.7159
  29   2.0000      -1.159068       -31.5398
  30   2.0000      -1.121876       -30.5278
  31   2.0000      -1.044036       -28.4097
  32   2.0000      -1.035304       -28.1721
  33   2.0000      -1.016624       -27.6637
  34   2.0000      -0.996523       -27.1168
  35   2.0000      -0.985091       -26.8057
  36   2.0000      -0.922803       -25.1107
  37   2.0000      -0.886681       -24.1278
  38   2.0000      -0.847584       -23.0639
  39   2.0000      -0.839377       -22.8406
  40   2.0000      -0.835708       -22.7408
  41   2.0000      -0.821922       -22.3656
  42   2.0000      -0.760216       -20.6865
  43   2.0000      -0.734588       -19.9891
  44   2.0000      -0.723089       -19.6762
  45   2.0000      -0.696755       -18.9597
  46   2.0000      -0.689406       -18.7597
  47   2.0000      -0.679300       -18.4847
  48   2.0000      -0.671863       -18.2823
  49   2.0000      -0.651382       -17.7250
  50   2.0000      -0.648220       -17.6390
  51   2.0000      -0.642829       -17.4923
  52   2.0000      -0.631614       -17.1871
  53   2.0000      -0.610166       -16.6035
  54   2.0000      -0.607528       -16.5317
  55   2.0000      -0.600713       -16.3462
  56   2.0000      -0.600312       -16.3353
  57   2.0000      -0.579923       -15.7805
  58   2.0000      -0.572831       -15.5875
  59   2.0000      -0.569593       -15.4994
  60   2.0000      -0.564509       -15.3611
  61   2.0000      -0.541521       -14.7355
  62   2.0000      -0.534599       -14.5472
  63   2.0000      -0.525349       -14.2955
  64   2.0000      -0.518349       -14.1050
  65   2.0000      -0.514127       -13.9901
  66   2.0000      -0.501129       -13.6364
  67   2.0000      -0.497298       -13.5322
  68   2.0000      -0.487327       -13.2609
  69   2.0000      -0.464112       -12.6291
  70   2.0000      -0.453997       -12.3539
  71   2.0000      -0.446862       -12.1597
  72   2.0000      -0.353749        -9.6260
  73   2.0000      -0.351218        -9.5571
  74   2.0000      -0.328860        -8.9487
  75   2.0000      -0.322843        -8.7850
  76   2.0000      -0.318918        -8.6782
  77   0.0000       0.074228         2.0199
  78   0.0000       0.103250         2.8096
  79   0.0000       0.124871         3.3979
  80   0.0000       0.131849         3.5878
  81   0.0000       0.136141         3.7046

MULLIKEN ATOMIC CHARGES
-----------------------
   0 C :   -0.272096
   1 C :    0.036909
   2 O :   -0.360528
   3 C :    0.435316
   4 O :   -0.428116
   5 C :   -0.230059
   6 C :    0.177694
   7 C :   -0.267698
   8 N :   -0.126173
   9 C :    0.210423
  10 S :   -0.440529
  11 N :   -0.216149
  12 C :    0.067502
  13 C :    0.040645
  14 C :   -0.191764
  15 C :   -0.130094
  16 C :   -0.277770
  17 C :    0.316511
  18 O :   -0.356362
  19 C :   -0.248592
  20 H :    0.111381
  21 H :    0.089102
  22 H :    0.090041
  23 H :    0.094513
  24 H :    0.110152
  25 H :    0.133681
  26 H :    0.129422
  27 H :    0.094965
  28 H :    0.199845
  29 H :    0.200682
  30 H :    0.153180
  31 H :    0.155370
  32 H :    0.163245
  33 H :    0.131144
  34 H :    0.240818
  35 H :    0.163388
Sum of atomic charges:    0.0000000

LOEWDIN ATOMIC CHARGES
----------------------
   0 C :    0.104697
   1 C :   -0.016997
   2 O :    0.306143
   3 C :   -0.417719
   4 O :    0.101194
   5 C :   -0.097347
   6 C :   -0.055329
   7 C :    0.131630
   8 N :    0.407429
   9 C :   -0.456335
  10 S :   -0.035451
  11 N :    0.394513
  12 C :   -0.054568
  13 C :   -0.039389
  14 C :    0.017719
  15 C :    0.038427
  16 C :   -0.001047
  17 C :   -0.189701
  18 O :    0.395282
  19 C :    0.032768
  20 H :   -0.023644
  21 H :   -0.029068
  22 H :   -0.029541
  23 H :   -0.028084
  24 H :   -0.027766
  25 H :   -0.004256
  26 H :   -0.004698
  27 H :   -0.023476
  28 H :   -0.057029
  29 H :   -0.064358
  30 H :   -0.012942
  31 H :   -0.028492
  32 H :   -0.021090
  33 H :   -0.035204
  34 H :   -0.153678
  35 H :   -0.022595

  Mayer bond orders larger than 0.100000
B(  0-C ,  1-C ) :   0.9777 B(  0-C , 20-H ) :   0.9761 B(  0-C , 21-H ) :   0.9771
B(  0-C , 22-H ) :   0.9779 B(  1-C ,  2-O ) :   0.8857 B(  1-C , 23-H ) :   0.9729
B(  1-C , 24-H ) :   0.9773 B(  2-O ,  3-C ) :   1.1305 B(  3-C ,  4-O ) :   1.9711
B(  3-C ,  5-C ) :   1.0761 B(  5-C ,  6-C ) :   1.6308 B(  5-C , 12-C ) :   0.9544
B(  6-C ,  7-C ) :   0.9657 B(  6-C ,  8-N ) :   1.1542 B(  7-C , 25-H ) :   0.9608
B(  7-C , 26-H ) :   0.9587 B(  7-C , 27-H ) :   0.9906 B(  8-N ,  9-C ) :   1.1864
B(  8-N , 28-H ) :   0.9462 B(  9-C , 10-S ) :   1.6074 B(  9-C , 11-N ) :   1.3093
B( 11-N , 12-C ) :   0.9669 B( 11-N , 29-H ) :   0.9484 B( 12-C , 13-C ) :   0.9615
B( 12-C , 30-H ) :   1.0013 B( 13-C , 14-C ) :   1.3497 B( 13-C , 19-C ) :   1.3792
B( 14-C , 15-C ) :   1.3900 B( 14-C , 31-H ) :   0.9715 B( 15-C , 16-C ) :   1.3592
B( 15-C , 32-H ) :   0.9700 B( 16-C , 17-C ) :   1.3333 B( 16-C , 33-H ) :   0.9847
B( 17-C , 18-O ) :   1.1052 B( 17-C , 19-C ) :   1.3646 B( 18-O , 34-H ) :   0.9796
B( 19-C , 35-H ) :   0.9597

MP2 TOTAL ENERGY:    -1274.337472334 Eh
FINAL SINGLE POINT ENERGY     -1274.337472334030

DIPOLE MOMENT
-------------
                                X             Y             Z
Electronic contribution:      9.21481      10.23682       9.84972
Nuclear contribution   :    -10.29517     -11.84950     -10.01811
                        -----------------------------------------
Total Dipole Moment    :     -1.08036      -1.61268      -0.16839
                        -----------------------------------------
Magnitude (a.u.)       :      1.94840
Magnitude (Debye)      :      4.95244

Rotational constants in cm-1:     0.011188     0.008586     0.005841
Rotational constants in MHz :   335.396677   257.387796   175.097188

                             ****ORCA TERMINATED NORMALLY****
TOTAL RUN TIME: 0 days 1 hours 44 minutes 4 seconds 306 msec
