                         Program Version 4.2.0 -  RELEASE  -
|  1> ! ri-mp2 cc-pvtz cc-pvtz/c TightSCF NoKeepInts
|  2>
|  3> %scf
|  4>   MaxCore 4096
|  5> end
|  6> *xyz  0  1
|  7>     C       15.2145446   14.2268440   16.4680618
|  8>     C       15.4051664   15.2701234   15.3563537
|  9>     O       16.7194497   15.8495423   15.4560776
| 10>     C       16.8129132   17.1690642   15.1312579
| 11>     O       16.5850711   17.5286747   13.9900577
| 12>     C       17.0206206   18.0908779   16.3042889
| 13>     C       17.0247817   19.4370674   16.1123452
| 14>     C       16.4875500   20.1993760   14.9178863
| 15>     N       17.5503603   20.3035441   17.0729744
| 16>     C       18.3102206   19.9040906   18.1374073
| 17>     S       19.0163707   20.9877226   19.1682066
| 18>     N       18.4807720   18.5520093   18.2870789
| 19>     C       17.7803706   17.5105612   17.5116826
| 20>     C       17.0030036   16.5710479   18.4203269
| 21>     C       17.5352059   15.3169635   18.7727883
| 22>     C       16.8583369   14.4849113   19.6810180
| 23>     C       15.6438929   14.9137178   20.2447353
| 24>     C       15.1159632   16.1659895   19.8997775
| 25>     O       13.9458428   16.5838429   20.4443865
| 26>     C       15.7916357   16.9918227   18.9954556
| 27>     H       16.0862553   13.5645186   16.5380245
| 28>     H       14.3303269   13.6108567   16.2652012
| 29>     H       15.0633345   14.7145653   17.4345325
| 30>     H       15.2912203   14.7983799   14.3713628
| 31>     H       14.6265537   16.0392172   15.4564772
| 32>     H       15.5111384   19.8043199   14.6101272
| 33>     H       17.1662234   20.1011799   14.0607025
| 34>     H       16.3536821   21.2691666   15.1172719
| 35>     H       17.4606181   21.2997136   16.9517532
| 36>     H       19.0247584   18.2854278   19.0980403
| 37>     H       18.6506375   16.9960582   17.0797310
| 38>     H       18.4790691   14.9888686   18.3453085
| 39>     H       17.2766613   13.5158008   19.9478290
| 40>     H       15.1189113   14.2753672   20.9478711
| 41>     H       13.6639167   15.9107947   21.0822388
| 42>     H       15.3816204   17.9679718   18.7593613
| 43> *
| 44>
| 45>                          ****END OF INPUT****

CARTESIAN COORDINATES (ANGSTROEM)
---------------------------------
  C     15.214545   14.226844   16.468062
  C     15.405166   15.270123   15.356354
  O     16.719450   15.849542   15.456078
  C     16.812913   17.169064   15.131258
  O     16.585071   17.528675   13.990058
  C     17.020621   18.090878   16.304289
  C     17.024782   19.437067   16.112345
  C     16.487550   20.199376   14.917886
  N     17.550360   20.303544   17.072974
  C     18.310221   19.904091   18.137407
  S     19.016371   20.987723   19.168207
  N     18.480772   18.552009   18.287079
  C     17.780371   17.510561   17.511683
  C     17.003004   16.571048   18.420327
  C     17.535206   15.316963   18.772788
  C     16.858337   14.484911   19.681018
  C     15.643893   14.913718   20.244735
  C     15.115963   16.165989   19.899777
  O     13.945843   16.583843   20.444387
  C     15.791636   16.991823   18.995456
  H     16.086255   13.564519   16.538024
  H     14.330327   13.610857   16.265201
  H     15.063334   14.714565   17.434532
  H     15.291220   14.798380   14.371363
  H     14.626554   16.039217   15.456477
  H     15.511138   19.804320   14.610127
  H     17.166223   20.101180   14.060702
  H     16.353682   21.269167   15.117272
  H     17.460618   21.299714   16.951753
  H     19.024758   18.285428   19.098040
  H     18.650637   16.996058   17.079731
  H     18.479069   14.988869   18.345308
  H     17.276661   13.515801   19.947829
  H     15.118911   14.275367   20.947871
  H     13.663917   15.910795   21.082239
  H     15.381620   17.967972   18.759361

 Total Charge           Charge          ....    0
 Multiplicity           Mult            ....    1
 Number of Electrons    NEL             ....  154
 Basis Dimension        Dim             ....  828

ORBITAL ENERGIES
----------------

  NO   OCC          E(Eh)            E(eV)
   0   2.0000     -91.890978     -2500.4806
   1   2.0000     -20.601421      -560.5932
   2   2.0000     -20.583251      -560.0987
   3   2.0000     -20.545679      -559.0764
   4   2.0000     -15.631417      -425.3525
   5   2.0000     -15.608766      -424.7361
   6   2.0000     -11.391550      -309.9798
   7   2.0000     -11.385074      -309.8036
   8   2.0000     -11.340273      -308.5845
   9   2.0000     -11.319109      -308.0086
  10   2.0000     -11.311235      -307.7943
  11   2.0000     -11.296201      -307.3853
  12   2.0000     -11.265415      -306.5475
  13   2.0000     -11.259969      -306.3993
  14   2.0000     -11.259727      -306.3927
  15   2.0000     -11.253503      -306.2234
  16   2.0000     -11.248409      -306.0848
  17   2.0000     -11.243464      -305.9502
  18   2.0000     -11.242778      -305.9315
  19   2.0000     -11.221362      -305.3488
  20   2.0000      -8.896020      -242.0730
  21   2.0000      -6.577584      -178.9852
  22   2.0000      -6.575594      -178.9310
  23   2.0000      -6.574996      -178.9147
  24   2.0000      -1.448697       -39.4210
  25   2.0000      -1.421137       -38.6711
  26   2.0000      -1.351816       -36.7848
  27   2.0000      -1.343224       -36.5510
  28   2.0000      -1.241170       -33.7739
  29   2.0000      -1.161832       -31.6151
  30   2.0000      -1.122901       -30.5557
  31   2.0000      -1.046294       -28.4711
  32   2.0000      -1.033149       -28.1134
  33   2.0000      -1.019869       -27.7520
  34   2.0000      -0.999776       -27.2053
  35   2.0000      -0.986955       -26.8564
  36   2.0000      -0.924934       -25.1687
  37   2.0000      -0.880181       -23.9509
  38   2.0000      -0.849025       -23.1032
  39   2.0000      -0.842264       -22.9192
  40   2.0000      -0.838311       -22.8116
  41   2.0000      -0.824482       -22.4353
  42   2.0000      -0.762792       -20.7566
  43   2.0000      -0.737209       -20.0605
  44   2.0000      -0.722421       -19.6581
  45   2.0000      -0.699606       -19.0373
  46   2.0000      -0.688587       -18.7374
  47   2.0000      -0.679013       -18.4769
  48   2.0000      -0.673653       -18.3310
  49   2.0000      -0.664233       -18.0747
  50   2.0000      -0.648060       -17.6346
  51   2.0000      -0.642662       -17.4877
  52   2.0000      -0.635220       -17.2852
  53   2.0000      -0.611404       -16.6372
  54   2.0000      -0.606207       -16.4957
  55   2.0000      -0.603017       -16.4089
  56   2.0000      -0.600983       -16.3536
  57   2.0000      -0.580796       -15.8043
  58   2.0000      -0.572233       -15.5713
  59   2.0000      -0.567266       -15.4361
  60   2.0000      -0.554879       -15.0990
  61   2.0000      -0.546139       -14.8612
  62   2.0000      -0.541344       -14.7307
  63   2.0000      -0.527994       -14.3674
  64   2.0000      -0.516163       -14.0455
  65   2.0000      -0.511123       -13.9084
  66   2.0000      -0.505255       -13.7487
  67   2.0000      -0.501272       -13.6403
  68   2.0000      -0.483927       -13.1683
  69   2.0000      -0.464143       -12.6300
  70   2.0000      -0.452104       -12.3024
  71   2.0000      -0.445637       -12.1264
  72   2.0000      -0.355212        -9.6658
  73   2.0000      -0.354820        -9.6552
  74   2.0000      -0.330448        -8.9919
  75   2.0000      -0.326322        -8.8797
  76   2.0000      -0.320750        -8.7280
  77   0.0000       0.070812         1.9269
  78   0.0000       0.100335         2.7303
  79   0.0000       0.121880         3.3165
  80   0.0000       0.128763         3.5038
  81   0.0000       0.130943         3.5631

MULLIKEN ATOMIC CHARGES
-----------------------
   0 C :   -0.293890
   1 C :    0.047580
   2 O :   -0.369983
   3 C :    0.450388
   4 O :   -0.400760
   5 C :   -0.270610
   6 C :    0.185402
   7 C :   -0.265041
   8 N :   -0.126830
   9 C :    0.210726
  10 S :   -0.439007
  11 N :   -0.215773
  12 C :    0.058992
  13 C :    0.011856
  14 C :   -0.164646
  15 C :   -0.131786
  16 C :   -0.271285
  17 C :    0.301858
  18 O :   -0.359885
  19 C :   -0.226200
  20 H :    0.099380
  21 H :    0.108591
  22 H :    0.105155
  23 H :    0.112845
  24 H :    0.079438
  25 H :    0.127618
  26 H :    0.134873
  27 H :    0.094057
  28 H :    0.200063
  29 H :    0.201484
  30 H :    0.151254
  31 H :    0.151290
  32 H :    0.162734
  33 H :    0.133149
  34 H :    0.241717
  35 H :    0.165246
Sum of atomic charges:   -0.0000000

LOEWDIN ATOMIC CHARGES
----------------------
   0 C :    0.108197
   1 C :   -0.017009
   2 O :    0.289916
   3 C :   -0.425856
   4 O :    0.116078
   5 C :   -0.103144
   6 C :   -0.052443
   7 C :    0.130473
   8 N :    0.408352
   9 C :   -0.457537
  10 S :   -0.033575
  11 N :    0.395422
  12 C :   -0.054594
  13 C :   -0.039140
  14 C :    0.019692
  15 C :    0.045023
  16 C :   -0.000288
  17 C :   -0.191865
  18 O :    0.396359
  19 C :    0.031182
  20 H :   -0.026612
  21 H :   -0.026108
  22 H :   -0.028422
  23 H :   -0.028293
  24 H :   -0.030991
  25 H :   -0.005612
  26 H :   -0.004004
  27 H :   -0.023288
  28 H :   -0.056397
  29 H :   -0.063990
  30 H :   -0.011965
  31 H :   -0.028534
  32 H :   -0.020054
  33 H :   -0.034641
  34 H :   -0.152751
  35 H :   -0.023581

  Mayer bond orders larger than 0.100000
B(  0-C ,  1-C ) :   0.9706 B(  0-C , 20-H ) :   0.9738 B(  0-C , 21-H ) :   0.9808
B(  0-C , 22-H ) :   0.9764 B(  1-C ,  2-O ) :   0.8955 B(  1-C , 23-H ) :   0.9877
B(  1-C , 24-H ) :   0.9712 B(  2-O ,  3-C ) :   1.1014 B(  3-C ,  4-O ) :   2.0356
B(  3-C ,  5-C ) :   1.0642 B(  5-C ,  6-C ) :   1.6121 B(  5-C , 12-C ) :   0.9632
B(  6-C ,  7-C ) :   0.9662 B(  6-C ,  8-N ) :   1.1558 B(  7-C , 25-H ) :   0.9656
B(  7-C , 26-H ) :   0.9547 B(  7-C , 27-H ) :   0.9887 B(  8-N ,  9-C ) :   1.1857
B(  8-N , 28-H ) :   0.9468 B(  9-C , 10-S ) :   1.6074 B(  9-C , 11-N ) :   1.3102
B( 11-N , 12-C ) :   0.9590 B( 11-N , 29-H ) :   0.9483 B( 12-C , 13-C ) :   0.9632
B( 12-C , 30-H ) :   1.0051 B( 13-C , 14-C ) :   1.3558 B( 13-C , 19-C ) :   1.3737
B( 14-C , 15-C ) :   1.3877 B( 14-C , 31-H ) :   0.9731 B( 15-C , 16-C ) :   1.3608
B( 15-C , 32-H ) :   0.9709 B( 16-C , 17-C ) :   1.3324 B( 16-C , 33-H ) :   0.9848
B( 17-C , 18-O ) :   1.1066 B( 17-C , 19-C ) :   1.3649 B( 18-O , 34-H ) :   0.9788
B( 19-C , 35-H ) :   0.9592

MP2 TOTAL ENERGY:    -1274.326142870 Eh
FINAL SINGLE POINT ENERGY     -1274.326142870397

DIPOLE MOMENT
-------------
                                X             Y             Z
Electronic contribution:      8.06044      11.05040       5.17809
Nuclear contribution   :     -9.19372     -12.54993      -5.02379
                        -----------------------------------------
Total Dipole Moment    :     -1.13329      -1.49953       0.15430
                        -----------------------------------------
Magnitude (a.u.)       :      1.88593
Magnitude (Debye)      :      4.79366

Rotational constants in cm-1:     0.012360     0.008717     0.006080
Rotational constants in MHz :   370.532528   261.326030   182.264038

                             ****ORCA TERMINATED NORMALLY****
TOTAL RUN TIME: 0 days 1 hours 43 minutes 18 seconds 464 msec
