                         Program Version 4.2.0 -  RELEASE  -
|  1> ! ri-mp2 cc-pvtz cc-pvtz/c TightSCF NoKeepInts
|  2>
|  3> %scf
|  4>   MaxCore 4096
|  5> end
|  6> *xyz  0  1
|  7>     C       13.6795144   16.0009038   14.3052228
|  8>     C       14.9634510   15.5724024   15.0351880
|  9>     O       15.9316310   16.6157495   14.8578346
| 10>     C       17.0112929   16.5862311   15.6846310
| 11>     O       17.7326584   15.6062403   15.7539496
| 12>     C       17.0951498   17.7328407   16.6495825
| 13>     C       16.7034801   18.9912243   16.3190402
| 14>     C       15.9373989   19.4310664   15.0870646
| 15>     N       17.0448025   20.0790472   17.1265422
| 16>     C       17.9534202   20.0286641   18.1492594
| 17>     S       18.3915360   21.3809997   18.9945183
| 18>     N       18.4984436   18.7992735   18.4214036
| 19>     C       18.0745778   17.5243189   17.8104891
| 20>     C       17.5949963   16.4973836   18.8276580
| 21>     C       18.1697042   15.2146784   18.8772968
| 22>     C       17.7244971   14.2678896   19.8150136
| 23>     C       16.6963243   14.6072115   20.7111765
| 24>     C       16.1201363   15.8840610   20.6620606
| 25>     O       15.1235155   16.2126200   21.5222763
| 26>     C       16.5647560   16.8239451   19.7266944
| 27>     H       13.2852694   16.9333928   14.7272558
| 28>     H       12.9074113   15.2277226   14.4008479
| 29>     H       13.8768187   16.1581958   13.2374106
| 30>     H       14.7451553   15.4283200   16.1024772
| 31>     H       15.3433471   14.6264385   14.6257911
| 32>     H       16.4318316   19.0790274   14.1727709
| 33>     H       15.8541155   20.5216329   15.0046263
| 34>     H       14.9186963   19.0246459   15.0977300
| 35>     H       16.6715401   20.9924966   16.9232847
| 36>     H       19.1513335   18.7857269   19.1948711
| 37>     H       19.0204722   17.2021981   17.3508375
| 38>     H       18.9544206   14.9467850   18.1734626
| 39>     H       18.1729752   13.2763106   19.8400428
| 40>     H       16.3487511   13.8785212   21.4359062
| 41>     H       14.9845378   15.4535609   22.1083378
| 42>     H       16.1090379   17.8082740   19.7054454
| 43> *
| 44>
| 45>                          ****END OF INPUT****

CARTESIAN COORDINATES (ANGSTROEM)
---------------------------------
  C     13.679514   16.000904   14.305223
  C     14.963451   15.572402   15.035188
  O     15.931631   16.615749   14.857835
  C     17.011293   16.586231   15.684631
  O     17.732658   15.606240   15.753950
  C     17.095150   17.732841   16.649583
  C     16.703480   18.991224   16.319040
  C     15.937399   19.431066   15.087065
  N     17.044802   20.079047   17.126542
  C     17.953420   20.028664   18.149259
  S     18.391536   21.381000   18.994518
  N     18.498444   18.799274   18.421404
  C     18.074578   17.524319   17.810489
  C     17.594996   16.497384   18.827658
  C     18.169704   15.214678   18.877297
  C     17.724497   14.267890   19.815014
  C     16.696324   14.607211   20.711177
  C     16.120136   15.884061   20.662061
  O     15.123515   16.212620   21.522276
  C     16.564756   16.823945   19.726694
  H     13.285269   16.933393   14.727256
  H     12.907411   15.227723   14.400848
  H     13.876819   16.158196   13.237411
  H     14.745155   15.428320   16.102477
  H     15.343347   14.626438   14.625791
  H     16.431832   19.079027   14.172771
  H     15.854115   20.521633   15.004626
  H     14.918696   19.024646   15.097730
  H     16.671540   20.992497   16.923285
  H     19.151333   18.785727   19.194871
  H     19.020472   17.202198   17.350838
  H     18.954421   14.946785   18.173463
  H     18.172975   13.276311   19.840043
  H     16.348751   13.878521   21.435906
  H     14.984538   15.453561   22.108338
  H     16.109038   17.808274   19.705445

 Total Charge           Charge          ....    0
 Multiplicity           Mult            ....    1
 Number of Electrons    NEL             ....  154
 Basis Dimension        Dim             ....  828

ORBITAL ENERGIES
----------------

  NO   OCC          E(Eh)            E(eV)
   0   2.0000     -91.889250     -2500.4336
   1   2.0000     -20.593531      -560.3785
   2   2.0000     -20.590991      -560.3093
   3   2.0000     -20.550138      -559.1977
   4   2.0000     -15.630187      -425.3190
   5   2.0000     -15.606782      -424.6821
   6   2.0000     -11.393271      -310.0267
   7   2.0000     -11.383924      -309.7723
   8   2.0000     -11.339543      -308.5646
   9   2.0000     -11.309600      -307.7499
  10   2.0000     -11.305040      -307.6258
  11   2.0000     -11.302372      -307.5532
  12   2.0000     -11.260588      -306.4162
  13   2.0000     -11.260311      -306.4086
  14   2.0000     -11.256747      -306.3116
  15   2.0000     -11.249486      -306.1141
  16   2.0000     -11.239710      -305.8481
  17   2.0000     -11.236296      -305.7552
  18   2.0000     -11.235962      -305.7461
  19   2.0000     -11.232450      -305.6505
  20   2.0000      -8.894325      -242.0269
  21   2.0000      -6.575898      -178.9393
  22   2.0000      -6.573898      -178.8849
  23   2.0000      -6.573307      -178.8688
  24   2.0000      -1.454478       -39.5783
  25   2.0000      -1.413282       -38.4574
  26   2.0000      -1.358131       -36.9566
  27   2.0000      -1.341131       -36.4940
  28   2.0000      -1.238141       -33.6915
  29   2.0000      -1.154091       -31.4044
  30   2.0000      -1.122022       -30.5318
  31   2.0000      -1.044896       -28.4331
  32   2.0000      -1.037748       -28.2385
  33   2.0000      -1.011648       -27.5283
  34   2.0000      -1.000302       -27.2196
  35   2.0000      -0.985604       -26.8196
  36   2.0000      -0.921943       -25.0873
  37   2.0000      -0.884769       -24.0758
  38   2.0000      -0.848631       -23.0924
  39   2.0000      -0.837278       -22.7835
  40   2.0000      -0.829753       -22.5787
  41   2.0000      -0.825839       -22.4722
  42   2.0000      -0.761133       -20.7115
  43   2.0000      -0.736608       -20.0441
  44   2.0000      -0.727626       -19.7997
  45   2.0000      -0.691310       -18.8115
  46   2.0000      -0.686396       -18.6778
  47   2.0000      -0.681819       -18.5533
  48   2.0000      -0.675540       -18.3824
  49   2.0000      -0.654946       -17.8220
  50   2.0000      -0.652669       -17.7600
  51   2.0000      -0.641057       -17.4441
  52   2.0000      -0.633256       -17.2318
  53   2.0000      -0.614618       -16.7246
  54   2.0000      -0.604626       -16.4527
  55   2.0000      -0.600330       -16.3358
  56   2.0000      -0.596881       -16.2419
  57   2.0000      -0.576395       -15.6845
  58   2.0000      -0.574404       -15.6303
  59   2.0000      -0.565341       -15.3837
  60   2.0000      -0.559791       -15.2327
  61   2.0000      -0.549679       -14.9575
  62   2.0000      -0.545923       -14.8553
  63   2.0000      -0.520228       -14.1561
  64   2.0000      -0.517862       -14.0917
  65   2.0000      -0.511604       -13.9214
  66   2.0000      -0.507228       -13.8024
  67   2.0000      -0.495563       -13.4850
  68   2.0000      -0.481005       -13.0888
  69   2.0000      -0.463114       -12.6020
  70   2.0000      -0.461272       -12.5519
  71   2.0000      -0.452478       -12.3125
  72   2.0000      -0.354378        -9.6431
  73   2.0000      -0.346210        -9.4208
  74   2.0000      -0.328266        -8.9326
  75   2.0000      -0.318431        -8.6649
  76   2.0000      -0.316260        -8.6059
  77   0.0000       0.072676         1.9776
  78   0.0000       0.109043         2.9672
  79   0.0000       0.120419         3.2768
  80   0.0000       0.134542         3.6611
  81   0.0000       0.137938         3.7535

MULLIKEN ATOMIC CHARGES
-----------------------
   0 C :   -0.279049
   1 C :    0.046775
   2 O :   -0.359602
   3 C :    0.438427
   4 O :   -0.398048
   5 C :   -0.194942
   6 C :    0.150970
   7 C :   -0.283793
   8 N :   -0.127497
   9 C :    0.206861
  10 S :   -0.440463
  11 N :   -0.210699
  12 C :    0.043692
  13 C :    0.033651
  14 C :   -0.172363
  15 C :   -0.133389
  16 C :   -0.277728
  17 C :    0.313843
  18 O :   -0.358937
  19 C :   -0.255258
  20 H :    0.091077
  21 H :    0.102159
  22 H :    0.101352
  23 H :    0.084726
  24 H :    0.109091
  25 H :    0.128941
  26 H :    0.105051
  27 H :    0.124250
  28 H :    0.198962
  29 H :    0.199874
  30 H :    0.156372
  31 H :    0.161116
  32 H :    0.160868
  33 H :    0.128946
  34 H :    0.240289
  35 H :    0.164471
Sum of atomic charges:    0.0000000

LOEWDIN ATOMIC CHARGES
----------------------
   0 C :    0.108665
   1 C :   -0.020162
   2 O :    0.299200
   3 C :   -0.421877
   4 O :    0.119394
   5 C :   -0.096339
   6 C :   -0.064736
   7 C :    0.126182
   8 N :    0.405851
   9 C :   -0.458254
  10 S :   -0.036249
  11 N :    0.396207
  12 C :   -0.048461
  13 C :   -0.041285
  14 C :    0.024827
  15 C :    0.041522
  16 C :   -0.001194
  17 C :   -0.193155
  18 O :    0.393027
  19 C :    0.028314
  20 H :   -0.030239
  21 H :   -0.022761
  22 H :   -0.025132
  23 H :   -0.029819
  24 H :   -0.026665
  25 H :   -0.007485
  26 H :   -0.020572
  27 H :   -0.011193
  28 H :   -0.058339
  29 H :   -0.063232
  30 H :   -0.007555
  31 H :   -0.023440
  32 H :   -0.020599
  33 H :   -0.035938
  34 H :   -0.154544
  35 H :   -0.023962

  Mayer bond orders larger than 0.100000
B(  0-C ,  1-C ) :   0.9731 B(  0-C , 20-H ) :   0.9784 B(  0-C , 21-H ) :   0.9774
B(  0-C , 22-H ) :   0.9763 B(  1-C ,  2-O ) :   0.9060 B(  1-C , 23-H ) :   0.9701
B(  1-C , 24-H ) :   0.9811 B(  2-O ,  3-C ) :   1.0834 B(  3-C ,  4-O ) :   2.0320
B(  3-C ,  5-C ) :   1.0286 B(  5-C ,  6-C ) :   1.6584 B(  5-C , 12-C ) :   0.9499
B(  6-C ,  7-C ) :   0.9532 B(  6-C ,  8-N ) :   1.1380 B(  7-C , 25-H ) :   0.9650
B(  7-C , 26-H ) :   0.9908 B(  7-C , 27-H ) :   0.9643 B(  8-N ,  9-C ) :   1.1841
B(  8-N , 28-H ) :   0.9470 B(  9-C , 10-S ) :   1.6107 B(  9-C , 11-N ) :   1.3050
B( 11-N , 12-C ) :   0.9783 B( 11-N , 29-H ) :   0.9485 B( 12-C , 13-C ) :   0.9717
B( 12-C , 30-H ) :   0.9959 B( 13-C , 14-C ) :   1.3790 B( 13-C , 19-C ) :   1.3625
B( 14-C , 15-C ) :   1.3973 B( 14-C , 31-H ) :   0.9628 B( 15-C , 16-C ) :   1.3592
B( 15-C , 32-H ) :   0.9709 B( 16-C , 17-C ) :   1.3331 B( 16-C , 33-H ) :   0.9857
B( 17-C , 18-O ) :   1.1042 B( 17-C , 19-C ) :   1.3671 B( 18-O , 34-H ) :   0.9803
B( 19-C , 35-H ) :   0.9601

MP2 TOTAL ENERGY:    -1274.330084384 Eh
FINAL SINGLE POINT ENERGY     -1274.330084384238

DIPOLE MOMENT
-------------
                                X             Y             Z
Electronic contribution:     11.40298       8.08275      10.48604
Nuclear contribution   :    -12.85150      -9.36773     -11.24836
                        -----------------------------------------
Total Dipole Moment    :     -1.44851      -1.28497      -0.76232
                        -----------------------------------------
Magnitude (a.u.)       :      2.08098
Magnitude (Debye)      :      5.28943

Rotational constants in cm-1:     0.009590     0.009439     0.005828
Rotational constants in MHz :   287.513842   282.978626   174.707214

                             ****ORCA TERMINATED NORMALLY****
TOTAL RUN TIME: 0 days 1 hours 37 minutes 34 seconds 309 msec
