                         Program Version 4.2.0 -  RELEASE  -
|  1> ! ri-mp2 cc-pvtz cc-pvtz/c TightSCF NoKeepInts
|  2>
|  3> %scf
|  4>   MaxCore 4096
|  5> end
|  6> *xyz  0  1
|  7>     C       15.2611504   14.2252752   16.4197482
|  8>     C       15.5987391   15.0752047   15.1847942
|  9>     O       16.7187258   15.9265828   15.4963128
| 10>     C       16.5991174   17.2559197   15.2117777
| 11>     O       16.1298489   17.6264709   14.1494917
| 12>     C       16.9498316   18.1574593   16.3667631
| 13>     C       16.9699215   19.5063404   16.1991082
| 14>     C       16.3793707   20.3009984   15.0519971
| 15>     N       17.5825692   20.3415189   17.1359553
| 16>     C       18.3898262   19.9039605   18.1497528
| 17>     S       19.1829563   20.9515679   19.1543504
| 18>     N       18.5298452   18.5454490   18.2718249
| 19>     C       17.7681308   17.5355798   17.5131735
| 20>     C       17.0051180   16.5933524   18.4329215
| 21>     C       17.5376368   15.3334760   18.7628215
| 22>     C       16.8570678   14.4812956   19.6490928
| 23>     C       15.6379200   14.8952551   20.2130637
| 24>     C       15.1107670   16.1541989   19.8928980
| 25>     O       13.9360636   16.5577983   20.4385660
| 26>     C       15.7904424   17.0003881   19.0109564
| 27>     H       16.1404857   13.6636189   16.7575305
| 28>     H       14.4654168   13.5080812   16.1855383
| 29>     H       14.9126425   14.8600631   17.2419388
| 30>     H       15.8549254   14.4250253   14.3382707
| 31>     H       14.7134510   15.6638020   14.9058769
| 32>     H       15.3439924   19.9923416   14.8590941
| 33>     H       16.9498687   20.1309285   14.1298721
| 34>     H       16.3652765   21.3811622   15.2393413
| 35>     H       17.5105823   21.3416172   17.0378936
| 36>     H       19.1081726   18.2513547   19.0486463
| 37>     H       18.5983873   17.0078568   17.0225005
| 38>     H       18.4815939   15.0139079   18.3293341
| 39>     H       17.2749518   13.5070988   19.8971574
| 40>     H       15.1091602   14.2408525   20.8983072
| 41>     H       13.6471132   15.8665038   21.0531877
| 42>     H       15.3759311   17.9776935   18.7881407
| 43> *
| 44>
| 45>                          ****END OF INPUT****

CARTESIAN COORDINATES (ANGSTROEM)
---------------------------------
  C     15.261150   14.225275   16.419748
  C     15.598739   15.075205   15.184794
  O     16.718726   15.926583   15.496313
  C     16.599117   17.255920   15.211778
  O     16.129849   17.626471   14.149492
  C     16.949832   18.157459   16.366763
  C     16.969921   19.506340   16.199108
  C     16.379371   20.300998   15.051997
  N     17.582569   20.341519   17.135955
  C     18.389826   19.903960   18.149753
  S     19.182956   20.951568   19.154350
  N     18.529845   18.545449   18.271825
  C     17.768131   17.535580   17.513174
  C     17.005118   16.593352   18.432921
  C     17.537637   15.333476   18.762822
  C     16.857068   14.481296   19.649093
  C     15.637920   14.895255   20.213064
  C     15.110767   16.154199   19.892898
  O     13.936064   16.557798   20.438566
  C     15.790442   17.000388   19.010956
  H     16.140486   13.663619   16.757531
  H     14.465417   13.508081   16.185538
  H     14.912643   14.860063   17.241939
  H     15.854925   14.425025   14.338271
  H     14.713451   15.663802   14.905877
  H     15.343992   19.992342   14.859094
  H     16.949869   20.130928   14.129872
  H     16.365277   21.381162   15.239341
  H     17.510582   21.341617   17.037894
  H     19.108173   18.251355   19.048646
  H     18.598387   17.007857   17.022500
  H     18.481594   15.013908   18.329334
  H     17.274952   13.507099   19.897157
  H     15.109160   14.240853   20.898307
  H     13.647113   15.866504   21.053188
  H     15.375931   17.977693   18.788141

 Total Charge           Charge          ....    0
 Multiplicity           Mult            ....    1
 Number of Electrons    NEL             ....  154
 Basis Dimension        Dim             ....  828

ORBITAL ENERGIES
----------------

  NO   OCC          E(Eh)            E(eV)
   0   2.0000     -91.890051     -2500.4554
   1   2.0000     -20.600134      -560.5582
   2   2.0000     -20.590768      -560.3033
   3   2.0000     -20.542374      -558.9864
   4   2.0000     -15.630623      -425.3309
   5   2.0000     -15.607905      -424.7127
   6   2.0000     -11.392685      -310.0107
   7   2.0000     -11.384350      -309.7839
   8   2.0000     -11.339473      -308.5628
   9   2.0000     -11.317496      -307.9647
  10   2.0000     -11.309493      -307.7469
  11   2.0000     -11.294132      -307.3289
  12   2.0000     -11.263994      -306.5089
  13   2.0000     -11.259776      -306.3941
  14   2.0000     -11.258443      -306.3578
  15   2.0000     -11.252529      -306.1969
  16   2.0000     -11.246940      -306.0448
  17   2.0000     -11.241729      -305.9030
  18   2.0000     -11.241332      -305.8922
  19   2.0000     -11.221343      -305.3483
  20   2.0000      -8.895104      -242.0481
  21   2.0000      -6.576672      -178.9603
  22   2.0000      -6.574678      -178.9061
  23   2.0000      -6.574084      -178.8899
  24   2.0000      -1.448932       -39.4274
  25   2.0000      -1.419841       -38.6358
  26   2.0000      -1.351627       -36.7796
  27   2.0000      -1.342106       -36.5206
  28   2.0000      -1.239987       -33.7418
  29   2.0000      -1.160530       -31.5796
  30   2.0000      -1.122196       -30.5365
  31   2.0000      -1.045025       -28.4366
  32   2.0000      -1.034488       -28.1498
  33   2.0000      -1.018511       -27.7151
  34   2.0000      -0.998073       -27.1589
  35   2.0000      -0.985975       -26.8297
  36   2.0000      -0.923737       -25.1362
  37   2.0000      -0.884341       -24.0641
  38   2.0000      -0.847904       -23.0726
  39   2.0000      -0.840792       -22.8791
  40   2.0000      -0.836917       -22.7737
  41   2.0000      -0.818079       -22.2611
  42   2.0000      -0.762914       -20.7599
  43   2.0000      -0.736054       -20.0290
  44   2.0000      -0.721104       -19.6222
  45   2.0000      -0.698352       -19.0031
  46   2.0000      -0.687958       -18.7203
  47   2.0000      -0.676246       -18.4016
  48   2.0000      -0.674067       -18.3423
  49   2.0000      -0.668066       -18.1790
  50   2.0000      -0.647169       -17.6104
  51   2.0000      -0.642868       -17.4933
  52   2.0000      -0.636984       -17.3332
  53   2.0000      -0.610246       -16.6056
  54   2.0000      -0.604076       -16.4377
  55   2.0000      -0.601885       -16.3781
  56   2.0000      -0.587420       -15.9845
  57   2.0000      -0.578815       -15.7504
  58   2.0000      -0.571240       -15.5442
  59   2.0000      -0.566741       -15.4218
  60   2.0000      -0.562132       -15.2964
  61   2.0000      -0.549770       -14.9600
  62   2.0000      -0.540422       -14.7056
  63   2.0000      -0.527055       -14.3419
  64   2.0000      -0.518861       -14.1189
  65   2.0000      -0.513295       -13.9675
  66   2.0000      -0.501962       -13.6591
  67   2.0000      -0.497379       -13.5344
  68   2.0000      -0.483448       -13.1553
  69   2.0000      -0.463654       -12.6167
  70   2.0000      -0.452327       -12.3084
  71   2.0000      -0.446559       -12.1515
  72   2.0000      -0.354297        -9.6409
  73   2.0000      -0.353225        -9.6117
  74   2.0000      -0.329467        -8.9653
  75   2.0000      -0.324700        -8.8355
  76   2.0000      -0.319755        -8.7010
  77   0.0000       0.073513         2.0004
  78   0.0000       0.101387         2.7589
  79   0.0000       0.122742         3.3400
  80   0.0000       0.130471         3.5503
  81   0.0000       0.132328         3.6008

MULLIKEN ATOMIC CHARGES
-----------------------
   0 C :   -0.294707
   1 C :    0.044673
   2 O :   -0.362577
   3 C :    0.448850
   4 O :   -0.418943
   5 C :   -0.265807
   6 C :    0.185004
   7 C :   -0.264640
   8 N :   -0.126909
   9 C :    0.212451
  10 S :   -0.440782
  11 N :   -0.218934
  12 C :    0.066848
  13 C :    0.035690
  14 C :   -0.183516
  15 C :   -0.127925
  16 C :   -0.271374
  17 C :    0.305288
  18 O :   -0.359464
  19 C :   -0.236051
  20 H :    0.097800
  21 H :    0.110352
  22 H :    0.104743
  23 H :    0.104017
  24 H :    0.090169
  25 H :    0.130806
  26 H :    0.132241
  27 H :    0.094257
  28 H :    0.199979
  29 H :    0.201458
  30 H :    0.151822
  31 H :    0.152210
  32 H :    0.163900
  33 H :    0.132795
  34 H :    0.241390
  35 H :    0.164885
Sum of atomic charges:   -0.0000000

LOEWDIN ATOMIC CHARGES
----------------------
   0 C :    0.104574
   1 C :   -0.014204
   2 O :    0.297167
   3 C :   -0.420712
   4 O :    0.104410
   5 C :   -0.099939
   6 C :   -0.053059
   7 C :    0.131017
   8 N :    0.408059
   9 C :   -0.456701
  10 S :   -0.035035
  11 N :    0.394860
  12 C :   -0.054438
  13 C :   -0.038245
  14 C :    0.018835
  15 C :    0.044919
  16 C :   -0.000257
  17 C :   -0.191276
  18 O :    0.396142
  19 C :    0.031056
  20 H :   -0.029070
  21 H :   -0.026621
  22 H :   -0.026193
  23 H :   -0.029257
  24 H :   -0.027957
  25 H :   -0.004887
  26 H :   -0.004225
  27 H :   -0.023575
  28 H :   -0.056758
  29 H :   -0.064489
  30 H :   -0.012463
  31 H :   -0.029258
  32 H :   -0.020544
  33 H :   -0.034867
  34 H :   -0.153129
  35 H :   -0.023881

  Mayer bond orders larger than 0.100000
B(  0-C ,  1-C ) :   0.9735 B(  0-C , 20-H ) :   0.9738 B(  0-C , 21-H ) :   0.9793
B(  0-C , 22-H ) :   0.9736 B(  1-C ,  2-O ) :   0.8954 B(  1-C , 23-H ) :   0.9878
B(  1-C , 24-H ) :   0.9717 B(  2-O ,  3-C ) :   1.1330 B(  3-C ,  4-O ) :   1.9987
B(  3-C ,  5-C ) :   1.0729 B(  5-C ,  6-C ) :   1.6177 B(  5-C , 12-C ) :   0.9584
B(  6-C ,  7-C ) :   0.9659 B(  6-C ,  8-N ) :   1.1566 B(  7-C , 25-H ) :   0.9629
B(  7-C , 26-H ) :   0.9564 B(  7-C , 27-H ) :   0.9899 B(  8-N ,  9-C ) :   1.1860
B(  8-N , 28-H ) :   0.9466 B(  9-C , 10-S ) :   1.6045 B(  9-C , 11-N ) :   1.3120
B( 11-N , 12-C ) :   0.9570 B( 11-N , 29-H ) :   0.9483 B( 12-C , 13-C ) :   0.9651
B( 12-C , 30-H ) :   1.0032 B( 13-C , 14-C ) :   1.3508 B( 13-C , 19-C ) :   1.3746
B( 14-C , 15-C ) :   1.3864 B( 14-C , 31-H ) :   0.9738 B( 15-C , 16-C ) :   1.3597
B( 15-C , 32-H ) :   0.9702 B( 16-C , 17-C ) :   1.3331 B( 16-C , 33-H ) :   0.9845
B( 17-C , 18-O ) :   1.1054 B( 17-C , 19-C ) :   1.3644 B( 18-O , 34-H ) :   0.9791
B( 19-C , 35-H ) :   0.9598

MP2 TOTAL ENERGY:    -1274.334816003 Eh
FINAL SINGLE POINT ENERGY     -1274.334816003114

DIPOLE MOMENT
-------------
                                X             Y             Z
Electronic contribution:      7.73013      11.37692       5.53262
Nuclear contribution   :     -8.73754     -13.00970      -5.55181
                        -----------------------------------------
Total Dipole Moment    :     -1.00741      -1.63277      -0.01919
                        -----------------------------------------
Magnitude (a.u.)       :      1.91864
Magnitude (Debye)      :      4.87680

Rotational constants in cm-1:     0.012436     0.008558     0.006080
Rotational constants in MHz :   372.827922   256.549068   182.262203

                             ****ORCA TERMINATED NORMALLY****
TOTAL RUN TIME: 0 days 1 hours 41 minutes 12 seconds 859 msec
