                         Program Version 4.2.0 -  RELEASE  -
|  1> ! ri-mp2 cc-pvtz cc-pvtz/c TightSCF NoKeepInts
|  2>
|  3> %scf
|  4>   MaxCore 4096
|  5> end
|  6> *xyz  0  1
|  7>     C       15.2863738   14.1695146   16.3438662
|  8>     C       15.6202527   15.0578482   15.1344907
|  9>     O       16.6598588   15.9751824   15.5237136
| 10>     C       16.4804533   17.3048945   15.2704758
| 11>     O       15.9206935   17.6872745   14.2570799
| 12>     C       16.9235320   18.1914971   16.4043493
| 13>     C       16.9690985   19.5403689   16.2466961
| 14>     C       16.3533363   20.3563917   15.1284604
| 15>     N       17.6420512   20.3513441   17.1632978
| 16>     C       18.4683883   19.8840475   18.1484640
| 17>     S       19.3223722   20.9024299   19.1330879
| 18>     N       18.5725428   18.5211828   18.2603522
| 19>     C       17.7663936   17.5372976   17.5137240
| 20>     C       17.0040858   16.5995140   18.4398565
| 21>     C       17.5275717   15.3325038   18.7566683
| 22>     C       16.8407027   14.4753634   19.6331165
| 23>     C       15.6231416   14.8907040   20.1992604
| 24>     C       15.1040673   16.1559130   19.8910772
| 25>     O       13.9304487   16.5605120   20.4384309
| 26>     C       15.7904118   17.0073378   19.0195179
| 27>     H       16.1790199   13.6352136   16.6910983
| 28>     H       14.5240854   13.4277457   16.0771614
| 29>     H       14.8981236   14.7744652   17.1719053
| 30>     H       15.9624141   14.4418090   14.2929026
| 31>     H       14.7100827   15.5892001   14.8231146
| 32>     H       15.2947909   20.0973654   14.9981237
| 33>     H       16.8605000   20.1528395   14.1766457
| 34>     H       16.4033865   21.4370681   15.3063832
| 35>     H       17.5942810   21.3537413   17.0744486
| 36>     H       19.1650400   18.2061177   19.0179703
| 37>     H       18.5657833   16.9941242   16.9897919
| 38>     H       18.4686289   15.0104321   18.3188431
| 39>     H       17.2518896   13.4958321   19.8710670
| 40>     H       15.0891215   14.2323704   20.8765908
| 41>     H       13.6341665   15.8626297   21.0419599
| 42>     H       15.3799097   17.9879241   18.8040081
| 43> *
| 44>
| 45>                          ****END OF INPUT****

CARTESIAN COORDINATES (ANGSTROEM)
---------------------------------
  C     15.286374   14.169515   16.343866
  C     15.620253   15.057848   15.134491
  O     16.659859   15.975182   15.523714
  C     16.480453   17.304894   15.270476
  O     15.920694   17.687274   14.257080
  C     16.923532   18.191497   16.404349
  C     16.969099   19.540369   16.246696
  C     16.353336   20.356392   15.128460
  N     17.642051   20.351344   17.163298
  C     18.468388   19.884047   18.148464
  S     19.322372   20.902430   19.133088
  N     18.572543   18.521183   18.260352
  C     17.766394   17.537298   17.513724
  C     17.004086   16.599514   18.439857
  C     17.527572   15.332504   18.756668
  C     16.840703   14.475363   19.633116
  C     15.623142   14.890704   20.199260
  C     15.104067   16.155913   19.891077
  O     13.930449   16.560512   20.438431
  C     15.790412   17.007338   19.019518
  H     16.179020   13.635214   16.691098
  H     14.524085   13.427746   16.077161
  H     14.898124   14.774465   17.171905
  H     15.962414   14.441809   14.292903
  H     14.710083   15.589200   14.823115
  H     15.294791   20.097365   14.998124
  H     16.860500   20.152839   14.176646
  H     16.403386   21.437068   15.306383
  H     17.594281   21.353741   17.074449
  H     19.165040   18.206118   19.017970
  H     18.565783   16.994124   16.989792
  H     18.468629   15.010432   18.318843
  H     17.251890   13.495832   19.871067
  H     15.089121   14.232370   20.876591
  H     13.634166   15.862630   21.041960
  H     15.379910   17.987924   18.804008

 Total Charge           Charge          ....    0
 Multiplicity           Mult            ....    1
 Number of Electrons    NEL             ....  154
 Basis Dimension        Dim             ....  828

ORBITAL ENERGIES
----------------

  NO   OCC          E(Eh)            E(eV)
   0   2.0000     -91.889628     -2500.4439
   1   2.0000     -20.599697      -560.5462
   2   2.0000     -20.593931      -560.3893
   3   2.0000     -20.541593      -558.9652
   4   2.0000     -15.630159      -425.3183
   5   2.0000     -15.607629      -424.7052
   6   2.0000     -11.393120      -310.0226
   7   2.0000     -11.384117      -309.7776
   8   2.0000     -11.338774      -308.5437
   9   2.0000     -11.317035      -307.9522
  10   2.0000     -11.308878      -307.7302
  11   2.0000     -11.293730      -307.3180
  12   2.0000     -11.263640      -306.4992
  13   2.0000     -11.259412      -306.3842
  14   2.0000     -11.258008      -306.3460
  15   2.0000     -11.252194      -306.1878
  16   2.0000     -11.246397      -306.0300
  17   2.0000     -11.241238      -305.8896
  18   2.0000     -11.240872      -305.8797
  19   2.0000     -11.222144      -305.3701
  20   2.0000      -8.894687      -242.0367
  21   2.0000      -6.576257      -178.9491
  22   2.0000      -6.574261      -178.8947
  23   2.0000      -6.573669      -178.8786
  24   2.0000      -1.449347       -39.4387
  25   2.0000      -1.419397       -38.6238
  26   2.0000      -1.352260       -36.7969
  27   2.0000      -1.341471       -36.5033
  28   2.0000      -1.239404       -33.7259
  29   2.0000      -1.160113       -31.5683
  30   2.0000      -1.121967       -30.5303
  31   2.0000      -1.044651       -28.4264
  32   2.0000      -1.035429       -28.1755
  33   2.0000      -1.018033       -27.7021
  34   2.0000      -0.997434       -27.1415
  35   2.0000      -0.985566       -26.8186
  36   2.0000      -0.923280       -25.1237
  37   2.0000      -0.885538       -24.0967
  38   2.0000      -0.847499       -23.0616
  39   2.0000      -0.840245       -22.8642
  40   2.0000      -0.836397       -22.7595
  41   2.0000      -0.816744       -22.2247
  42   2.0000      -0.763237       -20.7687
  43   2.0000      -0.735627       -20.0174
  44   2.0000      -0.720922       -19.6173
  45   2.0000      -0.697950       -18.9922
  46   2.0000      -0.687929       -18.7195
  47   2.0000      -0.676320       -18.4036
  48   2.0000      -0.673855       -18.3365
  49   2.0000      -0.668660       -18.1952
  50   2.0000      -0.646940       -17.6041
  51   2.0000      -0.642687       -17.4884
  52   2.0000      -0.636797       -17.3281
  53   2.0000      -0.609865       -16.5953
  54   2.0000      -0.603526       -16.4228
  55   2.0000      -0.601508       -16.3679
  56   2.0000      -0.585553       -15.9337
  57   2.0000      -0.578100       -15.7309
  58   2.0000      -0.570759       -15.5311
  59   2.0000      -0.566544       -15.4164
  60   2.0000      -0.563626       -15.3370
  61   2.0000      -0.550692       -14.9851
  62   2.0000      -0.539858       -14.6903
  63   2.0000      -0.526781       -14.3344
  64   2.0000      -0.520611       -14.1665
  65   2.0000      -0.512996       -13.9593
  66   2.0000      -0.501684       -13.6515
  67   2.0000      -0.496155       -13.5011
  68   2.0000      -0.483903       -13.1677
  69   2.0000      -0.463512       -12.6128
  70   2.0000      -0.452898       -12.3240
  71   2.0000      -0.447116       -12.1667
  72   2.0000      -0.354141        -9.6367
  73   2.0000      -0.352462        -9.5910
  74   2.0000      -0.329097        -8.9552
  75   2.0000      -0.324176        -8.8213
  76   2.0000      -0.319338        -8.6896
  77   0.0000       0.075136         2.0445
  78   0.0000       0.101994         2.7754
  79   0.0000       0.122909         3.3445
  80   0.0000       0.130983         3.5642
  81   0.0000       0.132692         3.6107

MULLIKEN ATOMIC CHARGES
-----------------------
   0 C :   -0.290760
   1 C :    0.039699
   2 O :   -0.356817
   3 C :    0.446926
   4 O :   -0.425078
   5 C :   -0.265505
   6 C :    0.185562
   7 C :   -0.265468
   8 N :   -0.127050
   9 C :    0.213746
  10 S :   -0.441707
  11 N :   -0.220546
  12 C :    0.073427
  13 C :    0.041444
  14 C :   -0.187679
  15 C :   -0.126172
  16 C :   -0.274136
  17 C :    0.307465
  18 O :   -0.358880
  19 C :   -0.239003
  20 H :    0.095863
  21 H :    0.109291
  22 H :    0.104889
  23 H :    0.101939
  24 H :    0.094608
  25 H :    0.131857
  26 H :    0.131207
  27 H :    0.094455
  28 H :    0.199711
  29 H :    0.201410
  30 H :    0.150911
  31 H :    0.152068
  32 H :    0.163403
  33 H :    0.132501
  34 H :    0.241331
  35 H :    0.165089
Sum of atomic charges:   -0.0000000

LOEWDIN ATOMIC CHARGES
----------------------
   0 C :    0.104069
   1 C :   -0.013810
   2 O :    0.301729
   3 C :   -0.418814
   4 O :    0.100668
   5 C :   -0.098579
   6 C :   -0.054276
   7 C :    0.131203
   8 N :    0.407807
   9 C :   -0.455924
  10 S :   -0.035806
  11 N :    0.394476
  12 C :   -0.054276
  13 C :   -0.037629
  14 C :    0.018051
  15 C :    0.044443
  16 C :   -0.000716
  17 C :   -0.191005
  18 O :    0.396036
  19 C :    0.031120
  20 H :   -0.029641
  21 H :   -0.026800
  22 H :   -0.025123
  23 H :   -0.029801
  24 H :   -0.027746
  25 H :   -0.004643
  26 H :   -0.004376
  27 H :   -0.023614
  28 H :   -0.056912
  29 H :   -0.064804
  30 H :   -0.012864
  31 H :   -0.029592
  32 H :   -0.020672
  33 H :   -0.034988
  34 H :   -0.153263
  35 H :   -0.023928

  Mayer bond orders larger than 0.100000
B(  0-C ,  1-C ) :   0.9737 B(  0-C , 20-H ) :   0.9746 B(  0-C , 21-H ) :   0.9793
B(  0-C , 22-H ) :   0.9729 B(  1-C ,  2-O ) :   0.8955 B(  1-C , 23-H ) :   0.9869
B(  1-C , 24-H ) :   0.9720 B(  2-O ,  3-C ) :   1.1489 B(  3-C ,  4-O ) :   1.9859
B(  3-C ,  5-C ) :   1.0708 B(  5-C ,  6-C ) :   1.6232 B(  5-C , 12-C ) :   0.9563
B(  6-C ,  7-C ) :   0.9655 B(  6-C ,  8-N ) :   1.1580 B(  7-C , 25-H ) :   0.9620
B(  7-C , 26-H ) :   0.9574 B(  7-C , 27-H ) :   0.9902 B(  8-N ,  9-C ) :   1.1864
B(  8-N , 28-H ) :   0.9465 B(  9-C , 10-S ) :   1.6028 B(  9-C , 11-N ) :   1.3124
B( 11-N , 12-C ) :   0.9573 B( 11-N , 29-H ) :   0.9482 B( 12-C , 13-C ) :   0.9663
B( 12-C , 30-H ) :   1.0020 B( 13-C , 14-C ) :   1.3508 B( 13-C , 19-C ) :   1.3748
B( 14-C , 15-C ) :   1.3874 B( 14-C , 31-H ) :   0.9737 B( 15-C , 16-C ) :   1.3596
B( 15-C , 32-H ) :   0.9703 B( 16-C , 17-C ) :   1.3325 B( 16-C , 33-H ) :   0.9847
B( 17-C , 18-O ) :   1.1055 B( 17-C , 19-C ) :   1.3647 B( 18-O , 34-H ) :   0.9792
B( 19-C , 35-H ) :   0.9595

MP2 TOTAL ENERGY:    -1274.338729659 Eh
FINAL SINGLE POINT ENERGY     -1274.338729659381

DIPOLE MOMENT
-------------
                                X             Y             Z
Electronic contribution:      7.67184      11.50843       5.76208
Nuclear contribution   :     -8.64875     -13.17763      -5.85823
                        -----------------------------------------
Total Dipole Moment    :     -0.97691      -1.66921      -0.09615
                        -----------------------------------------
Magnitude (a.u.)       :      1.93645
Magnitude (Debye)      :      4.92207

Rotational constants in cm-1:     0.012504     0.008441     0.006076
Rotational constants in MHz :   374.855054   253.040485   182.150538

                             ****ORCA TERMINATED NORMALLY****
TOTAL RUN TIME: 0 days 1 hours 40 minutes 34 seconds 373 msec
