                         Program Version 4.2.0 -  RELEASE  -
|  1> ! ri-mp2 cc-pvtz cc-pvtz/c TightSCF NoKeepInts
|  2>
|  3> %scf
|  4>   MaxCore 4096
|  5> end
|  6> *xyz  0  1
|  7>     C       14.4858337   15.4415830   16.2369696
|  8>     C       15.0138462   16.3604964   15.1209831
|  9>     O       16.3844047   15.9955801   14.8569490
| 10>     C       17.4823635   16.5354836   15.4813221
| 11>     O       18.5855122   16.0393870   15.3486025
| 12>     C       17.2423312   17.6622770   16.4306564
| 13>     C       16.9525622   18.8939172   15.9443922
| 14>     C       16.5945602   19.2522256   14.5150186
| 15>     N       17.0602917   20.0276066   16.7516136
| 16>     C       17.6997061   20.0477615   17.9631424
| 17>     S       17.9044428   21.4487383   18.8172673
| 18>     N       18.1880080   18.8468665   18.4165003
| 19>     C       17.9274297   17.5342219   17.7919701
| 20>     C       17.2686748   16.5062070   18.6985378
| 21>     C       17.6964225   15.1667527   18.6703103
| 22>     C       17.0774257   14.2025232   19.4829621
| 23>     C       16.0204712   14.5810122   20.3285026
| 24>     C       15.5890852   15.9144073   20.3545607
| 25>     O       14.5615402   16.2799882   21.1613923
| 26>     C       16.2060556   16.8724255   19.5434667
| 27>     H       15.0228348   15.6142564   17.1764287
| 28>     H       14.6098753   14.3869140   15.9605207
| 29>     H       13.4196888   15.6256391   16.4164259
| 30>     H       14.4198721   16.1794984   14.2156986
| 31>     H       14.8847081   17.4110262   15.3984119
| 32>     H       16.7981211   18.4379302   13.8090970
| 33>     H       17.1830454   20.1117643   14.1685395
| 34>     H       15.5336621   19.5160234   14.4270109
| 35>     H       16.7465707   20.9225376   16.4099916
| 36>     H       18.6568862   18.8873929   19.3129253
| 37>     H       18.9599259   17.2239003   17.5712399
| 38>     H       18.5062882   14.8711603   18.0059334
| 39>     H       17.4154749   13.1679885   19.4518256
| 40>     H       15.5386851   13.8387538   20.9564183
| 41>     H       14.2978453   15.4978130   21.6693055
| 42>     H       15.8525488   17.8979412   19.5731075
| 43> *
| 44>
| 45>                          ****END OF INPUT****

CARTESIAN COORDINATES (ANGSTROEM)
---------------------------------
  C     14.485834   15.441583   16.236970
  C     15.013846   16.360496   15.120983
  O     16.384405   15.995580   14.856949
  C     17.482364   16.535484   15.481322
  O     18.585512   16.039387   15.348602
  C     17.242331   17.662277   16.430656
  C     16.952562   18.893917   15.944392
  C     16.594560   19.252226   14.515019
  N     17.060292   20.027607   16.751614
  C     17.699706   20.047762   17.963142
  S     17.904443   21.448738   18.817267
  N     18.188008   18.846867   18.416500
  C     17.927430   17.534222   17.791970
  C     17.268675   16.506207   18.698538
  C     17.696422   15.166753   18.670310
  C     17.077426   14.202523   19.482962
  C     16.020471   14.581012   20.328503
  C     15.589085   15.914407   20.354561
  O     14.561540   16.279988   21.161392
  C     16.206056   16.872425   19.543467
  H     15.022835   15.614256   17.176429
  H     14.609875   14.386914   15.960521
  H     13.419689   15.625639   16.416426
  H     14.419872   16.179498   14.215699
  H     14.884708   17.411026   15.398412
  H     16.798121   18.437930   13.809097
  H     17.183045   20.111764   14.168539
  H     15.533662   19.516023   14.427011
  H     16.746571   20.922538   16.409992
  H     18.656886   18.887393   19.312925
  H     18.959926   17.223900   17.571240
  H     18.506288   14.871160   18.005933
  H     17.415475   13.167988   19.451826
  H     15.538685   13.838754   20.956418
  H     14.297845   15.497813   21.669306
  H     15.852549   17.897941   19.573107

 Total Charge           Charge          ....    0
 Multiplicity           Mult            ....    1
 Number of Electrons    NEL             ....  154
 Basis Dimension        Dim             ....  828

ORBITAL ENERGIES
----------------

  NO   OCC          E(Eh)            E(eV)
   0   2.0000     -91.890005     -2500.4542
   1   2.0000     -20.604238      -560.6698
   2   2.0000     -20.600178      -560.5593
   3   2.0000     -20.550451      -559.2062
   4   2.0000     -15.627688      -425.2510
   5   2.0000     -15.610088      -424.7721
   6   2.0000     -11.400796      -310.2314
   7   2.0000     -11.385995      -309.8287
   8   2.0000     -11.333543      -308.4014
   9   2.0000     -11.317895      -307.9756
  10   2.0000     -11.311383      -307.7984
  11   2.0000     -11.306642      -307.6694
  12   2.0000     -11.268669      -306.6361
  13   2.0000     -11.265633      -306.5534
  14   2.0000     -11.264927      -306.5343
  15   2.0000     -11.258400      -306.3566
  16   2.0000     -11.246893      -306.0435
  17   2.0000     -11.242649      -305.9280
  18   2.0000     -11.240333      -305.8650
  19   2.0000     -11.228355      -305.5391
  20   2.0000      -8.895110      -242.0482
  21   2.0000      -6.576692      -178.9609
  22   2.0000      -6.574678      -178.9061
  23   2.0000      -6.574096      -178.8902
  24   2.0000      -1.448549       -39.4170
  25   2.0000      -1.419907       -38.6376
  26   2.0000      -1.362374       -37.0721
  27   2.0000      -1.341246       -36.4972
  28   2.0000      -1.239761       -33.7356
  29   2.0000      -1.162247       -31.6264
  30   2.0000      -1.127258       -30.6742
  31   2.0000      -1.049429       -28.5564
  32   2.0000      -1.038123       -28.2488
  33   2.0000      -1.020159       -27.7599
  34   2.0000      -1.006963       -27.4009
  35   2.0000      -0.990496       -26.9528
  36   2.0000      -0.927304       -25.2332
  37   2.0000      -0.890897       -24.2425
  38   2.0000      -0.854777       -23.2597
  39   2.0000      -0.842448       -22.9242
  40   2.0000      -0.837517       -22.7900
  41   2.0000      -0.834557       -22.7095
  42   2.0000      -0.752575       -20.4786
  43   2.0000      -0.740942       -20.1621
  44   2.0000      -0.732441       -19.9307
  45   2.0000      -0.697734       -18.9863
  46   2.0000      -0.690483       -18.7890
  47   2.0000      -0.682848       -18.5812
  48   2.0000      -0.675248       -18.3744
  49   2.0000      -0.663808       -18.0631
  50   2.0000      -0.653529       -17.7834
  51   2.0000      -0.641874       -17.4663
  52   2.0000      -0.637168       -17.3382
  53   2.0000      -0.620016       -16.8715
  54   2.0000      -0.612689       -16.6721
  55   2.0000      -0.607949       -16.5431
  56   2.0000      -0.603312       -16.4169
  57   2.0000      -0.586946       -15.9716
  58   2.0000      -0.578206       -15.7338
  59   2.0000      -0.568710       -15.4754
  60   2.0000      -0.563112       -15.3231
  61   2.0000      -0.555462       -15.1149
  62   2.0000      -0.542491       -14.7619
  63   2.0000      -0.536118       -14.5885
  64   2.0000      -0.520730       -14.1698
  65   2.0000      -0.512376       -13.9425
  66   2.0000      -0.506730       -13.7888
  67   2.0000      -0.502205       -13.6657
  68   2.0000      -0.486254       -13.2316
  69   2.0000      -0.469216       -12.7680
  70   2.0000      -0.453906       -12.3514
  71   2.0000      -0.451183       -12.2773
  72   2.0000      -0.357236        -9.7209
  73   2.0000      -0.352326        -9.5873
  74   2.0000      -0.329562        -8.9678
  75   2.0000      -0.325709        -8.8630
  76   2.0000      -0.320234        -8.7140
  77   0.0000       0.086882         2.3642
  78   0.0000       0.103987         2.8296
  79   0.0000       0.114971         3.1285
  80   0.0000       0.127327         3.4648
  81   0.0000       0.129202         3.5158

MULLIKEN ATOMIC CHARGES
-----------------------
   0 C :   -0.280564
   1 C :    0.025695
   2 O :   -0.319740
   3 C :    0.422576
   4 O :   -0.383570
   5 C :   -0.205922
   6 C :    0.130805
   7 C :   -0.327205
   8 N :   -0.138512
   9 C :    0.210020
  10 S :   -0.442683
  11 N :   -0.226733
  12 C :    0.060892
  13 C :   -0.007587
  14 C :   -0.204173
  15 C :   -0.135923
  16 C :   -0.268361
  17 C :    0.309458
  18 O :   -0.356860
  19 C :   -0.231392
  20 H :    0.112457
  21 H :    0.107297
  22 H :    0.093160
  23 H :    0.117873
  24 H :    0.089098
  25 H :    0.131391
  26 H :    0.135048
  27 H :    0.123548
  28 H :    0.197229
  29 H :    0.204157
  30 H :    0.169024
  31 H :    0.177216
  32 H :    0.164361
  33 H :    0.132880
  34 H :    0.241287
  35 H :    0.173750
Sum of atomic charges:    0.0000000

LOEWDIN ATOMIC CHARGES
----------------------
   0 C :    0.107978
   1 C :   -0.022551
   2 O :    0.307926
   3 C :   -0.416019
   4 O :    0.119284
   5 C :   -0.083907
   6 C :   -0.094713
   7 C :    0.124850
   8 N :    0.402529
   9 C :   -0.456744
  10 S :   -0.038074
  11 N :    0.396468
  12 C :   -0.049189
  13 C :   -0.045864
  14 C :    0.019095
  15 C :    0.045666
  16 C :    0.000234
  17 C :   -0.191031
  18 O :    0.396105
  19 C :    0.026882
  20 H :   -0.027039
  21 H :   -0.023318
  22 H :   -0.026651
  23 H :   -0.023661
  24 H :   -0.039271
  25 H :   -0.007445
  26 H :   -0.009546
  27 H :   -0.017371
  28 H :   -0.057028
  29 H :   -0.063512
  30 H :   -0.003791
  31 H :   -0.021359
  32 H :   -0.018198
  33 H :   -0.034502
  34 H :   -0.152993
  35 H :   -0.023239

  Mayer bond orders larger than 0.100000
B(  0-C ,  1-C ) :   0.9770 B(  0-C , 20-H ) :   0.9672 B(  0-C , 21-H ) :   0.9782
B(  0-C , 22-H ) :   0.9762 B(  1-C ,  2-O ) :   0.8971 B(  1-C , 23-H ) :   0.9816
B(  1-C , 24-H ) :   0.9622 B(  2-O ,  3-C ) :   1.1769 B(  3-C ,  4-O ) :   2.0949
B(  3-C ,  5-C ) :   0.9165 B(  5-C ,  6-C ) :   1.7269 B(  5-C , 12-C ) :   0.9366
B(  6-C ,  7-C ) :   0.9367 B(  6-C ,  8-N ) :   1.1059 B(  7-C , 25-H ) :   0.9759
B(  7-C , 26-H ) :   0.9744 B(  7-C , 27-H ) :   0.9661 B(  8-N ,  9-C ) :   1.1979
B(  8-N , 28-H ) :   0.9511 B(  9-C , 10-S ) :   1.6099 B(  9-C , 11-N ) :   1.2908
B( 11-N , 12-C ) :   0.9797 B( 11-N , 29-H ) :   0.9467 B( 12-C , 13-C ) :   0.9707
B( 12-C , 30-H ) :   0.9890 B( 13-C , 14-C ) :   1.3903 B( 13-C , 19-C ) :   1.3533
B( 14-C , 15-C ) :   1.3948 B( 14-C , 31-H ) :   0.9582 B( 15-C , 16-C ) :   1.3604
B( 15-C , 32-H ) :   0.9700 B( 16-C , 17-C ) :   1.3322 B( 16-C , 33-H ) :   0.9843
B( 17-C , 18-O ) :   1.1102 B( 17-C , 19-C ) :   1.3641 B( 18-O , 34-H ) :   0.9792
B( 19-C , 35-H ) :   0.9573

MP2 TOTAL ENERGY:    -1274.330767691 Eh
FINAL SINGLE POINT ENERGY     -1274.330767690715

DIPOLE MOMENT
-------------
                                X             Y             Z
Electronic contribution:      9.16352       7.91661       6.78017
Nuclear contribution   :    -10.83809      -9.04444      -7.23488
                        -----------------------------------------
Total Dipole Moment    :     -1.67457      -1.12783      -0.45471
                        -----------------------------------------
Magnitude (a.u.)       :      2.06953
Magnitude (Debye)      :      5.26032

Rotational constants in cm-1:     0.011616     0.009147     0.006380
Rotational constants in MHz :   348.253782   274.205367   191.275167

                             ****ORCA TERMINATED NORMALLY****
TOTAL RUN TIME: 0 days 1 hours 45 minutes 4 seconds 67 msec
