                         Program Version 4.2.0 -  RELEASE  -
|  1> ! ri-mp2 cc-pvtz cc-pvtz/c TightSCF NoKeepInts
|  2>
|  3> %scf
|  4>   MaxCore 4096
|  5> end
|  6> *xyz  0  1
|  7>     C       14.7208553   14.3820365   15.9719717
|  8>     C       15.0374252   15.8866056   15.9658362
|  9>     O       16.3223139   16.0565628   15.3418630
| 10>     C       16.7717533   17.3248481   15.1262656
| 11>     O       16.9431277   17.7335436   13.9928053
| 12>     C       16.9800731   18.1516018   16.3638009
| 13>     C       16.9286790   19.5036067   16.2634906
| 14>     C       16.2874660   20.3020524   15.1477069
| 15>     N       17.4804056   20.3266279   17.2466170
| 16>     C       18.3209123   19.8859380   18.2325014
| 17>     S       19.0461935   20.9242400   19.2957362
| 18>     N       18.5505954   18.5338007   18.2774879
| 19>     C       17.8429529   17.5190563   17.4722711
| 20>     C       17.1902594   16.4477071   18.3323571
| 21>     C       17.5722426   15.0992835   18.2101879
| 22>     C       16.9803217   14.1146533   19.0191000
| 23>     C       16.0005377   14.4820228   19.9573757
| 24>     C       15.6249355   15.8261512   20.0867013
| 25>     O       14.6793343   16.1841212   20.9909138
| 26>     C       16.2179735   16.8047769   19.2827177
| 27>     H       13.7423133   14.1961223   16.4307131
| 28>     H       15.4770297   13.8282480   16.5406657
| 29>     H       14.7023443   13.9877920   14.9482119
| 30>     H       14.2692735   16.4132368   15.3836817
| 31>     H       15.0173420   16.2795299   16.9869320
| 32>     H       15.3972318   19.7930746   14.7577643
| 33>     H       16.9878656   20.4198092   14.3103346
| 34>     H       15.9736137   21.3017482   15.4708140
| 35>     H       17.3532162   21.3249716   17.1951565
| 36>     H       19.1633052   18.2358775   19.0265190
| 37>     H       18.7038037   17.0895045   16.9396473
| 38>     H       18.3246456   14.8121843   17.4797073
| 39>     H       17.2797092   13.0728778   18.9154418
| 40>     H       15.5394545   13.7241415   20.5824509
| 41>     H       14.4349256   15.3894602   21.4892810
| 42>     H       15.9225682   17.8421854   19.4029715
| 43> *
| 44>
| 45>                          ****END OF INPUT****

CARTESIAN COORDINATES (ANGSTROEM)
---------------------------------
  C     14.720855   14.382036   15.971972
  C     15.037425   15.886606   15.965836
  O     16.322314   16.056563   15.341863
  C     16.771753   17.324848   15.126266
  O     16.943128   17.733544   13.992805
  C     16.980073   18.151602   16.363801
  C     16.928679   19.503607   16.263491
  C     16.287466   20.302052   15.147707
  N     17.480406   20.326628   17.246617
  C     18.320912   19.885938   18.232501
  S     19.046193   20.924240   19.295736
  N     18.550595   18.533801   18.277488
  C     17.842953   17.519056   17.472271
  C     17.190259   16.447707   18.332357
  C     17.572243   15.099283   18.210188
  C     16.980322   14.114653   19.019100
  C     16.000538   14.482023   19.957376
  C     15.624935   15.826151   20.086701
  O     14.679334   16.184121   20.990914
  C     16.217973   16.804777   19.282718
  H     13.742313   14.196122   16.430713
  H     15.477030   13.828248   16.540666
  H     14.702344   13.987792   14.948212
  H     14.269273   16.413237   15.383682
  H     15.017342   16.279530   16.986932
  H     15.397232   19.793075   14.757764
  H     16.987866   20.419809   14.310335
  H     15.973614   21.301748   15.470814
  H     17.353216   21.324972   17.195156
  H     19.163305   18.235878   19.026519
  H     18.703804   17.089505   16.939647
  H     18.324646   14.812184   17.479707
  H     17.279709   13.072878   18.915442
  H     15.539454   13.724141   20.582451
  H     14.434926   15.389460   21.489281
  H     15.922568   17.842185   19.402971

 Total Charge           Charge          ....    0
 Multiplicity           Mult            ....    1
 Number of Electrons    NEL             ....  154
 Basis Dimension        Dim             ....  828

ORBITAL ENERGIES
----------------

  NO   OCC          E(Eh)            E(eV)
   0   2.0000     -91.891360     -2500.4910
   1   2.0000     -20.603495      -560.6496
   2   2.0000     -20.587975      -560.2273
   3   2.0000     -20.551273      -559.2286
   4   2.0000     -15.629822      -425.3091
   5   2.0000     -15.610712      -424.7891
   6   2.0000     -11.392291      -310.0000
   7   2.0000     -11.386025      -309.8295
   8   2.0000     -11.335446      -308.4532
   9   2.0000     -11.321614      -308.0768
  10   2.0000     -11.315441      -307.9088
  11   2.0000     -11.297048      -307.4083
  12   2.0000     -11.268324      -306.6267
  13   2.0000     -11.262492      -306.4680
  14   2.0000     -11.258090      -306.3482
  15   2.0000     -11.254817      -306.2591
  16   2.0000     -11.251561      -306.1705
  17   2.0000     -11.246265      -306.0264
  18   2.0000     -11.246090      -306.0217
  19   2.0000     -11.227109      -305.5052
  20   2.0000      -8.896412      -242.0837
  21   2.0000      -6.577979      -178.9959
  22   2.0000      -6.575986      -178.9417
  23   2.0000      -6.575389      -178.9254
  24   2.0000      -1.448263       -39.4092
  25   2.0000      -1.423283       -38.7295
  26   2.0000      -1.357944       -36.9515
  27   2.0000      -1.342432       -36.5294
  28   2.0000      -1.241415       -33.7806
  29   2.0000      -1.164839       -31.6969
  30   2.0000      -1.123849       -30.5815
  31   2.0000      -1.049305       -28.5530
  32   2.0000      -1.034707       -28.1558
  33   2.0000      -1.023100       -27.8400
  34   2.0000      -1.001528       -27.2530
  35   2.0000      -0.988611       -26.9015
  36   2.0000      -0.926613       -25.2144
  37   2.0000      -0.875487       -23.8232
  38   2.0000      -0.851453       -23.1692
  39   2.0000      -0.843990       -22.9661
  40   2.0000      -0.841877       -22.9087
  41   2.0000      -0.836287       -22.7565
  42   2.0000      -0.762392       -20.7457
  43   2.0000      -0.739254       -20.1161
  44   2.0000      -0.726839       -19.7783
  45   2.0000      -0.702071       -19.1043
  46   2.0000      -0.691202       -18.8086
  47   2.0000      -0.681451       -18.5432
  48   2.0000      -0.675145       -18.3716
  49   2.0000      -0.657853       -17.9011
  50   2.0000      -0.649060       -17.6618
  51   2.0000      -0.646297       -17.5866
  52   2.0000      -0.640130       -17.4188
  53   2.0000      -0.615740       -16.7551
  54   2.0000      -0.611085       -16.6285
  55   2.0000      -0.604890       -16.4599
  56   2.0000      -0.601840       -16.3769
  57   2.0000      -0.582523       -15.8513
  58   2.0000      -0.574898       -15.6438
  59   2.0000      -0.566522       -15.4159
  60   2.0000      -0.554900       -15.0996
  61   2.0000      -0.546368       -14.8674
  62   2.0000      -0.539306       -14.6753
  63   2.0000      -0.529825       -14.4173
  64   2.0000      -0.521421       -14.1886
  65   2.0000      -0.517357       -14.0780
  66   2.0000      -0.506664       -13.7870
  67   2.0000      -0.501456       -13.6453
  68   2.0000      -0.484615       -13.1870
  69   2.0000      -0.467090       -12.7102
  70   2.0000      -0.459432       -12.5018
  71   2.0000      -0.450466       -12.2578
  72   2.0000      -0.357586        -9.7304
  73   2.0000      -0.352803        -9.6003
  74   2.0000      -0.331022        -9.0076
  75   2.0000      -0.328625        -8.9424
  76   2.0000      -0.321354        -8.7445
  77   0.0000       0.075998         2.0680
  78   0.0000       0.096517         2.6264
  79   0.0000       0.121252         3.2994
  80   0.0000       0.126957         3.4547
  81   0.0000       0.127897         3.4803

MULLIKEN ATOMIC CHARGES
-----------------------
   0 C :   -0.267155
   1 C :    0.012022
   2 O :   -0.338652
   3 C :    0.417793
   4 O :   -0.368943
   5 C :   -0.243189
   6 C :    0.155454
   7 C :   -0.271543
   8 N :   -0.129656
   9 C :    0.208269
  10 S :   -0.437652
  11 N :   -0.208703
  12 C :    0.041845
  13 C :   -0.009565
  14 C :   -0.155773
  15 C :   -0.157325
  16 C :   -0.263823
  17 C :    0.305708
  18 O :   -0.355615
  19 C :   -0.229586
  20 H :    0.089004
  21 H :    0.097722
  22 H :    0.108145
  23 H :    0.105557
  24 H :    0.110486
  25 H :    0.120034
  26 H :    0.139876
  27 H :    0.095801
  28 H :    0.199508
  29 H :    0.200038
  30 H :    0.153778
  31 H :    0.156593
  32 H :    0.170761
  33 H :    0.135299
  34 H :    0.241567
  35 H :    0.171918
Sum of atomic charges:   -0.0000000

LOEWDIN ATOMIC CHARGES
----------------------
   0 C :    0.112008
   1 C :   -0.023994
   2 O :    0.300848
   3 C :   -0.427036
   4 O :    0.129080
   5 C :   -0.103047
   6 C :   -0.064988
   7 C :    0.129396
   8 N :    0.406870
   9 C :   -0.457124
  10 S :   -0.033322
  11 N :    0.395462
  12 C :   -0.053583
  13 C :   -0.044033
  14 C :    0.021378
  15 C :    0.044810
  16 C :    0.001892
  17 C :   -0.192247
  18 O :    0.396653
  19 C :    0.032356
  20 H :   -0.025593
  21 H :   -0.029413
  22 H :   -0.024940
  23 H :   -0.033202
  24 H :   -0.039250
  25 H :   -0.007933
  26 H :   -0.004129
  27 H :   -0.022034
  28 H :   -0.056405
  29 H :   -0.063377
  30 H :   -0.011271
  31 H :   -0.026552
  32 H :   -0.019436
  33 H :   -0.033716
  34 H :   -0.152449
  35 H :   -0.021681

  Mayer bond orders larger than 0.100000
B(  0-C ,  1-C ) :   0.9823 B(  0-C , 20-H ) :   0.9762 B(  0-C , 21-H ) :   0.9750
B(  0-C , 22-H ) :   0.9787 B(  1-C ,  2-O ) :   0.8874 B(  1-C , 23-H ) :   0.9811
B(  1-C , 24-H ) :   0.9588 B(  2-O ,  3-C ) :   1.1485 B(  3-C ,  4-O ) :   2.1146
B(  3-C ,  5-C ) :   0.9748 B(  5-C ,  6-C ) :   1.6611 B(  5-C , 12-C ) :   0.9584
B(  6-C ,  7-C ) :   0.9582 B(  6-C ,  8-N ) :   1.1438 B(  7-C , 25-H ) :   0.9727
B(  7-C , 26-H ) :   0.9544 B(  7-C , 27-H ) :   0.9855 B(  8-N ,  9-C ) :   1.1906
B(  8-N , 28-H ) :   0.9483 B(  9-C , 10-S ) :   1.6149 B(  9-C , 11-N ) :   1.2957
B( 11-N , 12-C ) :   0.9790 B( 11-N , 29-H ) :   0.9477 B( 12-C , 13-C ) :   0.9645
B( 12-C , 30-H ) :   1.0060 B( 13-C , 14-C ) :   1.3618 B( 13-C , 19-C ) :   1.3561
B( 14-C , 15-C ) :   1.3864 B( 14-C , 31-H ) :   0.9700 B( 15-C , 16-C ) :   1.3587
B( 15-C , 32-H ) :   0.9688 B( 16-C , 17-C ) :   1.3304 B( 16-C , 33-H ) :   0.9829
B( 17-C , 18-O ) :   1.1095 B( 17-C , 19-C ) :   1.3672 B( 18-O , 34-H ) :   0.9788
B( 19-C , 35-H ) :   0.9594

MP2 TOTAL ENERGY:    -1274.325056370 Eh
FINAL SINGLE POINT ENERGY     -1274.325056369799

DIPOLE MOMENT
-------------
                                X             Y             Z
Electronic contribution:      9.73618      10.13310       5.85500
Nuclear contribution   :    -11.15685     -11.63024      -5.56690
                        -----------------------------------------
Total Dipole Moment    :     -1.42068      -1.49714       0.28811
                        -----------------------------------------
Magnitude (a.u.)       :      2.08393
Magnitude (Debye)      :      5.29693

Rotational constants in cm-1:     0.012508     0.008753     0.005999
Rotational constants in MHz :   374.982446   262.405089   179.849505

                             ****ORCA TERMINATED NORMALLY****
TOTAL RUN TIME: 0 days 1 hours 44 minutes 40 seconds 996 msec
