                         Program Version 4.2.0 -  RELEASE  -
|  1> ! ri-mp2 cc-pvtz cc-pvtz/c TightSCF NoKeepInts
|  2>
|  3> %scf
|  4>   MaxCore 4096
|  5> end
|  6> *xyz  0  1
|  7>     C       14.5400477   14.9336152   14.7151996
|  8>     C       15.4952533   15.1024757   15.9138345
|  9>     O       16.5622689   16.0195280   15.5971521
| 10>     C       16.2981586   17.3540151   15.4718560
| 11>     O       15.5856903   17.7885053   14.5848293
| 12>     C       16.8982759   18.1766936   16.5820360
| 13>     C       16.9197035   19.5328308   16.5070849
| 14>     C       16.1655405   20.4095828   15.5285911
| 15>     N       17.7015978   20.2905788   17.3819537
| 16>     C       18.6372800   19.7691413   18.2334890
| 17>     S       19.5989565   20.7308249   19.1746811
| 18>     N       18.7524799   18.4024556   18.2504535
| 19>     C       17.8708140   17.4605443   17.5359458
| 20>     C       17.2111087   16.4568774   18.4722522
| 21>     C       17.6810765   15.1325852   18.5449426
| 22>     C       17.0651958   14.2031647   19.3998697
| 23>     C       15.9745565   14.6031824   20.1910417
| 24>     C       15.5103986   15.9243119   20.1264450
| 25>     O       14.4579685   16.3133770   20.8888923
| 26>     C       16.1238934   16.8464462   19.2727932
| 27>     H       13.9280979   15.8310462   14.5633811
| 28>     H       13.8590334   14.0911995   14.8853205
| 29>     H       15.1038101   14.7383463   13.7944400
| 30>     H       14.9381986   15.4480307   16.7951404
| 31>     H       15.9321387   14.1252395   16.1561530
| 32>     H       15.0961331   20.1625887   15.5328743
| 33>     H       16.5334414   20.2530592   14.5064109
| 34>     H       16.2535343   21.4792733   15.7521620
| 35>     H       17.6442123   21.2962509   17.3611758
| 36>     H       19.4312743   18.0461310   18.9113170
| 37>     H       18.6037601   16.9597129   16.8872664
| 38>     H       18.5218920   14.8215911   17.9301679
| 39>     H       17.4342825   13.1799534   19.4492282
| 40>     H       15.4966380   13.8893564   20.8541883
| 41>     H       14.2053451   15.5612123   21.4454331
| 42>     H       15.7549435   17.8662724   19.2399979
| 43> *
| 44>
| 45>                          ****END OF INPUT****

CARTESIAN COORDINATES (ANGSTROEM)
---------------------------------
  C     14.540048   14.933615   14.715200
  C     15.495253   15.102476   15.913835
  O     16.562269   16.019528   15.597152
  C     16.298159   17.354015   15.471856
  O     15.585690   17.788505   14.584829
  C     16.898276   18.176694   16.582036
  C     16.919704   19.532831   16.507085
  C     16.165540   20.409583   15.528591
  N     17.701598   20.290579   17.381954
  C     18.637280   19.769141   18.233489
  S     19.598956   20.730825   19.174681
  N     18.752480   18.402456   18.250453
  C     17.870814   17.460544   17.535946
  C     17.211109   16.456877   18.472252
  C     17.681076   15.132585   18.544943
  C     17.065196   14.203165   19.399870
  C     15.974556   14.603182   20.191042
  C     15.510399   15.924312   20.126445
  O     14.457968   16.313377   20.888892
  C     16.123893   16.846446   19.272793
  H     13.928098   15.831046   14.563381
  H     13.859033   14.091200   14.885321
  H     15.103810   14.738346   13.794440
  H     14.938199   15.448031   16.795140
  H     15.932139   14.125239   16.156153
  H     15.096133   20.162589   15.532874
  H     16.533441   20.253059   14.506411
  H     16.253534   21.479273   15.752162
  H     17.644212   21.296251   17.361176
  H     19.431274   18.046131   18.911317
  H     18.603760   16.959713   16.887266
  H     18.521892   14.821591   17.930168
  H     17.434282   13.179953   19.449228
  H     15.496638   13.889356   20.854188
  H     14.205345   15.561212   21.445433
  H     15.754943   17.866272   19.239998

 Total Charge           Charge          ....    0
 Multiplicity           Mult            ....    1
 Number of Electrons    NEL             ....  154
 Basis Dimension        Dim             ....  828

ORBITAL ENERGIES
----------------

  NO   OCC          E(Eh)            E(eV)
   0   2.0000     -91.890166     -2500.4585
   1   2.0000     -20.601177      -560.5865
   2   2.0000     -20.584390      -560.1297
   3   2.0000     -20.545695      -559.0768
   4   2.0000     -15.630659      -425.3319
   5   2.0000     -15.608264      -424.7224
   6   2.0000     -11.393622      -310.0362
   7   2.0000     -11.384735      -309.7944
   8   2.0000     -11.338757      -308.5433
   9   2.0000     -11.318892      -308.0027
  10   2.0000     -11.309172      -307.7382
  11   2.0000     -11.297628      -307.4241
  12   2.0000     -11.265015      -306.5366
  13   2.0000     -11.260159      -306.4045
  14   2.0000     -11.258381      -306.3561
  15   2.0000     -11.252873      -306.2062
  16   2.0000     -11.248529      -306.0880
  17   2.0000     -11.243402      -305.9485
  18   2.0000     -11.243098      -305.9402
  19   2.0000     -11.216889      -305.2271
  20   2.0000      -8.895228      -242.0515
  21   2.0000      -6.576798      -178.9638
  22   2.0000      -6.574802      -178.9095
  23   2.0000      -6.574208      -178.8933
  24   2.0000      -1.445508       -39.3343
  25   2.0000      -1.420881       -38.6641
  26   2.0000      -1.353726       -36.8367
  27   2.0000      -1.341818       -36.5127
  28   2.0000      -1.239801       -33.7367
  29   2.0000      -1.161921       -31.6175
  30   2.0000      -1.122075       -30.5332
  31   2.0000      -1.046080       -28.4653
  32   2.0000      -1.030949       -28.0536
  33   2.0000      -1.019880       -27.7524
  34   2.0000      -0.997323       -27.1385
  35   2.0000      -0.985731       -26.8231
  36   2.0000      -0.924094       -25.1459
  37   2.0000      -0.886048       -24.1106
  38   2.0000      -0.848952       -23.1012
  39   2.0000      -0.841867       -22.9084
  40   2.0000      -0.838572       -22.8187
  41   2.0000      -0.825137       -22.4531
  42   2.0000      -0.752645       -20.4805
  43   2.0000      -0.736007       -20.0278
  44   2.0000      -0.719355       -19.5746
  45   2.0000      -0.699534       -19.0353
  46   2.0000      -0.689907       -18.7733
  47   2.0000      -0.679040       -18.4776
  48   2.0000      -0.670096       -18.2342
  49   2.0000      -0.659275       -17.9398
  50   2.0000      -0.648285       -17.6407
  51   2.0000      -0.646665       -17.5967
  52   2.0000      -0.637082       -17.3359
  53   2.0000      -0.611355       -16.6358
  54   2.0000      -0.605556       -16.4780
  55   2.0000      -0.602204       -16.3868
  56   2.0000      -0.594119       -16.1668
  57   2.0000      -0.581121       -15.8131
  58   2.0000      -0.574745       -15.6396
  59   2.0000      -0.570080       -15.5127
  60   2.0000      -0.564200       -15.3527
  61   2.0000      -0.541637       -14.7387
  62   2.0000      -0.535218       -14.5640
  63   2.0000      -0.527585       -14.3563
  64   2.0000      -0.518559       -14.1107
  65   2.0000      -0.514193       -13.9919
  66   2.0000      -0.501993       -13.6599
  67   2.0000      -0.495059       -13.4712
  68   2.0000      -0.484369       -13.1803
  69   2.0000      -0.464106       -12.6290
  70   2.0000      -0.456301       -12.4166
  71   2.0000      -0.440942       -11.9987
  72   2.0000      -0.355468        -9.6728
  73   2.0000      -0.353047        -9.6069
  74   2.0000      -0.329859        -8.9759
  75   2.0000      -0.325977        -8.8703
  76   2.0000      -0.319619        -8.6973
  77   0.0000       0.072208         1.9649
  78   0.0000       0.099519         2.7081
  79   0.0000       0.123431         3.3587
  80   0.0000       0.130233         3.5438
  81   0.0000       0.132717         3.6114

MULLIKEN ATOMIC CHARGES
-----------------------
   0 C :   -0.269097
   1 C :    0.026813
   2 O :   -0.380597
   3 C :    0.479411
   4 O :   -0.416249
   5 C :   -0.278254
   6 C :    0.186179
   7 C :   -0.265996
   8 N :   -0.126960
   9 C :    0.212495
  10 S :   -0.440551
  11 N :   -0.217622
  12 C :    0.075801
  13 C :    0.005785
  14 C :   -0.162715
  15 C :   -0.133023
  16 C :   -0.275452
  17 C :    0.313835
  18 O :   -0.356211
  19 C :   -0.243665
  20 H :    0.108602
  21 H :    0.089433
  22 H :    0.098900
  23 H :    0.095905
  24 H :    0.104654
  25 H :    0.131767
  26 H :    0.131239
  27 H :    0.094797
  28 H :    0.199357
  29 H :    0.201019
  30 H :    0.151975
  31 H :    0.152503
  32 H :    0.164350
  33 H :    0.133394
  34 H :    0.241547
  35 H :    0.166634
Sum of atomic charges:   -0.0000000

LOEWDIN ATOMIC CHARGES
----------------------
   0 C :    0.105231
   1 C :   -0.021522
   2 O :    0.290690
   3 C :   -0.416199
   4 O :    0.116584
   5 C :   -0.100583
   6 C :   -0.054551
   7 C :    0.131361
   8 N :    0.407597
   9 C :   -0.456243
  10 S :   -0.035291
  11 N :    0.394304
  12 C :   -0.054691
  13 C :   -0.039148
  14 C :    0.019051
  15 C :    0.040872
  16 C :   -0.000709
  17 C :   -0.191018
  18 O :    0.396080
  19 C :    0.031738
  20 H :   -0.028288
  21 H :   -0.030542
  22 H :   -0.024539
  23 H :   -0.031480
  24 H :   -0.024031
  25 H :   -0.004710
  26 H :   -0.004242
  27 H :   -0.023484
  28 H :   -0.056894
  29 H :   -0.064580
  30 H :   -0.012358
  31 H :   -0.027920
  32 H :   -0.020189
  33 H :   -0.034494
  34 H :   -0.152919
  35 H :   -0.022884

  Mayer bond orders larger than 0.100000
B(  0-C ,  1-C ) :   0.9860 B(  0-C , 20-H ) :   0.9726 B(  0-C , 21-H ) :   0.9767
B(  0-C , 22-H ) :   0.9767 B(  1-C ,  2-O ) :   0.8903 B(  1-C , 23-H ) :   0.9674
B(  1-C , 24-H ) :   0.9801 B(  2-O ,  3-C ) :   1.0803 B(  3-C ,  4-O ) :   1.9986
B(  3-C ,  5-C ) :   1.0820 B(  5-C ,  6-C ) :   1.6317 B(  5-C , 12-C ) :   0.9525
B(  6-C ,  7-C ) :   0.9653 B(  6-C ,  8-N ) :   1.1576 B(  7-C , 25-H ) :   0.9615
B(  7-C , 26-H ) :   0.9578 B(  7-C , 27-H ) :   0.9902 B(  8-N ,  9-C ) :   1.1856
B(  8-N , 28-H ) :   0.9462 B(  9-C , 10-S ) :   1.6059 B(  9-C , 11-N ) :   1.3107
B( 11-N , 12-C ) :   0.9626 B( 11-N , 29-H ) :   0.9484 B( 12-C , 13-C ) :   0.9675
B( 12-C , 30-H ) :   0.9999 B( 13-C , 14-C ) :   1.3461 B( 13-C , 19-C ) :   1.3779
B( 14-C , 15-C ) :   1.3920 B( 14-C , 31-H ) :   0.9749 B( 15-C , 16-C ) :   1.3602
B( 15-C , 32-H ) :   0.9698 B( 16-C , 17-C ) :   1.3321 B( 16-C , 33-H ) :   0.9840
B( 17-C , 18-O ) :   1.1070 B( 17-C , 19-C ) :   1.3634 B( 18-O , 34-H ) :   0.9789
B( 19-C , 35-H ) :   0.9592

MP2 TOTAL ENERGY:    -1274.329943405 Eh
FINAL SINGLE POINT ENERGY     -1274.329943404845

DIPOLE MOMENT
-------------
                                X             Y             Z
Electronic contribution:      9.84685       9.76035       8.35677
Nuclear contribution   :    -10.85517     -11.37903      -8.29178
                        -----------------------------------------
Total Dipole Moment    :     -1.00832      -1.61867       0.06498
                        -----------------------------------------
Magnitude (a.u.)       :      1.90815
Magnitude (Debye)      :      4.85013

Rotational constants in cm-1:     0.011926     0.008595     0.005983
Rotational constants in MHz :   357.517546   257.657779   179.362448

                             ****ORCA TERMINATED NORMALLY****
TOTAL RUN TIME: 0 days 1 hours 42 minutes 23 seconds 174 msec
