                         Program Version 4.2.0 -  RELEASE  -
|  1> ! ri-mp2 cc-pvtz cc-pvtz/c TightSCF NoKeepInts
|  2>
|  3> %scf
|  4>   MaxCore 4096
|  5> end
|  6> *xyz  0  1
|  7>     C       14.0280363   16.2437627   15.2828509
|  8>     C       15.2342917   15.6931182   16.0628172
|  9>     O       16.4080274   15.8332813   15.2347616
| 10>     C       17.3521752   16.8183144   15.3753206
| 11>     O       18.3147247   16.8930953   14.6357889
| 12>     C       17.1346867   17.7940191   16.4776264
| 13>     C       16.7985771   19.0600502   16.1456216
| 14>     C       16.2971983   19.5170677   14.7927925
| 15>     N       16.9677691   20.1120319   17.0469119
| 16>     C       17.6939168   20.0150315   18.2053490
| 17>     S       17.9587299   21.3222343   19.1828507
| 18>     N       18.2147949   18.7780789   18.5012631
| 19>     C       17.9224358   17.5327781   17.7628499
| 20>     C       17.3828374   16.3908894   18.6100626
| 21>     C       17.8584975   15.0816100   18.4147889
| 22>     C       17.3442074   14.0156941   19.1715549
| 23>     C       16.3459030   14.2614585   20.1298290
| 24>     C       15.8687948   15.5649025   20.3246406
| 25>     O       14.8981825   15.8035482   21.2416239
| 26>     C       16.3803856   16.6240796   19.5679095
| 27>     H       14.1060108   17.3291686   15.1544346
| 28>     H       13.0961887   16.0325356   15.8215892
| 29>     H       13.9627189   15.7784409   14.2910811
| 30>     H       15.3189076   16.1895134   17.0347130
| 31>     H       15.0662223   14.6251446   16.2536258
| 32>     H       15.8383844   18.6992053   14.2245617
| 33>     H       17.1304457   19.9002419   14.1892752
| 34>     H       15.5465530   20.3116110   14.8823852
| 35>     H       16.6365908   21.0349079   16.8136517
| 36>     H       18.7468829   18.7359650   19.3616692
| 37>     H       18.9375614   17.2804071   17.4207912
| 38>     H       18.6249269   14.8882849   17.6672748
| 39>     H       17.7189984   13.0054908   19.0134408
| 40>     H       15.9461113   13.4406496   20.7165568
| 41>     H       14.7132963   14.9680821   21.6970535
| 42>     H       15.9930284   17.6253052   19.7286825
| 43> *
| 44>
| 45>                          ****END OF INPUT****

CARTESIAN COORDINATES (ANGSTROEM)
---------------------------------
  C     14.028036   16.243763   15.282851
  C     15.234292   15.693118   16.062817
  O     16.408027   15.833281   15.234762
  C     17.352175   16.818314   15.375321
  O     18.314725   16.893095   14.635789
  C     17.134687   17.794019   16.477626
  C     16.798577   19.060050   16.145622
  C     16.297198   19.517068   14.792792
  N     16.967769   20.112032   17.046912
  C     17.693917   20.015031   18.205349
  S     17.958730   21.322234   19.182851
  N     18.214795   18.778079   18.501263
  C     17.922436   17.532778   17.762850
  C     17.382837   16.390889   18.610063
  C     17.858497   15.081610   18.414789
  C     17.344207   14.015694   19.171555
  C     16.345903   14.261458   20.129829
  C     15.868795   15.564903   20.324641
  O     14.898183   15.803548   21.241624
  C     16.380386   16.624080   19.567909
  H     14.106011   17.329169   15.154435
  H     13.096189   16.032536   15.821589
  H     13.962719   15.778441   14.291081
  H     15.318908   16.189513   17.034713
  H     15.066222   14.625145   16.253626
  H     15.838384   18.699205   14.224562
  H     17.130446   19.900242   14.189275
  H     15.546553   20.311611   14.882385
  H     16.636591   21.034908   16.813652
  H     18.746883   18.735965   19.361669
  H     18.937561   17.280407   17.420791
  H     18.624927   14.888285   17.667275
  H     17.718998   13.005491   19.013441
  H     15.946111   13.440650   20.716557
  H     14.713296   14.968082   21.697053
  H     15.993028   17.625305   19.728683

 Total Charge           Charge          ....    0
 Multiplicity           Mult            ....    1
 Number of Electrons    NEL             ....  154
 Basis Dimension        Dim             ....  828

ORBITAL ENERGIES
----------------

  NO   OCC          E(Eh)            E(eV)
   0   2.0000     -91.889431     -2500.4385
   1   2.0000     -20.605067      -560.6924
   2   2.0000     -20.602645      -560.6265
   3   2.0000     -20.552091      -559.2508
   4   2.0000     -15.625207      -425.1835
   5   2.0000     -15.611079      -424.7991
   6   2.0000     -11.398611      -310.1720
   7   2.0000     -11.385516      -309.8156
   8   2.0000     -11.326518      -308.2102
   9   2.0000     -11.323761      -308.1352
  10   2.0000     -11.316619      -307.9409
  11   2.0000     -11.301767      -307.5367
  12   2.0000     -11.271456      -306.7119
  13   2.0000     -11.264960      -306.5352
  14   2.0000     -11.260872      -306.4239
  15   2.0000     -11.258878      -306.3697
  16   2.0000     -11.252608      -306.1990
  17   2.0000     -11.247836      -306.0692
  18   2.0000     -11.247777      -306.0676
  19   2.0000     -11.233795      -305.6871
  20   2.0000      -8.894524      -242.0323
  21   2.0000      -6.576104      -178.9449
  22   2.0000      -6.574094      -178.8902
  23   2.0000      -6.573512      -178.8744
  24   2.0000      -1.447642       -39.3923
  25   2.0000      -1.424772       -38.7700
  26   2.0000      -1.362439       -37.0739
  27   2.0000      -1.339067       -36.4379
  28   2.0000      -1.239246       -33.7216
  29   2.0000      -1.167289       -31.7636
  30   2.0000      -1.127135       -30.6709
  31   2.0000      -1.052219       -28.6323
  32   2.0000      -1.038811       -28.2675
  33   2.0000      -1.025306       -27.9000
  34   2.0000      -1.005315       -27.3560
  35   2.0000      -0.990225       -26.9454
  36   2.0000      -0.927983       -25.2517
  37   2.0000      -0.889844       -24.2139
  38   2.0000      -0.853104       -23.2141
  39   2.0000      -0.844832       -22.9890
  40   2.0000      -0.842934       -22.9374
  41   2.0000      -0.836923       -22.7738
  42   2.0000      -0.758471       -20.6390
  43   2.0000      -0.739473       -20.1221
  44   2.0000      -0.727651       -19.8004
  45   2.0000      -0.703203       -19.1351
  46   2.0000      -0.694365       -18.8946
  47   2.0000      -0.680193       -18.5090
  48   2.0000      -0.677616       -18.4389
  49   2.0000      -0.667676       -18.1684
  50   2.0000      -0.652741       -17.7620
  51   2.0000      -0.643316       -17.5055
  52   2.0000      -0.631937       -17.1959
  53   2.0000      -0.617389       -16.8000
  54   2.0000      -0.614122       -16.7111
  55   2.0000      -0.608578       -16.5603
  56   2.0000      -0.606213       -16.4959
  57   2.0000      -0.585176       -15.9235
  58   2.0000      -0.580052       -15.7840
  59   2.0000      -0.567854       -15.4521
  60   2.0000      -0.566894       -15.4260
  61   2.0000      -0.555620       -15.1192
  62   2.0000      -0.545039       -14.8313
  63   2.0000      -0.535310       -14.5665
  64   2.0000      -0.527993       -14.3674
  65   2.0000      -0.518435       -14.1073
  66   2.0000      -0.505083       -13.7440
  67   2.0000      -0.504607       -13.7310
  68   2.0000      -0.489957       -13.3324
  69   2.0000      -0.467636       -12.7250
  70   2.0000      -0.454880       -12.3779
  71   2.0000      -0.450623       -12.2621
  72   2.0000      -0.358220        -9.7477
  73   2.0000      -0.352856        -9.6017
  74   2.0000      -0.331989        -9.0339
  75   2.0000      -0.328607        -8.9418
  76   2.0000      -0.319437        -8.6923
  77   0.0000       0.090337         2.4582
  78   0.0000       0.098346         2.6761
  79   0.0000       0.120305         3.2737
  80   0.0000       0.126253         3.4355
  81   0.0000       0.128055         3.4846

MULLIKEN ATOMIC CHARGES
-----------------------
   0 C :   -0.286563
   1 C :    0.036081
   2 O :   -0.311943
   3 C :    0.408157
   4 O :   -0.381626
   5 C :   -0.203222
   6 C :    0.145037
   7 C :   -0.311871
   8 N :   -0.137331
   9 C :    0.214621
  10 S :   -0.442844
  11 N :   -0.228650
  12 C :    0.040477
  13 C :    0.013861
  14 C :   -0.211816
  15 C :   -0.134630
  16 C :   -0.272324
  17 C :    0.313362
  18 O :   -0.352837
  19 C :   -0.239183
  20 H :    0.088016
  21 H :    0.101156
  22 H :    0.110511
  23 H :    0.102134
  24 H :    0.117290
  25 H :    0.115185
  26 H :    0.148314
  27 H :    0.106469
  28 H :    0.196973
  29 H :    0.203189
  30 H :    0.167303
  31 H :    0.163753
  32 H :    0.166363
  33 H :    0.135188
  34 H :    0.241902
  35 H :    0.179497
Sum of atomic charges:   -0.0000000

LOEWDIN ATOMIC CHARGES
----------------------
   0 C :    0.104418
   1 C :   -0.017884
   2 O :    0.309259
   3 C :   -0.419486
   4 O :    0.123498
   5 C :   -0.089441
   6 C :   -0.094154
   7 C :    0.127930
   8 N :    0.403545
   9 C :   -0.453818
  10 S :   -0.038015
  11 N :    0.395586
  12 C :   -0.053601
  13 C :   -0.045203
  14 C :    0.017843
  15 C :    0.046373
  16 C :    0.001244
  17 C :   -0.190318
  18 O :    0.397463
  19 C :    0.028691
  20 H :   -0.033712
  21 H :   -0.024293
  22 H :   -0.023459
  23 H :   -0.037365
  24 H :   -0.022968
  25 H :   -0.012128
  26 H :   -0.004909
  27 H :   -0.018013
  28 H :   -0.057863
  29 H :   -0.064505
  30 H :   -0.005736
  31 H :   -0.024131
  32 H :   -0.017574
  33 H :   -0.033588
  34 H :   -0.152055
  35 H :   -0.021630

  Mayer bond orders larger than 0.100000
B(  0-C ,  1-C ) :   0.9742 B(  0-C , 20-H ) :   0.9791 B(  0-C , 21-H ) :   0.9769
B(  0-C , 22-H ) :   0.9766 B(  1-C ,  2-O ) :   0.8895 B(  1-C , 23-H ) :   0.9532
B(  1-C , 24-H ) :   0.9813 B(  2-O ,  3-C ) :   1.1928 B(  3-C ,  4-O ) :   2.1238
B(  3-C ,  5-C ) :   0.8945 B(  5-C ,  6-C ) :   1.7257 B(  5-C , 12-C ) :   0.9517
B(  6-C ,  7-C ) :   0.9439 B(  6-C ,  8-N ) :   1.1110 B(  7-C , 25-H ) :   0.9808
B(  7-C , 26-H ) :   0.9599 B(  7-C , 27-H ) :   0.9786 B(  8-N ,  9-C ) :   1.2036
B(  8-N , 28-H ) :   0.9503 B(  9-C , 10-S ) :   1.6099 B(  9-C , 11-N ) :   1.2839
B( 11-N , 12-C ) :   0.9781 B( 11-N , 29-H ) :   0.9459 B( 12-C , 13-C ) :   0.9668
B( 12-C , 30-H ) :   0.9970 B( 13-C , 14-C ) :   1.3784 B( 13-C , 19-C ) :   1.3449
B( 14-C , 15-C ) :   1.3978 B( 14-C , 31-H ) :   0.9688 B( 15-C , 16-C ) :   1.3629
B( 15-C , 32-H ) :   0.9690 B( 16-C , 17-C ) :   1.3306 B( 16-C , 33-H ) :   0.9833
B( 17-C , 18-O ) :   1.1132 B( 17-C , 19-C ) :   1.3607 B( 18-O , 34-H ) :   0.9785
B( 19-C , 35-H ) :   0.9554

MP2 TOTAL ENERGY:    -1274.327046247 Eh
FINAL SINGLE POINT ENERGY     -1274.327046247427

DIPOLE MOMENT
-------------
                                X             Y             Z
Electronic contribution:     10.04761       6.86666       8.08364
Nuclear contribution   :    -11.60300      -8.57009      -7.99008
                        -----------------------------------------
Total Dipole Moment    :     -1.55539      -1.70343       0.09356
                        -----------------------------------------
Magnitude (a.u.)       :      2.30861
Magnitude (Debye)      :      5.86802

Rotational constants in cm-1:     0.011505     0.009064     0.006293
Rotational constants in MHz :   344.897802   271.733163   188.673876

                             ****ORCA TERMINATED NORMALLY****
TOTAL RUN TIME: 0 days 1 hours 55 minutes 48 seconds 849 msec
