                         Program Version 4.2.0 -  RELEASE  -
|  1> ! ri-mp2 cc-pvtz cc-pvtz/c TightSCF NoKeepInts
|  2>
|  3> %scf
|  4>   MaxCore 4096
|  5> end
|  6> *xyz  0  1
|  7>     C       14.1319170   16.0114757   15.6800808
|  8>     C       15.2506247   15.5955464   14.7066164
|  9>     O       16.2035726   16.6684738   14.6330049
| 10>     C       17.2221297   16.6566677   15.5364953
| 11>     O       17.9805256   15.7076917   15.6383250
| 12>     C       17.1776435   17.7774267   16.5320030
| 13>     C       16.8009888   19.0364289   16.1897920
| 14>     C       16.1785352   19.4927007   14.8852730
| 15>     N       17.0227091   20.1071461   17.0592451
| 16>     C       17.8012900   20.0418115   18.1836412
| 17>     S       18.1058060   21.3759800   19.1123579
| 18>     N       18.3335189   18.8140107   18.4879559
| 19>     C       18.0161523   17.5506969   17.7937081
| 20>     C       17.4319547   16.4847447   18.7105729
| 21>     C       18.0212911   15.2106781   18.7954200
| 22>     C       17.4741460   14.2249104   19.6337545
| 23>     C       16.3275185   14.5158433   20.3927468
| 24>     C       15.7361410   15.7837571   20.3068338
| 25>     O       14.6244036   16.0650005   21.0320877
| 26>     C       16.2830187   16.7628161   19.4713200
| 27>     H       14.5271446   16.1440695   16.6955070
| 28>     H       13.3527274   15.2405048   15.7187218
| 29>     H       13.6669384   16.9522797   15.3611015
| 30>     H       15.7226016   14.6571725   15.0304860
| 31>     H       14.8138312   15.4312735   13.7131468
| 32>     H       15.1664422   19.0847450   14.7742571
| 33>     H       16.7743731   19.1538205   14.0283043
| 34>     H       16.1031109   20.5843101   14.8094259
| 35>     H       16.6586412   21.0196946   16.8361967
| 36>     H       18.8878129   18.7891372   19.3345900
| 37>     H       19.0166556   17.2576961   17.4431179
| 38>     H       18.8978687   14.9799244   18.1943265
| 39>     H       17.9356958   13.2404657   19.6870876
| 40>     H       15.9006314   13.7566118   21.0395681
| 41>     H       14.4258018   15.2853560   21.5722144
| 42>     H       15.8128359   17.7391314   19.4187142
| 43> *
| 44>
| 45>                          ****END OF INPUT****

CARTESIAN COORDINATES (ANGSTROEM)
---------------------------------
  C     14.131917   16.011476   15.680081
  C     15.250625   15.595546   14.706616
  O     16.203573   16.668474   14.633005
  C     17.222130   16.656668   15.536495
  O     17.980526   15.707692   15.638325
  C     17.177643   17.777427   16.532003
  C     16.800989   19.036429   16.189792
  C     16.178535   19.492701   14.885273
  N     17.022709   20.107146   17.059245
  C     17.801290   20.041811   18.183641
  S     18.105806   21.375980   19.112358
  N     18.333519   18.814011   18.487956
  C     18.016152   17.550697   17.793708
  C     17.431955   16.484745   18.710573
  C     18.021291   15.210678   18.795420
  C     17.474146   14.224910   19.633754
  C     16.327519   14.515843   20.392747
  C     15.736141   15.783757   20.306834
  O     14.624404   16.065001   21.032088
  C     16.283019   16.762816   19.471320
  H     14.527145   16.144070   16.695507
  H     13.352727   15.240505   15.718722
  H     13.666938   16.952280   15.361101
  H     15.722602   14.657172   15.030486
  H     14.813831   15.431273   13.713147
  H     15.166442   19.084745   14.774257
  H     16.774373   19.153820   14.028304
  H     16.103111   20.584310   14.809426
  H     16.658641   21.019695   16.836197
  H     18.887813   18.789137   19.334590
  H     19.016656   17.257696   17.443118
  H     18.897869   14.979924   18.194326
  H     17.935696   13.240466   19.687088
  H     15.900631   13.756612   21.039568
  H     14.425802   15.285356   21.572214
  H     15.812836   17.739131   19.418714

 Total Charge           Charge          ....    0
 Multiplicity           Mult            ....    1
 Number of Electrons    NEL             ....  154
 Basis Dimension        Dim             ....  828

ORBITAL ENERGIES
----------------

  NO   OCC          E(Eh)            E(eV)
   0   2.0000     -91.889222     -2500.4329
   1   2.0000     -20.594937      -560.4167
   2   2.0000     -20.590334      -560.2915
   3   2.0000     -20.551049      -559.2225
   4   2.0000     -15.629755      -425.3073
   5   2.0000     -15.607055      -424.6896
   6   2.0000     -11.394195      -310.0518
   7   2.0000     -11.384052      -309.7758
   8   2.0000     -11.338303      -308.5309
   9   2.0000     -11.311245      -307.7946
  10   2.0000     -11.305587      -307.6407
  11   2.0000     -11.301648      -307.5335
  12   2.0000     -11.260217      -306.4061
  13   2.0000     -11.259509      -306.3868
  14   2.0000     -11.258143      -306.3496
  15   2.0000     -11.251196      -306.1606
  16   2.0000     -11.241256      -305.8901
  17   2.0000     -11.237389      -305.7849
  18   2.0000     -11.234082      -305.6949
  19   2.0000     -11.230683      -305.6024
  20   2.0000      -8.894298      -242.0262
  21   2.0000      -6.575873      -178.9386
  22   2.0000      -6.573872      -178.8841
  23   2.0000      -6.573282      -178.8681
  24   2.0000      -1.453192       -39.5434
  25   2.0000      -1.414710       -38.4962
  26   2.0000      -1.358243       -36.9597
  27   2.0000      -1.340845       -36.4863
  28   2.0000      -1.238119       -33.6909
  29   2.0000      -1.155595       -31.4453
  30   2.0000      -1.122382       -30.5416
  31   2.0000      -1.044343       -28.4180
  32   2.0000      -1.034773       -28.1576
  33   2.0000      -1.013070       -27.5670
  34   2.0000      -1.001023       -27.2392
  35   2.0000      -0.986304       -26.8387
  36   2.0000      -0.922772       -25.1099
  37   2.0000      -0.891895       -24.2697
  38   2.0000      -0.848536       -23.0898
  39   2.0000      -0.837579       -22.7917
  40   2.0000      -0.831339       -22.6219
  41   2.0000      -0.819441       -22.2981
  42   2.0000      -0.757687       -20.6177
  43   2.0000      -0.736806       -20.0495
  44   2.0000      -0.728338       -19.8191
  45   2.0000      -0.693262       -18.8646
  46   2.0000      -0.685893       -18.6641
  47   2.0000      -0.678689       -18.4681
  48   2.0000      -0.674196       -18.3458
  49   2.0000      -0.661137       -17.9905
  50   2.0000      -0.652864       -17.7653
  51   2.0000      -0.645173       -17.5561
  52   2.0000      -0.635306       -17.2876
  53   2.0000      -0.606956       -16.5161
  54   2.0000      -0.601551       -16.3690
  55   2.0000      -0.598398       -16.2832
  56   2.0000      -0.595911       -16.2156
  57   2.0000      -0.584582       -15.9073
  58   2.0000      -0.575364       -15.6565
  59   2.0000      -0.565689       -15.3932
  60   2.0000      -0.562258       -15.2998
  61   2.0000      -0.552839       -15.0435
  62   2.0000      -0.544879       -14.8269
  63   2.0000      -0.522559       -14.2195
  64   2.0000      -0.519167       -14.1272
  65   2.0000      -0.511779       -13.9262
  66   2.0000      -0.500921       -13.6307
  67   2.0000      -0.496138       -13.5006
  68   2.0000      -0.482417       -13.1272
  69   2.0000      -0.463716       -12.6184
  70   2.0000      -0.458058       -12.4644
  71   2.0000      -0.452146       -12.3035
  72   2.0000      -0.353965        -9.6319
  73   2.0000      -0.347538        -9.4570
  74   2.0000      -0.328300        -8.9335
  75   2.0000      -0.318582        -8.6691
  76   2.0000      -0.317873        -8.6498
  77   0.0000       0.073360         1.9962
  78   0.0000       0.106835         2.9071
  79   0.0000       0.120100         3.2681
  80   0.0000       0.133454         3.6315
  81   0.0000       0.139438         3.7943

MULLIKEN ATOMIC CHARGES
-----------------------
   0 C :   -0.300498
   1 C :    0.034961
   2 O :   -0.370108
   3 C :    0.463677
   4 O :   -0.401754
   5 C :   -0.213978
   6 C :    0.153598
   7 C :   -0.283276
   8 N :   -0.127598
   9 C :    0.207514
  10 S :   -0.440677
  11 N :   -0.210615
  12 C :    0.050548
  13 C :    0.039035
  14 C :   -0.176477
  15 C :   -0.132343
  16 C :   -0.278247
  17 C :    0.320982
  18 O :   -0.359297
  19 C :   -0.273282
  20 H :    0.111163
  21 H :    0.108098
  22 H :    0.091703
  23 H :    0.108244
  24 H :    0.105892
  25 H :    0.125411
  26 H :    0.127787
  27 H :    0.103372
  28 H :    0.198391
  29 H :    0.199383
  30 H :    0.156193
  31 H :    0.162599
  32 H :    0.161449
  33 H :    0.129933
  34 H :    0.240475
  35 H :    0.167743
Sum of atomic charges:   -0.0000000

LOEWDIN ATOMIC CHARGES
----------------------
   0 C :    0.103094
   1 C :   -0.019004
   2 O :    0.299274
   3 C :   -0.419343
   4 O :    0.118899
   5 C :   -0.095977
   6 C :   -0.066703
   7 C :    0.126430
   8 N :    0.405776
   9 C :   -0.457733
  10 S :   -0.036530
  11 N :    0.396067
  12 C :   -0.048600
  13 C :   -0.042122
  14 C :    0.024414
  15 C :    0.041929
  16 C :   -0.000937
  17 C :   -0.193535
  18 O :    0.393522
  19 C :    0.029110
  20 H :   -0.026616
  21 H :   -0.024737
  22 H :   -0.030669
  23 H :   -0.025163
  24 H :   -0.024855
  25 H :   -0.011717
  26 H :   -0.007472
  27 H :   -0.020443
  28 H :   -0.058372
  29 H :   -0.063500
  30 H :   -0.007233
  31 H :   -0.023122
  32 H :   -0.020342
  33 H :   -0.035684
  34 H :   -0.154247
  35 H :   -0.023861

  Mayer bond orders larger than 0.100000
B(  0-C ,  1-C ) :   0.9640 B(  0-C , 20-H ) :   0.9695 B(  0-C , 21-H ) :   0.9779
B(  0-C , 22-H ) :   0.9786 B(  1-C ,  2-O ) :   0.8946 B(  1-C , 23-H ) :   0.9752
B(  1-C , 24-H ) :   0.9852 B(  2-O ,  3-C ) :   1.0923 B(  3-C ,  4-O ) :   2.0274
B(  3-C ,  5-C ) :   1.0173 B(  5-C ,  6-C ) :   1.6692 B(  5-C , 12-C ) :   0.9505
B(  6-C ,  7-C ) :   0.9546 B(  6-C ,  8-N ) :   1.1400 B(  7-C , 25-H ) :   0.9646
B(  7-C , 26-H ) :   0.9660 B(  7-C , 27-H ) :   0.9892 B(  8-N ,  9-C ) :   1.1849
B(  8-N , 28-H ) :   0.9472 B(  9-C , 10-S ) :   1.6113 B(  9-C , 11-N ) :   1.3027
B( 11-N , 12-C ) :   0.9824 B( 11-N , 29-H ) :   0.9488 B( 12-C , 13-C ) :   0.9689
B( 12-C , 30-H ) :   0.9949 B( 13-C , 14-C ) :   1.3802 B( 13-C , 19-C ) :   1.3569
B( 14-C , 15-C ) :   1.3960 B( 14-C , 31-H ) :   0.9622 B( 15-C , 16-C ) :   1.3601
B( 15-C , 32-H ) :   0.9708 B( 16-C , 17-C ) :   1.3330 B( 16-C , 33-H ) :   0.9852
B( 17-C , 18-O ) :   1.1050 B( 17-C , 19-C ) :   1.3606 B( 18-O , 34-H ) :   0.9803
B( 19-C , 35-H ) :   0.9602

MP2 TOTAL ENERGY:    -1274.330682214 Eh
FINAL SINGLE POINT ENERGY     -1274.330682214444

DIPOLE MOMENT
-------------
                                X             Y             Z
Electronic contribution:      9.87689       8.07053       8.05062
Nuclear contribution   :    -11.19959      -9.40851      -8.87521
                        -----------------------------------------
Total Dipole Moment    :     -1.32270      -1.33798      -0.82458
                        -----------------------------------------
Magnitude (a.u.)       :      2.05418
Magnitude (Debye)      :      5.22132

Rotational constants in cm-1:     0.010852     0.009256     0.006264
Rotational constants in MHz :   325.322667   277.481164   187.791664

                             ****ORCA TERMINATED NORMALLY****
TOTAL RUN TIME: 0 days 1 hours 59 minutes 48 seconds 377 msec
