                         Program Version 4.2.0 -  RELEASE  -
|  1> ! ri-mp2 cc-pvtz cc-pvtz/c TightSCF NoKeepInts
|  2>
|  3> %scf
|  4>   MaxCore 4096
|  5> end
|  6> *xyz  0  1
|  7>     C       14.5335877   15.0250779   14.2459245
|  8>     C       15.6491563   14.7350970   15.2725214
|  9>     O       16.2648141   15.8881169   15.9077568
| 10>     C       16.0047656   17.2240603   15.7149223
| 11>     O       15.2497017   17.6627136   14.8663237
| 12>     C       16.7794875   18.0852651   16.6806311
| 13>     C       16.8952318   19.4250521   16.4843885
| 14>     C       16.1143441   20.2838258   15.5104417
| 15>     N       17.8167582   20.1832474   17.2105146
| 16>     C       18.7899676   19.6575990   18.0158183
| 17>     S       19.9111716   20.6099095   18.7720793
| 18>     N       18.8012234   18.2925596   18.1468631
| 19>     C       17.7851133   17.3721511   17.6028941
| 20>     C       17.1413428   16.5127032   18.6833911
| 21>     C       17.4391697   15.1408207   18.7800258
| 22>     C       16.8466688   14.3508672   19.7796778
| 23>     C       15.9524657   14.9386934   20.6909768
| 24>     C       15.6583006   16.3063118   20.5992539
| 25>     O       14.7972080   16.8766409   21.4792270
| 26>     C       16.2497653   17.0898655   19.6034440
| 27>     H       13.7092086   15.5847119   14.7056284
| 28>     H       14.1226311   14.0853549   13.8581095
| 29>     H       14.9197346   15.5959436   13.3921409
| 30>     H       15.2324842   14.0933879   16.0596858
| 31>     H       16.4344277   14.1539915   14.7723639
| 32>     H       16.3617209   20.0170390   14.4750734
| 33>     H       16.3063933   21.3563843   15.6314061
| 34>     H       15.0353178   20.1298760   15.6398923
| 35>     H       17.8326672   21.1850895   17.1059516
| 36>     H       19.5095760   17.9360919   18.7757269
| 37>     H       18.4131843   16.7585194   16.9417765
| 38>     H       18.1275006   14.6853153   18.0733163
| 39>     H       17.0808042   13.2898841   19.8464240
| 40>     H       15.4926396   14.3331024   21.4649723
| 41>     H       14.5124401   16.1867571   22.0970472
| 42>     H       16.0160259   18.1479730   19.5514093
| 43> *
| 44>
| 45>                          ****END OF INPUT****

CARTESIAN COORDINATES (ANGSTROEM)
---------------------------------
  C     14.533588   15.025078   14.245924
  C     15.649156   14.735097   15.272521
  O     16.264814   15.888117   15.907757
  C     16.004766   17.224060   15.714922
  O     15.249702   17.662714   14.866324
  C     16.779487   18.085265   16.680631
  C     16.895232   19.425052   16.484389
  C     16.114344   20.283826   15.510442
  N     17.816758   20.183247   17.210515
  C     18.789968   19.657599   18.015818
  S     19.911172   20.609910   18.772079
  N     18.801223   18.292560   18.146863
  C     17.785113   17.372151   17.602894
  C     17.141343   16.512703   18.683391
  C     17.439170   15.140821   18.780026
  C     16.846669   14.350867   19.779678
  C     15.952466   14.938693   20.690977
  C     15.658301   16.306312   20.599254
  O     14.797208   16.876641   21.479227
  C     16.249765   17.089865   19.603444
  H     13.709209   15.584712   14.705628
  H     14.122631   14.085355   13.858109
  H     14.919735   15.595944   13.392141
  H     15.232484   14.093388   16.059686
  H     16.434428   14.153992   14.772364
  H     16.361721   20.017039   14.475073
  H     16.306393   21.356384   15.631406
  H     15.035318   20.129876   15.639892
  H     17.832667   21.185089   17.105952
  H     19.509576   17.936092   18.775727
  H     18.413184   16.758519   16.941776
  H     18.127501   14.685315   18.073316
  H     17.080804   13.289884   19.846424
  H     15.492640   14.333102   21.464972
  H     14.512440   16.186757   22.097047
  H     16.016026   18.147973   19.551409

 Total Charge           Charge          ....    0
 Multiplicity           Mult            ....    1
 Number of Electrons    NEL             ....  154
 Basis Dimension        Dim             ....  828

ORBITAL ENERGIES
----------------

  NO   OCC          E(Eh)            E(eV)
   0   2.0000     -91.887551     -2500.3874
   1   2.0000     -20.598183      -560.5050
   2   2.0000     -20.595586      -560.4344
   3   2.0000     -20.539023      -558.8952
   4   2.0000     -15.627688      -425.2510
   5   2.0000     -15.605543      -424.6484
   6   2.0000     -11.398595      -310.1715
   7   2.0000     -11.382045      -309.7212
   8   2.0000     -11.335781      -308.4623
   9   2.0000     -11.312612      -307.8318
  10   2.0000     -11.305796      -307.6464
  11   2.0000     -11.303848      -307.5933
  12   2.0000     -11.259633      -306.3902
  13   2.0000     -11.258373      -306.3559
  14   2.0000     -11.254216      -306.2428
  15   2.0000     -11.250431      -306.1398
  16   2.0000     -11.242431      -305.9221
  17   2.0000     -11.237709      -305.7936
  18   2.0000     -11.237598      -305.7906
  19   2.0000     -11.222980      -305.3928
  20   2.0000      -8.892638      -241.9810
  21   2.0000      -6.574216      -178.8935
  22   2.0000      -6.572214      -178.8390
  23   2.0000      -6.571627      -178.8231
  24   2.0000      -1.441683       -39.2302
  25   2.0000      -1.415230       -38.5104
  26   2.0000      -1.353783       -36.8383
  27   2.0000      -1.339062       -36.4377
  28   2.0000      -1.236937       -33.6588
  29   2.0000      -1.156223       -31.4624
  30   2.0000      -1.119090       -30.4520
  31   2.0000      -1.041460       -28.3396
  32   2.0000      -1.036944       -28.2167
  33   2.0000      -1.013854       -27.5884
  34   2.0000      -0.994878       -27.0720
  35   2.0000      -0.982783       -26.7429
  36   2.0000      -0.920412       -25.0457
  37   2.0000      -0.898097       -24.4385
  38   2.0000      -0.845742       -23.0138
  39   2.0000      -0.837084       -22.7782
  40   2.0000      -0.833061       -22.6687
  41   2.0000      -0.817589       -22.2477
  42   2.0000      -0.744143       -20.2492
  43   2.0000      -0.730809       -19.8863
  44   2.0000      -0.716642       -19.5008
  45   2.0000      -0.694181       -18.8896
  46   2.0000      -0.686256       -18.6740
  47   2.0000      -0.674360       -18.3503
  48   2.0000      -0.670327       -18.2405
  49   2.0000      -0.662067       -18.0158
  50   2.0000      -0.647571       -17.6213
  51   2.0000      -0.642479       -17.4827
  52   2.0000      -0.633962       -17.2510
  53   2.0000      -0.605985       -16.4897
  54   2.0000      -0.600135       -16.3305
  55   2.0000      -0.598800       -16.2942
  56   2.0000      -0.597393       -16.2559
  57   2.0000      -0.580974       -15.8091
  58   2.0000      -0.575128       -15.6500
  59   2.0000      -0.568633       -15.4733
  60   2.0000      -0.560519       -15.2525
  61   2.0000      -0.539652       -14.6847
  62   2.0000      -0.535134       -14.5617
  63   2.0000      -0.524837       -14.2815
  64   2.0000      -0.522340       -14.2136
  65   2.0000      -0.511422       -13.9165
  66   2.0000      -0.501654       -13.6507
  67   2.0000      -0.496522       -13.5111
  68   2.0000      -0.482802       -13.1377
  69   2.0000      -0.461769       -12.5654
  70   2.0000      -0.450251       -12.2519
  71   2.0000      -0.439683       -11.9644
  72   2.0000      -0.351475        -9.5641
  73   2.0000      -0.348565        -9.4849
  74   2.0000      -0.326830        -8.8935
  75   2.0000      -0.320063        -8.7094
  76   2.0000      -0.316754        -8.6193
  77   0.0000       0.079442         2.1617
  78   0.0000       0.106556         2.8995
  79   0.0000       0.124535         3.3888
  80   0.0000       0.133844         3.6421
  81   0.0000       0.137176         3.7328

MULLIKEN ATOMIC CHARGES
-----------------------
   0 C :   -0.285965
   1 C :    0.050731
   2 O :   -0.357966
   3 C :    0.430519
   4 O :   -0.433496
   5 C :   -0.207772
   6 C :    0.173193
   7 C :   -0.268176
   8 N :   -0.126297
   9 C :    0.211127
  10 S :   -0.444479
  11 N :   -0.215413
  12 C :    0.057584
  13 C :    0.052363
  14 C :   -0.180627
  15 C :   -0.134681
  16 C :   -0.276777
  17 C :    0.317048
  18 O :   -0.357073
  19 C :   -0.249703
  20 H :    0.108966
  21 H :    0.096704
  22 H :    0.110843
  23 H :    0.093958
  24 H :    0.087482
  25 H :    0.128395
  26 H :    0.094208
  27 H :    0.132809
  28 H :    0.199496
  29 H :    0.200180
  30 H :    0.150423
  31 H :    0.150144
  32 H :    0.160137
  33 H :    0.129455
  34 H :    0.240395
  35 H :    0.162268
Sum of atomic charges:    0.0000000

LOEWDIN ATOMIC CHARGES
----------------------
   0 C :    0.102164
   1 C :   -0.008057
   2 O :    0.296505
   3 C :   -0.412267
   4 O :    0.106105
   5 C :   -0.093320
   6 C :   -0.057056
   7 C :    0.129868
   8 N :    0.406809
   9 C :   -0.457006
  10 S :   -0.038439
  11 N :    0.394606
  12 C :   -0.055159
  13 C :   -0.038358
  14 C :    0.016523
  15 C :    0.038708
  16 C :   -0.001112
  17 C :   -0.189492
  18 O :    0.394929
  19 C :    0.033274
  20 H :   -0.024798
  21 H :   -0.027868
  22 H :   -0.025440
  23 H :   -0.026668
  24 H :   -0.029103
  25 H :   -0.005660
  26 H :   -0.024019
  27 H :   -0.004743
  28 H :   -0.057421
  29 H :   -0.064599
  30 H :   -0.014685
  31 H :   -0.029812
  32 H :   -0.021615
  33 H :   -0.035683
  34 H :   -0.154163
  35 H :   -0.022948

  Mayer bond orders larger than 0.100000
B(  0-C ,  1-C ) :   0.9852 B(  0-C , 20-H ) :   0.9738 B(  0-C , 21-H ) :   0.9730
B(  0-C , 22-H ) :   0.9734 B(  1-C ,  2-O ) :   0.9011 B(  1-C , 23-H ) :   0.9752
B(  1-C , 24-H ) :   0.9783 B(  2-O ,  3-C ) :   1.1513 B(  3-C ,  4-O ) :   1.9690
B(  3-C ,  5-C ) :   1.0723 B(  5-C ,  6-C ) :   1.6437 B(  5-C , 12-C ) :   0.9588
B(  6-C ,  7-C ) :   0.9655 B(  6-C ,  8-N ) :   1.1499 B(  7-C , 25-H ) :   0.9589
B(  7-C , 26-H ) :   0.9910 B(  7-C , 27-H ) :   0.9615 B(  8-N ,  9-C ) :   1.1889
B(  8-N , 28-H ) :   0.9465 B(  9-C , 10-S ) :   1.6030 B(  9-C , 11-N ) :   1.3107
B( 11-N , 12-C ) :   0.9653 B( 11-N , 29-H ) :   0.9485 B( 12-C , 13-C ) :   0.9650
B( 12-C , 30-H ) :   1.0013 B( 13-C , 14-C ) :   1.3512 B( 13-C , 19-C ) :   1.3824
B( 14-C , 15-C ) :   1.3958 B( 14-C , 31-H ) :   0.9726 B( 15-C , 16-C ) :   1.3598
B( 15-C , 32-H ) :   0.9708 B( 16-C , 17-C ) :   1.3339 B( 16-C , 33-H ) :   0.9853
B( 17-C , 18-O ) :   1.1039 B( 17-C , 19-C ) :   1.3648 B( 18-O , 34-H ) :   0.9800
B( 19-C , 35-H ) :   0.9597

MP2 TOTAL ENERGY:    -1274.331521510 Eh
FINAL SINGLE POINT ENERGY     -1274.331521509634

DIPOLE MOMENT
-------------
                                X             Y             Z
Electronic contribution:      9.54122       9.80318      10.18148
Nuclear contribution   :    -10.58955     -11.60361     -10.58078
                        -----------------------------------------
Total Dipole Moment    :     -1.04832      -1.80043      -0.39930
                        -----------------------------------------
Magnitude (a.u.)       :      2.12131
Magnitude (Debye)      :      5.39194

Rotational constants in cm-1:     0.010616     0.008766     0.005770
Rotational constants in MHz :   318.259059   262.803179   172.981721

                             ****ORCA TERMINATED NORMALLY****
TOTAL RUN TIME: 0 days 1 hours 50 minutes 44 seconds 420 msec
