                         Program Version 4.2.0 -  RELEASE  -
|  1> ! ri-mp2 cc-pvtz cc-pvtz/c TightSCF NoKeepInts
|  2>
|  3> %scf
|  4>   MaxCore 4096
|  5> end
|  6> *xyz  0  1
|  7>     C       14.5007275   15.8714588   15.9692817
|  8>     C       15.7395861   14.9523770   15.8466010
|  9>     O       16.9732164   15.6597870   15.5646102
| 10>     C       16.9759989   16.9716907   15.1935818
| 11>     O       16.7997139   17.2812759   14.0291864
| 12>     C       17.0931070   17.9332119   16.3483688
| 13>     C       16.9838121   19.2697893   16.1318960
| 14>     C       16.4046254   19.9556964   14.9117076
| 15>     N       17.4112865   20.1944031   17.0870136
| 16>     C       18.1674620   19.8781850   18.1823903
| 17>     S       18.7435105   21.0349906   19.2144138
| 18>     N       18.4446064   18.5476997   18.3670660
| 19>     C       17.8679045   17.4376505   17.5849942
| 20>     C       17.1517352   16.4262056   18.4689273
| 21>     C       17.6853744   15.1383475   18.6612386
| 22>     C       17.0290943   14.2105651   19.4875660
| 23>     C       15.8350290   14.5768548   20.1322040
| 24>     C       15.3110014   15.8648238   19.9550470
| 25>     O       14.1601595   16.2225991   20.5777122
| 26>     C       15.9675318   16.7864222   19.1336293
| 27>     H       14.6220884   16.6148431   16.7641023
| 28>     H       13.6137201   15.2729810   16.2097870
| 29>     H       14.3005369   16.3935851   15.0247815
| 30>     H       15.8539292   14.3703420   16.7694804
| 31>     H       15.5556707   14.2371543   15.0343673
| 32>     H       17.1125629   19.9133116   14.0737991
| 33>     H       16.1580867   21.0090598   15.0896723
| 34>     H       15.4822197   19.4583863   14.5859772
| 35>     H       17.2430614   21.1773181   16.9428580
| 36>     H       18.9851004   18.3424994   19.1980647
| 37>     H       18.7927879   17.0006064   17.1821839
| 38>     H       18.6065672   14.8527434   18.1596094
| 39>     H       17.4461945   13.2144135   19.6267196
| 40>     H       15.3244086   13.8635553   20.7710738
| 41>     H       13.8904242   15.4824229   21.1423143
| 42>     H       15.5541584   17.7827437   19.0157735
| 43> *
| 44>
| 45>                          ****END OF INPUT****

CARTESIAN COORDINATES (ANGSTROEM)
---------------------------------
  C     14.500727   15.871459   15.969282
  C     15.739586   14.952377   15.846601
  O     16.973216   15.659787   15.564610
  C     16.975999   16.971691   15.193582
  O     16.799714   17.281276   14.029186
  C     17.093107   17.933212   16.348369
  C     16.983812   19.269789   16.131896
  C     16.404625   19.955696   14.911708
  N     17.411286   20.194403   17.087014
  C     18.167462   19.878185   18.182390
  S     18.743510   21.034991   19.214414
  N     18.444606   18.547700   18.367066
  C     17.867904   17.437650   17.584994
  C     17.151735   16.426206   18.468927
  C     17.685374   15.138347   18.661239
  C     17.029094   14.210565   19.487566
  C     15.835029   14.576855   20.132204
  C     15.311001   15.864824   19.955047
  O     14.160160   16.222599   20.577712
  C     15.967532   16.786422   19.133629
  H     14.622088   16.614843   16.764102
  H     13.613720   15.272981   16.209787
  H     14.300537   16.393585   15.024781
  H     15.853929   14.370342   16.769480
  H     15.555671   14.237154   15.034367
  H     17.112563   19.913312   14.073799
  H     16.158087   21.009060   15.089672
  H     15.482220   19.458386   14.585977
  H     17.243061   21.177318   16.942858
  H     18.985100   18.342499   19.198065
  H     18.792788   17.000606   17.182184
  H     18.606567   14.852743   18.159609
  H     17.446195   13.214413   19.626720
  H     15.324409   13.863555   20.771074
  H     13.890424   15.482423   21.142314
  H     15.554158   17.782744   19.015774

 Total Charge           Charge          ....    0
 Multiplicity           Mult            ....    1
 Number of Electrons    NEL             ....  154
 Basis Dimension        Dim             ....  828

ORBITAL ENERGIES
----------------

  NO   OCC          E(Eh)            E(eV)
   0   2.0000     -91.891088     -2500.4836
   1   2.0000     -20.602454      -560.6213
   2   2.0000     -20.578265      -559.9630
   3   2.0000     -20.547039      -559.1134
   4   2.0000     -15.630815      -425.3361
   5   2.0000     -15.609360      -424.7523
   6   2.0000     -11.392422      -310.0036
   7   2.0000     -11.385422      -309.8131
   8   2.0000     -11.338299      -308.5308
   9   2.0000     -11.320032      -308.0337
  10   2.0000     -11.311952      -307.8138
  11   2.0000     -11.299325      -307.4703
  12   2.0000     -11.266257      -306.5704
  13   2.0000     -11.260754      -306.4207
  14   2.0000     -11.258539      -306.3604
  15   2.0000     -11.253421      -306.2211
  16   2.0000     -11.249997      -306.1280
  17   2.0000     -11.245075      -305.9940
  18   2.0000     -11.244064      -305.9665
  19   2.0000     -11.228601      -305.5458
  20   2.0000      -8.896137      -242.0762
  21   2.0000      -6.577703      -178.9884
  22   2.0000      -6.575712      -178.9342
  23   2.0000      -6.575114      -178.9179
  24   2.0000      -1.442415       -39.2501
  25   2.0000      -1.422194       -38.6999
  26   2.0000      -1.350356       -36.7451
  27   2.0000      -1.342666       -36.5358
  28   2.0000      -1.240969       -33.7685
  29   2.0000      -1.163040       -31.6479
  30   2.0000      -1.122523       -30.5454
  31   2.0000      -1.047311       -28.4988
  32   2.0000      -1.031008       -28.0551
  33   2.0000      -1.021160       -27.7872
  34   2.0000      -1.001088       -27.2410
  35   2.0000      -0.987929       -26.8829
  36   2.0000      -0.925244       -25.1772
  37   2.0000      -0.897054       -24.4101
  38   2.0000      -0.849358       -23.1122
  39   2.0000      -0.843342       -22.9485
  40   2.0000      -0.840196       -22.8629
  41   2.0000      -0.820077       -22.3154
  42   2.0000      -0.745343       -20.2818
  43   2.0000      -0.737291       -20.0627
  44   2.0000      -0.720831       -19.6148
  45   2.0000      -0.700530       -19.0624
  46   2.0000      -0.690072       -18.7778
  47   2.0000      -0.675630       -18.3848
  48   2.0000      -0.671771       -18.2798
  49   2.0000      -0.659895       -17.9566
  50   2.0000      -0.653185       -17.7741
  51   2.0000      -0.643861       -17.5203
  52   2.0000      -0.638365       -17.3708
  53   2.0000      -0.625080       -17.0093
  54   2.0000      -0.612433       -16.6651
  55   2.0000      -0.604722       -16.4553
  56   2.0000      -0.602236       -16.3877
  57   2.0000      -0.581357       -15.8195
  58   2.0000      -0.572108       -15.5678
  59   2.0000      -0.566812       -15.4237
  60   2.0000      -0.547785       -14.9060
  61   2.0000      -0.544510       -14.8169
  62   2.0000      -0.538913       -14.6646
  63   2.0000      -0.532464       -14.4891
  64   2.0000      -0.528599       -14.3839
  65   2.0000      -0.515721       -14.0335
  66   2.0000      -0.503254       -13.6942
  67   2.0000      -0.492660       -13.4059
  68   2.0000      -0.483267       -13.1504
  69   2.0000      -0.466308       -12.6889
  70   2.0000      -0.454282       -12.3616
  71   2.0000      -0.443927       -12.0799
  72   2.0000      -0.356356        -9.6970
  73   2.0000      -0.352793        -9.6000
  74   2.0000      -0.330607        -8.9963
  75   2.0000      -0.327102        -8.9009
  76   2.0000      -0.320874        -8.7314
  77   0.0000       0.071500         1.9456
  78   0.0000       0.099077         2.6960
  79   0.0000       0.121117         3.2958
  80   0.0000       0.128110         3.4860
  81   0.0000       0.131270         3.5720

MULLIKEN ATOMIC CHARGES
-----------------------
   0 C :   -0.339497
   1 C :    0.033010
   2 O :   -0.388219
   3 C :    0.496192
   4 O :   -0.400547
   5 C :   -0.289172
   6 C :    0.173195
   7 C :   -0.268379
   8 N :   -0.126948
   9 C :    0.207906
  10 S :   -0.438277
  11 N :   -0.211812
  12 C :    0.062142
  13 C :    0.037942
  14 C :   -0.175268
  15 C :   -0.135283
  16 C :   -0.274297
  17 C :    0.323881
  18 O :   -0.357472
  19 C :   -0.285798
  20 H :    0.110158
  21 H :    0.113535
  22 H :    0.118310
  23 H :    0.113985
  24 H :    0.120456
  25 H :    0.136412
  26 H :    0.094281
  27 H :    0.126708
  28 H :    0.199518
  29 H :    0.200649
  30 H :    0.151701
  31 H :    0.154201
  32 H :    0.166017
  33 H :    0.134168
  34 H :    0.241701
  35 H :    0.174901
Sum of atomic charges:    0.0000000

LOEWDIN ATOMIC CHARGES
----------------------
   0 C :    0.104859
   1 C :   -0.009817
   2 O :    0.283847
   3 C :   -0.426817
   4 O :    0.119690
   5 C :   -0.102462
   6 C :   -0.057117
   7 C :    0.130586
   8 N :    0.407598
   9 C :   -0.457612
  10 S :   -0.033677
  11 N :    0.395098
  12 C :   -0.054023
  13 C :   -0.041007
  14 C :    0.020926
  15 C :    0.039907
  16 C :   -0.000880
  17 C :   -0.191296
  18 O :    0.396127
  19 C :    0.034997
  20 H :   -0.034670
  21 H :   -0.021454
  22 H :   -0.026517
  23 H :   -0.027920
  24 H :   -0.027403
  25 H :   -0.003903
  26 H :   -0.023206
  27 H :   -0.006190
  28 H :   -0.056683
  29 H :   -0.063717
  30 H :   -0.011372
  31 H :   -0.026577
  32 H :   -0.019865
  33 H :   -0.034194
  34 H :   -0.152678
  35 H :   -0.022578

  Mayer bond orders larger than 0.100000
B(  0-C ,  1-C ) :   0.9584 B(  0-C , 20-H ) :   0.9690 B(  0-C , 21-H ) :   0.9758
B(  0-C , 22-H ) :   0.9726 B(  1-C ,  2-O ) :   0.8908 B(  1-C , 23-H ) :   0.9719
B(  1-C , 24-H ) :   0.9870 B(  2-O ,  3-C ) :   1.1034 B(  3-C ,  4-O ) :   2.0443
B(  3-C ,  5-C ) :   1.0366 B(  5-C ,  6-C ) :   1.6366 B(  5-C , 12-C ) :   0.9599
B(  6-C ,  7-C ) :   0.9642 B(  6-C ,  8-N ) :   1.1509 B(  7-C , 25-H ) :   0.9551
B(  7-C , 26-H ) :   0.9881 B(  7-C , 27-H ) :   0.9669 B(  8-N ,  9-C ) :   1.1867
B(  8-N , 28-H ) :   0.9471 B(  9-C , 10-S ) :   1.6124 B(  9-C , 11-N ) :   1.3045
B( 11-N , 12-C ) :   0.9714 B( 11-N , 29-H ) :   0.9484 B( 12-C , 13-C ) :   0.9609
B( 12-C , 30-H ) :   1.0027 B( 13-C , 14-C ) :   1.3523 B( 13-C , 19-C ) :   1.3576
B( 14-C , 15-C ) :   1.3935 B( 14-C , 31-H ) :   0.9729 B( 15-C , 16-C ) :   1.3558
B( 15-C , 32-H ) :   0.9699 B( 16-C , 17-C ) :   1.3333 B( 16-C , 33-H ) :   0.9837
B( 17-C , 18-O ) :   1.1071 B( 17-C , 19-C ) :   1.3565 B( 18-O , 34-H ) :   0.9791
B( 19-C , 35-H ) :   0.9577

MP2 TOTAL ENERGY:    -1274.322046442 Eh
FINAL SINGLE POINT ENERGY     -1274.322046441737

DIPOLE MOMENT
-------------
                                X             Y             Z
Electronic contribution:      9.26468       8.06497       6.05718
Nuclear contribution   :    -10.43637      -9.66382      -5.85025
                        -----------------------------------------
Total Dipole Moment    :     -1.17169      -1.59885       0.20692
                        -----------------------------------------
Magnitude (a.u.)       :      1.99299
Magnitude (Debye)      :      5.06577

Rotational constants in cm-1:     0.012382     0.009015     0.006328
Rotational constants in MHz :   371.214864   270.260043   189.721127

                             ****ORCA TERMINATED NORMALLY****
TOTAL RUN TIME: 0 days 2 hours 8 minutes 36 seconds 745 msec
