                         Program Version 4.2.0 -  RELEASE  -
|  1> ! ri-mp2 cc-pvtz cc-pvtz/c TightSCF NoKeepInts
|  2>
|  3> %scf
|  4>   MaxCore 4096
|  5> end
|  6> *xyz  0  1
|  7>     C       15.0953718   14.6016388   14.0717596
|  8>     C       14.5465687   15.8791999   14.7427476
|  9>     O       15.5801336   16.8617198   14.9739734
| 10>     C       16.6409567   16.6322182   15.8069970
| 11>     O       17.1680947   15.5415712   15.9405925
| 12>     C       16.9812978   17.7940570   16.6973185
| 13>     C       16.8515253   19.0864495   16.2957197
| 14>     C       16.1662203   19.6105373   15.0488056
| 15>     N       17.4290511   20.1238133   17.0324619
| 16>     C       18.3325848   19.9454251   18.0449573
| 17>     S       19.0616911   21.2239782   18.7994537
| 18>     N       18.6186782   18.6476975   18.3848310
| 19>     C       17.9246469   17.4560371   17.8592188
| 20>     C       17.2714885   16.6124125   18.9461660
| 21>     C       17.5759146   15.2451124   19.0729426
| 22>     C       16.9734090   14.4687800   20.0770648
| 23>     C       16.0595663   15.0653540   20.9627114
| 24>     C       15.7527765   16.4273239   20.8371346
| 25>     O       14.8674337   17.0048024   21.6880294
| 26>     C       16.3536100   17.1972095   19.8360173
| 27>     H       15.7896684   14.8540870   13.2607265
| 28>     H       14.2734388   14.0133107   13.6466151
| 29>     H       15.6173655   13.9607192   14.7924223
| 30>     H       13.7863777   16.3216504   14.0863041
| 31>     H       14.0576326   15.6152146   15.6900007
| 32>     H       15.0869372   19.4180347   15.0894708
| 33>     H       16.5641049   19.1225049   14.1501305
| 34>     H       16.3003985   20.6903954   14.9110171
| 35>     H       17.2465059   21.0815977   16.7791236
| 36>     H       19.2727256   18.5430219   19.1502132
| 37>     H       18.7726272   16.9188412   17.4098293
| 38>     H       18.2711909   14.7801166   18.3778588
| 39>     H       17.2121450   13.4101285   20.1613370
| 40>     H       15.5910139   14.4691615   21.7385569
| 41>     H       14.5874880   16.3253909   22.3195501
| 42>     H       16.1063604   18.2504873   19.7559413
| 43> *
| 44>
| 45>                          ****END OF INPUT****

CARTESIAN COORDINATES (ANGSTROEM)
---------------------------------
  C     15.095372   14.601639   14.071760
  C     14.546569   15.879200   14.742748
  O     15.580134   16.861720   14.973973
  C     16.640957   16.632218   15.806997
  O     17.168095   15.541571   15.940592
  C     16.981298   17.794057   16.697319
  C     16.851525   19.086450   16.295720
  C     16.166220   19.610537   15.048806
  N     17.429051   20.123813   17.032462
  C     18.332585   19.945425   18.044957
  S     19.061691   21.223978   18.799454
  N     18.618678   18.647697   18.384831
  C     17.924647   17.456037   17.859219
  C     17.271489   16.612413   18.946166
  C     17.575915   15.245112   19.072943
  C     16.973409   14.468780   20.077065
  C     16.059566   15.065354   20.962711
  C     15.752776   16.427324   20.837135
  O     14.867434   17.004802   21.688029
  C     16.353610   17.197209   19.836017
  H     15.789668   14.854087   13.260727
  H     14.273439   14.013311   13.646615
  H     15.617365   13.960719   14.792422
  H     13.786378   16.321650   14.086304
  H     14.057633   15.615215   15.690001
  H     15.086937   19.418035   15.089471
  H     16.564105   19.122505   14.150130
  H     16.300399   20.690395   14.911017
  H     17.246506   21.081598   16.779124
  H     19.272726   18.543022   19.150213
  H     18.772627   16.918841   17.409829
  H     18.271191   14.780117   18.377859
  H     17.212145   13.410129   20.161337
  H     15.591014   14.469161   21.738557
  H     14.587488   16.325391   22.319550
  H     16.106360   18.250487   19.755941

 Total Charge           Charge          ....    0
 Multiplicity           Mult            ....    1
 Number of Electrons    NEL             ....  154
 Basis Dimension        Dim             ....  828

ORBITAL ENERGIES
----------------

  NO   OCC          E(Eh)            E(eV)
   0   2.0000     -91.887717     -2500.3919
   1   2.0000     -20.596550      -560.4606
   2   2.0000     -20.592297      -560.3449
   3   2.0000     -20.548364      -559.1494
   4   2.0000     -15.627974      -425.2588
   5   2.0000     -15.605449      -424.6459
   6   2.0000     -11.397291      -310.1360
   7   2.0000     -11.382269      -309.7273
   8   2.0000     -11.336969      -308.4946
   9   2.0000     -11.308365      -307.7163
  10   2.0000     -11.305198      -307.6301
  11   2.0000     -11.303996      -307.5974
  12   2.0000     -11.259550      -306.3879
  13   2.0000     -11.258496      -306.3593
  14   2.0000     -11.255530      -306.2785
  15   2.0000     -11.248503      -306.0873
  16   2.0000     -11.238613      -305.8182
  17   2.0000     -11.234625      -305.7097
  18   2.0000     -11.231467      -305.6238
  19   2.0000     -11.221754      -305.3594
  20   2.0000      -8.892805      -241.9855
  21   2.0000      -6.574384      -178.8981
  22   2.0000      -6.572380      -178.8436
  23   2.0000      -6.571793      -178.8276
  24   2.0000      -1.449473       -39.4422
  25   2.0000      -1.412042       -38.4236
  26   2.0000      -1.358594       -36.9692
  27   2.0000      -1.339392       -36.4467
  28   2.0000      -1.236632       -33.6505
  29   2.0000      -1.152733       -31.3674
  30   2.0000      -1.120304       -30.4850
  31   2.0000      -1.042307       -28.3626
  32   2.0000      -1.033070       -28.1113
  33   2.0000      -1.010310       -27.4919
  34   2.0000      -0.997991       -27.1567
  35   2.0000      -0.982888       -26.7457
  36   2.0000      -0.920791       -25.0560
  37   2.0000      -0.891808       -24.2673
  38   2.0000      -0.847800       -23.0698
  39   2.0000      -0.835778       -22.7427
  40   2.0000      -0.828620       -22.5479
  41   2.0000      -0.820754       -22.3339
  42   2.0000      -0.748389       -20.3647
  43   2.0000      -0.731078       -19.8936
  44   2.0000      -0.726251       -19.7623
  45   2.0000      -0.691006       -18.8032
  46   2.0000      -0.685145       -18.6437
  47   2.0000      -0.680168       -18.5083
  48   2.0000      -0.668502       -18.1909
  49   2.0000      -0.665930       -18.1209
  50   2.0000      -0.644569       -17.5396
  51   2.0000      -0.642336       -17.4789
  52   2.0000      -0.633148       -17.2288
  53   2.0000      -0.604725       -16.4554
  54   2.0000      -0.598647       -16.2900
  55   2.0000      -0.597083       -16.2475
  56   2.0000      -0.595332       -16.1998
  57   2.0000      -0.586566       -15.9613
  58   2.0000      -0.573019       -15.5926
  59   2.0000      -0.569336       -15.4924
  60   2.0000      -0.559750       -15.2316
  61   2.0000      -0.546965       -14.8837
  62   2.0000      -0.536847       -14.6084
  63   2.0000      -0.521664       -14.1952
  64   2.0000      -0.516229       -14.0473
  65   2.0000      -0.510418       -13.8892
  66   2.0000      -0.500087       -13.6081
  67   2.0000      -0.494066       -13.4442
  68   2.0000      -0.479322       -13.0430
  69   2.0000      -0.461720       -12.5640
  70   2.0000      -0.458521       -12.4770
  71   2.0000      -0.446774       -12.1573
  72   2.0000      -0.352500        -9.5920
  73   2.0000      -0.344907        -9.3854
  74   2.0000      -0.326838        -8.8937
  75   2.0000      -0.316922        -8.6239
  76   2.0000      -0.315088        -8.5740
  77   0.0000       0.076303         2.0763
  78   0.0000       0.110768         3.0142
  79   0.0000       0.121952         3.3185
  80   0.0000       0.135565         3.6889
  81   0.0000       0.139495         3.7959

MULLIKEN ATOMIC CHARGES
-----------------------
   0 C :   -0.285921
   1 C :    0.044606
   2 O :   -0.363258
   3 C :    0.423267
   4 O :   -0.414735
   5 C :   -0.150363
   6 C :    0.150136
   7 C :   -0.280195
   8 N :   -0.128272
   9 C :    0.207644
  10 S :   -0.443014
  11 N :   -0.211082
  12 C :    0.038550
  13 C :    0.033515
  14 C :   -0.171959
  15 C :   -0.134531
  16 C :   -0.277465
  17 C :    0.313721
  18 O :   -0.358802
  19 C :   -0.251203
  20 H :    0.095752
  21 H :    0.092104
  22 H :    0.121718
  23 H :    0.099302
  24 H :    0.088572
  25 H :    0.127547
  26 H :    0.125082
  27 H :    0.101431
  28 H :    0.198701
  29 H :    0.199766
  30 H :    0.156387
  31 H :    0.160261
  32 H :    0.160253
  33 H :    0.128444
  34 H :    0.239953
  35 H :    0.164088
Sum of atomic charges:   -0.0000000

LOEWDIN ATOMIC CHARGES
----------------------
   0 C :    0.103986
   1 C :   -0.013591
   2 O :    0.293263
   3 C :   -0.412759
   4 O :    0.118794
   5 C :   -0.092448
   6 C :   -0.065242
   7 C :    0.125187
   8 N :    0.405285
   9 C :   -0.458606
  10 S :   -0.038168
  11 N :    0.396277
  12 C :   -0.048278
  13 C :   -0.040679
  14 C :    0.023937
  15 C :    0.040650
  16 C :   -0.001368
  17 C :   -0.192588
  18 O :    0.393171
  19 C :    0.029591
  20 H :   -0.026052
  21 H :   -0.030148
  22 H :   -0.026536
  23 H :   -0.024278
  24 H :   -0.029417
  25 H :   -0.009584
  26 H :   -0.009148
  27 H :   -0.021173
  28 H :   -0.058768
  29 H :   -0.063303
  30 H :   -0.008299
  31 H :   -0.023999
  32 H :   -0.021044
  33 H :   -0.036147
  34 H :   -0.154816
  35 H :   -0.023703

  Mayer bond orders larger than 0.100000
B(  0-C ,  1-C ) :   0.9734 B(  0-C , 20-H ) :   0.9754 B(  0-C , 21-H ) :   0.9759
B(  0-C , 22-H ) :   0.9712 B(  1-C ,  2-O ) :   0.9100 B(  1-C , 23-H ) :   0.9841
B(  1-C , 24-H ) :   0.9781 B(  2-O ,  3-C ) :   1.0880 B(  3-C ,  4-O ) :   1.9934
B(  3-C ,  5-C ) :   1.0453 B(  5-C ,  6-C ) :   1.6599 B(  5-C , 12-C ) :   0.9458
B(  6-C ,  7-C ) :   0.9552 B(  6-C ,  8-N ) :   1.1334 B(  7-C , 25-H ) :   0.9634
B(  7-C , 26-H ) :   0.9657 B(  7-C , 27-H ) :   0.9909 B(  8-N ,  9-C ) :   1.1863
B(  8-N , 28-H ) :   0.9471 B(  9-C , 10-S ) :   1.6078 B(  9-C , 11-N ) :   1.3055
B( 11-N , 12-C ) :   0.9759 B( 11-N , 29-H ) :   0.9485 B( 12-C , 13-C ) :   0.9719
B( 12-C , 30-H ) :   0.9967 B( 13-C , 14-C ) :   1.3771 B( 13-C , 19-C ) :   1.3653
B( 14-C , 15-C ) :   1.3971 B( 14-C , 31-H ) :   0.9634 B( 15-C , 16-C ) :   1.3590
B( 15-C , 32-H ) :   0.9711 B( 16-C , 17-C ) :   1.3331 B( 16-C , 33-H ) :   0.9859
B( 17-C , 18-O ) :   1.1038 B( 17-C , 19-C ) :   1.3672 B( 18-O , 34-H ) :   0.9806
B( 19-C , 35-H ) :   0.9600

MP2 TOTAL ENERGY:    -1274.330476776 Eh
FINAL SINGLE POINT ENERGY     -1274.330476776186

DIPOLE MOMENT
-------------
                                X             Y             Z
Electronic contribution:      9.13350      10.52795      11.37747
Nuclear contribution   :    -10.74024     -11.73551     -12.29426
                        -----------------------------------------
Total Dipole Moment    :     -1.60674      -1.20756      -0.91679
                        -----------------------------------------
Magnitude (a.u.)       :      2.20915
Magnitude (Debye)      :      5.61520

Rotational constants in cm-1:     0.009984     0.009106     0.005588
Rotational constants in MHz :   299.317593   272.998887   167.525381

                             ****ORCA TERMINATED NORMALLY****
TOTAL RUN TIME: 0 days 1 hours 58 minutes 19 seconds 274 msec
