                         Program Version 4.2.0 -  RELEASE  -
|  1> ! ri-mp2 cc-pvtz cc-pvtz/c TightSCF NoKeepInts
|  2>
|  3> %scf
|  4>   MaxCore 4096
|  5> end
|  6> *xyz  0  1
|  7>     C       14.4499457   14.8301847   15.0076829
|  8>     C       15.0729165   15.8808969   14.0607014
|  9>     O       15.7342796   16.9337095   14.7958121
| 10>     C       16.6917602   16.6798407   15.7381953
| 11>     O       17.2521039   15.6002521   15.8308657
| 12>     C       16.9966779   17.8262952   16.6633190
| 13>     C       16.8159328   19.1302595   16.3207294
| 14>     C       16.0871491   19.6905071   15.1147716
| 15>     N       17.3618901   20.1540758   17.0996222
| 16>     C       18.2727424   19.9647594   18.1032571
| 17>     S       18.9583505   21.2349399   18.9108724
| 18>     N       18.6031448   18.6647965   18.3887791
| 19>     C       17.9537230   17.4729480   17.8098811
| 20>     C       17.3321764   16.5618218   18.8604693
| 21>     C       17.6962570   15.2055622   18.9401003
| 22>     C       17.1222811   14.3671598   19.9104612
| 23>     C       16.1772606   14.8900547   20.8098337
| 24>     C       15.8113640   16.2409188   20.7314616
| 25>     O       14.8961317   16.7473386   21.5959089
| 26>     C       16.3840661   17.0727274   19.7639873
| 27>     H       15.2136157   14.1991025   15.4777026
| 28>     H       13.7787395   14.1680796   14.4476489
| 29>     H       13.8650669   15.3166188   15.7981414
| 30>     H       15.7905394   15.3846425   13.3936939
| 31>     H       14.2835811   16.3214470   13.4383213
| 32>     H       16.5332324   19.3202854   14.1832615
| 33>     H       16.1147439   20.7860666   15.0703094
| 34>     H       15.0308782   19.3939188   15.1279432
| 35>     H       17.1454785   21.1149002   16.8881565
| 36>     H       19.2598141   18.5505974   19.1505195
| 37>     H       18.8202674   16.9867417   17.3384917
| 38>     H       18.4153844   14.7972804   18.2338711
| 39>     H       17.4066932   13.3175724   19.9578562
| 40>     H       15.7303651   14.2457437   21.5595169
| 41>     H       14.6376227   16.0316914   22.1956935
| 42>     H       16.0908244   18.1162633   19.7201606
| 43> *
| 44>
| 45>                          ****END OF INPUT****

CARTESIAN COORDINATES (ANGSTROEM)
---------------------------------
  C     14.449946   14.830185   15.007683
  C     15.072916   15.880897   14.060701
  O     15.734280   16.933709   14.795812
  C     16.691760   16.679841   15.738195
  O     17.252104   15.600252   15.830866
  C     16.996678   17.826295   16.663319
  C     16.815933   19.130260   16.320729
  C     16.087149   19.690507   15.114772
  N     17.361890   20.154076   17.099622
  C     18.272742   19.964759   18.103257
  S     18.958351   21.234940   18.910872
  N     18.603145   18.664797   18.388779
  C     17.953723   17.472948   17.809881
  C     17.332176   16.561822   18.860469
  C     17.696257   15.205562   18.940100
  C     17.122281   14.367160   19.910461
  C     16.177261   14.890055   20.809834
  C     15.811364   16.240919   20.731462
  O     14.896132   16.747339   21.595909
  C     16.384066   17.072727   19.763987
  H     15.213616   14.199102   15.477703
  H     13.778739   14.168080   14.447649
  H     13.865067   15.316619   15.798141
  H     15.790539   15.384642   13.393694
  H     14.283581   16.321447   13.438321
  H     16.533232   19.320285   14.183261
  H     16.114744   20.786067   15.070309
  H     15.030878   19.393919   15.127943
  H     17.145478   21.114900   16.888157
  H     19.259814   18.550597   19.150520
  H     18.820267   16.986742   17.338492
  H     18.415384   14.797280   18.233871
  H     17.406693   13.317572   19.957856
  H     15.730365   14.245744   21.559517
  H     14.637623   16.031691   22.195694
  H     16.090824   18.116263   19.720161

 Total Charge           Charge          ....    0
 Multiplicity           Mult            ....    1
 Number of Electrons    NEL             ....  154
 Basis Dimension        Dim             ....  828

ORBITAL ENERGIES
----------------

  NO   OCC          E(Eh)            E(eV)
   0   2.0000     -91.887552     -2500.3874
   1   2.0000     -20.601972      -560.6082
   2   2.0000     -20.591486      -560.3228
   3   2.0000     -20.544752      -559.0511
   4   2.0000     -15.627991      -425.2593
   5   2.0000     -15.605290      -424.6415
   6   2.0000     -11.397088      -310.1305
   7   2.0000     -11.382028      -309.7207
   8   2.0000     -11.337762      -308.5162
   9   2.0000     -11.307476      -307.6921
  10   2.0000     -11.303769      -307.5912
  11   2.0000     -11.303761      -307.5910
  12   2.0000     -11.261092      -306.4299
  13   2.0000     -11.258234      -306.3521
  14   2.0000     -11.254678      -306.2554
  15   2.0000     -11.247586      -306.0624
  16   2.0000     -11.237767      -305.7952
  17   2.0000     -11.233872      -305.6892
  18   2.0000     -11.230635      -305.6011
  19   2.0000     -11.225313      -305.4563
  20   2.0000      -8.892640      -241.9810
  21   2.0000      -6.574219      -178.8936
  22   2.0000      -6.572214      -178.8390
  23   2.0000      -6.571628      -178.8231
  24   2.0000      -1.451227       -39.4899
  25   2.0000      -1.411235       -38.4017
  26   2.0000      -1.356609       -36.9152
  27   2.0000      -1.339429       -36.4477
  28   2.0000      -1.236642       -33.6507
  29   2.0000      -1.152033       -31.3484
  30   2.0000      -1.120009       -30.4770
  31   2.0000      -1.041951       -28.3529
  32   2.0000      -1.033413       -28.1206
  33   2.0000      -1.009560       -27.4715
  34   2.0000      -0.998047       -27.1582
  35   2.0000      -0.982868       -26.7452
  36   2.0000      -0.920659       -25.0524
  37   2.0000      -0.896146       -24.3854
  38   2.0000      -0.847471       -23.0609
  39   2.0000      -0.834784       -22.7156
  40   2.0000      -0.827774       -22.5249
  41   2.0000      -0.816209       -22.2102
  42   2.0000      -0.748449       -20.3663
  43   2.0000      -0.734318       -19.9818
  44   2.0000      -0.725651       -19.7460
  45   2.0000      -0.690003       -18.7759
  46   2.0000      -0.685373       -18.6500
  47   2.0000      -0.678665       -18.4674
  48   2.0000      -0.669409       -18.2155
  49   2.0000      -0.656449       -17.8629
  50   2.0000      -0.651518       -17.7287
  51   2.0000      -0.643587       -17.5129
  52   2.0000      -0.630416       -17.1545
  53   2.0000      -0.614766       -16.7286
  54   2.0000      -0.602544       -16.3961
  55   2.0000      -0.597918       -16.2702
  56   2.0000      -0.594791       -16.1851
  57   2.0000      -0.578637       -15.7455
  58   2.0000      -0.573318       -15.6008
  59   2.0000      -0.564761       -15.3679
  60   2.0000      -0.557663       -15.1748
  61   2.0000      -0.545101       -14.8330
  62   2.0000      -0.537862       -14.6360
  63   2.0000      -0.525774       -14.3070
  64   2.0000      -0.514950       -14.0125
  65   2.0000      -0.509029       -13.8514
  66   2.0000      -0.499945       -13.6042
  67   2.0000      -0.493713       -13.4346
  68   2.0000      -0.480128       -13.0649
  69   2.0000      -0.464074       -12.6281
  70   2.0000      -0.457758       -12.4562
  71   2.0000      -0.449403       -12.2289
  72   2.0000      -0.352588        -9.5944
  73   2.0000      -0.344281        -9.3684
  74   2.0000      -0.326664        -8.8890
  75   2.0000      -0.316696        -8.6177
  76   2.0000      -0.314074        -8.5464
  77   0.0000       0.077747         2.1156
  78   0.0000       0.111853         3.0437
  79   0.0000       0.122034         3.3207
  80   0.0000       0.136192         3.7060
  81   0.0000       0.141622         3.8537

MULLIKEN ATOMIC CHARGES
-----------------------
   0 C :   -0.310157
   1 C :    0.042805
   2 O :   -0.352361
   3 C :    0.434349
   4 O :   -0.429547
   5 C :   -0.173936
   6 C :    0.159209
   7 C :   -0.279013
   8 N :   -0.128320
   9 C :    0.207776
  10 S :   -0.443196
  11 N :   -0.210884
  12 C :    0.042579
  13 C :    0.032920
  14 C :   -0.169268
  15 C :   -0.134277
  16 C :   -0.276971
  17 C :    0.314529
  18 O :   -0.359059
  19 C :   -0.252266
  20 H :    0.129771
  21 H :    0.096493
  22 H :    0.096539
  23 H :    0.097286
  24 H :    0.105783
  25 H :    0.125151
  26 H :    0.101032
  27 H :    0.128495
  28 H :    0.198732
  29 H :    0.199887
  30 H :    0.155528
  31 H :    0.159216
  32 H :    0.159829
  33 H :    0.128111
  34 H :    0.239872
  35 H :    0.163364
Sum of atomic charges:   -0.0000000

LOEWDIN ATOMIC CHARGES
----------------------
   0 C :    0.105882
   1 C :   -0.013574
   2 O :    0.299515
   3 C :   -0.413515
   4 O :    0.106103
   5 C :   -0.090920
   6 C :   -0.063732
   7 C :    0.124786
   8 N :    0.405378
   9 C :   -0.458805
  10 S :   -0.038249
  11 N :    0.396625
  12 C :   -0.048274
  13 C :   -0.040457
  14 C :    0.024665
  15 C :    0.040565
  16 C :   -0.001168
  17 C :   -0.192495
  18 O :    0.393075
  19 C :    0.029767
  20 H :   -0.024670
  21 H :   -0.027006
  22 H :   -0.028187
  23 H :   -0.029110
  24 H :   -0.024922
  25 H :   -0.009400
  26 H :   -0.021579
  27 H :   -0.009500
  28 H :   -0.058869
  29 H :   -0.063096
  30 H :   -0.008578
  31 H :   -0.024114
  32 H :   -0.021180
  33 H :   -0.036211
  34 H :   -0.154926
  35 H :   -0.023827

  Mayer bond orders larger than 0.100000
B(  0-C ,  1-C ) :   0.9619 B(  0-C , 20-H ) :   0.9716 B(  0-C , 21-H ) :   0.9765
B(  0-C , 22-H ) :   0.9752 B(  1-C ,  2-O ) :   0.9020 B(  1-C , 23-H ) :   0.9810
B(  1-C , 24-H ) :   0.9837 B(  2-O ,  3-C ) :   1.1429 B(  3-C ,  4-O ) :   1.9715
B(  3-C ,  5-C ) :   1.0464 B(  5-C ,  6-C ) :   1.6524 B(  5-C , 12-C ) :   0.9519
B(  6-C ,  7-C ) :   0.9550 B(  6-C ,  8-N ) :   1.1378 B(  7-C , 25-H ) :   0.9649
B(  7-C , 26-H ) :   0.9912 B(  7-C , 27-H ) :   0.9636 B(  8-N ,  9-C ) :   1.1853
B(  8-N , 28-H ) :   0.9470 B(  9-C , 10-S ) :   1.6073 B(  9-C , 11-N ) :   1.3067
B( 11-N , 12-C ) :   0.9770 B( 11-N , 29-H ) :   0.9485 B( 12-C , 13-C ) :   0.9725
B( 12-C , 30-H ) :   0.9976 B( 13-C , 14-C ) :   1.3757 B( 13-C , 19-C ) :   1.3665
B( 14-C , 15-C ) :   1.3969 B( 14-C , 31-H ) :   0.9636 B( 15-C , 16-C ) :   1.3587
B( 15-C , 32-H ) :   0.9712 B( 16-C , 17-C ) :   1.3335 B( 16-C , 33-H ) :   0.9860
B( 17-C , 18-O ) :   1.1033 B( 17-C , 19-C ) :   1.3671 B( 18-O , 34-H ) :   0.9807
B( 19-C , 35-H ) :   0.9601

MP2 TOTAL ENERGY:    -1274.339054179 Eh
FINAL SINGLE POINT ENERGY     -1274.339054179047

DIPOLE MOMENT
-------------
                                X             Y             Z
Electronic contribution:      9.81890      10.07587      10.19836
Nuclear contribution   :    -11.30387     -11.31203     -11.35095
                        -----------------------------------------
Total Dipole Moment    :     -1.48497      -1.23616      -1.15259
                        -----------------------------------------
Magnitude (a.u.)       :      2.24982
Magnitude (Debye)      :      5.71858

Rotational constants in cm-1:     0.010044     0.009261     0.005657
Rotational constants in MHz :   301.117562   277.635820   169.597937

                             ****ORCA TERMINATED NORMALLY****
TOTAL RUN TIME: 0 days 1 hours 43 minutes 22 seconds 294 msec
