                         Program Version 4.2.0 -  RELEASE  -
|  1> ! ri-mp2 cc-pvtz cc-pvtz/c TightSCF NoKeepInts
|  2>
|  3> %scf
|  4>   MaxCore 4096
|  5> end
|  6> *xyz  0  1
|  7>     C       14.6442144   14.7887597   15.4041110
|  8>     C       14.7116446   16.3048255   15.1328876
|  9>     O       16.0300964   16.6596525   14.6761780
| 10>     C       17.0540138   16.5791414   15.5710295
| 11>     O       17.7488767   15.5824744   15.6592858
| 12>     C       17.1807781   17.7524791   16.4964068
| 13>     C       16.9627012   19.0284337   16.0863384
| 14>     C       16.3785021   19.4875428   14.7651293
| 15>     N       17.3436696   20.1080474   16.8868634
| 16>     C       18.1370517   20.0044413   17.9981096
| 17>     S       18.6344807   21.3373580   18.8411086
| 18>     N       18.5140095   18.7365606   18.3641398
| 19>     C       18.0171616   17.4887438   17.7517650
| 20>     C       17.3245273   16.5570993   18.7370675
| 21>     C       17.7074123   15.2074400   18.8354275
| 22>     C       17.0577779   14.3438600   19.7331239
| 23>     C       16.0159805   14.8342721   20.5389982
| 24>     C       15.6299090   16.1780650   20.4401908
| 25>     O       14.6189470   16.6525077   21.2107882
| 26>     C       16.2775469   17.0349712   19.5444793
| 27>     H       15.2708690   14.5115956   16.2617216
| 28>     H       14.9885494   14.2232333   14.5289901
| 29>     H       13.6147599   14.4834328   15.6267561
| 30>     H       13.9816185   16.5597752   14.3538463
| 31>     H       14.4497158   16.8629675   16.0420115
| 32>     H       16.8845818   18.9989258   13.9225250
| 33>     H       16.4812871   20.5686987   14.6103538
| 34>     H       15.3105829   19.2468119   14.7040049
| 35>     H       17.0978624   21.0469642   16.6161596
| 36>     H       19.0860433   18.6867489   19.1978938
| 37>     H       18.9615572   17.0482603   17.3992147
| 38>     H       18.5022930   14.8234987   18.1996554
| 39>     H       17.3597347   13.2998484   19.7965830
| 40>     H       15.5106857   14.1700998   21.2323157
| 41>     H       14.3323028   15.9303179   21.7899800
| 42>     H       15.9652552   18.0721454   19.4825606
| 43> *
| 44>
| 45>                          ****END OF INPUT****

CARTESIAN COORDINATES (ANGSTROEM)
---------------------------------
  C     14.644214   14.788760   15.404111
  C     14.711645   16.304825   15.132888
  O     16.030096   16.659652   14.676178
  C     17.054014   16.579141   15.571029
  O     17.748877   15.582474   15.659286
  C     17.180778   17.752479   16.496407
  C     16.962701   19.028434   16.086338
  C     16.378502   19.487543   14.765129
  N     17.343670   20.108047   16.886863
  C     18.137052   20.004441   17.998110
  S     18.634481   21.337358   18.841109
  N     18.514009   18.736561   18.364140
  C     18.017162   17.488744   17.751765
  C     17.324527   16.557099   18.737067
  C     17.707412   15.207440   18.835427
  C     17.057778   14.343860   19.733124
  C     16.015981   14.834272   20.538998
  C     15.629909   16.178065   20.440191
  O     14.618947   16.652508   21.210788
  C     16.277547   17.034971   19.544479
  H     15.270869   14.511596   16.261722
  H     14.988549   14.223233   14.528990
  H     13.614760   14.483433   15.626756
  H     13.981618   16.559775   14.353846
  H     14.449716   16.862967   16.042012
  H     16.884582   18.998926   13.922525
  H     16.481287   20.568699   14.610354
  H     15.310583   19.246812   14.704005
  H     17.097862   21.046964   16.616160
  H     19.086043   18.686749   19.197894
  H     18.961557   17.048260   17.399215
  H     18.502293   14.823499   18.199655
  H     17.359735   13.299848   19.796583
  H     15.510686   14.170100   21.232316
  H     14.332303   15.930318   21.789980
  H     15.965255   18.072145   19.482561

 Total Charge           Charge          ....    0
 Multiplicity           Mult            ....    1
 Number of Electrons    NEL             ....  154
 Basis Dimension        Dim             ....  828

ORBITAL ENERGIES
----------------

  NO   OCC          E(Eh)            E(eV)
   0   2.0000     -91.890142     -2500.4579
   1   2.0000     -20.595917      -560.4434
   2   2.0000     -20.588571      -560.2435
   3   2.0000     -20.553205      -559.2811
   4   2.0000     -15.630880      -425.3379
   5   2.0000     -15.607948      -424.7138
   6   2.0000     -11.394539      -310.0612
   7   2.0000     -11.385055      -309.8031
   8   2.0000     -11.339967      -308.5762
   9   2.0000     -11.312370      -307.8252
  10   2.0000     -11.306855      -307.6752
  11   2.0000     -11.306034      -307.6528
  12   2.0000     -11.262586      -306.4705
  13   2.0000     -11.260587      -306.4162
  14   2.0000     -11.259464      -306.3856
  15   2.0000     -11.252309      -306.1909
  16   2.0000     -11.242262      -305.9175
  17   2.0000     -11.238554      -305.8166
  18   2.0000     -11.234922      -305.7178
  19   2.0000     -11.225379      -305.4581
  20   2.0000      -8.895218      -242.0512
  21   2.0000      -6.576791      -178.9636
  22   2.0000      -6.574790      -178.9091
  23   2.0000      -6.574199      -178.8930
  24   2.0000      -1.451262       -39.4908
  25   2.0000      -1.415671       -38.5224
  26   2.0000      -1.360173       -37.0122
  27   2.0000      -1.341900       -36.5150
  28   2.0000      -1.239070       -33.7168
  29   2.0000      -1.156726       -31.4761
  30   2.0000      -1.123185       -30.5634
  31   2.0000      -1.044871       -28.4324
  32   2.0000      -1.033067       -28.1112
  33   2.0000      -1.014357       -27.6021
  34   2.0000      -1.002241       -27.2724
  35   2.0000      -0.986935       -26.8559
  36   2.0000      -0.923904       -25.1407
  37   2.0000      -0.888587       -24.1797
  38   2.0000      -0.852152       -23.1882
  39   2.0000      -0.839969       -22.8567
  40   2.0000      -0.832497       -22.6534
  41   2.0000      -0.829564       -22.5736
  42   2.0000      -0.748328       -20.3631
  43   2.0000      -0.733207       -19.9516
  44   2.0000      -0.729686       -19.8558
  45   2.0000      -0.693929       -18.8828
  46   2.0000      -0.685856       -18.6631
  47   2.0000      -0.680682       -18.5223
  48   2.0000      -0.677279       -18.4297
  49   2.0000      -0.666450       -18.1350
  50   2.0000      -0.650909       -17.7121
  51   2.0000      -0.645311       -17.5598
  52   2.0000      -0.636443       -17.3185
  53   2.0000      -0.610267       -16.6062
  54   2.0000      -0.605536       -16.4775
  55   2.0000      -0.602088       -16.3836
  56   2.0000      -0.599312       -16.3081
  57   2.0000      -0.578135       -15.7318
  58   2.0000      -0.574673       -15.6376
  59   2.0000      -0.570096       -15.5131
  60   2.0000      -0.558275       -15.1914
  61   2.0000      -0.553847       -15.0709
  62   2.0000      -0.540612       -14.7108
  63   2.0000      -0.525966       -14.3123
  64   2.0000      -0.518969       -14.1219
  65   2.0000      -0.512179       -13.9371
  66   2.0000      -0.498888       -13.5754
  67   2.0000      -0.493484       -13.4284
  68   2.0000      -0.483897       -13.1675
  69   2.0000      -0.466483       -12.6937
  70   2.0000      -0.460929       -12.5425
  71   2.0000      -0.449762       -12.2386
  72   2.0000      -0.355590        -9.6761
  73   2.0000      -0.348666        -9.4877
  74   2.0000      -0.329221        -8.9586
  75   2.0000      -0.319731        -8.7003
  76   2.0000      -0.318983        -8.6800
  77   0.0000       0.072469         1.9720
  78   0.0000       0.105553         2.8722
  79   0.0000       0.119575         3.2538
  80   0.0000       0.132559         3.6071
  81   0.0000       0.138082         3.7574

MULLIKEN ATOMIC CHARGES
-----------------------
   0 C :   -0.267744
   1 C :    0.013458
   2 O :   -0.369449
   3 C :    0.464482
   4 O :   -0.385777
   5 C :   -0.244779
   6 C :    0.172965
   7 C :   -0.289518
   8 N :   -0.128204
   9 C :    0.206210
  10 S :   -0.439592
  11 N :   -0.213831
  12 C :    0.053034
  13 C :    0.030738
  14 C :   -0.190180
  15 C :   -0.132125
  16 C :   -0.277754
  17 C :    0.314516
  18 O :   -0.358183
  19 C :   -0.256691
  20 H :    0.107882
  21 H :    0.105401
  22 H :    0.092665
  23 H :    0.110877
  24 H :    0.093540
  25 H :    0.134903
  26 H :    0.107515
  27 H :    0.120699
  28 H :    0.198535
  29 H :    0.199922
  30 H :    0.158344
  31 H :    0.167138
  32 H :    0.162899
  33 H :    0.130320
  34 H :    0.240750
  35 H :    0.167032
Sum of atomic charges:   -0.0000000

LOEWDIN ATOMIC CHARGES
----------------------
   0 C :    0.109383
   1 C :   -0.026819
   2 O :    0.295169
   3 C :   -0.420924
   4 O :    0.128675
   5 C :   -0.097805
   6 C :   -0.067642
   7 C :    0.127084
   8 N :    0.405557
   9 C :   -0.457954
  10 S :   -0.035693
  11 N :    0.396122
  12 C :   -0.049292
  13 C :   -0.042621
  14 C :    0.023528
  15 C :    0.041557
  16 C :   -0.000819
  17 C :   -0.192898
  18 O :    0.393477
  19 C :    0.027783
  20 H :   -0.025065
  21 H :   -0.021857
  22 H :   -0.027822
  23 H :   -0.023625
  24 H :   -0.036122
  25 H :   -0.005902
  26 H :   -0.019365
  27 H :   -0.011599
  28 H :   -0.058200
  29 H :   -0.063391
  30 H :   -0.006919
  31 H :   -0.022758
  32 H :   -0.019957
  33 H :   -0.035470
  34 H :   -0.153991
  35 H :   -0.023823

  Mayer bond orders larger than 0.100000
B(  0-C ,  1-C ) :   0.9844 B(  0-C , 20-H ) :   0.9699 B(  0-C , 21-H ) :   0.9756
B(  0-C , 22-H ) :   0.9752 B(  1-C ,  2-O ) :   0.9014 B(  1-C , 23-H ) :   0.9783
B(  1-C , 24-H ) :   0.9681 B(  2-O ,  3-C ) :   1.0826 B(  3-C ,  4-O ) :   2.0576
B(  3-C ,  5-C ) :   0.9954 B(  5-C ,  6-C ) :   1.6652 B(  5-C , 12-C ) :   0.9545
B(  6-C ,  7-C ) :   0.9488 B(  6-C ,  8-N ) :   1.1388 B(  7-C , 25-H ) :   0.9646
B(  7-C , 26-H ) :   0.9888 B(  7-C , 27-H ) :   0.9677 B(  8-N ,  9-C ) :   1.1846
B(  8-N , 28-H ) :   0.9472 B(  9-C , 10-S ) :   1.6124 B(  9-C , 11-N ) :   1.3018
B( 11-N , 12-C ) :   0.9824 B( 11-N , 29-H ) :   0.9487 B( 12-C , 13-C ) :   0.9674
B( 12-C , 30-H ) :   0.9946 B( 13-C , 14-C ) :   1.3792 B( 13-C , 19-C ) :   1.3613
B( 14-C , 15-C ) :   1.3949 B( 14-C , 31-H ) :   0.9611 B( 15-C , 16-C ) :   1.3602
B( 15-C , 32-H ) :   0.9702 B( 16-C , 17-C ) :   1.3320 B( 16-C , 33-H ) :   0.9853
B( 17-C , 18-O ) :   1.1058 B( 17-C , 19-C ) :   1.3659 B( 18-O , 34-H ) :   0.9799
B( 19-C , 35-H ) :   0.9592

MP2 TOTAL ENERGY:    -1274.328264932 Eh
FINAL SINGLE POINT ENERGY     -1274.328264932027

DIPOLE MOMENT
-------------
                                X             Y             Z
Electronic contribution:      9.93018       9.59987       7.88100
Nuclear contribution   :    -11.52821     -10.62397      -8.44292
                        -----------------------------------------
Total Dipole Moment    :     -1.59803      -1.02410      -0.56193
                        -----------------------------------------
Magnitude (a.u.)       :      1.97946
Magnitude (Debye)      :      5.03138

Rotational constants in cm-1:     0.011045     0.009186     0.006090
Rotational constants in MHz :   331.123709   275.399266   182.584326

                             ****ORCA TERMINATED NORMALLY****
TOTAL RUN TIME: 0 days 1 hours 39 minutes 49 seconds 533 msec
