                         Program Version 4.2.0 -  RELEASE  -
|  1> ! ri-mp2 cc-pvtz cc-pvtz/c TightSCF NoKeepInts
|  2>
|  3> %scf
|  4>   MaxCore 4096
|  5> end
|  6> *xyz  0  1
|  7>     C       14.1012475   15.7870639   15.5385169
|  8>     C       15.2578136   15.6012293   14.5390432
|  9>     O       16.1314333   16.7363304   14.6582749
| 10>     C       17.1406260   16.6713728   15.5716484
| 11>     O       17.8556061   15.6890965   15.6768795
| 12>     C       17.1540476   17.7982382   16.5626617
| 13>     C       16.8067672   19.0684220   16.2285563
| 14>     C       16.1583136   19.5452583   14.9440415
| 15>     N       17.0841045   20.1326782   17.0901481
| 16>     C       17.8894819   20.0455007   18.1937933
| 17>     S       18.2594925   21.3713300   19.1106742
| 18>     N       18.3913230   18.8025388   18.4869203
| 19>     C       18.0171549   17.5486504   17.8042138
| 20>     C       17.4269146   16.5036384   18.7414096
| 21>     C       17.9884730   15.2169945   18.8258112
| 22>     C       17.4375972   14.2520144   19.6856311
| 23>     C       16.3155939   14.5767680   20.4673469
| 24>     C       15.7521436   15.8574245   20.3824621
| 25>     O       14.6647261   16.1716044   21.1307786
| 26>     C       16.3025697   16.8156526   19.5253749
| 27>     H       14.4755274   15.7889604   16.5705242
| 28>     H       13.3763861   14.9696122   15.4419967
| 29>     H       13.5774786   16.7336207   15.3566779
| 30>     H       15.7877364   14.6562488   14.7233084
| 31>     H       14.8459100   15.5670390   13.5222653
| 32>     H       15.1398948   19.1475824   14.8530793
| 33>     H       16.7309383   19.2105863   14.0698340
| 34>     H       16.0900832   20.6381907   14.8819475
| 35>     H       16.7418265   21.0555017   16.8752135
| 36>     H       18.9654954   18.7616455   19.3195374
| 37>     H       18.9990199   17.2249993   17.4289143
| 38>     H       18.8457639   14.9603298   18.2077747
| 39>     H       17.8771233   13.2575323   19.7381049
| 40>     H       15.8859550   13.8338171   21.1309931
| 41>     H       14.4579495   15.4001789   21.6794792
| 42>     H       15.8544820   17.8023486   19.4741632
| 43> *
| 44>
| 45>                          ****END OF INPUT****

CARTESIAN COORDINATES (ANGSTROEM)
---------------------------------
  C     14.101247   15.787064   15.538517
  C     15.257814   15.601229   14.539043
  O     16.131433   16.736330   14.658275
  C     17.140626   16.671373   15.571648
  O     17.855606   15.689096   15.676879
  C     17.154048   17.798238   16.562662
  C     16.806767   19.068422   16.228556
  C     16.158314   19.545258   14.944042
  N     17.084104   20.132678   17.090148
  C     17.889482   20.045501   18.193793
  S     18.259493   21.371330   19.110674
  N     18.391323   18.802539   18.486920
  C     18.017155   17.548650   17.804214
  C     17.426915   16.503638   18.741410
  C     17.988473   15.216995   18.825811
  C     17.437597   14.252014   19.685631
  C     16.315594   14.576768   20.467347
  C     15.752144   15.857425   20.382462
  O     14.664726   16.171604   21.130779
  C     16.302570   16.815653   19.525375
  H     14.475527   15.788960   16.570524
  H     13.376386   14.969612   15.441997
  H     13.577479   16.733621   15.356678
  H     15.787736   14.656249   14.723308
  H     14.845910   15.567039   13.522265
  H     15.139895   19.147582   14.853079
  H     16.730938   19.210586   14.069834
  H     16.090083   20.638191   14.881947
  H     16.741826   21.055502   16.875214
  H     18.965495   18.761646   19.319537
  H     18.999020   17.224999   17.428914
  H     18.845764   14.960330   18.207775
  H     17.877123   13.257532   19.738105
  H     15.885955   13.833817   21.130993
  H     14.457949   15.400179   21.679479
  H     15.854482   17.802349   19.474163

 Total Charge           Charge          ....    0
 Multiplicity           Mult            ....    1
 Number of Electrons    NEL             ....  154
 Basis Dimension        Dim             ....  828

ORBITAL ENERGIES
----------------

  NO   OCC          E(Eh)            E(eV)
   0   2.0000     -91.888773     -2500.4206
   1   2.0000     -20.593937      -560.3895
   2   2.0000     -20.593876      -560.3878
   3   2.0000     -20.549214      -559.1725
   4   2.0000     -15.629332      -425.2958
   5   2.0000     -15.606554      -424.6759
   6   2.0000     -11.394737      -310.0666
   7   2.0000     -11.383515      -309.7612
   8   2.0000     -11.338205      -308.5283
   9   2.0000     -11.310149      -307.7648
  10   2.0000     -11.305085      -307.6270
  11   2.0000     -11.300477      -307.5016
  12   2.0000     -11.259859      -306.3963
  13   2.0000     -11.259693      -306.3918
  14   2.0000     -11.257086      -306.3209
  15   2.0000     -11.250108      -306.1310
  16   2.0000     -11.240264      -305.8631
  17   2.0000     -11.236381      -305.7575
  18   2.0000     -11.233082      -305.6677
  19   2.0000     -11.230565      -305.5992
  20   2.0000      -8.893851      -242.0140
  21   2.0000      -6.575426      -178.9264
  22   2.0000      -6.573424      -178.8720
  23   2.0000      -6.572835      -178.8559
  24   2.0000      -1.453428       -39.5498
  25   2.0000      -1.413709       -38.4690
  26   2.0000      -1.357823       -36.9482
  27   2.0000      -1.340459       -36.4758
  28   2.0000      -1.237700       -33.6795
  29   2.0000      -1.154558       -31.4171
  30   2.0000      -1.121818       -30.5262
  31   2.0000      -1.043862       -28.4049
  32   2.0000      -1.034863       -28.1600
  33   2.0000      -1.012026       -27.5386
  34   2.0000      -1.000257       -27.2184
  35   2.0000      -0.985395       -26.8140
  36   2.0000      -0.922097       -25.0915
  37   2.0000      -0.892509       -24.2864
  38   2.0000      -0.848067       -23.0771
  39   2.0000      -0.836630       -22.7658
  40   2.0000      -0.830273       -22.5929
  41   2.0000      -0.817467       -22.2444
  42   2.0000      -0.757543       -20.6138
  43   2.0000      -0.736715       -20.0470
  44   2.0000      -0.727647       -19.8003
  45   2.0000      -0.692445       -18.8424
  46   2.0000      -0.685687       -18.6585
  47   2.0000      -0.678926       -18.4745
  48   2.0000      -0.672598       -18.3023
  49   2.0000      -0.660808       -17.9815
  50   2.0000      -0.652035       -17.7428
  51   2.0000      -0.644986       -17.5510
  52   2.0000      -0.634386       -17.2625
  53   2.0000      -0.606161       -16.4945
  54   2.0000      -0.600947       -16.3526
  55   2.0000      -0.597785       -16.2666
  56   2.0000      -0.596722       -16.2376
  57   2.0000      -0.582911       -15.8618
  58   2.0000      -0.574725       -15.6391
  59   2.0000      -0.562340       -15.3020
  60   2.0000      -0.561805       -15.2875
  61   2.0000      -0.554242       -15.0817
  62   2.0000      -0.542741       -14.7687
  63   2.0000      -0.525387       -14.2965
  64   2.0000      -0.518125       -14.0989
  65   2.0000      -0.510760       -13.8985
  66   2.0000      -0.499674       -13.5968
  67   2.0000      -0.495363       -13.4795
  68   2.0000      -0.482013       -13.1162
  69   2.0000      -0.463745       -12.6192
  70   2.0000      -0.458783       -12.4841
  71   2.0000      -0.451274       -12.2798
  72   2.0000      -0.353645        -9.6232
  73   2.0000      -0.346621        -9.4320
  74   2.0000      -0.327848        -8.9212
  75   2.0000      -0.317984        -8.6528
  76   2.0000      -0.316829        -8.6214
  77   0.0000       0.074570         2.0292
  78   0.0000       0.108266         2.9461
  79   0.0000       0.119843         3.2611
  80   0.0000       0.134111         3.6493
  81   0.0000       0.140630         3.8267

MULLIKEN ATOMIC CHARGES
-----------------------
   0 C :   -0.291494
   1 C :    0.026117
   2 O :   -0.364317
   3 C :    0.444349
   4 O :   -0.407351
   5 C :   -0.187051
   6 C :    0.149090
   7 C :   -0.282283
   8 N :   -0.127731
   9 C :    0.207989
  10 S :   -0.441223
  11 N :   -0.210398
  12 C :    0.047437
  13 C :    0.033552
  14 C :   -0.171731
  15 C :   -0.133212
  16 C :   -0.278313
  17 C :    0.316712
  18 O :   -0.358988
  19 C :   -0.261221
  20 H :    0.109992
  21 H :    0.103553
  22 H :    0.091350
  23 H :    0.113676
  24 H :    0.104897
  25 H :    0.126109
  26 H :    0.127263
  27 H :    0.102263
  28 H :    0.198490
  29 H :    0.199472
  30 H :    0.155855
  31 H :    0.161128
  32 H :    0.160858
  33 H :    0.129492
  34 H :    0.240294
  35 H :    0.165370
Sum of atomic charges:   -0.0000000

LOEWDIN ATOMIC CHARGES
----------------------
   0 C :    0.103611
   1 C :   -0.018886
   2 O :    0.302002
   3 C :   -0.417977
   4 O :    0.113938
   5 C :   -0.095085
   6 C :   -0.065859
   7 C :    0.126049
   8 N :    0.405643
   9 C :   -0.457919
  10 S :   -0.036944
  11 N :    0.396183
  12 C :   -0.048363
  13 C :   -0.041623
  14 C :    0.024591
  15 C :    0.041509
  16 C :   -0.001125
  17 C :   -0.193409
  18 O :    0.393368
  19 C :    0.029155
  20 H :   -0.025063
  21 H :   -0.025127
  22 H :   -0.029835
  23 H :   -0.025746
  24 H :   -0.025817
  25 H :   -0.010940
  26 H :   -0.007948
  27 H :   -0.020775
  28 H :   -0.058487
  29 H :   -0.063416
  30 H :   -0.007580
  31 H :   -0.023433
  32 H :   -0.020604
  33 H :   -0.035843
  34 H :   -0.154482
  35 H :   -0.023764

  Mayer bond orders larger than 0.100000
B(  0-C ,  1-C ) :   0.9634 B(  0-C , 20-H ) :   0.9723 B(  0-C , 21-H ) :   0.9771
B(  0-C , 22-H ) :   0.9784 B(  1-C ,  2-O ) :   0.8946 B(  1-C , 23-H ) :   0.9752
B(  1-C , 24-H ) :   0.9852 B(  2-O ,  3-C ) :   1.1011 B(  3-C ,  4-O ) :   2.0150
B(  3-C ,  5-C ) :   1.0239 B(  5-C ,  6-C ) :   1.6666 B(  5-C , 12-C ) :   0.9502
B(  6-C ,  7-C ) :   0.9554 B(  6-C ,  8-N ) :   1.1388 B(  7-C , 25-H ) :   0.9642
B(  7-C , 26-H ) :   0.9657 B(  7-C , 27-H ) :   0.9897 B(  8-N ,  9-C ) :   1.1848
B(  8-N , 28-H ) :   0.9471 B(  9-C , 10-S ) :   1.6104 B(  9-C , 11-N ) :   1.3039
B( 11-N , 12-C ) :   0.9804 B( 11-N , 29-H ) :   0.9487 B( 12-C , 13-C ) :   0.9701
B( 12-C , 30-H ) :   0.9953 B( 13-C , 14-C ) :   1.3793 B( 13-C , 19-C ) :   1.3621
B( 14-C , 15-C ) :   1.3966 B( 14-C , 31-H ) :   0.9627 B( 15-C , 16-C ) :   1.3596
B( 15-C , 32-H ) :   0.9710 B( 16-C , 17-C ) :   1.3330 B( 16-C , 33-H ) :   0.9854
B( 17-C , 18-O ) :   1.1046 B( 17-C , 19-C ) :   1.3645 B( 18-O , 34-H ) :   0.9803
B( 19-C , 35-H ) :   0.9601

MP2 TOTAL ENERGY:    -1274.333771077 Eh
FINAL SINGLE POINT ENERGY     -1274.333771077117

DIPOLE MOMENT
-------------
                                X             Y             Z
Electronic contribution:     10.02321       8.55651       8.55285
Nuclear contribution   :    -11.36163      -9.89788      -9.48326
                        -----------------------------------------
Total Dipole Moment    :     -1.33843      -1.34137      -0.93041
                        -----------------------------------------
Magnitude (a.u.)       :      2.11100
Magnitude (Debye)      :      5.36574

Rotational constants in cm-1:     0.010609     0.009262     0.006122
Rotational constants in MHz :   318.055777   277.681934   183.534244

                             ****ORCA TERMINATED NORMALLY****
TOTAL RUN TIME: 0 days 1 hours 54 minutes 20 seconds 882 msec
