                         Program Version 4.2.0 -  RELEASE  -
|  1> ! ri-mp2 cc-pvtz cc-pvtz/c TightSCF NoKeepInts
|  2>
|  3> %scf
|  4>   MaxCore 4096
|  5> end
|  6> *xyz  0  1
|  7>     C       14.1037999   15.6698771   15.2710595
|  8>     C       15.3318191   15.6376863   16.1961381
|  9>     O       16.4959479   15.8285117   15.3659814
| 10>     C       17.1819696   17.0109329   15.2740423
| 11>     O       17.8222198   17.2869677   14.2767191
| 12>     C       17.0924946   17.9343832   16.4465852
| 13>     C       16.8588857   19.2453094   16.2072890
| 14>     C       16.2882954   19.8192840   14.9284044
| 15>     N       17.1540872   20.2213217   17.1602096
| 16>     C       17.9151620   19.9932910   18.2760322
| 17>     S       18.3337353   21.2103778   19.3142588
| 18>     N       18.3342060   18.7006733   18.4775464
| 19>     C       17.8996481   17.5299858   17.6893840
| 20>     C       17.3203086   16.4025530   18.5301384
| 21>     C       17.8029471   15.0886663   18.3883743
| 22>     C       17.2593735   14.0432183   19.1533775
| 23>     C       16.2282838   14.3149099   20.0690398
| 24>     C       15.7500851   15.6241708   20.2162674
| 25>     O       14.7511364   15.8886830   21.0947961
| 26>     C       16.2911772   16.6627997   19.4517681
| 27>     H       14.0116769   16.6468319   14.7806687
| 28>     H       13.1862779   15.4839213   15.8425467
| 29>     H       14.1861250   14.8996849   14.4936681
| 30>     H       15.2178777   16.4023398   16.9715562
| 31>     H       15.3876996   14.6567007   16.6859895
| 32>     H       15.5464245   19.1430144   14.4859581
| 33>     H       17.0850896   19.9598911   14.1857764
| 34>     H       15.7962065   20.7864893   15.0856887
| 35>     H       16.8933332   21.1809145   16.9964934
| 36>     H       18.8883380   18.5617577   19.3135750
| 37>     H       18.8748361   17.2140980   17.2901659
| 38>     H       18.5951365   14.8748373   17.6745230
| 39>     H       17.6371046   13.0286631   19.0348972
| 40>     H       15.8058513   13.5099338   20.6619058
| 41>     H       14.5512299   15.0667485   21.5682742
| 42>     H       15.9082105   17.6705708   19.5789014
| 43> *
| 44>
| 45>                          ****END OF INPUT****

CARTESIAN COORDINATES (ANGSTROEM)
---------------------------------
  C     14.103800   15.669877   15.271059
  C     15.331819   15.637686   16.196138
  O     16.495948   15.828512   15.365981
  C     17.181970   17.010933   15.274042
  O     17.822220   17.286968   14.276719
  C     17.092495   17.934383   16.446585
  C     16.858886   19.245309   16.207289
  C     16.288295   19.819284   14.928404
  N     17.154087   20.221322   17.160210
  C     17.915162   19.993291   18.276032
  S     18.333735   21.210378   19.314259
  N     18.334206   18.700673   18.477546
  C     17.899648   17.529986   17.689384
  C     17.320309   16.402553   18.530138
  C     17.802947   15.088666   18.388374
  C     17.259373   14.043218   19.153378
  C     16.228284   14.314910   20.069040
  C     15.750085   15.624171   20.216267
  O     14.751136   15.888683   21.094796
  C     16.291177   16.662800   19.451768
  H     14.011677   16.646832   14.780669
  H     13.186278   15.483921   15.842547
  H     14.186125   14.899685   14.493668
  H     15.217878   16.402340   16.971556
  H     15.387700   14.656701   16.685990
  H     15.546425   19.143014   14.485958
  H     17.085090   19.959891   14.185776
  H     15.796207   20.786489   15.085689
  H     16.893333   21.180915   16.996493
  H     18.888338   18.561758   19.313575
  H     18.874836   17.214098   17.290166
  H     18.595136   14.874837   17.674523
  H     17.637105   13.028663   19.034897
  H     15.805851   13.509934   20.661906
  H     14.551230   15.066748   21.568274
  H     15.908210   17.670571   19.578901

 Total Charge           Charge          ....    0
 Multiplicity           Mult            ....    1
 Number of Electrons    NEL             ....  154
 Basis Dimension        Dim             ....  828

ORBITAL ENERGIES
----------------

  NO   OCC          E(Eh)            E(eV)
   0   2.0000     -91.890608     -2500.4706
   1   2.0000     -20.605133      -560.6942
   2   2.0000     -20.598468      -560.5128
   3   2.0000     -20.549616      -559.1835
   4   2.0000     -15.627536      -425.2469
   5   2.0000     -15.611414      -424.8082
   6   2.0000     -11.396039      -310.1020
   7   2.0000     -11.386035      -309.8298
   8   2.0000     -11.329862      -308.3012
   9   2.0000     -11.323626      -308.1315
  10   2.0000     -11.317348      -307.9607
  11   2.0000     -11.298493      -307.4476
  12   2.0000     -11.270506      -306.6861
  13   2.0000     -11.264582      -306.5249
  14   2.0000     -11.257460      -306.3311
  15   2.0000     -11.257096      -306.3211
  16   2.0000     -11.253362      -306.2196
  17   2.0000     -11.248028      -306.0744
  18   2.0000     -11.247886      -306.0705
  19   2.0000     -11.230028      -305.5846
  20   2.0000      -8.895679      -242.0637
  21   2.0000      -6.577251      -178.9761
  22   2.0000      -6.575251      -178.9217
  23   2.0000      -6.574660      -178.9056
  24   2.0000      -1.446174       -39.3524
  25   2.0000      -1.424897       -38.7734
  26   2.0000      -1.359507       -36.9941
  27   2.0000      -1.340537       -36.4779
  28   2.0000      -1.240418       -33.7535
  29   2.0000      -1.166862       -31.7519
  30   2.0000      -1.125627       -30.6299
  31   2.0000      -1.051526       -28.6135
  32   2.0000      -1.036185       -28.1960
  33   2.0000      -1.025013       -27.8920
  34   2.0000      -1.003569       -27.3085
  35   2.0000      -0.989789       -26.9335
  36   2.0000      -0.927546       -25.2398
  37   2.0000      -0.885348       -24.0915
  38   2.0000      -0.852697       -23.2031
  39   2.0000      -0.844831       -22.9890
  40   2.0000      -0.843643       -22.9567
  41   2.0000      -0.836547       -22.7636
  42   2.0000      -0.758835       -20.6490
  43   2.0000      -0.739800       -20.1310
  44   2.0000      -0.723267       -19.6811
  45   2.0000      -0.703585       -19.1455
  46   2.0000      -0.693691       -18.8763
  47   2.0000      -0.677838       -18.4449
  48   2.0000      -0.677117       -18.4253
  49   2.0000      -0.669669       -18.2226
  50   2.0000      -0.651117       -17.7178
  51   2.0000      -0.646832       -17.6012
  52   2.0000      -0.634722       -17.2717
  53   2.0000      -0.614619       -16.7246
  54   2.0000      -0.609531       -16.5862
  55   2.0000      -0.604813       -16.4578
  56   2.0000      -0.602474       -16.3941
  57   2.0000      -0.584306       -15.8998
  58   2.0000      -0.578062       -15.7299
  59   2.0000      -0.568628       -15.4732
  60   2.0000      -0.560110       -15.2414
  61   2.0000      -0.553777       -15.0691
  62   2.0000      -0.548737       -14.9319
  63   2.0000      -0.530632       -14.4392
  64   2.0000      -0.527142       -14.3443
  65   2.0000      -0.518061       -14.0972
  66   2.0000      -0.506093       -13.7715
  67   2.0000      -0.503515       -13.7013
  68   2.0000      -0.488520       -13.2933
  69   2.0000      -0.467832       -12.7303
  70   2.0000      -0.454319       -12.3626
  71   2.0000      -0.447611       -12.1801
  72   2.0000      -0.359005        -9.7690
  73   2.0000      -0.351681        -9.5697
  74   2.0000      -0.332175        -9.0389
  75   2.0000      -0.329267        -8.9598
  76   2.0000      -0.320450        -8.7199
  77   0.0000       0.083519         2.2727
  78   0.0000       0.094393         2.5686
  79   0.0000       0.119866         3.2617
  80   0.0000       0.126175         3.4334
  81   0.0000       0.128379         3.4934

MULLIKEN ATOMIC CHARGES
-----------------------
   0 C :   -0.261688
   1 C :    0.020739
   2 O :   -0.317595
   3 C :    0.398143
   4 O :   -0.375701
   5 C :   -0.222584
   6 C :    0.150803
   7 C :   -0.281755
   8 N :   -0.133289
   9 C :    0.212303
  10 S :   -0.439538
  11 N :   -0.216524
  12 C :    0.033722
  13 C :    0.001085
  14 C :   -0.178616
  15 C :   -0.149497
  16 C :   -0.267364
  17 C :    0.307671
  18 O :   -0.353360
  19 C :   -0.228245
  20 H :    0.085515
  21 H :    0.092490
  22 H :    0.107524
  23 H :    0.100742
  24 H :    0.118327
  25 H :    0.114736
  26 H :    0.144344
  27 H :    0.098570
  28 H :    0.198292
  29 H :    0.201110
  30 H :    0.162450
  31 H :    0.154736
  32 H :    0.166913
  33 H :    0.135938
  34 H :    0.241890
  35 H :    0.177711
Sum of atomic charges:   -0.0000000

LOEWDIN ATOMIC CHARGES
----------------------
   0 C :    0.105401
   1 C :   -0.022270
   2 O :    0.309616
   3 C :   -0.421861
   4 O :    0.123898
   5 C :   -0.098577
   6 C :   -0.080796
   7 C :    0.129633
   8 N :    0.405043
   9 C :   -0.454876
  10 S :   -0.035253
  11 N :    0.395389
  12 C :   -0.054289
  13 C :   -0.044361
  14 C :    0.020675
  15 C :    0.044146
  16 C :    0.001348
  17 C :   -0.191375
  18 O :    0.397201
  19 C :    0.032038
  20 H :   -0.031476
  21 H :   -0.026268
  22 H :   -0.023702
  23 H :   -0.039377
  24 H :   -0.023779
  25 H :   -0.010644
  26 H :   -0.003356
  27 H :   -0.020603
  28 H :   -0.057597
  29 H :   -0.063885
  30 H :   -0.009302
  31 H :   -0.025622
  32 H :   -0.018287
  33 H :   -0.033397
  34 H :   -0.152078
  35 H :   -0.021358

  Mayer bond orders larger than 0.100000
B(  0-C ,  1-C ) :   0.9816 B(  0-C , 20-H ) :   0.9778 B(  0-C , 21-H ) :   0.9771
B(  0-C , 22-H ) :   0.9797 B(  1-C ,  2-O ) :   0.8810 B(  1-C , 23-H ) :   0.9535
B(  1-C , 24-H ) :   0.9769 B(  2-O ,  3-C ) :   1.1894 B(  3-C ,  4-O ) :   2.1243
B(  3-C ,  5-C ) :   0.9238 B(  5-C ,  6-C ) :   1.6966 B(  5-C , 12-C ) :   0.9546
B(  6-C ,  7-C ) :   0.9455 B(  6-C ,  8-N ) :   1.1277 B(  7-C , 25-H ) :   0.9763
B(  7-C , 26-H ) :   0.9565 B(  7-C , 27-H ) :   0.9849 B(  8-N ,  9-C ) :   1.1976
B(  8-N , 28-H ) :   0.9491 B(  9-C , 10-S ) :   1.6136 B(  9-C , 11-N ) :   1.2872
B( 11-N , 12-C ) :   0.9811 B( 11-N , 29-H ) :   0.9465 B( 12-C , 13-C ) :   0.9612
B( 12-C , 30-H ) :   1.0052 B( 13-C , 14-C ) :   1.3656 B( 13-C , 19-C ) :   1.3475
B( 14-C , 15-C ) :   1.4001 B( 14-C , 31-H ) :   0.9733 B( 15-C , 16-C ) :   1.3607
B( 15-C , 32-H ) :   0.9695 B( 16-C , 17-C ) :   1.3284 B( 16-C , 33-H ) :   0.9829
B( 17-C , 18-O ) :   1.1122 B( 17-C , 19-C ) :   1.3656 B( 18-O , 34-H ) :   0.9785
B( 19-C , 35-H ) :   0.9563

MP2 TOTAL ENERGY:    -1274.325388021 Eh
FINAL SINGLE POINT ENERGY     -1274.325388021307

DIPOLE MOMENT
-------------
                                X             Y             Z
Electronic contribution:     10.17364       8.00741       7.75379
Nuclear contribution   :    -11.64162      -9.68582      -7.49552
                        -----------------------------------------
Total Dipole Moment    :     -1.46798      -1.67841       0.25827
                        -----------------------------------------
Magnitude (a.u.)       :      2.24471
Magnitude (Debye)      :      5.70561

Rotational constants in cm-1:     0.011728     0.009010     0.006143
Rotational constants in MHz :   351.588149   270.105448   184.153659

                             ****ORCA TERMINATED NORMALLY****
TOTAL RUN TIME: 0 days 1 hours 55 minutes 15 seconds 547 msec
