                         Program Version 4.2.0 -  RELEASE  -
|  1> ! ri-mp2 cc-pvtz cc-pvtz/c TightSCF NoKeepInts
|  2>
|  3> %scf
|  4>   MaxCore 4096
|  5> end
|  6> *xyz  0  1
|  7>     C       14.7887207   14.3960019   16.3650464
|  8>     C       15.1553542   15.8159782   15.9029327
|  9>     O       16.4977489   15.7756698   15.3845284
| 10>     C       17.1844708   16.9347355   15.1593173
| 11>     O       17.7669584   17.1186409   14.1067068
| 12>     C       17.1580348   17.9430888   16.2674313
| 13>     C       17.1169947   19.2563614   15.9369203
| 14>     C       16.6872078   19.8259759   14.6015965
| 15>     N       17.4867243   20.2474948   16.8471413
| 16>     C       18.1490512   19.9999898   18.0193578
| 17>     S       18.6732777   21.2205562   19.0042601
| 18>     N       18.3784857   18.6810197   18.3236047
| 19>     C       17.8297294   17.5256884   17.5864459
| 20>     C       17.0648007   16.5647408   18.4831454
| 21>     C       17.5220446   15.2479408   18.6727299
| 22>     C       16.8400463   14.3738748   19.5362280
| 23>     C       15.6901245   14.8193748   20.2105687
| 24>     C       15.2370117   16.1330614   20.0277834
| 25>     O       14.1284307   16.5669403   20.6779038
| 26>     C       15.9234220   17.0040528   19.1757706
| 27>     H       15.4989842   14.0314661   17.1145702
| 28>     H       14.8009804   13.7009484   15.5163206
| 29>     H       13.7854322   14.3816140   16.8074953
| 30>     H       14.4607434   16.1458719   15.1192019
| 31>     H       15.0611889   16.5040258   16.7491282
| 32>     H       15.9043678   19.2115069   14.1401056
| 33>     H       17.5362767   19.8472460   13.9054781
| 34>     H       16.2926004   20.8454308   14.6876605
| 35>     H       17.3661988   21.2194393   16.6096578
| 36>     H       18.8575074   18.5287072   19.2025575
| 37>     H       18.7728308   17.0547999   17.2727549
| 38>     H       18.4087927   14.8997110   18.1487847
| 39>     H       17.2005762   13.3560008   19.6765787
| 40>     H       15.1579202   14.1459652   20.8746263
| 41>     H       13.8343362   15.8526088   21.2635207
| 42>     H       15.5696248   18.0234707   19.0601395
| 43> *
| 44>
| 45>                          ****END OF INPUT****

CARTESIAN COORDINATES (ANGSTROEM)
---------------------------------
  C     14.788721   14.396002   16.365046
  C     15.155354   15.815978   15.902933
  O     16.497749   15.775670   15.384528
  C     17.184471   16.934735   15.159317
  O     17.766958   17.118641   14.106707
  C     17.158035   17.943089   16.267431
  C     17.116995   19.256361   15.936920
  C     16.687208   19.825976   14.601596
  N     17.486724   20.247495   16.847141
  C     18.149051   19.999990   18.019358
  S     18.673278   21.220556   19.004260
  N     18.378486   18.681020   18.323605
  C     17.829729   17.525688   17.586446
  C     17.064801   16.564741   18.483145
  C     17.522045   15.247941   18.672730
  C     16.840046   14.373875   19.536228
  C     15.690124   14.819375   20.210569
  C     15.237012   16.133061   20.027783
  O     14.128431   16.566940   20.677904
  C     15.923422   17.004053   19.175771
  H     15.498984   14.031466   17.114570
  H     14.800980   13.700948   15.516321
  H     13.785432   14.381614   16.807495
  H     14.460743   16.145872   15.119202
  H     15.061189   16.504026   16.749128
  H     15.904368   19.211507   14.140106
  H     17.536277   19.847246   13.905478
  H     16.292600   20.845431   14.687660
  H     17.366199   21.219439   16.609658
  H     18.857507   18.528707   19.202558
  H     18.772831   17.054800   17.272755
  H     18.408793   14.899711   18.148785
  H     17.200576   13.356001   19.676579
  H     15.157920   14.145965   20.874626
  H     13.834336   15.852609   21.263521
  H     15.569625   18.023471   19.060139

 Total Charge           Charge          ....    0
 Multiplicity           Mult            ....    1
 Number of Electrons    NEL             ....  154
 Basis Dimension        Dim             ....  828

ORBITAL ENERGIES
----------------

  NO   OCC          E(Eh)            E(eV)
   0   2.0000     -91.890628     -2500.4711
   1   2.0000     -20.604925      -560.6885
   2   2.0000     -20.593038      -560.3651
   3   2.0000     -20.551543      -559.2359
   4   2.0000     -15.628181      -425.2644
   5   2.0000     -15.610797      -424.7914
   6   2.0000     -11.393468      -310.0320
   7   2.0000     -11.385692      -309.8204
   8   2.0000     -11.331910      -308.3570
   9   2.0000     -11.323139      -308.1183
  10   2.0000     -11.316521      -307.9382
  11   2.0000     -11.297809      -307.4290
  12   2.0000     -11.269929      -306.6704
  13   2.0000     -11.263587      -306.4978
  14   2.0000     -11.257288      -306.3264
  15   2.0000     -11.255841      -306.2870
  16   2.0000     -11.252882      -306.2065
  17   2.0000     -11.248061      -306.0753
  18   2.0000     -11.247962      -306.0726
  19   2.0000     -11.225897      -305.4722
  20   2.0000      -8.895694      -242.0641
  21   2.0000      -6.577264      -178.9765
  22   2.0000      -6.575266      -178.9221
  23   2.0000      -6.574674      -178.9060
  24   2.0000      -1.447418       -39.3862
  25   2.0000      -1.424702       -38.7681
  26   2.0000      -1.359213       -36.9861
  27   2.0000      -1.341233       -36.4968
  28   2.0000      -1.240746       -33.7624
  29   2.0000      -1.166282       -31.7362
  30   2.0000      -1.124653       -30.6034
  31   2.0000      -1.050706       -28.5912
  32   2.0000      -1.034605       -28.1530
  33   2.0000      -1.024628       -27.8815
  34   2.0000      -1.002717       -27.2853
  35   2.0000      -0.988917       -26.9098
  36   2.0000      -0.927127       -25.2284
  37   2.0000      -0.876478       -23.8502
  38   2.0000      -0.852151       -23.1882
  39   2.0000      -0.844624       -22.9834
  40   2.0000      -0.843301       -22.9474
  41   2.0000      -0.837103       -22.7787
  42   2.0000      -0.761551       -20.7229
  43   2.0000      -0.739909       -20.1340
  44   2.0000      -0.727816       -19.8049
  45   2.0000      -0.703731       -19.1495
  46   2.0000      -0.692437       -18.8422
  47   2.0000      -0.681445       -18.5431
  48   2.0000      -0.675944       -18.3934
  49   2.0000      -0.658878       -17.9290
  50   2.0000      -0.650202       -17.6929
  51   2.0000      -0.645053       -17.5528
  52   2.0000      -0.639806       -17.4100
  53   2.0000      -0.615729       -16.7548
  54   2.0000      -0.612350       -16.6629
  55   2.0000      -0.605393       -16.4736
  56   2.0000      -0.602632       -16.3985
  57   2.0000      -0.583627       -15.8813
  58   2.0000      -0.576004       -15.6739
  59   2.0000      -0.566740       -15.4218
  60   2.0000      -0.556704       -15.1487
  61   2.0000      -0.546884       -14.8815
  62   2.0000      -0.537402       -14.6234
  63   2.0000      -0.532767       -14.4973
  64   2.0000      -0.526307       -14.3215
  65   2.0000      -0.517189       -14.0734
  66   2.0000      -0.506484       -13.7821
  67   2.0000      -0.501175       -13.6377
  68   2.0000      -0.488324       -13.2880
  69   2.0000      -0.465451       -12.6656
  70   2.0000      -0.457153       -12.4398
  71   2.0000      -0.451975       -12.2989
  72   2.0000      -0.358571        -9.7572
  73   2.0000      -0.352188        -9.5835
  74   2.0000      -0.331914        -9.0318
  75   2.0000      -0.328868        -8.9490
  76   2.0000      -0.320621        -8.7246
  77   0.0000       0.080101         2.1797
  78   0.0000       0.094696         2.5768
  79   0.0000       0.119821         3.2605
  80   0.0000       0.126036         3.4296
  81   0.0000       0.127932         3.4812

MULLIKEN ATOMIC CHARGES
-----------------------
   0 C :   -0.275573
   1 C :    0.019643
   2 O :   -0.323389
   3 C :    0.404166
   4 O :   -0.367723
   5 C :   -0.240986
   6 C :    0.152809
   7 C :   -0.276055
   8 N :   -0.131427
   9 C :    0.210451
  10 S :   -0.439616
  11 N :   -0.209551
  12 C :    0.039779
  13 C :    0.002732
  14 C :   -0.182614
  15 C :   -0.144174
  16 C :   -0.267673
  17 C :    0.312040
  18 O :   -0.355491
  19 C :   -0.228305
  20 H :    0.105797
  21 H :    0.109050
  22 H :    0.088798
  23 H :    0.108673
  24 H :    0.100426
  25 H :    0.116428
  26 H :    0.142088
  27 H :    0.097428
  28 H :    0.198711
  29 H :    0.200212
  30 H :    0.156919
  31 H :    0.156031
  32 H :    0.169102
  33 H :    0.135254
  34 H :    0.241998
  35 H :    0.174043
Sum of atomic charges:   -0.0000000

LOEWDIN ATOMIC CHARGES
----------------------
   0 C :    0.111783
   1 C :   -0.023214
   2 O :    0.304019
   3 C :   -0.423398
   4 O :    0.129300
   5 C :   -0.100988
   6 C :   -0.074334
   7 C :    0.129214
   8 N :    0.405777
   9 C :   -0.455608
  10 S :   -0.034830
  11 N :    0.395343
  12 C :   -0.054298
  13 C :   -0.042922
  14 C :    0.019647
  15 C :    0.044908
  16 C :    0.003603
  17 C :   -0.191330
  18 O :    0.396871
  19 C :    0.034402
  20 H :   -0.028014
  21 H :   -0.026300
  22 H :   -0.025727
  23 H :   -0.033780
  24 H :   -0.041997
  25 H :   -0.009304
  26 H :   -0.003878
  27 H :   -0.021255
  28 H :   -0.056960
  29 H :   -0.063602
  30 H :   -0.010476
  31 H :   -0.026473
  32 H :   -0.019099
  33 H :   -0.033478
  34 H :   -0.152087
  35 H :   -0.021512

  Mayer bond orders larger than 0.100000
B(  0-C ,  1-C ) :   0.9795 B(  0-C , 20-H ) :   0.9722 B(  0-C , 21-H ) :   0.9798
B(  0-C , 22-H ) :   0.9762 B(  1-C ,  2-O ) :   0.8957 B(  1-C , 23-H ) :   0.9808
B(  1-C , 24-H ) :   0.9582 B(  2-O ,  3-C ) :   1.1693 B(  3-C ,  4-O ) :   2.1266
B(  3-C ,  5-C ) :   0.9486 B(  5-C ,  6-C ) :   1.6794 B(  5-C , 12-C ) :   0.9616
B(  6-C ,  7-C ) :   0.9509 B(  6-C ,  8-N ) :   1.1368 B(  7-C , 25-H ) :   0.9755
B(  7-C , 26-H ) :   0.9555 B(  7-C , 27-H ) :   0.9847 B(  8-N ,  9-C ) :   1.1947
B(  8-N , 28-H ) :   0.9489 B(  9-C , 10-S ) :   1.6127 B(  9-C , 11-N ) :   1.2932
B( 11-N , 12-C ) :   0.9780 B( 11-N , 29-H ) :   0.9475 B( 12-C , 13-C ) :   0.9655
B( 12-C , 30-H ) :   1.0064 B( 13-C , 14-C ) :   1.3632 B( 13-C , 19-C ) :   1.3459
B( 14-C , 15-C ) :   1.3820 B( 14-C , 31-H ) :   0.9716 B( 15-C , 16-C ) :   1.3629
B( 15-C , 32-H ) :   0.9703 B( 16-C , 17-C ) :   1.3286 B( 16-C , 33-H ) :   0.9833
B( 17-C , 18-O ) :   1.1100 B( 17-C , 19-C ) :   1.3670 B( 18-O , 34-H ) :   0.9785
B( 19-C , 35-H ) :   0.9597

MP2 TOTAL ENERGY:    -1274.325559104 Eh
FINAL SINGLE POINT ENERGY     -1274.325559104060

DIPOLE MOMENT
-------------
                                X             Y             Z
Electronic contribution:      8.95104      10.35330       5.10327
Nuclear contribution   :    -10.50025     -11.79613      -4.76015
                        -----------------------------------------
Total Dipole Moment    :     -1.54920      -1.44283       0.34312
                        -----------------------------------------
Magnitude (a.u.)       :      2.14465
Magnitude (Debye)      :      5.45126

Rotational constants in cm-1:     0.012620     0.008735     0.006085
Rotational constants in MHz :   378.326748   261.865694   182.409838

                             ****ORCA TERMINATED NORMALLY****
TOTAL RUN TIME: 0 days 1 hours 48 minutes 15 seconds 690 msec
