                         Program Version 4.2.0 -  RELEASE  -
|  1> ! ri-mp2 cc-pvtz cc-pvtz/c TightSCF NoKeepInts
|  2>
|  3> %scf
|  4>   MaxCore 4096
|  5> end
|  6> *xyz  0  1
|  7>     C       14.2396730   15.2562538   15.2097269
|  8>     C       15.3677370   15.5859579   16.2014759
|  9>     O       16.5488299   15.8705590   15.4271875
| 10>     C       16.9569490   17.1578907   15.2199976
| 11>     O       17.2303497   17.5421550   14.0979797
| 12>     C       17.0339957   18.0325811   16.4397410
| 13>     C       16.8756885   19.3711255   16.2903202
| 14>     C       16.2285552   20.0739719   15.1154300
| 15>     N       17.3057774   20.2678769   17.2695647
| 16>     C       18.1261486   19.9294259   18.3114618
| 17>     S       18.7052352   21.0566126   19.3738389
| 18>     N       18.4641272   18.6032820   18.4151633
| 19>     C       17.8892022   17.5089039   17.6087713
| 20>     C       17.2848324   16.4079294   18.4662194
| 21>     C       17.8103696   15.1031655   18.4310195
| 22>     C       17.2513273   14.0885190   19.2260295
| 23>     C       16.1637086   14.3830704   20.0662699
| 24>     C       15.6465937   15.6850575   20.1114138
| 25>     O       14.5957629   15.9723094   20.9194216
| 26>     C       16.2037777   16.6928758   19.3179542
| 27>     H       14.0311277   16.1149784   14.5592730
| 28>     H       13.3181879   14.9980537   15.7455016
| 29>     H       14.5194608   14.4047967   14.5765687
| 30>     H       15.0666546   16.4281418   16.8366674
| 31>     H       15.5444666   14.7112442   16.8404740
| 32>     H       15.4154774   19.4711300   14.6920341
| 33>     H       16.9630634   20.2364654   14.3155811
| 34>     H       15.8028025   21.0467100   15.3888910
| 35>     H       17.1001563   21.2500187   17.1763461
| 36>     H       19.0593877   18.3814801   19.2036373
| 37>     H       18.8093624   17.1407519   17.1321389
| 38>     H       18.6480894   14.8720086   17.7774411
| 39>     H       17.6609623   13.0801281   19.1893277
| 40>     H       15.7291358   13.6019121   20.6818059
| 41>     H       14.3939155   15.1752177   21.4329511
| 42>     H       15.7961086   17.6974395   19.3703741
| 43> *
| 44>
| 45>                          ****END OF INPUT****

CARTESIAN COORDINATES (ANGSTROEM)
---------------------------------
  C     14.239673   15.256254   15.209727
  C     15.367737   15.585958   16.201476
  O     16.548830   15.870559   15.427188
  C     16.956949   17.157891   15.219998
  O     17.230350   17.542155   14.097980
  C     17.033996   18.032581   16.439741
  C     16.875688   19.371126   16.290320
  C     16.228555   20.073972   15.115430
  N     17.305777   20.267877   17.269565
  C     18.126149   19.929426   18.311462
  S     18.705235   21.056613   19.373839
  N     18.464127   18.603282   18.415163
  C     17.889202   17.508904   17.608771
  C     17.284832   16.407929   18.466219
  C     17.810370   15.103165   18.431020
  C     17.251327   14.088519   19.226029
  C     16.163709   14.383070   20.066270
  C     15.646594   15.685057   20.111414
  O     14.595763   15.972309   20.919422
  C     16.203778   16.692876   19.317954
  H     14.031128   16.114978   14.559273
  H     13.318188   14.998054   15.745502
  H     14.519461   14.404797   14.576569
  H     15.066655   16.428142   16.836667
  H     15.544467   14.711244   16.840474
  H     15.415477   19.471130   14.692034
  H     16.963063   20.236465   14.315581
  H     15.802803   21.046710   15.388891
  H     17.100156   21.250019   17.176346
  H     19.059388   18.381480   19.203637
  H     18.809362   17.140752   17.132139
  H     18.648089   14.872009   17.777441
  H     17.660962   13.080128   19.189328
  H     15.729136   13.601912   20.681806
  H     14.393916   15.175218   21.432951
  H     15.796109   17.697440   19.370374

 Total Charge           Charge          ....    0
 Multiplicity           Mult            ....    1
 Number of Electrons    NEL             ....  154
 Basis Dimension        Dim             ....  828

ORBITAL ENERGIES
----------------

  NO   OCC          E(Eh)            E(eV)
   0   2.0000     -91.891285     -2500.4890
   1   2.0000     -20.604663      -560.6814
   2   2.0000     -20.591739      -560.3297
   3   2.0000     -20.548501      -559.1531
   4   2.0000     -15.629550      -425.3017
   5   2.0000     -15.610992      -424.7967
   6   2.0000     -11.393692      -310.0381
   7   2.0000     -11.386124      -309.8322
   8   2.0000     -11.334606      -308.4303
   9   2.0000     -11.322825      -308.1097
  10   2.0000     -11.316178      -307.9288
  11   2.0000     -11.296476      -307.3927
  12   2.0000     -11.268878      -306.6418
  13   2.0000     -11.263673      -306.5001
  14   2.0000     -11.258730      -306.3656
  15   2.0000     -11.255187      -306.2692
  16   2.0000     -11.253133      -306.2133
  17   2.0000     -11.247405      -306.0574
  18   2.0000     -11.247358      -306.0562
  19   2.0000     -11.225964      -305.4740
  20   2.0000      -8.896343      -242.0818
  21   2.0000      -6.577910      -178.9940
  22   2.0000      -6.575915      -178.9398
  23   2.0000      -6.575320      -178.9236
  24   2.0000      -1.446359       -39.3574
  25   2.0000      -1.424450       -38.7613
  26   2.0000      -1.357268       -36.9331
  27   2.0000      -1.342263       -36.5248
  28   2.0000      -1.241465       -33.7820
  29   2.0000      -1.165943       -31.7269
  30   2.0000      -1.124309       -30.5940
  31   2.0000      -1.050288       -28.5798
  32   2.0000      -1.033415       -28.1206
  33   2.0000      -1.024043       -27.8656
  34   2.0000      -1.002340       -27.2750
  35   2.0000      -0.989036       -26.9130
  36   2.0000      -0.927140       -25.2288
  37   2.0000      -0.881693       -23.9921
  38   2.0000      -0.852298       -23.1922
  39   2.0000      -0.844780       -22.9876
  40   2.0000      -0.843024       -22.9398
  41   2.0000      -0.835693       -22.7404
  42   2.0000      -0.758474       -20.6391
  43   2.0000      -0.739514       -20.1232
  44   2.0000      -0.720915       -19.6171
  45   2.0000      -0.703347       -19.1390
  46   2.0000      -0.692447       -18.8424
  47   2.0000      -0.677310       -18.4305
  48   2.0000      -0.673309       -18.3217
  49   2.0000      -0.671656       -18.2767
  50   2.0000      -0.649519       -17.6743
  51   2.0000      -0.648548       -17.6479
  52   2.0000      -0.637164       -17.3381
  53   2.0000      -0.614376       -16.7180
  54   2.0000      -0.608758       -16.5652
  55   2.0000      -0.603745       -16.4287
  56   2.0000      -0.594275       -16.1710
  57   2.0000      -0.583515       -15.8783
  58   2.0000      -0.576991       -15.7007
  59   2.0000      -0.570670       -15.5287
  60   2.0000      -0.561891       -15.2898
  61   2.0000      -0.551262       -15.0006
  62   2.0000      -0.544754       -14.8235
  63   2.0000      -0.530417       -14.4334
  64   2.0000      -0.521647       -14.1947
  65   2.0000      -0.516717       -14.0606
  66   2.0000      -0.505420       -13.7532
  67   2.0000      -0.499994       -13.6055
  68   2.0000      -0.487669       -13.2702
  69   2.0000      -0.467838       -12.7305
  70   2.0000      -0.453069       -12.3286
  71   2.0000      -0.447672       -12.1818
  72   2.0000      -0.358793        -9.7633
  73   2.0000      -0.352855        -9.6017
  74   2.0000      -0.332124        -9.0375
  75   2.0000      -0.329237        -8.9590
  76   2.0000      -0.321322        -8.7436
  77   0.0000       0.077764         2.1161
  78   0.0000       0.094082         2.5601
  79   0.0000       0.119277         3.2457
  80   0.0000       0.126775         3.4497
  81   0.0000       0.128187         3.4881

MULLIKEN ATOMIC CHARGES
-----------------------
   0 C :   -0.255911
   1 C :    0.007405
   2 O :   -0.335786
   3 C :    0.421106
   4 O :   -0.374597
   5 C :   -0.255008
   6 C :    0.165145
   7 C :   -0.272237
   8 N :   -0.130572
   9 C :    0.209291
  10 S :   -0.438279
  11 N :   -0.207944
  12 C :    0.037463
  13 C :   -0.001356
  14 C :   -0.169742
  15 C :   -0.145836
  16 C :   -0.268856
  17 C :    0.304664
  18 O :   -0.354962
  19 C :   -0.220087
  20 H :    0.091829
  21 H :    0.089794
  22 H :    0.103274
  23 H :    0.102053
  24 H :    0.117465
  25 H :    0.118883
  26 H :    0.141101
  27 H :    0.096243
  28 H :    0.199412
  29 H :    0.199967
  30 H :    0.155570
  31 H :    0.153056
  32 H :    0.166414
  33 H :    0.135612
  34 H :    0.242014
  35 H :    0.173414
Sum of atomic charges:   -0.0000000

LOEWDIN ATOMIC CHARGES
----------------------
   0 C :    0.106037
   1 C :   -0.027087
   2 O :    0.305642
   3 C :   -0.425711
   4 O :    0.124598
   5 C :   -0.103332
   6 C :   -0.068458
   7 C :    0.129289
   8 N :    0.406481
   9 C :   -0.456544
  10 S :   -0.033742
  11 N :    0.395305
  12 C :   -0.053959
  13 C :   -0.043414
  14 C :    0.020602
  15 C :    0.042205
  16 C :    0.001444
  17 C :   -0.192016
  18 O :    0.396695
  19 C :    0.034945
  20 H :   -0.028572
  21 H :   -0.027739
  22 H :   -0.024043
  23 H :   -0.037464
  24 H :   -0.024092
  25 H :   -0.008358
  26 H :   -0.003848
  27 H :   -0.021882
  28 H :   -0.056457
  29 H :   -0.063452
  30 H :   -0.010846
  31 H :   -0.026273
  32 H :   -0.018835
  33 H :   -0.033344
  34 H :   -0.152119
  35 H :   -0.021654

  Mayer bond orders larger than 0.100000
B(  0-C ,  1-C ) :   0.9810 B(  0-C , 20-H ) :   0.9777 B(  0-C , 21-H ) :   0.9775
B(  0-C , 22-H ) :   0.9801 B(  1-C ,  2-O ) :   0.8813 B(  1-C , 23-H ) :   0.9599
B(  1-C , 24-H ) :   0.9759 B(  2-O ,  3-C ) :   1.1620 B(  3-C ,  4-O ) :   2.1029
B(  3-C ,  5-C ) :   0.9693 B(  5-C ,  6-C ) :   1.6646 B(  5-C , 12-C ) :   0.9612
B(  6-C ,  7-C ) :   0.9551 B(  6-C ,  8-N ) :   1.1428 B(  7-C , 25-H ) :   0.9735
B(  7-C , 26-H ) :   0.9546 B(  7-C , 27-H ) :   0.9851 B(  8-N ,  9-C ) :   1.1919
B(  8-N , 28-H ) :   0.9483 B(  9-C , 10-S ) :   1.6139 B(  9-C , 11-N ) :   1.2954
B( 11-N , 12-C ) :   0.9778 B( 11-N , 29-H ) :   0.9478 B( 12-C , 13-C ) :   0.9639
B( 12-C , 30-H ) :   1.0072 B( 13-C , 14-C ) :   1.3610 B( 13-C , 19-C ) :   1.3539
B( 14-C , 15-C ) :   1.3955 B( 14-C , 31-H ) :   0.9733 B( 15-C , 16-C ) :   1.3614
B( 15-C , 32-H ) :   0.9697 B( 16-C , 17-C ) :   1.3285 B( 16-C , 33-H ) :   0.9831
B( 17-C , 18-O ) :   1.1102 B( 17-C , 19-C ) :   1.3664 B( 18-O , 34-H ) :   0.9785
B( 19-C , 35-H ) :   0.9583

MP2 TOTAL ENERGY:    -1274.325470340 Eh
FINAL SINGLE POINT ENERGY     -1274.325470339676

DIPOLE MOMENT
-------------
                                X             Y             Z
Electronic contribution:     10.15804       8.70853       7.46136
Nuclear contribution   :    -11.49908     -10.30620      -7.10375
                        -----------------------------------------
Total Dipole Moment    :     -1.34104      -1.59767       0.35761
                        -----------------------------------------
Magnitude (a.u.)       :      2.11632
Magnitude (Debye)      :      5.37926

Rotational constants in cm-1:     0.011852     0.008948     0.006071
Rotational constants in MHz :   355.317815   268.259867   182.014999

                             ****ORCA TERMINATED NORMALLY****
TOTAL RUN TIME: 0 days 2 hours 8 minutes 9 seconds 538 msec
