                         Program Version 4.2.0 -  RELEASE  -
|  1> ! ri-mp2 cc-pvtz cc-pvtz/c TightSCF NoKeepInts
|  2>
|  3> %scf
|  4>   MaxCore 4096
|  5> end
|  6> *xyz  0  1
|  7>     C       13.7721955   16.1082701   14.5403582
|  8>     C       14.8112314   16.2482241   15.6649717
|  9>     O       16.1112869   16.0707320   15.0658054
| 10>     C       17.2710475   16.6002831   15.5734111
| 11>     O       18.3573269   16.1474322   15.2641594
| 12>     C       17.1317642   17.6722892   16.6028389
| 13>     C       16.6725617   18.8955660   16.2430074
| 14>     C       16.0344890   19.2774673   14.9216293
| 15>     N       16.8344345   19.9967317   17.0854632
| 16>     C       17.6604219   20.0104738   18.1787639
| 17>     S       17.9002494   21.3811891   19.0719343
| 18>     N       18.2985167   18.8315694   18.4789920
| 19>     C       18.0386793   17.5334671   17.8243001
| 20>     C       17.5979948   16.4164052   18.7575522
| 21>     C       18.1450817   15.1279426   18.6225844
| 22>     C       17.7281289   14.0837421   19.4647907
| 23>     C       16.7533087   14.3299440   20.4469390
| 24>     C       16.2011348   15.6116385   20.5780130
| 25>     O       15.2522949   15.8495243   21.5181047
| 26>     C       16.6170248   16.6492496   19.7373114
| 27>     H       12.7555341   16.2128300   14.9384868
| 28>     H       13.8533034   15.1239231   14.0619459
| 29>     H       13.9231979   16.8776039   13.7730672
| 30>     H       14.6833192   17.2306095   16.1305018
| 31>     H       14.6474148   15.4828491   16.4354370
| 32>     H       14.9430936   19.3355269   15.0111622
| 33>     H       16.2689170   18.5644983   14.1214938
| 34>     H       16.3945667   20.2548100   14.5753010
| 35>     H       16.4041135   20.8781871   16.8532788
| 36>     H       18.9005796   18.8672082   19.2922276
| 37>     H       19.0409183   17.3152640   17.4255867
| 38>     H       18.8903644   14.9342888   17.8534089
| 39>     H       18.1577383   13.0897383   19.3511076
| 40>     H       16.4276939   13.5256514   21.0984420
| 41>     H       15.1318466   15.0312125   22.0233054
| 42>     H       16.1752253   17.6336577   19.8523168
| 43> *
| 44>
| 45>                          ****END OF INPUT****

CARTESIAN COORDINATES (ANGSTROEM)
---------------------------------
  C     13.772195   16.108270   14.540358
  C     14.811231   16.248224   15.664972
  O     16.111287   16.070732   15.065805
  C     17.271048   16.600283   15.573411
  O     18.357327   16.147432   15.264159
  C     17.131764   17.672289   16.602839
  C     16.672562   18.895566   16.243007
  C     16.034489   19.277467   14.921629
  N     16.834435   19.996732   17.085463
  C     17.660422   20.010474   18.178764
  S     17.900249   21.381189   19.071934
  N     18.298517   18.831569   18.478992
  C     18.038679   17.533467   17.824300
  C     17.597995   16.416405   18.757552
  C     18.145082   15.127943   18.622584
  C     17.728129   14.083742   19.464791
  C     16.753309   14.329944   20.446939
  C     16.201135   15.611638   20.578013
  O     15.252295   15.849524   21.518105
  C     16.617025   16.649250   19.737311
  H     12.755534   16.212830   14.938487
  H     13.853303   15.123923   14.061946
  H     13.923198   16.877604   13.773067
  H     14.683319   17.230609   16.130502
  H     14.647415   15.482849   16.435437
  H     14.943094   19.335527   15.011162
  H     16.268917   18.564498   14.121494
  H     16.394567   20.254810   14.575301
  H     16.404114   20.878187   16.853279
  H     18.900580   18.867208   19.292228
  H     19.040918   17.315264   17.425587
  H     18.890364   14.934289   17.853409
  H     18.157738   13.089738   19.351108
  H     16.427694   13.525651   21.098442
  H     15.131847   15.031212   22.023305
  H     16.175225   17.633658   19.852317

 Total Charge           Charge          ....    0
 Multiplicity           Mult            ....    1
 Number of Electrons    NEL             ....  154
 Basis Dimension        Dim             ....  828

ORBITAL ENERGIES
----------------

  NO   OCC          E(Eh)            E(eV)
   0   2.0000     -91.889718     -2500.4463
   1   2.0000     -20.604888      -560.6875
   2   2.0000     -20.599072      -560.5292
   3   2.0000     -20.550736      -559.2140
   4   2.0000     -15.627796      -425.2539
   5   2.0000     -15.609556      -424.7576
   6   2.0000     -11.399595      -310.1988
   7   2.0000     -11.385710      -309.8209
   8   2.0000     -11.333245      -308.3933
   9   2.0000     -11.316341      -307.9333
  10   2.0000     -11.310193      -307.7660
  11   2.0000     -11.306624      -307.6689
  12   2.0000     -11.268469      -306.6306
  13   2.0000     -11.264271      -306.5164
  14   2.0000     -11.263728      -306.5016
  15   2.0000     -11.256721      -306.3109
  16   2.0000     -11.245438      -306.0039
  17   2.0000     -11.241555      -305.8983
  18   2.0000     -11.239083      -305.8310
  19   2.0000     -11.237696      -305.7933
  20   2.0000      -8.894825      -242.0405
  21   2.0000      -6.576407      -178.9531
  22   2.0000      -6.574394      -178.8984
  23   2.0000      -6.573812      -178.8825
  24   2.0000      -1.449504       -39.4430
  25   2.0000      -1.418762       -38.6065
  26   2.0000      -1.362871       -37.0856
  27   2.0000      -1.340808       -36.4852
  28   2.0000      -1.239184       -33.7199
  29   2.0000      -1.160844       -31.5882
  30   2.0000      -1.126621       -30.6569
  31   2.0000      -1.048402       -28.5285
  32   2.0000      -1.044131       -28.4123
  33   2.0000      -1.018631       -27.7184
  34   2.0000      -1.005869       -27.3711
  35   2.0000      -0.989849       -26.9352
  36   2.0000      -0.926385       -25.2082
  37   2.0000      -0.884666       -24.0730
  38   2.0000      -0.855438       -23.2776
  39   2.0000      -0.842626       -22.9290
  40   2.0000      -0.837519       -22.7901
  41   2.0000      -0.835591       -22.7376
  42   2.0000      -0.759427       -20.6651
  43   2.0000      -0.739901       -20.1337
  44   2.0000      -0.732419       -19.9301
  45   2.0000      -0.696513       -18.9531
  46   2.0000      -0.689427       -18.7602
  47   2.0000      -0.682635       -18.5754
  48   2.0000      -0.673893       -18.3376
  49   2.0000      -0.665936       -18.1210
  50   2.0000      -0.654882       -17.8202
  51   2.0000      -0.648076       -17.6350
  52   2.0000      -0.638824       -17.3833
  53   2.0000      -0.613957       -16.7066
  54   2.0000      -0.607138       -16.5211
  55   2.0000      -0.602811       -16.4033
  56   2.0000      -0.599933       -16.3250
  57   2.0000      -0.585728       -15.9385
  58   2.0000      -0.577660       -15.7189
  59   2.0000      -0.569105       -15.4861
  60   2.0000      -0.562120       -15.2961
  61   2.0000      -0.561233       -15.2719
  62   2.0000      -0.547937       -14.9101
  63   2.0000      -0.533269       -14.5110
  64   2.0000      -0.522840       -14.2272
  65   2.0000      -0.515109       -14.0168
  66   2.0000      -0.506006       -13.7691
  67   2.0000      -0.501265       -13.6401
  68   2.0000      -0.488147       -13.2832
  69   2.0000      -0.468650       -12.7526
  70   2.0000      -0.458735       -12.4828
  71   2.0000      -0.451531       -12.2868
  72   2.0000      -0.356121        -9.6905
  73   2.0000      -0.351212        -9.5570
  74   2.0000      -0.329201        -8.9580
  75   2.0000      -0.324037        -8.8175
  76   2.0000      -0.319476        -8.6934
  77   0.0000       0.085282         2.3206
  78   0.0000       0.104858         2.8533
  79   0.0000       0.115035         3.1303
  80   0.0000       0.128577         3.4988
  81   0.0000       0.130445         3.5496

MULLIKEN ATOMIC CHARGES
-----------------------
   0 C :   -0.262394
   1 C :    0.024298
   2 O :   -0.316415
   3 C :    0.416003
   4 O :   -0.382906
   5 C :   -0.214592
   6 C :    0.147428
   7 C :   -0.330915
   8 N :   -0.138717
   9 C :    0.209948
  10 S :   -0.442809
  11 N :   -0.222285
  12 C :    0.054281
  13 C :    0.031316
  14 C :   -0.225055
  15 C :   -0.127177
  16 C :   -0.277722
  17 C :    0.314930
  18 O :   -0.356072
  19 C :   -0.251157
  20 H :    0.091246
  21 H :    0.109283
  22 H :    0.092996
  23 H :    0.092271
  24 H :    0.120756
  25 H :    0.123404
  26 H :    0.134520
  27 H :    0.133344
  28 H :    0.197850
  29 H :    0.202655
  30 H :    0.167765
  31 H :    0.174854
  32 H :    0.164448
  33 H :    0.131286
  34 H :    0.241242
  35 H :    0.172093
Sum of atomic charges:   -0.0000000

LOEWDIN ATOMIC CHARGES
----------------------
   0 C :    0.108406
   1 C :   -0.019116
   2 O :    0.307343
   3 C :   -0.415654
   4 O :    0.120332
   5 C :   -0.085178
   6 C :   -0.092452
   7 C :    0.126575
   8 N :    0.402391
   9 C :   -0.456309
  10 S :   -0.038242
  11 N :    0.396162
  12 C :   -0.049795
  13 C :   -0.043726
  14 C :    0.019414
  15 C :    0.044688
  16 C :   -0.000183
  17 C :   -0.191073
  18 O :    0.394873
  19 C :    0.027269
  20 H :   -0.024415
  21 H :   -0.022739
  22 H :   -0.029345
  23 H :   -0.039677
  24 H :   -0.027086
  25 H :   -0.017084
  26 H :   -0.007760
  27 H :   -0.010665
  28 H :   -0.057477
  29 H :   -0.063609
  30 H :   -0.004159
  31 H :   -0.021532
  32 H :   -0.018666
  33 H :   -0.034910
  34 H :   -0.153254
  35 H :   -0.023346

  Mayer bond orders larger than 0.100000
B(  0-C ,  1-C ) :   0.9753 B(  0-C , 20-H ) :   0.9753 B(  0-C , 21-H ) :   0.9779
B(  0-C , 22-H ) :   0.9774 B(  1-C ,  2-O ) :   0.9028 B(  1-C , 23-H ) :   0.9638
B(  1-C , 24-H ) :   0.9775 B(  2-O ,  3-C ) :   1.1823 B(  3-C ,  4-O ) :   2.1006
B(  3-C ,  5-C ) :   0.9258 B(  5-C ,  6-C ) :   1.7189 B(  5-C , 12-C ) :   0.9425
B(  6-C ,  7-C ) :   0.9345 B(  6-C ,  8-N ) :   1.1069 B(  7-C , 25-H ) :   0.9655
B(  7-C , 26-H ) :   0.9743 B(  7-C , 27-H ) :   0.9785 B(  8-N ,  9-C ) :   1.1962
B(  8-N , 28-H ) :   0.9508 B(  9-C , 10-S ) :   1.6100 B(  9-C , 11-N ) :   1.2914
B( 11-N , 12-C ) :   0.9832 B( 11-N , 29-H ) :   0.9473 B( 12-C , 13-C ) :   0.9685
B( 12-C , 30-H ) :   0.9889 B( 13-C , 14-C ) :   1.3837 B( 13-C , 19-C ) :   1.3548
B( 14-C , 15-C ) :   1.3942 B( 14-C , 31-H ) :   0.9603 B( 15-C , 16-C ) :   1.3617
B( 15-C , 32-H ) :   0.9696 B( 16-C , 17-C ) :   1.3309 B( 16-C , 33-H ) :   0.9851
B( 17-C , 18-O ) :   1.1084 B( 17-C , 19-C ) :   1.3668 B( 18-O , 34-H ) :   0.9794
B( 19-C , 35-H ) :   0.9564

MP2 TOTAL ENERGY:    -1274.330036265 Eh
FINAL SINGLE POINT ENERGY     -1274.330036264816

DIPOLE MOMENT
-------------
                                X             Y             Z
Electronic contribution:     11.07580       6.56077       9.90242
Nuclear contribution   :    -12.73595      -7.76714     -10.23078
                        -----------------------------------------
Total Dipole Moment    :     -1.66015      -1.20637      -0.32836
                        -----------------------------------------
Magnitude (a.u.)       :      2.07828
Magnitude (Debye)      :      5.28256

Rotational constants in cm-1:     0.010222     0.009217     0.006138
Rotational constants in MHz :   306.438892   276.315574   184.007114

                             ****ORCA TERMINATED NORMALLY****
TOTAL RUN TIME: 0 days 1 hours 46 minutes 43 seconds 859 msec
