                         Program Version 4.2.0 -  RELEASE  -
|  1> ! ri-mp2 cc-pvtz cc-pvtz/c TightSCF NoKeepInts
|  2>
|  3> %scf
|  4>   MaxCore 4096
|  5> end
|  6> *xyz  0  1
|  7>     C       13.9589197   16.1408958   15.5015140
|  8>     C       15.1881315   15.5834518   14.7618198
|  9>     O       16.1592062   16.6379589   14.6646362
| 10>     C       17.1903287   16.6156070   15.5532329
| 11>     O       17.9346645   15.6549887   15.6494988
| 12>     C       17.1813057   17.7445084   16.5406106
| 13>     C       16.8171195   19.0065956   16.1957114
| 14>     C       16.1765684   19.4631826   14.9000815
| 15>     N       17.0726006   20.0806569   17.0517087
| 16>     C       17.8742512   20.0129512   18.1595720
| 17>     S       18.2185599   21.3499859   19.0700871
| 18>     N       18.3948779   18.7799185   18.4625075
| 19>     C       18.0429066   17.5158428   17.7866107
| 20>     C       17.4646053   16.4664995   18.7261446
| 21>     C       18.0373788   15.1847251   18.8088435
| 22>     C       17.4971287   14.2150496   19.6701143
| 23>     C       16.3742951   14.5300559   20.4546442
| 24>     C       15.7994137   15.8057117   20.3710880
| 25>     O       14.7109031   16.1103826   21.1217148
| 26>     C       16.3392707   16.7686620   19.5125608
| 27>     H       14.2259727   16.4509567   16.5199355
| 28>     H       13.1761044   15.3759471   15.5732849
| 29>     H       13.5440932   17.0062377   14.9703011
| 30>     H       15.5909032   14.7050396   15.2859264
| 31>     H       14.8882076   15.2706127   13.7533404
| 32>     H       16.7489297   19.1071320   14.0341252
| 33>     H       16.1187935   20.5553064   14.8164922
| 34>     H       15.1555017   19.0724962   14.8129240
| 35>     H       16.7173696   20.9967191   16.8288163
| 36>     H       18.9670166   18.7535798   19.2971458
| 37>     H       19.0311629   17.2050258   17.4171287
| 38>     H       18.8955549   14.9355727   18.1888352
| 39>     H       17.9456372   13.2245057   19.7217141
| 40>     H       15.9529003   13.7834239   21.1194769
| 41>     H       14.5139923   15.3384041   21.6733280
| 42>     H       15.8824242   17.7514102   19.4625238
| 43> *
| 44>
| 45>                          ****END OF INPUT****

CARTESIAN COORDINATES (ANGSTROEM)
---------------------------------
  C     13.958920   16.140896   15.501514
  C     15.188131   15.583452   14.761820
  O     16.159206   16.637959   14.664636
  C     17.190329   16.615607   15.553233
  O     17.934664   15.654989   15.649499
  C     17.181306   17.744508   16.540611
  C     16.817120   19.006596   16.195711
  C     16.176568   19.463183   14.900082
  N     17.072601   20.080657   17.051709
  C     17.874251   20.012951   18.159572
  S     18.218560   21.349986   19.070087
  N     18.394878   18.779919   18.462508
  C     18.042907   17.515843   17.786611
  C     17.464605   16.466500   18.726145
  C     18.037379   15.184725   18.808843
  C     17.497129   14.215050   19.670114
  C     16.374295   14.530056   20.454644
  C     15.799414   15.805712   20.371088
  O     14.710903   16.110383   21.121715
  C     16.339271   16.768662   19.512561
  H     14.225973   16.450957   16.519935
  H     13.176104   15.375947   15.573285
  H     13.544093   17.006238   14.970301
  H     15.590903   14.705040   15.285926
  H     14.888208   15.270613   13.753340
  H     16.748930   19.107132   14.034125
  H     16.118793   20.555306   14.816492
  H     15.155502   19.072496   14.812924
  H     16.717370   20.996719   16.828816
  H     18.967017   18.753580   19.297146
  H     19.031163   17.205026   17.417129
  H     18.895555   14.935573   18.188835
  H     17.945637   13.224506   19.721714
  H     15.952900   13.783424   21.119477
  H     14.513992   15.338404   21.673328
  H     15.882424   17.751410   19.462524

 Total Charge           Charge          ....    0
 Multiplicity           Mult            ....    1
 Number of Electrons    NEL             ....  154
 Basis Dimension        Dim             ....  828

ORBITAL ENERGIES
----------------

  NO   OCC          E(Eh)            E(eV)
   0   2.0000     -91.889248     -2500.4336
   1   2.0000     -20.594738      -560.4113
   2   2.0000     -20.590576      -560.2981
   3   2.0000     -20.550711      -559.2133
   4   2.0000     -15.629855      -425.3100
   5   2.0000     -15.607039      -424.6891
   6   2.0000     -11.394237      -310.0530
   7   2.0000     -11.384053      -309.7758
   8   2.0000     -11.338560      -308.5379
   9   2.0000     -11.311012      -307.7883
  10   2.0000     -11.305514      -307.6387
  11   2.0000     -11.301920      -307.5409
  12   2.0000     -11.260220      -306.4062
  13   2.0000     -11.259766      -306.3938
  14   2.0000     -11.257975      -306.3451
  15   2.0000     -11.250960      -306.1542
  16   2.0000     -11.241016      -305.8836
  17   2.0000     -11.237236      -305.7807
  18   2.0000     -11.233847      -305.6885
  19   2.0000     -11.231907      -305.6357
  20   2.0000      -8.894324      -242.0269
  21   2.0000      -6.575899      -178.9393
  22   2.0000      -6.573898      -178.8848
  23   2.0000      -6.573307      -178.8688
  24   2.0000      -1.453359       -39.5479
  25   2.0000      -1.414499       -38.4905
  26   2.0000      -1.358250       -36.9598
  27   2.0000      -1.340937       -36.4887
  28   2.0000      -1.238158       -33.6920
  29   2.0000      -1.155365       -31.4391
  30   2.0000      -1.122383       -30.5416
  31   2.0000      -1.044421       -28.4201
  32   2.0000      -1.035973       -28.1903
  33   2.0000      -1.012863       -27.5614
  34   2.0000      -1.000905       -27.2360
  35   2.0000      -0.986237       -26.8369
  36   2.0000      -0.922627       -25.1059
  37   2.0000      -0.890584       -24.2340
  38   2.0000      -0.848525       -23.0895
  39   2.0000      -0.837511       -22.7898
  40   2.0000      -0.831103       -22.6155
  41   2.0000      -0.820801       -22.3351
  42   2.0000      -0.759480       -20.6665
  43   2.0000      -0.736878       -20.0515
  44   2.0000      -0.728247       -19.8166
  45   2.0000      -0.693062       -18.8592
  46   2.0000      -0.685528       -18.6542
  47   2.0000      -0.679249       -18.4833
  48   2.0000      -0.675262       -18.3748
  49   2.0000      -0.660581       -17.9753
  50   2.0000      -0.652614       -17.7585
  51   2.0000      -0.644553       -17.5392
  52   2.0000      -0.635305       -17.2875
  53   2.0000      -0.606339       -16.4993
  54   2.0000      -0.601323       -16.3628
  55   2.0000      -0.598152       -16.2765
  56   2.0000      -0.592826       -16.1316
  57   2.0000      -0.585947       -15.9444
  58   2.0000      -0.575271       -15.6539
  59   2.0000      -0.568932       -15.4814
  60   2.0000      -0.561783       -15.2869
  61   2.0000      -0.553715       -15.0673
  62   2.0000      -0.545415       -14.8415
  63   2.0000      -0.519870       -14.1464
  64   2.0000      -0.518947       -14.1213
  65   2.0000      -0.512017       -13.9327
  66   2.0000      -0.502997       -13.6873
  67   2.0000      -0.496291       -13.5048
  68   2.0000      -0.482311       -13.1244
  69   2.0000      -0.463527       -12.6132
  70   2.0000      -0.457012       -12.4359
  71   2.0000      -0.453592       -12.3429
  72   2.0000      -0.354055        -9.6343
  73   2.0000      -0.347372        -9.4525
  74   2.0000      -0.328316        -8.9339
  75   2.0000      -0.318502        -8.6669
  76   2.0000      -0.317677        -8.6444
  77   0.0000       0.073161         1.9908
  78   0.0000       0.106508         2.8982
  79   0.0000       0.120327         3.2743
  80   0.0000       0.133795         3.6408
  81   0.0000       0.139356         3.7921

MULLIKEN ATOMIC CHARGES
-----------------------
   0 C :   -0.299233
   1 C :    0.040050
   2 O :   -0.369357
   3 C :    0.463022
   4 O :   -0.401510
   5 C :   -0.213791
   6 C :    0.157007
   7 C :   -0.284751
   8 N :   -0.127779
   9 C :    0.206943
  10 S :   -0.440684
  11 N :   -0.210732
  12 C :    0.046547
  13 C :    0.034485
  14 C :   -0.176265
  15 C :   -0.132577
  16 C :   -0.278046
  17 C :    0.315595
  18 O :   -0.358723
  19 C :   -0.261875
  20 H :    0.107108
  21 H :    0.109494
  22 H :    0.091855
  23 H :    0.104807
  24 H :    0.105086
  25 H :    0.128086
  26 H :    0.104257
  27 H :    0.126115
  28 H :    0.198669
  29 H :    0.199559
  30 H :    0.156305
  31 H :    0.162331
  32 H :    0.161478
  33 H :    0.129533
  34 H :    0.240515
  35 H :    0.166476
Sum of atomic charges:   -0.0000000

LOEWDIN ATOMIC CHARGES
----------------------
   0 C :    0.102367
   1 C :   -0.016936
   2 O :    0.300109
   3 C :   -0.420430
   4 O :    0.118636
   5 C :   -0.096155
   6 C :   -0.066336
   7 C :    0.126477
   8 N :    0.405812
   9 C :   -0.457875
  10 S :   -0.036485
  11 N :    0.396079
  12 C :   -0.048720
  13 C :   -0.041786
  14 C :    0.024317
  15 C :    0.041672
  16 C :   -0.000990
  17 C :   -0.193241
  18 O :    0.393348
  19 C :    0.028765
  20 H :   -0.027118
  21 H :   -0.024385
  22 H :   -0.030980
  23 H :   -0.024620
  24 H :   -0.025598
  25 H :   -0.007512
  26 H :   -0.020396
  27 H :   -0.011381
  28 H :   -0.058337
  29 H :   -0.063448
  30 H :   -0.007283
  31 H :   -0.023185
  32 H :   -0.020398
  33 H :   -0.035750
  34 H :   -0.154310
  35 H :   -0.023926

  Mayer bond orders larger than 0.100000
B(  0-C ,  1-C ) :   0.9658 B(  0-C , 20-H ) :   0.9718 B(  0-C , 21-H ) :   0.9780
B(  0-C , 22-H ) :   0.9785 B(  1-C ,  2-O ) :   0.8924 B(  1-C , 23-H ) :   0.9727
B(  1-C , 24-H ) :   0.9857 B(  2-O ,  3-C ) :   1.0944 B(  3-C ,  4-O ) :   2.0299
B(  3-C ,  5-C ) :   1.0180 B(  5-C ,  6-C ) :   1.6644 B(  5-C , 12-C ) :   0.9524
B(  6-C ,  7-C ) :   0.9556 B(  6-C ,  8-N ) :   1.1401 B(  7-C , 25-H ) :   0.9659
B(  7-C , 26-H ) :   0.9889 B(  7-C , 27-H ) :   0.9651 B(  8-N ,  9-C ) :   1.1851
B(  8-N , 28-H ) :   0.9471 B(  9-C , 10-S ) :   1.6111 B(  9-C , 11-N ) :   1.3032
B( 11-N , 12-C ) :   0.9815 B( 11-N , 29-H ) :   0.9487 B( 12-C , 13-C ) :   0.9695
B( 12-C , 30-H ) :   0.9950 B( 13-C , 14-C ) :   1.3788 B( 13-C , 19-C ) :   1.3600
B( 14-C , 15-C ) :   1.3963 B( 14-C , 31-H ) :   0.9625 B( 15-C , 16-C ) :   1.3601
B( 15-C , 32-H ) :   0.9707 B( 16-C , 17-C ) :   1.3327 B( 16-C , 33-H ) :   0.9855
B( 17-C , 18-O ) :   1.1052 B( 17-C , 19-C ) :   1.3645 B( 18-O , 34-H ) :   0.9802
B( 19-C , 35-H ) :   0.9600

MP2 TOTAL ENERGY:    -1274.329859353 Eh
FINAL SINGLE POINT ENERGY     -1274.329859353435

DIPOLE MOMENT
-------------
                                X             Y             Z
Electronic contribution:     10.43126       7.72744       8.32445
Nuclear contribution   :    -11.79332      -9.04271      -9.12534
                        -----------------------------------------
Total Dipole Moment    :     -1.36206      -1.31527      -0.80090
                        -----------------------------------------
Magnitude (a.u.)       :      2.05586
Magnitude (Debye)      :      5.22558

Rotational constants in cm-1:     0.010621     0.009260     0.006220
Rotational constants in MHz :   318.401009   277.598579   186.456087

                             ****ORCA TERMINATED NORMALLY****
TOTAL RUN TIME: 0 days 1 hours 52 minutes 42 seconds 908 msec
