                         Program Version 4.2.0 -  RELEASE  -
|  1> ! ri-mp2 cc-pvtz cc-pvtz/c TightSCF NoKeepInts
|  2>
|  3> %scf
|  4>   MaxCore 4096
|  5> end
|  6> *xyz  0  1
|  7>     C       14.0781688   15.1469972   14.8986838
|  8>     C       15.2498758   15.7303116   14.0882739
|  9>     O       15.7857096   16.8466529   14.8221989
| 10>     C       16.7740052   16.6442785   15.7434467
| 11>     O       17.3635813   15.5807535   15.8460162
| 12>     C       17.0223963   17.7991465   16.6740083
| 13>     C       16.7906425   19.0938602   16.3280142
| 14>     C       16.0521159   19.6200039   15.1127246
| 15>     N       17.2871781   20.1403952   17.1096611
| 16>     C       18.1988631   19.9899891   18.1191970
| 17>     S       18.8260974   21.2882651   18.9295517
| 18>     N       18.5819318   18.7051212   18.4077719
| 19>     C       17.9854843   17.4866557   17.8271301
| 20>     C       17.3960486   16.5516688   18.8751675
| 21>     C       17.8172139   15.2123844   18.9603468
| 22>     C       17.2732005   14.3522845   19.9289961
| 23>     C       16.3008246   14.8362192   20.8209942
| 24>     C       15.8780797   16.1700462   20.7370439
| 25>     O       14.9364770   16.6387505   21.5944157
| 26>     C       16.4211409   17.0235290   19.7713627
| 27>     H       14.4318627   14.7522989   15.8598927
| 28>     H       13.6012926   14.3266996   14.3487043
| 29>     H       13.3207225   15.9155228   15.0964307
| 30>     H       16.0123217   14.9645137   13.8894634
| 31>     H       14.8673174   16.0843745   13.1224705
| 32>     H       16.5147482   19.2554381   14.1871131
| 33>     H       16.0458931   20.7154406   15.0582857
| 34>     H       15.0056314   19.2901790   15.1225619
| 35>     H       17.0316199   21.0910872   16.8960003
| 36>     H       19.2378675   18.6191731   19.1738629
| 37>     H       18.8743184   17.0362841   17.3617412
| 38>     H       18.5577115   14.8336649   18.2597892
| 39>     H       17.6017686   13.3158758   19.9806985
| 40>     H       15.8769152   14.1749753   21.5692818
| 41>     H       14.7040252   15.9136494   22.1935027
| 42>     H       16.0839485   18.0535097   19.7231954
| 43> *
| 44>
| 45>                          ****END OF INPUT****

CARTESIAN COORDINATES (ANGSTROEM)
---------------------------------
  C     14.078169   15.146997   14.898684
  C     15.249876   15.730312   14.088274
  O     15.785710   16.846653   14.822199
  C     16.774005   16.644278   15.743447
  O     17.363581   15.580754   15.846016
  C     17.022396   17.799146   16.674008
  C     16.790643   19.093860   16.328014
  C     16.052116   19.620004   15.112725
  N     17.287178   20.140395   17.109661
  C     18.198863   19.989989   18.119197
  S     18.826097   21.288265   18.929552
  N     18.581932   18.705121   18.407772
  C     17.985484   17.486656   17.827130
  C     17.396049   16.551669   18.875167
  C     17.817214   15.212384   18.960347
  C     17.273200   14.352284   19.928996
  C     16.300825   14.836219   20.820994
  C     15.878080   16.170046   20.737044
  O     14.936477   16.638751   21.594416
  C     16.421141   17.023529   19.771363
  H     14.431863   14.752299   15.859893
  H     13.601293   14.326700   14.348704
  H     13.320723   15.915523   15.096431
  H     16.012322   14.964514   13.889463
  H     14.867317   16.084374   13.122471
  H     16.514748   19.255438   14.187113
  H     16.045893   20.715441   15.058286
  H     15.005631   19.290179   15.122562
  H     17.031620   21.091087   16.896000
  H     19.237868   18.619173   19.173863
  H     18.874318   17.036284   17.361741
  H     18.557711   14.833665   18.259789
  H     17.601769   13.315876   19.980698
  H     15.876915   14.174975   21.569282
  H     14.704025   15.913649   22.193503
  H     16.083949   18.053510   19.723195

 Total Charge           Charge          ....    0
 Multiplicity           Mult            ....    1
 Number of Electrons    NEL             ....  154
 Basis Dimension        Dim             ....  828

ORBITAL ENERGIES
----------------

  NO   OCC          E(Eh)            E(eV)
   0   2.0000     -91.887832     -2500.3950
   1   2.0000     -20.604121      -560.6666
   2   2.0000     -20.591399      -560.3205
   3   2.0000     -20.544968      -559.0570
   4   2.0000     -15.628379      -425.2698
   5   2.0000     -15.605511      -424.6475
   6   2.0000     -11.396583      -310.1168
   7   2.0000     -11.382344      -309.7293
   8   2.0000     -11.338194      -308.5279
   9   2.0000     -11.307395      -307.6899
  10   2.0000     -11.304033      -307.5984
  11   2.0000     -11.299332      -307.4705
  12   2.0000     -11.261204      -306.4330
  13   2.0000     -11.258834      -306.3684
  14   2.0000     -11.254654      -306.2547
  15   2.0000     -11.247493      -306.0598
  16   2.0000     -11.237710      -305.7936
  17   2.0000     -11.233813      -305.6876
  18   2.0000     -11.230588      -305.5998
  19   2.0000     -11.228708      -305.5487
  20   2.0000      -8.892917      -241.9886
  21   2.0000      -6.574495      -178.9011
  22   2.0000      -6.572491      -178.8466
  23   2.0000      -6.571904      -178.8306
  24   2.0000      -1.454250       -39.5721
  25   2.0000      -1.411149       -38.3993
  26   2.0000      -1.357300       -36.9340
  27   2.0000      -1.339745       -36.4563
  28   2.0000      -1.236899       -33.6577
  29   2.0000      -1.152083       -31.3498
  30   2.0000      -1.120548       -30.4917
  31   2.0000      -1.042931       -28.3796
  32   2.0000      -1.034857       -28.1599
  33   2.0000      -1.009576       -27.4720
  34   2.0000      -0.998483       -27.1701
  35   2.0000      -0.983379       -26.7591
  36   2.0000      -0.920650       -25.0522
  37   2.0000      -0.893149       -24.3038
  38   2.0000      -0.847391       -23.0587
  39   2.0000      -0.834569       -22.7098
  40   2.0000      -0.827704       -22.5230
  41   2.0000      -0.815366       -22.1872
  42   2.0000      -0.757192       -20.6042
  43   2.0000      -0.736379       -20.0379
  44   2.0000      -0.725837       -19.7510
  45   2.0000      -0.690757       -18.7964
  46   2.0000      -0.685730       -18.6597
  47   2.0000      -0.679609       -18.4931
  48   2.0000      -0.669213       -18.2102
  49   2.0000      -0.655945       -17.8492
  50   2.0000      -0.649615       -17.6769
  51   2.0000      -0.644469       -17.5369
  52   2.0000      -0.631231       -17.1767
  53   2.0000      -0.608574       -16.5601
  54   2.0000      -0.602028       -16.3820
  55   2.0000      -0.597837       -16.2680
  56   2.0000      -0.594590       -16.1796
  57   2.0000      -0.581209       -15.8155
  58   2.0000      -0.573463       -15.6047
  59   2.0000      -0.562899       -15.3173
  60   2.0000      -0.558602       -15.2003
  61   2.0000      -0.551017       -14.9939
  62   2.0000      -0.534200       -14.5363
  63   2.0000      -0.533794       -14.5253
  64   2.0000      -0.515358       -14.0236
  65   2.0000      -0.508295       -13.8314
  66   2.0000      -0.497735       -13.5441
  67   2.0000      -0.493788       -13.4367
  68   2.0000      -0.481859       -13.1120
  69   2.0000      -0.464309       -12.6345
  70   2.0000      -0.458746       -12.4831
  71   2.0000      -0.451565       -12.2877
  72   2.0000      -0.353083        -9.6079
  73   2.0000      -0.344277        -9.3683
  74   2.0000      -0.326911        -8.8957
  75   2.0000      -0.317020        -8.6266
  76   2.0000      -0.314017        -8.5448
  77   0.0000       0.077787         2.1167
  78   0.0000       0.111936         3.0459
  79   0.0000       0.120556         3.2805
  80   0.0000       0.136231         3.7070
  81   0.0000       0.141126         3.8402

MULLIKEN ATOMIC CHARGES
-----------------------
   0 C :   -0.280849
   1 C :    0.021579
   2 O :   -0.348767
   3 C :    0.426757
   4 O :   -0.426774
   5 C :   -0.172298
   6 C :    0.160097
   7 C :   -0.280166
   8 N :   -0.129028
   9 C :    0.207392
  10 S :   -0.442717
  11 N :   -0.210897
  12 C :    0.042259
  13 C :    0.031675
  14 C :   -0.166930
  15 C :   -0.134625
  16 C :   -0.277096
  17 C :    0.314167
  18 O :   -0.359063
  19 C :   -0.250804
  20 H :    0.109873
  21 H :    0.094365
  22 H :    0.093332
  23 H :    0.115859
  24 H :    0.103524
  25 H :    0.124828
  26 H :    0.101378
  27 H :    0.129419
  28 H :    0.198847
  29 H :    0.199943
  30 H :    0.155115
  31 H :    0.158599
  32 H :    0.159856
  33 H :    0.128158
  34 H :    0.239861
  35 H :    0.163133
Sum of atomic charges:   -0.0000000

LOEWDIN ATOMIC CHARGES
----------------------
   0 C :    0.105473
   1 C :   -0.017181
   2 O :    0.307389
   3 C :   -0.414849
   4 O :    0.101916
   5 C :   -0.090977
   6 C :   -0.063904
   7 C :    0.125019
   8 N :    0.405429
   9 C :   -0.458704
  10 S :   -0.037848
  11 N :    0.396568
  12 C :   -0.048269
  13 C :   -0.040533
  14 C :    0.024907
  15 C :    0.040703
  16 C :   -0.001190
  17 C :   -0.192484
  18 O :    0.393084
  19 C :    0.029837
  20 H :   -0.023363
  21 H :   -0.026072
  22 H :   -0.028714
  23 H :   -0.027723
  24 H :   -0.027746
  25 H :   -0.009490
  26 H :   -0.021347
  27 H :   -0.009484
  28 H :   -0.058796
  29 H :   -0.063064
  30 H :   -0.008423
  31 H :   -0.024043
  32 H :   -0.021124
  33 H :   -0.036197
  34 H :   -0.154935
  35 H :   -0.023867

  Mayer bond orders larger than 0.100000
B(  0-C ,  1-C ) :   0.9665 B(  0-C , 20-H ) :   0.9767 B(  0-C , 21-H ) :   0.9756
B(  0-C , 22-H ) :   0.9775 B(  1-C ,  2-O ) :   0.8900 B(  1-C , 23-H ) :   0.9747
B(  1-C , 24-H ) :   0.9841 B(  2-O ,  3-C ) :   1.1491 B(  3-C ,  4-O ) :   1.9767
B(  3-C ,  5-C ) :   1.0447 B(  5-C ,  6-C ) :   1.6540 B(  5-C , 12-C ) :   0.9519
B(  6-C ,  7-C ) :   0.9546 B(  6-C ,  8-N ) :   1.1357 B(  7-C , 25-H ) :   0.9653
B(  7-C , 26-H ) :   0.9910 B(  7-C , 27-H ) :   0.9634 B(  8-N ,  9-C ) :   1.1854
B(  8-N , 28-H ) :   0.9469 B(  9-C , 10-S ) :   1.6078 B(  9-C , 11-N ) :   1.3068
B( 11-N , 12-C ) :   0.9765 B( 11-N , 29-H ) :   0.9485 B( 12-C , 13-C ) :   0.9740
B( 12-C , 30-H ) :   0.9973 B( 13-C , 14-C ) :   1.3754 B( 13-C , 19-C ) :   1.3663
B( 14-C , 15-C ) :   1.3974 B( 14-C , 31-H ) :   0.9639 B( 15-C , 16-C ) :   1.3585
B( 15-C , 32-H ) :   0.9712 B( 16-C , 17-C ) :   1.3335 B( 16-C , 33-H ) :   0.9860
B( 17-C , 18-O ) :   1.1033 B( 17-C , 19-C ) :   1.3675 B( 18-O , 34-H ) :   0.9807
B( 19-C , 35-H ) :   0.9603

MP2 TOTAL ENERGY:    -1274.342340592 Eh
FINAL SINGLE POINT ENERGY     -1274.342340591573

DIPOLE MOMENT
-------------
                                X             Y             Z
Electronic contribution:     10.32628       9.62796      10.41626
Nuclear contribution   :    -11.71778     -10.89140     -11.58921
                        -----------------------------------------
Total Dipole Moment    :     -1.39150      -1.26344      -1.17295
                        -----------------------------------------
Magnitude (a.u.)       :      2.21548
Magnitude (Debye)      :      5.63131

Rotational constants in cm-1:     0.009895     0.009248     0.005667
Rotational constants in MHz :   296.636104   277.234560   169.906139

                             ****ORCA TERMINATED NORMALLY****
TOTAL RUN TIME: 0 days 1 hours 43 minutes 9 seconds 413 msec
