                         Program Version 4.2.0 -  RELEASE  -
|  1> ! ri-mp2 cc-pvtz cc-pvtz/c TightSCF NoKeepInts
|  2>
|  3> %scf
|  4>   MaxCore 4096
|  5> end
|  6> *xyz  0  1
|  7>     C       14.0421518   15.4207844   15.2413303
|  8>     C       15.2264236   15.6473178   14.2841515
|  9>     O       15.9448494   16.8083177   14.7379135
| 10>     C       16.9478389   16.6576462   15.6514944
| 11>     O       17.5845166   15.6222419   15.7564997
| 12>     C       17.0975250   17.8015401   16.6139088
| 13>     C       16.8249789   19.0893956   16.2746793
| 14>     C       16.1332328   19.5977154   15.0249929
| 15>     N       17.2310464   20.1440099   17.0964484
| 16>     C       18.0945673   20.0169090   18.1508223
| 17>     S       18.6172679   21.3275442   19.0137153
| 18>     N       18.5212813   18.7456466   18.4397880
| 19>     C       18.0133809   17.5116342   17.8095732
| 20>     C       17.4115271   16.5312589   18.8076989
| 21>     C       17.8848407   15.2093396   18.8895208
| 22>     C       17.3269044   14.3061413   19.8097994
| 23>     C       16.2874482   14.7290048   20.6560266
| 24>     C       15.8123870   16.0452706   20.5748233
| 25>     O       14.8055580   16.4547441   21.3871899
| 26>     C       16.3694646   16.9417438   19.6572932
| 27>     H       14.4005711   15.1950453   16.2540046
| 28>     H       13.4297037   14.5769112   14.9012496
| 29>     H       13.4040997   16.3118970   15.2891797
| 30>     H       15.8688630   14.7573258   14.2346519
| 31>     H       14.8341455   15.8370087   13.2768350
| 32>     H       16.6439630   19.2385423   14.1227380
| 33>     H       16.1107353   20.6926824   14.9656029
| 34>     H       15.0939198   19.2479353   14.9880747
| 35>     H       16.9437432   21.0857614   16.8833690
| 36>     H       19.1403299   18.6762750   19.2376059
| 37>     H       18.9445971   17.1098812   17.3841779
| 38>     H       18.6777729   14.8775351   18.2233249
| 39>     H       17.6969725   13.2836844   19.8594551
| 40>     H       15.8526883   14.0342700   21.3668346
| 41>     H       14.5769508   15.7097704   21.9629778
| 42>     H       15.9907534   17.9572681   19.6102489
| 43> *
| 44>
| 45>                          ****END OF INPUT****

CARTESIAN COORDINATES (ANGSTROEM)
---------------------------------
  C     14.042152   15.420784   15.241330
  C     15.226424   15.647318   14.284152
  O     15.944849   16.808318   14.737913
  C     16.947839   16.657646   15.651494
  O     17.584517   15.622242   15.756500
  C     17.097525   17.801540   16.613909
  C     16.824979   19.089396   16.274679
  C     16.133233   19.597715   15.024993
  N     17.231046   20.144010   17.096448
  C     18.094567   20.016909   18.150822
  S     18.617268   21.327544   19.013715
  N     18.521281   18.745647   18.439788
  C     18.013381   17.511634   17.809573
  C     17.411527   16.531259   18.807699
  C     17.884841   15.209340   18.889521
  C     17.326904   14.306141   19.809799
  C     16.287448   14.729005   20.656027
  C     15.812387   16.045271   20.574823
  O     14.805558   16.454744   21.387190
  C     16.369465   16.941744   19.657293
  H     14.400571   15.195045   16.254005
  H     13.429704   14.576911   14.901250
  H     13.404100   16.311897   15.289180
  H     15.868863   14.757326   14.234652
  H     14.834145   15.837009   13.276835
  H     16.643963   19.238542   14.122738
  H     16.110735   20.692682   14.965603
  H     15.093920   19.247935   14.988075
  H     16.943743   21.085761   16.883369
  H     19.140330   18.676275   19.237606
  H     18.944597   17.109881   17.384178
  H     18.677773   14.877535   18.223325
  H     17.696973   13.283684   19.859455
  H     15.852688   14.034270   21.366835
  H     14.576951   15.709770   21.962978
  H     15.990753   17.957268   19.610249

 Total Charge           Charge          ....    0
 Multiplicity           Mult            ....    1
 Number of Electrons    NEL             ....  154
 Basis Dimension        Dim             ....  828

ORBITAL ENERGIES
----------------

  NO   OCC          E(Eh)            E(eV)
   0   2.0000     -91.888106     -2500.4025
   1   2.0000     -20.600343      -560.5638
   2   2.0000     -20.592379      -560.3471
   3   2.0000     -20.546435      -559.0969
   4   2.0000     -15.628609      -425.2761
   5   2.0000     -15.605838      -424.6564
   6   2.0000     -11.395856      -310.0970
   7   2.0000     -11.382714      -309.7394
   8   2.0000     -11.337965      -308.5217
   9   2.0000     -11.308454      -307.7187
  10   2.0000     -11.304407      -307.6085
  11   2.0000     -11.299293      -307.4694
  12   2.0000     -11.260513      -306.4141
  13   2.0000     -11.258982      -306.3725
  14   2.0000     -11.255572      -306.2797
  15   2.0000     -11.248497      -306.0872
  16   2.0000     -11.238715      -305.8210
  17   2.0000     -11.234792      -305.7142
  18   2.0000     -11.231521      -305.6252
  19   2.0000     -11.229956      -305.5826
  20   2.0000      -8.893189      -241.9960
  21   2.0000      -6.574766      -178.9085
  22   2.0000      -6.572763      -178.8540
  23   2.0000      -6.572175      -178.8380
  24   2.0000      -1.453752       -39.5586
  25   2.0000      -1.412136       -38.4262
  26   2.0000      -1.357438       -36.9378
  27   2.0000      -1.339889       -36.4602
  28   2.0000      -1.237094       -33.6630
  29   2.0000      -1.153003       -31.3748
  30   2.0000      -1.121006       -30.5041
  31   2.0000      -1.043299       -28.3896
  32   2.0000      -1.034943       -28.1622
  33   2.0000      -1.010493       -27.4969
  34   2.0000      -0.999103       -27.1870
  35   2.0000      -0.984105       -26.7789
  36   2.0000      -0.921130       -25.0652
  37   2.0000      -0.893218       -24.3057
  38   2.0000      -0.847477       -23.0610
  39   2.0000      -0.835275       -22.7290
  40   2.0000      -0.828674       -22.5494
  41   2.0000      -0.815468       -22.1900
  42   2.0000      -0.757297       -20.6071
  43   2.0000      -0.736477       -20.0406
  44   2.0000      -0.726519       -19.7696
  45   2.0000      -0.691327       -18.8120
  46   2.0000      -0.685610       -18.6564
  47   2.0000      -0.679402       -18.4875
  48   2.0000      -0.670067       -18.2335
  49   2.0000      -0.658846       -17.9281
  50   2.0000      -0.650536       -17.7020
  51   2.0000      -0.644734       -17.5441
  52   2.0000      -0.632723       -17.2173
  53   2.0000      -0.606260       -16.4972
  54   2.0000      -0.601398       -16.3649
  55   2.0000      -0.598240       -16.2789
  56   2.0000      -0.595529       -16.2052
  57   2.0000      -0.581265       -15.8170
  58   2.0000      -0.573892       -15.6164
  59   2.0000      -0.562095       -15.2954
  60   2.0000      -0.557563       -15.1721
  61   2.0000      -0.555031       -15.1031
  62   2.0000      -0.538558       -14.6549
  63   2.0000      -0.530627       -14.4391
  64   2.0000      -0.516438       -14.0530
  65   2.0000      -0.509167       -13.8551
  66   2.0000      -0.497886       -13.5482
  67   2.0000      -0.494238       -13.4489
  68   2.0000      -0.481738       -13.1087
  69   2.0000      -0.463835       -12.6216
  70   2.0000      -0.459313       -12.4985
  71   2.0000      -0.451117       -12.2755
  72   2.0000      -0.353190        -9.6108
  73   2.0000      -0.345153        -9.3921
  74   2.0000      -0.327188        -8.9032
  75   2.0000      -0.317307        -8.6344
  76   2.0000      -0.315105        -8.5745
  77   0.0000       0.076777         2.0892
  78   0.0000       0.110540         3.0080
  79   0.0000       0.119791         3.2597
  80   0.0000       0.135357         3.6832
  81   0.0000       0.140898         3.8340

MULLIKEN ATOMIC CHARGES
-----------------------
   0 C :   -0.280227
   1 C :    0.016866
   2 O :   -0.354226
   3 C :    0.425781
   4 O :   -0.417797
   5 C :   -0.166536
   6 C :    0.152468
   7 C :   -0.281294
   8 N :   -0.128723
   9 C :    0.207670
  10 S :   -0.442216
  11 N :   -0.210869
  12 C :    0.043871
  13 C :    0.031552
  14 C :   -0.169452
  15 C :   -0.134137
  16 C :   -0.277938
  17 C :    0.314495
  18 O :   -0.358832
  19 C :   -0.252715
  20 H :    0.108344
  21 H :    0.096713
  22 H :    0.092015
  23 H :    0.119019
  24 H :    0.103969
  25 H :    0.126179
  26 H :    0.101370
  27 H :    0.128020
  28 H :    0.198741
  29 H :    0.199788
  30 H :    0.155808
  31 H :    0.159657
  32 H :    0.160260
  33 H :    0.128657
  34 H :    0.239998
  35 H :    0.163721
Sum of atomic charges:   -0.0000000

LOEWDIN ATOMIC CHARGES
----------------------
   0 C :    0.104833
   1 C :   -0.017626
   2 O :    0.305295
   3 C :   -0.415877
   4 O :    0.106196
   5 C :   -0.092546
   6 C :   -0.064812
   7 C :    0.125496
   8 N :    0.405461
   9 C :   -0.458357
  10 S :   -0.037585
  11 N :    0.396393
  12 C :   -0.048224
  13 C :   -0.040902
  14 C :    0.024708
  15 C :    0.040833
  16 C :   -0.001315
  17 C :   -0.192821
  18 O :    0.393170
  19 C :    0.029493
  20 H :   -0.023839
  21 H :   -0.025593
  22 H :   -0.028930
  23 H :   -0.027050
  24 H :   -0.027057
  25 H :   -0.008837
  26 H :   -0.021139
  27 H :   -0.010015
  28 H :   -0.058687
  29 H :   -0.063230
  30 H :   -0.008043
  31 H :   -0.023811
  32 H :   -0.020949
  33 H :   -0.036078
  34 H :   -0.154796
  35 H :   -0.023760

  Mayer bond orders larger than 0.100000
B(  0-C ,  1-C ) :   0.9650 B(  0-C , 20-H ) :   0.9760 B(  0-C , 21-H ) :   0.9760
B(  0-C , 22-H ) :   0.9779 B(  1-C ,  2-O ) :   0.8925 B(  1-C , 23-H ) :   0.9747
B(  1-C , 24-H ) :   0.9846 B(  2-O ,  3-C ) :   1.1265 B(  3-C ,  4-O ) :   1.9956
B(  3-C ,  5-C ) :   1.0303 B(  5-C ,  6-C ) :   1.6593 B(  5-C , 12-C ) :   0.9502
B(  6-C ,  7-C ) :   0.9560 B(  6-C ,  8-N ) :   1.1352 B(  7-C , 25-H ) :   0.9653
B(  7-C , 26-H ) :   0.9904 B(  7-C , 27-H ) :   0.9636 B(  8-N ,  9-C ) :   1.1854
B(  8-N , 28-H ) :   0.9469 B(  9-C , 10-S ) :   1.6088 B(  9-C , 11-N ) :   1.3056
B( 11-N , 12-C ) :   0.9772 B( 11-N , 29-H ) :   0.9486 B( 12-C , 13-C ) :   0.9725
B( 12-C , 30-H ) :   0.9965 B( 13-C , 14-C ) :   1.3773 B( 13-C , 19-C ) :   1.3650
B( 14-C , 15-C ) :   1.3973 B( 14-C , 31-H ) :   0.9634 B( 15-C , 16-C ) :   1.3587
B( 15-C , 32-H ) :   0.9711 B( 16-C , 17-C ) :   1.3332 B( 16-C , 33-H ) :   0.9858
B( 17-C , 18-O ) :   1.1038 B( 17-C , 19-C ) :   1.3670 B( 18-O , 34-H ) :   0.9806
B( 19-C , 35-H ) :   0.9602

MP2 TOTAL ENERGY:    -1274.339113234 Eh
FINAL SINGLE POINT ENERGY     -1274.339113233632

DIPOLE MOMENT
-------------
                                X             Y             Z
Electronic contribution:     10.37589       9.21623       9.45304
Nuclear contribution   :    -11.77035     -10.52822     -10.52878
                        -----------------------------------------
Total Dipole Moment    :     -1.39446      -1.31199      -1.07574
                        -----------------------------------------
Magnitude (a.u.)       :      2.19615
Magnitude (Debye)      :      5.58216

Rotational constants in cm-1:     0.010174     0.009278     0.005860
Rotational constants in MHz :   305.007565   278.158691   175.687150

                             ****ORCA TERMINATED NORMALLY****
TOTAL RUN TIME: 0 days 1 hours 59 minutes 13 seconds 68 msec
