                         Program Version 4.2.0 -  RELEASE  -
|  1> ! ri-mp2 cc-pvtz cc-pvtz/c TightSCF NoKeepInts
|  2>
|  3> %scf
|  4>   MaxCore 4096
|  5> end
|  6> *xyz  0  1
|  7>     C       13.6848988   16.0317661   14.5529952
|  8>     C       15.1159201   15.5030326   14.7475263
|  9>     O       15.9903566   16.6404196   14.8087393
| 10>     C       17.0312278   16.5857787   15.6845629
| 11>     O       17.7330467   15.5933396   15.7812718
| 12>     C       17.1054905   17.7352681   16.6479666
| 13>     C       16.7293077   18.9969946   16.3106478
| 14>     C       15.9846483   19.4449134   15.0683081
| 15>     N       17.0647906   20.0821874   17.1242465
| 16>     C       17.9538778   20.0252784   18.1634954
| 17>     S       18.3874455   21.3746707   19.0158599
| 18>     N       18.4837375   18.7918151   18.4461453
| 19>     C       18.0612389   17.5200885   17.8277999
| 20>     C       17.5558510   16.4985544   18.8379990
| 21>     C       18.1277249   15.2155079   18.9082125
| 22>     C       17.6597508   14.2745338   19.8407032
| 23>     C       16.6116343   14.6201457   20.7109913
| 24>     C       16.0384565   15.8974250   20.6414679
| 25>     O       15.0231058   16.2321618   21.4770990
| 26>     C       16.5059646   16.8315709   19.7115525
| 27>     H       13.3923726   16.6754775   15.3918784
| 28>     H       12.9728481   15.1994455   14.4951430
| 29>     H       13.6099672   16.6126742   13.6253091
| 30>     H       15.1581984   14.9263734   15.6825608
| 31>     H       15.4064408   14.8433031   13.9193329
| 32>     H       16.5014118   19.1084428   14.1606104
| 33>     H       15.8917609   20.5354760   14.9972577
| 34>     H       14.9696694   19.0289253   15.0531508
| 35>     H       16.7021748   20.9983621   16.9143075
| 36>     H       19.1211330   18.7732286   19.2322894
| 37>     H       19.0130831   17.1904661   17.3862318
| 38>     H       18.9280250   14.9427708   18.2241678
| 39>     H       18.1060598   13.2825389   19.8815685
| 40>     H       16.2463782   13.8959871   21.4315180
| 41>     H       14.8666599   15.4747166   22.0607659
| 42>     H       16.0523423   17.8163596   19.6743179
| 43> *
| 44>
| 45>                          ****END OF INPUT****

CARTESIAN COORDINATES (ANGSTROEM)
---------------------------------
  C     13.684899   16.031766   14.552995
  C     15.115920   15.503033   14.747526
  O     15.990357   16.640420   14.808739
  C     17.031228   16.585779   15.684563
  O     17.733047   15.593340   15.781272
  C     17.105490   17.735268   16.647967
  C     16.729308   18.996995   16.310648
  C     15.984648   19.444913   15.068308
  N     17.064791   20.082187   17.124247
  C     17.953878   20.025278   18.163495
  S     18.387445   21.374671   19.015860
  N     18.483737   18.791815   18.446145
  C     18.061239   17.520088   17.827800
  C     17.555851   16.498554   18.837999
  C     18.127725   15.215508   18.908213
  C     17.659751   14.274534   19.840703
  C     16.611634   14.620146   20.710991
  C     16.038456   15.897425   20.641468
  O     15.023106   16.232162   21.477099
  C     16.505965   16.831571   19.711552
  H     13.392373   16.675477   15.391878
  H     12.972848   15.199445   14.495143
  H     13.609967   16.612674   13.625309
  H     15.158198   14.926373   15.682561
  H     15.406441   14.843303   13.919333
  H     16.501412   19.108443   14.160610
  H     15.891761   20.535476   14.997258
  H     14.969669   19.028925   15.053151
  H     16.702175   20.998362   16.914307
  H     19.121133   18.773229   19.232289
  H     19.013083   17.190466   17.386232
  H     18.928025   14.942771   18.224168
  H     18.106060   13.282539   19.881568
  H     16.246378   13.895987   21.431518
  H     14.866660   15.474717   22.060766
  H     16.052342   17.816360   19.674318

 Total Charge           Charge          ....    0
 Multiplicity           Mult            ....    1
 Number of Electrons    NEL             ....  154
 Basis Dimension        Dim             ....  828

ORBITAL ENERGIES
----------------

  NO   OCC          E(Eh)            E(eV)
   0   2.0000     -91.888805     -2500.4215
   1   2.0000     -20.594461      -560.4038
   2   2.0000     -20.593044      -560.3652
   3   2.0000     -20.548210      -559.1452
   4   2.0000     -15.629596      -425.3029
   5   2.0000     -15.606401      -424.6718
   6   2.0000     -11.393890      -310.0435
   7   2.0000     -11.383428      -309.7588
   8   2.0000     -11.338975      -308.5492
   9   2.0000     -11.309070      -307.7354
  10   2.0000     -11.304830      -307.6201
  11   2.0000     -11.301801      -307.5376
  12   2.0000     -11.260549      -306.4151
  13   2.0000     -11.259829      -306.3955
  14   2.0000     -11.256236      -306.2977
  15   2.0000     -11.249036      -306.1018
  16   2.0000     -11.239260      -305.8358
  17   2.0000     -11.235467      -305.7326
  18   2.0000     -11.235447      -305.7321
  19   2.0000     -11.232043      -305.6394
  20   2.0000      -8.893883      -242.0149
  21   2.0000      -6.575458      -178.9273
  22   2.0000      -6.573457      -178.8728
  23   2.0000      -6.572867      -178.8568
  24   2.0000      -1.454434       -39.5772
  25   2.0000      -1.412795       -38.4441
  26   2.0000      -1.357376       -36.9361
  27   2.0000      -1.340675       -36.4816
  28   2.0000      -1.237755       -33.6810
  29   2.0000      -1.153588       -31.3907
  30   2.0000      -1.121602       -30.5203
  31   2.0000      -1.044798       -28.4304
  32   2.0000      -1.037455       -28.2306
  33   2.0000      -1.011132       -27.5143
  34   2.0000      -0.999846       -27.2072
  35   2.0000      -0.985128       -26.8067
  36   2.0000      -0.921532       -25.0762
  37   2.0000      -0.887527       -24.1508
  38   2.0000      -0.847906       -23.0727
  39   2.0000      -0.836256       -22.7557
  40   2.0000      -0.829260       -22.5653
  41   2.0000      -0.822126       -22.3712
  42   2.0000      -0.761723       -20.7275
  43   2.0000      -0.736443       -20.0396
  44   2.0000      -0.727127       -19.7861
  45   2.0000      -0.691303       -18.8113
  46   2.0000      -0.683477       -18.5984
  47   2.0000      -0.682944       -18.5839
  48   2.0000      -0.676019       -18.3954
  49   2.0000      -0.658746       -17.9254
  50   2.0000      -0.651269       -17.7219
  51   2.0000      -0.642218       -17.4756
  52   2.0000      -0.634227       -17.2582
  53   2.0000      -0.604524       -16.4499
  54   2.0000      -0.601786       -16.3754
  55   2.0000      -0.599692       -16.3184
  56   2.0000      -0.596402       -16.2289
  57   2.0000      -0.576358       -15.6835
  58   2.0000      -0.574065       -15.6211
  59   2.0000      -0.567879       -15.4528
  60   2.0000      -0.559900       -15.2357
  61   2.0000      -0.556361       -15.1393
  62   2.0000      -0.544843       -14.8259
  63   2.0000      -0.517315       -14.0769
  64   2.0000      -0.516555       -14.0562
  65   2.0000      -0.512056       -13.9338
  66   2.0000      -0.505959       -13.7678
  67   2.0000      -0.495207       -13.4753
  68   2.0000      -0.480980       -13.0881
  69   2.0000      -0.463395       -12.6096
  70   2.0000      -0.459675       -12.5084
  71   2.0000      -0.453991       -12.3537
  72   2.0000      -0.353808        -9.6276
  73   2.0000      -0.345736        -9.4080
  74   2.0000      -0.327844        -8.9211
  75   2.0000      -0.317959        -8.6521
  76   2.0000      -0.315718        -8.5911
  77   0.0000       0.074252         2.0205
  78   0.0000       0.109641         2.9835
  79   0.0000       0.120303         3.2736
  80   0.0000       0.134956         3.6723
  81   0.0000       0.138456         3.7676

MULLIKEN ATOMIC CHARGES
-----------------------
   0 C :   -0.286072
   1 C :    0.047932
   2 O :   -0.355423
   3 C :    0.428527
   4 O :   -0.403964
   5 C :   -0.185447
   6 C :    0.153421
   7 C :   -0.283839
   8 N :   -0.127917
   9 C :    0.207057
  10 S :   -0.441199
  11 N :   -0.210658
  12 C :    0.043212
  13 C :    0.032074
  14 C :   -0.170093
  15 C :   -0.134288
  16 C :   -0.277658
  17 C :    0.313754
  18 O :   -0.359032
  19 C :   -0.253192
  20 H :    0.096019
  21 H :    0.107031
  22 H :    0.097464
  23 H :    0.091221
  24 H :    0.103285
  25 H :    0.128450
  26 H :    0.105020
  27 H :    0.125787
  28 H :    0.198884
  29 H :    0.199931
  30 H :    0.155902
  31 H :    0.160242
  32 H :    0.160749
  33 H :    0.128760
  34 H :    0.240170
  35 H :    0.163890
Sum of atomic charges:   -0.0000000

LOEWDIN ATOMIC CHARGES
----------------------
   0 C :    0.105313
   1 C :   -0.016327
   2 O :    0.302043
   3 C :   -0.421388
   4 O :    0.114003
   5 C :   -0.095271
   6 C :   -0.064552
   7 C :    0.125875
   8 N :    0.405724
   9 C :   -0.458377
  10 S :   -0.036773
  11 N :    0.396270
  12 C :   -0.048363
  13 C :   -0.041037
  14 C :    0.024871
  15 C :    0.041118
  16 C :   -0.001288
  17 C :   -0.192943
  18 O :    0.393006
  19 C :    0.028747
  20 H :   -0.028089
  21 H :   -0.022992
  22 H :   -0.028001
  23 H :   -0.025809
  24 H :   -0.028069
  25 H :   -0.008114
  26 H :   -0.020815
  27 H :   -0.010336
  28 H :   -0.058489
  29 H :   -0.063206
  30 H :   -0.007747
  31 H :   -0.023575
  32 H :   -0.020749
  33 H :   -0.036030
  34 H :   -0.154678
  35 H :   -0.023953

  Mayer bond orders larger than 0.100000
B(  0-C ,  1-C ) :   0.9706 B(  0-C , 20-H ) :   0.9769 B(  0-C , 21-H ) :   0.9785
B(  0-C , 22-H ) :   0.9766 B(  1-C ,  2-O ) :   0.9042 B(  1-C , 23-H ) :   0.9715
B(  1-C , 24-H ) :   0.9833 B(  2-O ,  3-C ) :   1.1007 B(  3-C ,  4-O ) :   2.0224
B(  3-C ,  5-C ) :   1.0316 B(  5-C ,  6-C ) :   1.6571 B(  5-C , 12-C ) :   0.9491
B(  6-C ,  7-C ) :   0.9549 B(  6-C ,  8-N ) :   1.1374 B(  7-C , 25-H ) :   0.9650
B(  7-C , 26-H ) :   0.9906 B(  7-C , 27-H ) :   0.9647 B(  8-N ,  9-C ) :   1.1846
B(  8-N , 28-H ) :   0.9469 B(  9-C , 10-S ) :   1.6098 B(  9-C , 11-N ) :   1.3056
B( 11-N , 12-C ) :   0.9770 B( 11-N , 29-H ) :   0.9485 B( 12-C , 13-C ) :   0.9717
B( 12-C , 30-H ) :   0.9961 B( 13-C , 14-C ) :   1.3774 B( 13-C , 19-C ) :   1.3639
B( 14-C , 15-C ) :   1.3973 B( 14-C , 31-H ) :   0.9632 B( 15-C , 16-C ) :   1.3588
B( 15-C , 32-H ) :   0.9709 B( 16-C , 17-C ) :   1.3331 B( 16-C , 33-H ) :   0.9858
B( 17-C , 18-O ) :   1.1039 B( 17-C , 19-C ) :   1.3674 B( 18-O , 34-H ) :   0.9804
B( 19-C , 35-H ) :   0.9603

MP2 TOTAL ENERGY:    -1274.332661168 Eh
FINAL SINGLE POINT ENERGY     -1274.332661167721

DIPOLE MOMENT
-------------
                                X             Y             Z
Electronic contribution:     11.18314       8.10074      10.33612
Nuclear contribution   :    -12.59492      -9.42477     -11.21633
                        -----------------------------------------
Total Dipole Moment    :     -1.41178      -1.32403      -0.88021
                        -----------------------------------------
Magnitude (a.u.)       :      2.12626
Magnitude (Debye)      :      5.40451

Rotational constants in cm-1:     0.009643     0.009408     0.005852
Rotational constants in MHz :   289.103473   282.052994   175.434784

                             ****ORCA TERMINATED NORMALLY****
TOTAL RUN TIME: 0 days 1 hours 40 minutes 16 seconds 654 msec
