                         Program Version 4.2.0 -  RELEASE  -
|  1> ! ri-mp2 cc-pvtz cc-pvtz/c TightSCF NoKeepInts
|  2>
|  3> %scf
|  4>   MaxCore 4096
|  5> end
|  6> *xyz  0  1
|  7>     C       14.5714831   16.1141611   16.1651265
|  8>     C       15.0910929   15.9509038   14.7187093
|  9>     O       16.4361325   16.4438414   14.5014325
| 10>     C       17.3660621   16.5282851   15.4987594
| 11>     O       18.2092711   15.6608286   15.6369699
| 12>     C       17.2084209   17.6689013   16.4628092
| 13>     C       16.8301165   18.9058472   16.0497445
| 14>     C       16.3091848   19.3030717   14.6828815
| 15>     N       16.9577452   20.0100059   16.8957408
| 16>     C       17.6632644   20.0061165   18.0691142
| 17>     S       17.8680579   21.3792122   18.9676619
| 18>     N       18.2103841   18.8061807   18.4486771
| 19>     C       17.9654137   17.5102174   17.7856038
| 20>     C       17.3535271   16.4599766   18.7023623
| 21>     C       17.9160351   15.1743363   18.7933797
| 22>     C       17.3409262   14.2000766   19.6262774
| 23>     C       16.1930210   14.5141150   20.3739339
| 24>     C       15.6286709   15.7938136   20.2828102
| 25>     O       14.5148845   16.0971890   20.9957297
| 26>     C       16.2032548   16.7614715   19.4526477
| 27>     H       15.2023990   15.5706625   16.8800605
| 28>     H       13.5588907   15.7005642   16.2465699
| 29>     H       14.5190383   17.1687887   16.4594773
| 30>     H       15.0771639   14.8795366   14.4780793
| 31>     H       14.4051052   16.4477935   14.0207419
| 32>     H       15.2995868   18.9090266   14.5185004
| 33>     H       16.9586210   18.9149779   13.8877275
| 34>     H       16.2634491   20.3908383   14.5484324
| 35>     H       16.5869106   20.9041688   16.6161588
| 36>     H       18.7146072   18.8269339   19.3262634
| 37>     H       18.9941916   17.2329321   17.5119720
| 38>     H       18.7945511   14.9256413   18.2018402
| 39>     H       17.7824148   13.2066440   19.6841833
| 40>     H       15.7445418   13.7635484   21.0163078
| 41>     H       14.2972604   15.3233085   21.5369543
| 42>     H       15.7513197   17.7460833   19.3943595
| 43> *
| 44>
| 45>                          ****END OF INPUT****

CARTESIAN COORDINATES (ANGSTROEM)
---------------------------------
  C     14.571483   16.114161   16.165126
  C     15.091093   15.950904   14.718709
  O     16.436132   16.443841   14.501432
  C     17.366062   16.528285   15.498759
  O     18.209271   15.660829   15.636970
  C     17.208421   17.668901   16.462809
  C     16.830116   18.905847   16.049744
  C     16.309185   19.303072   14.682881
  N     16.957745   20.010006   16.895741
  C     17.663264   20.006116   18.069114
  S     17.868058   21.379212   18.967662
  N     18.210384   18.806181   18.448677
  C     17.965414   17.510217   17.785604
  C     17.353527   16.459977   18.702362
  C     17.916035   15.174336   18.793380
  C     17.340926   14.200077   19.626277
  C     16.193021   14.514115   20.373934
  C     15.628671   15.793814   20.282810
  O     14.514885   16.097189   20.995730
  C     16.203255   16.761471   19.452648
  H     15.202399   15.570662   16.880060
  H     13.558891   15.700564   16.246570
  H     14.519038   17.168789   16.459477
  H     15.077164   14.879537   14.478079
  H     14.405105   16.447793   14.020742
  H     15.299587   18.909027   14.518500
  H     16.958621   18.914978   13.887728
  H     16.263449   20.390838   14.548432
  H     16.586911   20.904169   16.616159
  H     18.714607   18.826934   19.326263
  H     18.994192   17.232932   17.511972
  H     18.794551   14.925641   18.201840
  H     17.782415   13.206644   19.684183
  H     15.744542   13.763548   21.016308
  H     14.297260   15.323308   21.536954
  H     15.751320   17.746083   19.394360

 Total Charge           Charge          ....    0
 Multiplicity           Mult            ....    1
 Number of Electrons    NEL             ....  154
 Basis Dimension        Dim             ....  828

ORBITAL ENERGIES
----------------

  NO   OCC          E(Eh)            E(eV)
   0   2.0000     -91.890059     -2500.4556
   1   2.0000     -20.596385      -560.4561
   2   2.0000     -20.586178      -560.1784
   3   2.0000     -20.551125      -559.2245
   4   2.0000     -15.630400      -425.3248
   5   2.0000     -15.607935      -424.7135
   6   2.0000     -11.395005      -310.0738
   7   2.0000     -11.384901      -309.7989
   8   2.0000     -11.338130      -308.5262
   9   2.0000     -11.312748      -307.8355
  10   2.0000     -11.310061      -307.7624
  11   2.0000     -11.306454      -307.6643
  12   2.0000     -11.263236      -306.4882
  13   2.0000     -11.260586      -306.4161
  14   2.0000     -11.259552      -306.3880
  15   2.0000     -11.252780      -306.2037
  16   2.0000     -11.242842      -305.9333
  17   2.0000     -11.238558      -305.8167
  18   2.0000     -11.235150      -305.7240
  19   2.0000     -11.235094      -305.7224
  20   2.0000      -8.895139      -242.0490
  21   2.0000      -6.576714      -178.9615
  22   2.0000      -6.574711      -178.9070
  23   2.0000      -6.574121      -178.8909
  24   2.0000      -1.445423       -39.3320
  25   2.0000      -1.416179       -38.5362
  26   2.0000      -1.355841       -36.8943
  27   2.0000      -1.341807       -36.5124
  28   2.0000      -1.239056       -33.7164
  29   2.0000      -1.157089       -31.4860
  30   2.0000      -1.123093       -30.5609
  31   2.0000      -1.045177       -28.4407
  32   2.0000      -1.036197       -28.1964
  33   2.0000      -1.014828       -27.6149
  34   2.0000      -1.003695       -27.3119
  35   2.0000      -0.988564       -26.9002
  36   2.0000      -0.924744       -25.1636
  37   2.0000      -0.899215       -24.4689
  38   2.0000      -0.850939       -23.1552
  39   2.0000      -0.839296       -22.8384
  40   2.0000      -0.832804       -22.6617
  41   2.0000      -0.821847       -22.3636
  42   2.0000      -0.746599       -20.3160
  43   2.0000      -0.733287       -19.9538
  44   2.0000      -0.728548       -19.8248
  45   2.0000      -0.693642       -18.8749
  46   2.0000      -0.687253       -18.7011
  47   2.0000      -0.677465       -18.4348
  48   2.0000      -0.672901       -18.3106
  49   2.0000      -0.665362       -18.1054
  50   2.0000      -0.651643       -17.7321
  51   2.0000      -0.650142       -17.6913
  52   2.0000      -0.638384       -17.3713
  53   2.0000      -0.618826       -16.8391
  54   2.0000      -0.605715       -16.4824
  55   2.0000      -0.602805       -16.4032
  56   2.0000      -0.600181       -16.3318
  57   2.0000      -0.582670       -15.8553
  58   2.0000      -0.576202       -15.6792
  59   2.0000      -0.563805       -15.3419
  60   2.0000      -0.560160       -15.2427
  61   2.0000      -0.549437       -14.9509
  62   2.0000      -0.546544       -14.8722
  63   2.0000      -0.533410       -14.5148
  64   2.0000      -0.520808       -14.1719
  65   2.0000      -0.512077       -13.9343
  66   2.0000      -0.498844       -13.5742
  67   2.0000      -0.491007       -13.3610
  68   2.0000      -0.484088       -13.1727
  69   2.0000      -0.467989       -12.7346
  70   2.0000      -0.457233       -12.4419
  71   2.0000      -0.448975       -12.2172
  72   2.0000      -0.354714        -9.6522
  73   2.0000      -0.348092        -9.4721
  74   2.0000      -0.329199        -8.9579
  75   2.0000      -0.320338        -8.7168
  76   2.0000      -0.319166        -8.6849
  77   0.0000       0.073789         2.0079
  78   0.0000       0.106376         2.8946
  79   0.0000       0.117068         3.1856
  80   0.0000       0.132027         3.5926
  81   0.0000       0.135223         3.6796

MULLIKEN ATOMIC CHARGES
-----------------------
   0 C :   -0.337372
   1 C :    0.032641
   2 O :   -0.375290
   3 C :    0.460461
   4 O :   -0.383473
   5 C :   -0.249702
   6 C :    0.166130
   7 C :   -0.296152
   8 N :   -0.129274
   9 C :    0.204538
  10 S :   -0.440276
  11 N :   -0.213916
  12 C :    0.067809
  13 C :    0.010384
  14 C :   -0.179663
  15 C :   -0.134206
  16 C :   -0.277986
  17 C :    0.317500
  18 O :   -0.358831
  19 C :   -0.255353
  20 H :    0.126883
  21 H :    0.122213
  22 H :    0.105200
  23 H :    0.117431
  24 H :    0.105211
  25 H :    0.115308
  26 H :    0.139195
  27 H :    0.109737
  28 H :    0.197901
  29 H :    0.199934
  30 H :    0.159675
  31 H :    0.169212
  32 H :    0.162662
  33 H :    0.131054
  34 H :    0.240845
  35 H :    0.169572
Sum of atomic charges:   -0.0000000

LOEWDIN ATOMIC CHARGES
----------------------
   0 C :    0.103603
   1 C :   -0.016276
   2 O :    0.285416
   3 C :   -0.422160
   4 O :    0.125691
   5 C :   -0.092946
   6 C :   -0.071679
   7 C :    0.127290
   8 N :    0.405436
   9 C :   -0.458534
  10 S :   -0.036225
  11 N :    0.396451
  12 C :   -0.048399
  13 C :   -0.043685
  14 C :    0.023438
  15 C :    0.042296
  16 C :   -0.000993
  17 C :   -0.194029
  18 O :    0.393920
  19 C :    0.029916
  20 H :   -0.021087
  21 H :   -0.021176
  22 H :   -0.033046
  23 H :   -0.024523
  24 H :   -0.027672
  25 H :   -0.013585
  26 H :   -0.005392
  27 H :   -0.018799
  28 H :   -0.058625
  29 H :   -0.063262
  30 H :   -0.006141
  31 H :   -0.022097
  32 H :   -0.019610
  33 H :   -0.035319
  34 H :   -0.153973
  35 H :   -0.024223

  Mayer bond orders larger than 0.100000
B(  0-C ,  1-C ) :   0.9601 B(  0-C , 20-H ) :   0.9662 B(  0-C , 21-H ) :   0.9755
B(  0-C , 22-H ) :   0.9702 B(  1-C ,  2-O ) :   0.9023 B(  1-C , 23-H ) :   0.9847
B(  1-C , 24-H ) :   0.9800 B(  2-O ,  3-C ) :   1.0921 B(  3-C ,  4-O ) :   2.0655
B(  3-C ,  5-C ) :   0.9814 B(  5-C ,  6-C ) :   1.6895 B(  5-C , 12-C ) :   0.9423
B(  6-C ,  7-C ) :   0.9492 B(  6-C ,  8-N ) :   1.1304 B(  7-C , 25-H ) :   0.9668
B(  7-C , 26-H ) :   0.9641 B(  7-C , 27-H ) :   0.9895 B(  8-N ,  9-C ) :   1.1862
B(  8-N , 28-H ) :   0.9471 B(  9-C , 10-S ) :   1.6121 B(  9-C , 11-N ) :   1.3001
B( 11-N , 12-C ) :   0.9796 B( 11-N , 29-H ) :   0.9488 B( 12-C , 13-C ) :   0.9660
B( 12-C , 30-H ) :   0.9951 B( 13-C , 14-C ) :   1.3861 B( 13-C , 19-C ) :   1.3561
B( 14-C , 15-C ) :   1.3966 B( 14-C , 31-H ) :   0.9594 B( 15-C , 16-C ) :   1.3604
B( 15-C , 32-H ) :   0.9706 B( 16-C , 17-C ) :   1.3312 B( 16-C , 33-H ) :   0.9849
B( 17-C , 18-O ) :   1.1068 B( 17-C , 19-C ) :   1.3654 B( 18-O , 34-H ) :   0.9800
B( 19-C , 35-H ) :   0.9593

MP2 TOTAL ENERGY:    -1274.323585533 Eh
FINAL SINGLE POINT ENERGY     -1274.323585533410

DIPOLE MOMENT
-------------
                                X             Y             Z
Electronic contribution:      9.06402       7.27831       7.01046
Nuclear contribution   :    -10.56463      -8.46086      -7.66082
                        -----------------------------------------
Total Dipole Moment    :     -1.50060      -1.18255      -0.65037
                        -----------------------------------------
Magnitude (a.u.)       :      2.01822
Magnitude (Debye)      :      5.12990

Rotational constants in cm-1:     0.011275     0.009380     0.006447
Rotational constants in MHz :   338.009325   281.207283   193.265395

                             ****ORCA TERMINATED NORMALLY****
TOTAL RUN TIME: 0 days 1 hours 52 minutes 0 seconds 631 msec
