                         Program Version 4.2.0 -  RELEASE  -
|  1> ! ri-mp2 cc-pvtz cc-pvtz/c TightSCF NoKeepInts
|  2>
|  3> %scf
|  4>   MaxCore 4096
|  5> end
|  6> *xyz  0  1
|  7>     C       14.2418972   15.2387831   13.7993320
|  8>     C       14.8813631   15.5228586   15.1685499
|  9>     O       15.9883295   16.4102147   14.9490491
| 10>     C       16.9968725   16.3836221   15.8623361
| 11>     O       17.6046007   15.3571636   16.1127712
| 12>     C       17.1450606   17.6388037   16.6728055
| 13>     C       16.9053689   18.8726248   16.1559605
| 14>     C       16.2569255   19.2140662   14.8287329
| 15>     N       17.3128722   20.0222269   16.8374301
| 16>     C       18.1532107   20.0246169   17.9180474
| 17>     S       18.6822053   21.4310983   18.6088364
| 18>     N       18.5511980   18.7971855   18.3841822
| 19>     C       18.0312993   17.4976043   17.9161412
| 20>     C       17.3924110   16.6697707   19.0233495
| 21>     C       17.8281422   15.3573826   19.2800558
| 22>     C       17.2367947   14.5948618   20.3012345
| 23>     C       16.2015143   15.1500244   21.0728357
| 24>     C       15.7637900   16.4568988   20.8174459
| 25>     O       14.7608282   16.9935948   21.5571908
| 26>     C       16.3537294   17.2130092   19.7994759
| 27>     H       14.9709868   14.7753348   13.1226867
| 28>     H       13.8826321   16.1672791   13.3386845
| 29>     H       13.3907663   14.5553227   13.9061840
| 30>     H       14.1536571   15.9766601   15.8540349
| 31>     H       15.2236072   14.5722298   15.6014894
| 32>     H       16.7696051   18.7066549   14.0016245
| 33>     H       16.2802931   20.2880892   14.6073284
| 34>     H       15.2056891   18.9006389   14.8175034
| 35>     H       17.0488894   20.9311558   16.4921979
| 36>     H       19.1552109   18.8263575   19.1959832
| 37>     H       18.9626844   17.0269682   17.5685988
| 38>     H       18.6185205   14.9221759   18.6727533
| 39>     H       17.5784642   13.5780693   20.4866289
| 40>     H       15.7413229   14.5640290   21.8614115
| 41>     H       14.5121371   16.3386647   22.2266477
| 42>     H       16.0041207   18.2239590   19.6184802
| 43> *
| 44>
| 45>                          ****END OF INPUT****

CARTESIAN COORDINATES (ANGSTROEM)
---------------------------------
  C     14.241897   15.238783   13.799332
  C     14.881363   15.522859   15.168550
  O     15.988329   16.410215   14.949049
  C     16.996872   16.383622   15.862336
  O     17.604601   15.357164   16.112771
  C     17.145061   17.638804   16.672805
  C     16.905369   18.872625   16.155960
  C     16.256926   19.214066   14.828733
  N     17.312872   20.022227   16.837430
  C     18.153211   20.024617   17.918047
  S     18.682205   21.431098   18.608836
  N     18.551198   18.797185   18.384182
  C     18.031299   17.497604   17.916141
  C     17.392411   16.669771   19.023349
  C     17.828142   15.357383   19.280056
  C     17.236795   14.594862   20.301234
  C     16.201514   15.150024   21.072836
  C     15.763790   16.456899   20.817446
  O     14.760828   16.993595   21.557191
  C     16.353729   17.213009   19.799476
  H     14.970987   14.775335   13.122687
  H     13.882632   16.167279   13.338684
  H     13.390766   14.555323   13.906184
  H     14.153657   15.976660   15.854035
  H     15.223607   14.572230   15.601489
  H     16.769605   18.706655   14.001625
  H     16.280293   20.288089   14.607328
  H     15.205689   18.900639   14.817503
  H     17.048889   20.931156   16.492198
  H     19.155211   18.826358   19.195983
  H     18.962684   17.026968   17.568599
  H     18.618520   14.922176   18.672753
  H     17.578464   13.578069   20.486629
  H     15.741323   14.564029   21.861411
  H     14.512137   16.338665   22.226648
  H     16.004121   18.223959   19.618480

 Total Charge           Charge          ....    0
 Multiplicity           Mult            ....    1
 Number of Electrons    NEL             ....  154
 Basis Dimension        Dim             ....  828

ORBITAL ENERGIES
----------------

  NO   OCC          E(Eh)            E(eV)
   0   2.0000     -91.889135     -2500.4305
   1   2.0000     -20.593238      -560.3705
   2   2.0000     -20.591363      -560.3195
   3   2.0000     -20.550238      -559.2004
   4   2.0000     -15.630114      -425.3170
   5   2.0000     -15.606607      -424.6774
   6   2.0000     -11.393893      -310.0436
   7   2.0000     -11.383770      -309.7681
   8   2.0000     -11.339606      -308.5664
   9   2.0000     -11.309288      -307.7414
  10   2.0000     -11.304806      -307.6194
  11   2.0000     -11.301770      -307.5368
  12   2.0000     -11.260685      -306.4188
  13   2.0000     -11.260215      -306.4060
  14   2.0000     -11.256489      -306.3046
  15   2.0000     -11.249251      -306.1077
  16   2.0000     -11.239430      -305.8404
  17   2.0000     -11.235660      -305.7378
  18   2.0000     -11.232924      -305.6634
  19   2.0000     -11.232233      -305.6446
  20   2.0000      -8.894211      -242.0238
  21   2.0000      -6.575785      -178.9362
  22   2.0000      -6.573784      -178.8818
  23   2.0000      -6.573193      -178.8657
  24   2.0000      -1.453875       -39.5620
  25   2.0000      -1.412982       -38.4492
  26   2.0000      -1.358278       -36.9606
  27   2.0000      -1.341046       -36.4917
  28   2.0000      -1.238028       -33.6884
  29   2.0000      -1.153807       -31.3967
  30   2.0000      -1.121817       -30.5262
  31   2.0000      -1.044447       -28.4209
  32   2.0000      -1.036835       -28.2137
  33   2.0000      -1.011384       -27.5212
  34   2.0000      -1.000015       -27.2118
  35   2.0000      -0.985061       -26.8049
  36   2.0000      -0.921782       -25.0830
  37   2.0000      -0.883213       -24.0334
  38   2.0000      -0.848957       -23.1013
  39   2.0000      -0.837266       -22.7832
  40   2.0000      -0.829507       -22.5720
  41   2.0000      -0.826257       -22.4836
  42   2.0000      -0.760904       -20.7053
  43   2.0000      -0.736503       -20.0413
  44   2.0000      -0.727493       -19.7961
  45   2.0000      -0.691283       -18.8108
  46   2.0000      -0.687633       -18.7115
  47   2.0000      -0.680634       -18.5210
  48   2.0000      -0.673139       -18.3170
  49   2.0000      -0.654413       -17.8075
  50   2.0000      -0.649321       -17.6689
  51   2.0000      -0.640567       -17.4307
  52   2.0000      -0.628613       -17.1054
  53   2.0000      -0.623477       -16.9657
  54   2.0000      -0.604357       -16.4454
  55   2.0000      -0.600019       -16.3273
  56   2.0000      -0.596535       -16.2325
  57   2.0000      -0.578858       -15.7515
  58   2.0000      -0.574450       -15.6316
  59   2.0000      -0.562906       -15.3175
  60   2.0000      -0.560729       -15.2582
  61   2.0000      -0.549415       -14.9503
  62   2.0000      -0.535871       -14.5818
  63   2.0000      -0.524983       -14.2855
  64   2.0000      -0.517495       -14.0818
  65   2.0000      -0.510580       -13.8936
  66   2.0000      -0.504296       -13.7226
  67   2.0000      -0.495263       -13.4768
  68   2.0000      -0.481009       -13.0889
  69   2.0000      -0.463032       -12.5997
  70   2.0000      -0.461585       -12.5604
  71   2.0000      -0.452414       -12.3108
  72   2.0000      -0.354245        -9.6395
  73   2.0000      -0.345915        -9.4128
  74   2.0000      -0.328151        -8.9294
  75   2.0000      -0.318309        -8.6616
  76   2.0000      -0.315970        -8.5980
  77   0.0000       0.072670         1.9774
  78   0.0000       0.109365         2.9760
  79   0.0000       0.119572         3.2537
  80   0.0000       0.134649         3.6640
  81   0.0000       0.138097         3.7578

MULLIKEN ATOMIC CHARGES
-----------------------
   0 C :   -0.262956
   1 C :    0.030757
   2 O :   -0.368000
   3 C :    0.460026
   4 O :   -0.400564
   5 C :   -0.206860
   6 C :    0.154502
   7 C :   -0.281894
   8 N :   -0.128119
   9 C :    0.206700
  10 S :   -0.440641
  11 N :   -0.210852
  12 C :    0.041429
  13 C :    0.033232
  14 C :   -0.172293
  15 C :   -0.133912
  16 C :   -0.277434
  17 C :    0.313540
  18 O :   -0.359028
  19 C :   -0.253382
  20 H :    0.104039
  21 H :    0.090645
  22 H :    0.090480
  23 H :    0.092297
  24 H :    0.111393
  25 H :    0.128929
  26 H :    0.104056
  27 H :    0.123916
  28 H :    0.198996
  29 H :    0.199938
  30 H :    0.156282
  31 H :    0.160895
  32 H :    0.160781
  33 H :    0.128732
  34 H :    0.240241
  35 H :    0.164129
Sum of atomic charges:   -0.0000000

LOEWDIN ATOMIC CHARGES
----------------------
   0 C :    0.108610
   1 C :   -0.019508
   2 O :    0.300663
   3 C :   -0.420215
   4 O :    0.118350
   5 C :   -0.096322
   6 C :   -0.064425
   7 C :    0.125713
   8 N :    0.405857
   9 C :   -0.458368
  10 S :   -0.036332
  11 N :    0.396219
  12 C :   -0.048592
  13 C :   -0.041082
  14 C :    0.024629
  15 C :    0.041277
  16 C :   -0.001162
  17 C :   -0.192897
  18 O :    0.393008
  19 C :    0.028648
  20 H :   -0.022944
  21 H :   -0.029924
  22 H :   -0.024948
  23 H :   -0.034287
  24 H :   -0.025167
  25 H :   -0.007649
  26 H :   -0.020655
  27 H :   -0.010422
  28 H :   -0.058384
  29 H :   -0.063226
  30 H :   -0.007665
  31 H :   -0.023557
  32 H :   -0.020701
  33 H :   -0.035987
  34 H :   -0.154575
  35 H :   -0.023981

  Mayer bond orders larger than 0.100000
B(  0-C ,  1-C ) :   0.9780 B(  0-C , 20-H ) :   0.9772 B(  0-C , 21-H ) :   0.9796
B(  0-C , 22-H ) :   0.9758 B(  1-C ,  2-O ) :   0.8943 B(  1-C , 23-H ) :   0.9729
B(  1-C , 24-H ) :   0.9747 B(  2-O ,  3-C ) :   1.0828 B(  3-C ,  4-O ) :   2.0319
B(  3-C ,  5-C ) :   1.0314 B(  5-C ,  6-C ) :   1.6594 B(  5-C , 12-C ) :   0.9502
B(  6-C ,  7-C ) :   0.9531 B(  6-C ,  8-N ) :   1.1392 B(  7-C , 25-H ) :   0.9653
B(  7-C , 26-H ) :   0.9900 B(  7-C , 27-H ) :   0.9653 B(  8-N ,  9-C ) :   1.1839
B(  8-N , 28-H ) :   0.9470 B(  9-C , 10-S ) :   1.6104 B(  9-C , 11-N ) :   1.3055
B( 11-N , 12-C ) :   0.9769 B( 11-N , 29-H ) :   0.9485 B( 12-C , 13-C ) :   0.9718
B( 12-C , 30-H ) :   0.9963 B( 13-C , 14-C ) :   1.3783 B( 13-C , 19-C ) :   1.3633
B( 14-C , 15-C ) :   1.3973 B( 14-C , 31-H ) :   0.9630 B( 15-C , 16-C ) :   1.3591
B( 15-C , 32-H ) :   0.9709 B( 16-C , 17-C ) :   1.3331 B( 16-C , 33-H ) :   0.9858
B( 17-C , 18-O ) :   1.1040 B( 17-C , 19-C ) :   1.3676 B( 18-O , 34-H ) :   0.9804
B( 19-C , 35-H ) :   0.9602

MP2 TOTAL ENERGY:    -1274.329684122 Eh
FINAL SINGLE POINT ENERGY     -1274.329684121937

DIPOLE MOMENT
-------------
                                X             Y             Z
Electronic contribution:     10.51931       9.70678      11.27631
Nuclear contribution   :    -12.02093     -10.96580     -11.99636
                        -----------------------------------------
Total Dipole Moment    :     -1.50162      -1.25902      -0.72005
                        -----------------------------------------
Magnitude (a.u.)       :      2.08769
Magnitude (Debye)      :      5.30650

Rotational constants in cm-1:     0.009704     0.009208     0.005649
Rotational constants in MHz :   290.921350   276.046347   169.361868

                             ****ORCA TERMINATED NORMALLY****
TOTAL RUN TIME: 0 days 1 hours 38 minutes 20 seconds 341 msec
