                         Program Version 4.2.0 -  RELEASE  -
|  1> ! ri-mp2 cc-pvtz cc-pvtz/c TightSCF NoKeepInts
|  2>
|  3> %scf
|  4>   MaxCore 4096
|  5> end
|  6> *xyz  0  1
|  7>     C       15.3704304   14.0771511   16.3563214
|  8>     C       15.4820994   15.1386715   15.2505076
|  9>     O       16.6384221   15.9542025   15.5122856
| 10>     C       16.5372698   17.2849887   15.2312480
| 11>     O       16.0332845   17.6666635   14.1890826
| 12>     C       16.9491189   18.1750307   16.3741273
| 13>     C       17.0127062   19.5221612   16.2057289
| 14>     C       16.4313361   20.3355449   15.0672257
| 15>     N       17.6713282   20.3348434   17.1310850
| 16>     C       18.4757873   19.8684708   18.1343989
| 17>     S       19.3202801   20.8870513   19.1269432
| 18>     N       18.5676112   18.5057484   18.2567930
| 19>     C       17.7628802   17.5232361   17.5067895
| 20>     C       16.9819629   16.6017478   18.4334815
| 21>     C       17.5183898   15.3576276   18.8136886
| 22>     C       16.8232779   14.5230420   19.7053756
| 23>     C       15.5837201   14.9377972   20.2223485
| 24>     C       15.0505277   16.1795560   19.8493467
| 25>     O       13.8557093   16.5836894   20.3490516
| 26>     C       15.7454327   17.0089402   18.9633202
| 27>     H       16.3123511   13.5253936   16.4642163
| 28>     H       14.5755668   13.3596076   16.1201596
| 29>     H       15.1273245   14.5458566   17.3160011
| 30>     H       15.5793453   14.6612344   14.2666495
| 31>     H       14.5651339   15.7445828   15.2493648
| 32>     H       15.3781396   20.0743079   14.9027415
| 33>     H       16.9696614   20.1322578   14.1325759
| 34>     H       16.4729181   21.4165069   15.2456733
| 35>     H       17.6340251   21.3368793   17.0334518
| 36>     H       19.1443717   18.1916610   19.0268729
| 37>     H       18.5666255   16.9681566   17.0022637
| 38>     H       18.4780343   15.0374087   18.4166869
| 39>     H       17.2454337   13.5617868   19.9935416
| 40>     H       15.0434766   14.2970798   20.9115804
| 41>     H       13.5577732   15.9071894   20.9757572
| 42>     H       15.3252446   17.9739266   18.7013141
| 43> *
| 44>
| 45>                          ****END OF INPUT****

CARTESIAN COORDINATES (ANGSTROEM)
---------------------------------
  C     15.370430   14.077151   16.356321
  C     15.482099   15.138671   15.250508
  O     16.638422   15.954202   15.512286
  C     16.537270   17.284989   15.231248
  O     16.033285   17.666663   14.189083
  C     16.949119   18.175031   16.374127
  C     17.012706   19.522161   16.205729
  C     16.431336   20.335545   15.067226
  N     17.671328   20.334843   17.131085
  C     18.475787   19.868471   18.134399
  S     19.320280   20.887051   19.126943
  N     18.567611   18.505748   18.256793
  C     17.762880   17.523236   17.506790
  C     16.981963   16.601748   18.433481
  C     17.518390   15.357628   18.813689
  C     16.823278   14.523042   19.705376
  C     15.583720   14.937797   20.222348
  C     15.050528   16.179556   19.849347
  O     13.855709   16.583689   20.349052
  C     15.745433   17.008940   18.963320
  H     16.312351   13.525394   16.464216
  H     14.575567   13.359608   16.120160
  H     15.127324   14.545857   17.316001
  H     15.579345   14.661234   14.266649
  H     14.565134   15.744583   15.249365
  H     15.378140   20.074308   14.902741
  H     16.969661   20.132258   14.132576
  H     16.472918   21.416507   15.245673
  H     17.634025   21.336879   17.033452
  H     19.144372   18.191661   19.026873
  H     18.566626   16.968157   17.002264
  H     18.478034   15.037409   18.416687
  H     17.245434   13.561787   19.993542
  H     15.043477   14.297080   20.911580
  H     13.557773   15.907189   20.975757
  H     15.325245   17.973927   18.701314

 Total Charge           Charge          ....    0
 Multiplicity           Mult            ....    1
 Number of Electrons    NEL             ....  154
 Basis Dimension        Dim             ....  828

ORBITAL ENERGIES
----------------

  NO   OCC          E(Eh)            E(eV)
   0   2.0000     -91.890085     -2500.4563
   1   2.0000     -20.600600      -560.5708
   2   2.0000     -20.590445      -560.2945
   3   2.0000     -20.542500      -558.9898
   4   2.0000     -15.630678      -425.3324
   5   2.0000     -15.607997      -424.7152
   6   2.0000     -11.392181      -309.9970
   7   2.0000     -11.384491      -309.7877
   8   2.0000     -11.339483      -308.5630
   9   2.0000     -11.318151      -307.9826
  10   2.0000     -11.309539      -307.7482
  11   2.0000     -11.294385      -307.3358
  12   2.0000     -11.264660      -306.5270
  13   2.0000     -11.259547      -306.3879
  14   2.0000     -11.258942      -306.3714
  15   2.0000     -11.252612      -306.1991
  16   2.0000     -11.247230      -306.0527
  17   2.0000     -11.242183      -305.9154
  18   2.0000     -11.241704      -305.9023
  19   2.0000     -11.222383      -305.3766
  20   2.0000      -8.895140      -242.0491
  21   2.0000      -6.576708      -178.9613
  22   2.0000      -6.574714      -178.9071
  23   2.0000      -6.574120      -178.8909
  24   2.0000      -1.449521       -39.4435
  25   2.0000      -1.420291       -38.6481
  26   2.0000      -1.351897       -36.7870
  27   2.0000      -1.342056       -36.5192
  28   2.0000      -1.239986       -33.7417
  29   2.0000      -1.160917       -31.5901
  30   2.0000      -1.122356       -30.5409
  31   2.0000      -1.045334       -28.4450
  32   2.0000      -1.034892       -28.1608
  33   2.0000      -1.018895       -27.7255
  34   2.0000      -0.998163       -27.1614
  35   2.0000      -0.985997       -26.8303
  36   2.0000      -0.923895       -25.1405
  37   2.0000      -0.883237       -24.0341
  38   2.0000      -0.848128       -23.0787
  39   2.0000      -0.841043       -22.8859
  40   2.0000      -0.837057       -22.7775
  41   2.0000      -0.819333       -22.2952
  42   2.0000      -0.763498       -20.7758
  43   2.0000      -0.736357       -20.0373
  44   2.0000      -0.721243       -19.6260
  45   2.0000      -0.698614       -19.0103
  46   2.0000      -0.687284       -18.7019
  47   2.0000      -0.677754       -18.4426
  48   2.0000      -0.674628       -18.3576
  49   2.0000      -0.667017       -18.1504
  50   2.0000      -0.647514       -17.6197
  51   2.0000      -0.642376       -17.4799
  52   2.0000      -0.637084       -17.3359
  53   2.0000      -0.610778       -16.6201
  54   2.0000      -0.604414       -16.4469
  55   2.0000      -0.602189       -16.3864
  56   2.0000      -0.592159       -16.1135
  57   2.0000      -0.579791       -15.7769
  58   2.0000      -0.571186       -15.5428
  59   2.0000      -0.566811       -15.4237
  60   2.0000      -0.556170       -15.1342
  61   2.0000      -0.550424       -14.9778
  62   2.0000      -0.540432       -14.7059
  63   2.0000      -0.527611       -14.3570
  64   2.0000      -0.517721       -14.0879
  65   2.0000      -0.512998       -13.9594
  66   2.0000      -0.503079       -13.6895
  67   2.0000      -0.498457       -13.5637
  68   2.0000      -0.484393       -13.1810
  69   2.0000      -0.463958       -12.6249
  70   2.0000      -0.453125       -12.3302
  71   2.0000      -0.445919       -12.1341
  72   2.0000      -0.354754        -9.6533
  73   2.0000      -0.353298        -9.6137
  74   2.0000      -0.329708        -8.9718
  75   2.0000      -0.325199        -8.8491
  76   2.0000      -0.319924        -8.7056
  77   0.0000       0.073619         2.0033
  78   0.0000       0.101709         2.7676
  79   0.0000       0.122272         3.3272
  80   0.0000       0.130124         3.5409
  81   0.0000       0.131250         3.5715

MULLIKEN ATOMIC CHARGES
-----------------------
   0 C :   -0.288063
   1 C :    0.044848
   2 O :   -0.360467
   3 C :    0.447323
   4 O :   -0.419121
   5 C :   -0.270918
   6 C :    0.185665
   7 C :   -0.264796
   8 N :   -0.127229
   9 C :    0.214624
  10 S :   -0.441165
  11 N :   -0.221593
  12 C :    0.073928
  13 C :    0.033709
  14 C :   -0.181881
  15 C :   -0.127916
  16 C :   -0.275787
  17 C :    0.307487
  18 O :   -0.358821
  19 C :   -0.234334
  20 H :    0.095681
  21 H :    0.107678
  22 H :    0.105251
  23 H :    0.107494
  24 H :    0.084797
  25 H :    0.131406
  26 H :    0.131903
  27 H :    0.094505
  28 H :    0.199710
  29 H :    0.201561
  30 H :    0.150466
  31 H :    0.151436
  32 H :    0.162050
  33 H :    0.132592
  34 H :    0.241632
  35 H :    0.166342
Sum of atomic charges:   -0.0000000

LOEWDIN ATOMIC CHARGES
----------------------
   0 C :    0.106364
   1 C :   -0.016371
   2 O :    0.298452
   3 C :   -0.421306
   4 O :    0.104963
   5 C :   -0.099774
   6 C :   -0.053274
   7 C :    0.131248
   8 N :    0.408071
   9 C :   -0.455962
  10 S :   -0.035235
  11 N :    0.394485
  12 C :   -0.054234
  13 C :   -0.037140
  14 C :    0.017638
  15 C :    0.044271
  16 C :   -0.001273
  17 C :   -0.191195
  18 O :    0.396164
  19 C :    0.030853
  20 H :   -0.028224
  21 H :   -0.026200
  22 H :   -0.026072
  23 H :   -0.029366
  24 H :   -0.028480
  25 H :   -0.004740
  26 H :   -0.004187
  27 H :   -0.023539
  28 H :   -0.056784
  29 H :   -0.064870
  30 H :   -0.012546
  31 H :   -0.029403
  32 H :   -0.020280
  33 H :   -0.034905
  34 H :   -0.153016
  35 H :   -0.024131

  Mayer bond orders larger than 0.100000
B(  0-C ,  1-C ) :   0.9732 B(  0-C , 20-H ) :   0.9750 B(  0-C , 21-H ) :   0.9800
B(  0-C , 22-H ) :   0.9741 B(  1-C ,  2-O ) :   0.8985 B(  1-C , 23-H ) :   0.9875
B(  1-C , 24-H ) :   0.9711 B(  2-O ,  3-C ) :   1.1310 B(  3-C ,  4-O ) :   1.9993
B(  3-C ,  5-C ) :   1.0715 B(  5-C ,  6-C ) :   1.6179 B(  5-C , 12-C ) :   0.9561
B(  6-C ,  7-C ) :   0.9661 B(  6-C ,  8-N ) :   1.1591 B(  7-C , 25-H ) :   0.9625
B(  7-C , 26-H ) :   0.9568 B(  7-C , 27-H ) :   0.9898 B(  8-N ,  9-C ) :   1.1858
B(  8-N , 28-H ) :   0.9465 B(  9-C , 10-S ) :   1.6025 B(  9-C , 11-N ) :   1.3128
B( 11-N , 12-C ) :   0.9554 B( 11-N , 29-H ) :   0.9479 B( 12-C , 13-C ) :   0.9664
B( 12-C , 30-H ) :   1.0029 B( 13-C , 14-C ) :   1.3551 B( 13-C , 19-C ) :   1.3739
B( 14-C , 15-C ) :   1.3898 B( 14-C , 31-H ) :   0.9734 B( 15-C , 16-C ) :   1.3594
B( 15-C , 32-H ) :   0.9710 B( 16-C , 17-C ) :   1.3322 B( 16-C , 33-H ) :   0.9852
B( 17-C , 18-O ) :   1.1066 B( 17-C , 19-C ) :   1.3635 B( 18-O , 34-H ) :   0.9789
B( 19-C , 35-H ) :   0.9583

MP2 TOTAL ENERGY:    -1274.335491056 Eh
FINAL SINGLE POINT ENERGY     -1274.335491056030

DIPOLE MOMENT
-------------
                                X             Y             Z
Electronic contribution:      7.63773      11.51120       5.49656
Nuclear contribution   :     -8.66074     -13.10214      -5.47492
                        -----------------------------------------
Total Dipole Moment    :     -1.02301      -1.59094       0.02164
                        -----------------------------------------
Magnitude (a.u.)       :      1.89159
Magnitude (Debye)      :      4.80804

Rotational constants in cm-1:     0.012525     0.008446     0.006078
Rotational constants in MHz :   375.483379   253.218047   182.219159

                             ****ORCA TERMINATED NORMALLY****
TOTAL RUN TIME: 0 days 1 hours 41 minutes 32 seconds 794 msec
