                         Program Version 4.2.0 -  RELEASE  -
|  1> ! ri-mp2 cc-pvtz cc-pvtz/c TightSCF NoKeepInts
|  2>
|  3> %scf
|  4>   MaxCore 4096
|  5> end
|  6> *xyz  0  1
|  7>     C       14.0121491   15.2237088   15.0298062
|  8>     C       14.9910728   16.2723735   15.5818911
|  9>     O       16.3031741   15.9217978   15.1020336
| 10>     C       17.4489935   16.4443828   15.6443691
| 11>     O       18.5293688   15.9066057   15.4894573
| 12>     C       17.2766764   17.6340224   16.5289866
| 13>     C       16.9569500   18.8361478   15.9921321
| 14>     C       16.5194873   19.1171216   14.5683565
| 15>     N       17.1063750   20.0109635   16.7309146
| 16>     C       17.7952216   20.0915453   17.9128312
| 17>     S       18.0352519   21.5341590   18.6843742
| 18>     N       18.2983815   18.9139752   18.4101248
| 19>     C       18.0196414   17.5713953   17.8617772
| 20>     C       17.3839733   16.5940644   18.8382334
| 21>     C       17.8395272   15.2651972   18.9025316
| 22>     C       17.2414274   14.3476014   19.7821667
| 23>     C       16.1765096   14.7619794   20.6005353
| 24>     C       15.7157443   16.0840049   20.5322013
| 25>     O       14.6805116   16.4837640   21.3126122
| 26>     C       16.3120594   16.9953211   19.6545625
| 27>     H       14.2941933   14.2180899   15.3667522
| 28>     H       14.0133373   15.2325639   13.9326412
| 29>     H       12.9913776   15.4277623   15.3752303
| 30>     H       14.6926105   17.2720555   15.2468241
| 31>     H       14.9623901   16.2403485   16.6801270
| 32>     H       16.6502750   18.2540614   13.9044184
| 33>     H       17.1118585   19.9319916   14.1322960
| 34>     H       15.4641607   19.4131392   14.5298848
| 35>     H       16.7801014   20.8880100   16.3560986
| 36>     H       18.8009159   19.0002054   19.2848684
| 37>     H       19.0419537   17.2462517   17.6161675
| 38>     H       18.6550209   14.9407591   18.2588782
| 39>     H       17.6013857   13.3208127   19.8233460
| 40>     H       15.7109285   14.0556811   21.2800705
| 41>     H       14.4354075   15.7347896   21.8768765
| 42>     H       15.9385873   18.0133472   19.6136225
| 43> *
| 44>
| 45>                          ****END OF INPUT****

CARTESIAN COORDINATES (ANGSTROEM)
---------------------------------
  C     14.012149   15.223709   15.029806
  C     14.991073   16.272374   15.581891
  O     16.303174   15.921798   15.102034
  C     17.448993   16.444383   15.644369
  O     18.529369   15.906606   15.489457
  C     17.276676   17.634022   16.528987
  C     16.956950   18.836148   15.992132
  C     16.519487   19.117122   14.568357
  N     17.106375   20.010963   16.730915
  C     17.795222   20.091545   17.912831
  S     18.035252   21.534159   18.684374
  N     18.298382   18.913975   18.410125
  C     18.019641   17.571395   17.861777
  C     17.383973   16.594064   18.838233
  C     17.839527   15.265197   18.902532
  C     17.241427   14.347601   19.782167
  C     16.176510   14.761979   20.600535
  C     15.715744   16.084005   20.532201
  O     14.680512   16.483764   21.312612
  C     16.312059   16.995321   19.654563
  H     14.294193   14.218090   15.366752
  H     14.013337   15.232564   13.932641
  H     12.991378   15.427762   15.375230
  H     14.692610   17.272056   15.246824
  H     14.962390   16.240348   16.680127
  H     16.650275   18.254061   13.904418
  H     17.111859   19.931992   14.132296
  H     15.464161   19.413139   14.529885
  H     16.780101   20.888010   16.356099
  H     18.800916   19.000205   19.284868
  H     19.041954   17.246252   17.616167
  H     18.655021   14.940759   18.258878
  H     17.601386   13.320813   19.823346
  H     15.710928   14.055681   21.280070
  H     14.435408   15.734790   21.876877
  H     15.938587   18.013347   19.613623

 Total Charge           Charge          ....    0
 Multiplicity           Mult            ....    1
 Number of Electrons    NEL             ....  154
 Basis Dimension        Dim             ....  828

ORBITAL ENERGIES
----------------

  NO   OCC          E(Eh)            E(eV)
   0   2.0000     -91.889527     -2500.4412
   1   2.0000     -20.604797      -560.6850
   2   2.0000     -20.600133      -560.5581
   3   2.0000     -20.551235      -559.2275
   4   2.0000     -15.627081      -425.2345
   5   2.0000     -15.609642      -424.7599
   6   2.0000     -11.398987      -310.1822
   7   2.0000     -11.385636      -309.8189
   8   2.0000     -11.332659      -308.3773
   9   2.0000     -11.317628      -307.9683
  10   2.0000     -11.310733      -307.7807
  11   2.0000     -11.306326      -307.6608
  12   2.0000     -11.267699      -306.6097
  13   2.0000     -11.265424      -306.5478
  14   2.0000     -11.263440      -306.4938
  15   2.0000     -11.258005      -306.3459
  16   2.0000     -11.246605      -306.0357
  17   2.0000     -11.242690      -305.9292
  18   2.0000     -11.240380      -305.8663
  19   2.0000     -11.234913      -305.7175
  20   2.0000      -8.894640      -242.0355
  21   2.0000      -6.576223      -178.9481
  22   2.0000      -6.574209      -178.8933
  23   2.0000      -6.573628      -178.8775
  24   2.0000      -1.450455       -39.4689
  25   2.0000      -1.419840       -38.6358
  26   2.0000      -1.363781       -37.1104
  27   2.0000      -1.340498       -36.4768
  28   2.0000      -1.239161       -33.7193
  29   2.0000      -1.161951       -31.6183
  30   2.0000      -1.126545       -30.6548
  31   2.0000      -1.049031       -28.5456
  32   2.0000      -1.041951       -28.3529
  33   2.0000      -1.019748       -27.7487
  34   2.0000      -1.006306       -27.3830
  35   2.0000      -0.989553       -26.9271
  36   2.0000      -0.926749       -25.2181
  37   2.0000      -0.881336       -23.9824
  38   2.0000      -0.856275       -23.3004
  39   2.0000      -0.842644       -22.9295
  40   2.0000      -0.838480       -22.8162
  41   2.0000      -0.836804       -22.7706
  42   2.0000      -0.758255       -20.6332
  43   2.0000      -0.740083       -20.1387
  44   2.0000      -0.732801       -19.9405
  45   2.0000      -0.697705       -18.9855
  46   2.0000      -0.689793       -18.7702
  47   2.0000      -0.683118       -18.5886
  48   2.0000      -0.674930       -18.3658
  49   2.0000      -0.663720       -18.0607
  50   2.0000      -0.659798       -17.9540
  51   2.0000      -0.648941       -17.6586
  52   2.0000      -0.638719       -17.3804
  53   2.0000      -0.613275       -16.6881
  54   2.0000      -0.607853       -16.5405
  55   2.0000      -0.603590       -16.4245
  56   2.0000      -0.595155       -16.1950
  57   2.0000      -0.581861       -15.8332
  58   2.0000      -0.578067       -15.7300
  59   2.0000      -0.571760       -15.5584
  60   2.0000      -0.562632       -15.3100
  61   2.0000      -0.559366       -15.2211
  62   2.0000      -0.553569       -15.0634
  63   2.0000      -0.527811       -14.3625
  64   2.0000      -0.519697       -14.1417
  65   2.0000      -0.515663       -14.0319
  66   2.0000      -0.507761       -13.8169
  67   2.0000      -0.501946       -13.6586
  68   2.0000      -0.489176       -13.3111
  69   2.0000      -0.469953       -12.7881
  70   2.0000      -0.457471       -12.4484
  71   2.0000      -0.452291       -12.3075
  72   2.0000      -0.356449        -9.6995
  73   2.0000      -0.352268        -9.5857
  74   2.0000      -0.329108        -8.9555
  75   2.0000      -0.325279        -8.8513
  76   2.0000      -0.319651        -8.6982
  77   0.0000       0.086823         2.3626
  78   0.0000       0.103705         2.8219
  79   0.0000       0.115295         3.1373
  80   0.0000       0.128136         3.4868
  81   0.0000       0.129904         3.5349

MULLIKEN ATOMIC CHARGES
-----------------------
   0 C :   -0.257249
   1 C :    0.027403
   2 O :   -0.305717
   3 C :    0.412245
   4 O :   -0.381497
   5 C :   -0.204260
   6 C :    0.143122
   7 C :   -0.336901
   8 N :   -0.139959
   9 C :    0.209526
  10 S :   -0.443262
  11 N :   -0.222610
  12 C :    0.060970
  13 C :    0.026413
  14 C :   -0.221699
  15 C :   -0.127639
  16 C :   -0.276795
  17 C :    0.316135
  18 O :   -0.355676
  19 C :   -0.254005
  20 H :    0.106330
  21 H :    0.099023
  22 H :    0.089693
  23 H :    0.082103
  24 H :    0.108162
  25 H :    0.132642
  26 H :    0.136011
  27 H :    0.123109
  28 H :    0.197123
  29 H :    0.202341
  30 H :    0.167520
  31 H :    0.175444
  32 H :    0.164705
  33 H :    0.132022
  34 H :    0.241406
  35 H :    0.173820
Sum of atomic charges:   -0.0000000

LOEWDIN ATOMIC CHARGES
----------------------
   0 C :    0.111997
   1 C :   -0.026175
   2 O :    0.306874
   3 C :   -0.415168
   4 O :    0.120071
   5 C :   -0.083746
   6 C :   -0.092584
   7 C :    0.123822
   8 N :    0.402559
   9 C :   -0.456031
  10 S :   -0.038536
  11 N :    0.395953
  12 C :   -0.049791
  13 C :   -0.044340
  14 C :    0.019075
  15 C :    0.045216
  16 C :    0.000195
  17 C :   -0.191469
  18 O :    0.395235
  19 C :    0.027184
  20 H :   -0.022240
  21 H :   -0.025959
  22 H :   -0.024800
  23 H :   -0.037076
  24 H :   -0.029001
  25 H :   -0.008069
  26 H :   -0.009793
  27 H :   -0.018239
  28 H :   -0.056934
  29 H :   -0.063778
  30 H :   -0.003862
  31 H :   -0.021382
  32 H :   -0.018432
  33 H :   -0.034689
  34 H :   -0.153019
  35 H :   -0.023067

  Mayer bond orders larger than 0.100000
B(  0-C ,  1-C ) :   0.9817 B(  0-C , 20-H ) :   0.9778 B(  0-C , 21-H ) :   0.9781
B(  0-C , 22-H ) :   0.9770 B(  1-C ,  2-O ) :   0.9101 B(  1-C , 23-H ) :   0.9686
B(  1-C , 24-H ) :   0.9665 B(  2-O ,  3-C ) :   1.1884 B(  3-C ,  4-O ) :   2.1005
B(  3-C ,  5-C ) :   0.9164 B(  5-C ,  6-C ) :   1.7180 B(  5-C , 12-C ) :   0.9407
B(  6-C ,  7-C ) :   0.9357 B(  6-C ,  8-N ) :   1.1085 B(  7-C , 25-H ) :   0.9766
B(  7-C , 26-H ) :   0.9721 B(  7-C , 27-H ) :   0.9670 B(  8-N ,  9-C ) :   1.1981
B(  8-N , 28-H ) :   0.9515 B(  9-C , 10-S ) :   1.6099 B(  9-C , 11-N ) :   1.2904
B( 11-N , 12-C ) :   0.9837 B( 11-N , 29-H ) :   0.9474 B( 12-C , 13-C ) :   0.9672
B( 12-C , 30-H ) :   0.9896 B( 13-C , 14-C ) :   1.3842 B( 13-C , 19-C ) :   1.3527
B( 14-C , 15-C ) :   1.3942 B( 14-C , 31-H ) :   0.9598 B( 15-C , 16-C ) :   1.3623
B( 15-C , 32-H ) :   0.9696 B( 16-C , 17-C ) :   1.3311 B( 16-C , 33-H ) :   0.9847
B( 17-C , 18-O ) :   1.1095 B( 17-C , 19-C ) :   1.3639 B( 18-O , 34-H ) :   0.9792
B( 19-C , 35-H ) :   0.9566

MP2 TOTAL ENERGY:    -1274.332403524 Eh
FINAL SINGLE POINT ENERGY     -1274.332403523770

DIPOLE MOMENT
-------------
                                X             Y             Z
Electronic contribution:     10.36445       8.55853       8.75118
Nuclear contribution   :    -12.04365      -9.74203      -9.06589
                        -----------------------------------------
Total Dipole Moment    :     -1.67920      -1.18350      -0.31472
                        -----------------------------------------
Magnitude (a.u.)       :      2.07833
Magnitude (Debye)      :      5.28269

Rotational constants in cm-1:     0.010683     0.009084     0.006192
Rotational constants in MHz :   320.276999   272.319496   185.627079

                             ****ORCA TERMINATED NORMALLY****
TOTAL RUN TIME: 0 days 1 hours 44 minutes 13 seconds 980 msec
