                         Program Version 4.2.0 -  RELEASE  -
|  1> ! ri-mp2 cc-pvtz cc-pvtz/c TightSCF NoKeepInts
|  2>
|  3> %scf
|  4>   MaxCore 4096
|  5> end
|  6> *xyz  0  1
|  7>     C       14.8082695   15.1266235   15.9762647
|  8>     C       14.8645868   16.1936072   14.8588176
|  9>     O       16.2124334   16.6274910   14.5619812
| 10>     C       17.1866429   16.5857887   15.5153229
| 11>     O       17.9294574   15.6264854   15.6264346
| 12>     C       17.1963449   17.7469468   16.4649321
| 13>     C       16.9373510   19.0168728   16.0594233
| 14>     C       16.4135283   19.4693708   14.7107099
| 15>     N       17.2162296   20.1016279   16.8944281
| 16>     C       17.9551707   20.0221515   18.0443818
| 17>     S       18.3380449   21.3658120   18.9291473
| 18>     N       18.3794188   18.7701042   18.4125856
| 19>     C       17.9772489   17.5080931   17.7611660
| 20>     C       17.2854050   16.5289756   18.6995986
| 21>     C       17.7230421   15.1956201   18.7913952
| 22>     C       17.0720450   14.2867872   19.6421393
| 23>     C       15.9739463   14.7151560   20.4075723
| 24>     C       15.5340081   16.0427581   20.3158827
| 25>     O       14.4684666   16.4569154   21.0465773
| 26>     C       16.1831368   16.9448196   19.4668621
| 27>     H       15.4577986   14.2745574   15.7368482
| 28>     H       13.7851834   14.7480220   16.0883495
| 29>     H       15.1160858   15.5390497   16.9450196
| 30>     H       14.4076236   15.7929242   13.9446423
| 31>     H       14.2665316   17.0571618   15.1769128
| 32>     H       16.9851629   19.0100227   13.8940288
| 33>     H       16.4859649   20.5552293   14.5724376
| 34>     H       15.3605658   19.1919656   14.5852295
| 35>     H       16.9356602   21.0305956   16.6233191
| 36>     H       18.9101596   18.7368306   19.2739893
| 37>     H       18.9601465   17.1211821   17.4539566
| 38>     H       18.5617673   14.8591921   18.1857243
| 39>     H       17.4165043   13.2557041   19.7002348
| 40>     H       15.4672855   14.0157002   21.0642252
| 41>     H       14.1883573   15.7117108   21.5991920
| 42>     H       15.8274257   17.9681449   19.4082679
| 43> *
| 44>
| 45>                          ****END OF INPUT****

CARTESIAN COORDINATES (ANGSTROEM)
---------------------------------
  C     14.808269   15.126624   15.976265
  C     14.864587   16.193607   14.858818
  O     16.212433   16.627491   14.561981
  C     17.186643   16.585789   15.515323
  O     17.929457   15.626485   15.626435
  C     17.196345   17.746947   16.464932
  C     16.937351   19.016873   16.059423
  C     16.413528   19.469371   14.710710
  N     17.216230   20.101628   16.894428
  C     17.955171   20.022151   18.044382
  S     18.338045   21.365812   18.929147
  N     18.379419   18.770104   18.412586
  C     17.977249   17.508093   17.761166
  C     17.285405   16.528976   18.699599
  C     17.723042   15.195620   18.791395
  C     17.072045   14.286787   19.642139
  C     15.973946   14.715156   20.407572
  C     15.534008   16.042758   20.315883
  O     14.468467   16.456915   21.046577
  C     16.183137   16.944820   19.466862
  H     15.457799   14.274557   15.736848
  H     13.785183   14.748022   16.088349
  H     15.116086   15.539050   16.945020
  H     14.407624   15.792924   13.944642
  H     14.266532   17.057162   15.176913
  H     16.985163   19.010023   13.894029
  H     16.485965   20.555229   14.572438
  H     15.360566   19.191966   14.585229
  H     16.935660   21.030596   16.623319
  H     18.910160   18.736831   19.273989
  H     18.960147   17.121182   17.453957
  H     18.561767   14.859192   18.185724
  H     17.416504   13.255704   19.700235
  H     15.467285   14.015700   21.064225
  H     14.188357   15.711711   21.599192
  H     15.827426   17.968145   19.408268

 Total Charge           Charge          ....    0
 Multiplicity           Mult            ....    1
 Number of Electrons    NEL             ....  154
 Basis Dimension        Dim             ....  828

ORBITAL ENERGIES
----------------

  NO   OCC          E(Eh)            E(eV)
   0   2.0000     -91.889995     -2500.4539
   1   2.0000     -20.596368      -560.4557
   2   2.0000     -20.585784      -560.1677
   3   2.0000     -20.552380      -559.2587
   4   2.0000     -15.630527      -425.3283
   5   2.0000     -15.607793      -424.7096
   6   2.0000     -11.394739      -310.0666
   7   2.0000     -11.384850      -309.7975
   8   2.0000     -11.339648      -308.5675
   9   2.0000     -11.312957      -307.8412
  10   2.0000     -11.308497      -307.7198
  11   2.0000     -11.306074      -307.6539
  12   2.0000     -11.262081      -306.4568
  13   2.0000     -11.260407      -306.4112
  14   2.0000     -11.259617      -306.3898
  15   2.0000     -11.252789      -306.2040
  16   2.0000     -11.242884      -305.9344
  17   2.0000     -11.238859      -305.8249
  18   2.0000     -11.235108      -305.7228
  19   2.0000     -11.228990      -305.5564
  20   2.0000      -8.895071      -242.0472
  21   2.0000      -6.576645      -178.9596
  22   2.0000      -6.574644      -178.9052
  23   2.0000      -6.574053      -178.8891
  24   2.0000      -1.447098       -39.3775
  25   2.0000      -1.416161       -38.5357
  26   2.0000      -1.357246       -36.9325
  27   2.0000      -1.341738       -36.5106
  28   2.0000      -1.238965       -33.7139
  29   2.0000      -1.157122       -31.4869
  30   2.0000      -1.122947       -30.5569
  31   2.0000      -1.045052       -28.4373
  32   2.0000      -1.032952       -28.1081
  33   2.0000      -1.014789       -27.6138
  34   2.0000      -1.002615       -27.2825
  35   2.0000      -0.987366       -26.8676
  36   2.0000      -0.924230       -25.1496
  37   2.0000      -0.895977       -24.3808
  38   2.0000      -0.851294       -23.1649
  39   2.0000      -0.839452       -22.8427
  40   2.0000      -0.832791       -22.6614
  41   2.0000      -0.824986       -22.4490
  42   2.0000      -0.744299       -20.2534
  43   2.0000      -0.730156       -19.8686
  44   2.0000      -0.728343       -19.8192
  45   2.0000      -0.693488       -18.8708
  46   2.0000      -0.685809       -18.6618
  47   2.0000      -0.680518       -18.5178
  48   2.0000      -0.677067       -18.4239
  49   2.0000      -0.664875       -18.0922
  50   2.0000      -0.651009       -17.7149
  51   2.0000      -0.646666       -17.5967
  52   2.0000      -0.635521       -17.2934
  53   2.0000      -0.623983       -16.9794
  54   2.0000      -0.606879       -16.5140
  55   2.0000      -0.602418       -16.3926
  56   2.0000      -0.599910       -16.3244
  57   2.0000      -0.579120       -15.7587
  58   2.0000      -0.575261       -15.6537
  59   2.0000      -0.565346       -15.3838
  60   2.0000      -0.555109       -15.1053
  61   2.0000      -0.546178       -14.8623
  62   2.0000      -0.540553       -14.7092
  63   2.0000      -0.531987       -14.4761
  64   2.0000      -0.519398       -14.1335
  65   2.0000      -0.511373       -13.9152
  66   2.0000      -0.498970       -13.5777
  67   2.0000      -0.491478       -13.3738
  68   2.0000      -0.485370       -13.2076
  69   2.0000      -0.466894       -12.7048
  70   2.0000      -0.458432       -12.4746
  71   2.0000      -0.449123       -12.2213
  72   2.0000      -0.355449        -9.6723
  73   2.0000      -0.348974        -9.4961
  74   2.0000      -0.329108        -8.9555
  75   2.0000      -0.320107        -8.7106
  76   2.0000      -0.319230        -8.6867
  77   0.0000       0.073109         1.9894
  78   0.0000       0.105823         2.8796
  79   0.0000       0.120214         3.2712
  80   0.0000       0.132078         3.5940
  81   0.0000       0.137821         3.7503

MULLIKEN ATOMIC CHARGES
-----------------------
   0 C :   -0.312282
   1 C :    0.043790
   2 O :   -0.382397
   3 C :    0.477078
   4 O :   -0.388609
   5 C :   -0.234320
   6 C :    0.151010
   7 C :   -0.291465
   8 N :   -0.127699
   9 C :    0.206234
  10 S :   -0.439902
  11 N :   -0.213950
  12 C :    0.060944
  13 C :   -0.009714
  14 C :   -0.170115
  15 C :   -0.137773
  16 C :   -0.271546
  17 C :    0.309557
  18 O :   -0.358843
  19 C :   -0.232203
  20 H :    0.117840
  21 H :    0.106610
  22 H :    0.115092
  23 H :    0.114069
  24 H :    0.078111
  25 H :    0.134541
  26 H :    0.107248
  27 H :    0.121409
  28 H :    0.198274
  29 H :    0.199976
  30 H :    0.158852
  31 H :    0.168503
  32 H :    0.162196
  33 H :    0.131231
  34 H :    0.240641
  35 H :    0.167611
Sum of atomic charges:   -0.0000000

LOEWDIN ATOMIC CHARGES
----------------------
   0 C :    0.108968
   1 C :   -0.016709
   2 O :    0.287610
   3 C :   -0.423820
   4 O :    0.126885
   5 C :   -0.097642
   6 C :   -0.067784
   7 C :    0.127317
   8 N :    0.405520
   9 C :   -0.458220
  10 S :   -0.035940
  11 N :    0.396202
  12 C :   -0.048702
  13 C :   -0.043998
  14 C :    0.024317
  15 C :    0.042433
  16 C :   -0.000732
  17 C :   -0.193605
  18 O :    0.394060
  19 C :    0.027325
  20 H :   -0.020796
  21 H :   -0.023968
  22 H :   -0.025772
  23 H :   -0.022396
  24 H :   -0.038748
  25 H :   -0.005976
  26 H :   -0.019287
  27 H :   -0.012910
  28 H :   -0.058234
  29 H :   -0.063404
  30 H :   -0.006746
  31 H :   -0.022532
  32 H :   -0.019770
  33 H :   -0.035301
  34 H :   -0.153935
  35 H :   -0.023708

  Mayer bond orders larger than 0.100000
B(  0-C ,  1-C ) :   0.9713 B(  0-C , 20-H ) :   0.9710 B(  0-C , 21-H ) :   0.9751
B(  0-C , 22-H ) :   0.9660 B(  1-C ,  2-O ) :   0.9026 B(  1-C , 23-H ) :   0.9789
B(  1-C , 24-H ) :   0.9752 B(  2-O ,  3-C ) :   1.0756 B(  3-C ,  4-O ) :   2.0523
B(  3-C ,  5-C ) :   1.0039 B(  5-C ,  6-C ) :   1.6811 B(  5-C , 12-C ) :   0.9427
B(  6-C ,  7-C ) :   0.9483 B(  6-C ,  8-N ) :   1.1402 B(  7-C , 25-H ) :   0.9647
B(  7-C , 26-H ) :   0.9887 B(  7-C , 27-H ) :   0.9679 B(  8-N ,  9-C ) :   1.1848
B(  8-N , 28-H ) :   0.9475 B(  9-C , 10-S ) :   1.6121 B(  9-C , 11-N ) :   1.3014
B( 11-N , 12-C ) :   0.9830 B( 11-N , 29-H ) :   0.9487 B( 12-C , 13-C ) :   0.9671
B( 12-C , 30-H ) :   0.9949 B( 13-C , 14-C ) :   1.3877 B( 13-C , 19-C ) :   1.3617
B( 14-C , 15-C ) :   1.3965 B( 14-C , 31-H ) :   0.9592 B( 15-C , 16-C ) :   1.3595
B( 15-C , 32-H ) :   0.9707 B( 16-C , 17-C ) :   1.3325 B( 16-C , 33-H ) :   0.9847
B( 17-C , 18-O ) :   1.1069 B( 17-C , 19-C ) :   1.3646 B( 18-O , 34-H ) :   0.9800
B( 19-C , 35-H ) :   0.9594

MP2 TOTAL ENERGY:    -1274.326245551 Eh
FINAL SINGLE POINT ENERGY     -1274.326245550866

DIPOLE MOMENT
-------------
                                X             Y             Z
Electronic contribution:      9.17726       8.98355       7.12694
Nuclear contribution   :    -10.72575     -10.11841      -7.74874
                        -----------------------------------------
Total Dipole Moment    :     -1.54849      -1.13487      -0.62180
                        -----------------------------------------
Magnitude (a.u.)       :      2.01801
Magnitude (Debye)      :      5.12938

Rotational constants in cm-1:     0.011366     0.009272     0.006252
Rotational constants in MHz :   340.732298   277.963994   187.421509

                             ****ORCA TERMINATED NORMALLY****
TOTAL RUN TIME: 0 days 2 hours 2 minutes 54 seconds 633 msec
