                         Program Version 4.2.0 -  RELEASE  -
|  1> ! ri-mp2 cc-pvtz cc-pvtz/c TightSCF NoKeepInts
|  2>
|  3> %scf
|  4>   MaxCore 4096
|  5> end
|  6> *xyz  0  1
|  7>     C       14.7340464   15.7184152   16.2169344
|  8>     C       15.0466018   16.0745350   14.7445531
|  9>     O       16.4197311   16.4736026   14.5069435
| 10>     C       17.3529232   16.5503734   15.5012755
| 11>     O       18.1967294   15.6826517   15.6351123
| 12>     C       17.2077426   17.7006753   16.4546914
| 13>     C       16.8538709   18.9422597   16.0345007
| 14>     C       16.3614969   19.3486272   14.6598125
| 15>     N       16.9904996   20.0460479   16.8797069
| 16>     C       17.6843783   20.0339857   18.0599855
| 17>     S       17.9014944   21.4057976   18.9575747
| 18>     N       18.2090151   18.8266206   18.4475505
| 19>     C       17.9498710   17.5331868   17.7850059
| 20>     C       17.3137300   16.4933279   18.6976486
| 21>     C       17.8449905   15.1937849   18.7799393
| 22>     C       17.2469003   14.2279830   19.6064029
| 23>     C       16.1074378   14.5645872   20.3570264
| 24>     C       15.5748509   15.8584430   20.2757291
| 25>     O       14.4694470   16.1839995   20.9918706
| 26>     C       16.1724081   16.8177269   19.4520704
| 27>     H       15.4317492   14.9642692   16.6048254
| 28>     H       13.7226856   15.3013518   16.2948339
| 29>     H       14.7707842   16.6039464   16.8619257
| 30>     H       14.8339098   15.1940703   14.1240654
| 31>     H       14.3687806   16.8717342   14.4148415
| 32>     H       15.3243749   19.0312599   14.5047552
| 33>     H       16.9780383   18.8998407   13.8705168
| 34>     H       16.3999688   20.4340006   14.5045236
| 35>     H       16.6359625   20.9451638   16.5948253
| 36>     H       18.7056933   18.8416237   19.3295604
| 37>     H       18.9764832   17.2384915   17.5214866
| 38>     H       18.7171142   14.9277347   18.1864507
| 39>     H       17.6642984   13.2237948   19.6571826
| 40>     H       15.6411279   13.8206924   20.9944486
| 41>     H       14.2333331   15.4119185   21.5279038
| 42>     H       15.7445306   17.8134763   19.4015203
| 43> *
| 44>
| 45>                          ****END OF INPUT****

CARTESIAN COORDINATES (ANGSTROEM)
---------------------------------
  C     14.734046   15.718415   16.216934
  C     15.046602   16.074535   14.744553
  O     16.419731   16.473603   14.506944
  C     17.352923   16.550373   15.501276
  O     18.196729   15.682652   15.635112
  C     17.207743   17.700675   16.454691
  C     16.853871   18.942260   16.034501
  C     16.361497   19.348627   14.659812
  N     16.990500   20.046048   16.879707
  C     17.684378   20.033986   18.059985
  S     17.901494   21.405798   18.957575
  N     18.209015   18.826621   18.447550
  C     17.949871   17.533187   17.785006
  C     17.313730   16.493328   18.697649
  C     17.844991   15.193785   18.779939
  C     17.246900   14.227983   19.606403
  C     16.107438   14.564587   20.357026
  C     15.574851   15.858443   20.275729
  O     14.469447   16.183999   20.991871
  C     16.172408   16.817727   19.452070
  H     15.431749   14.964269   16.604825
  H     13.722686   15.301352   16.294834
  H     14.770784   16.603946   16.861926
  H     14.833910   15.194070   14.124065
  H     14.368781   16.871734   14.414841
  H     15.324375   19.031260   14.504755
  H     16.978038   18.899841   13.870517
  H     16.399969   20.434001   14.504524
  H     16.635963   20.945164   16.594825
  H     18.705693   18.841624   19.329560
  H     18.976483   17.238491   17.521487
  H     18.717114   14.927735   18.186451
  H     17.664298   13.223795   19.657183
  H     15.641128   13.820692   20.994449
  H     14.233333   15.411919   21.527904
  H     15.744531   17.813476   19.401520

 Total Charge           Charge          ....    0
 Multiplicity           Mult            ....    1
 Number of Electrons    NEL             ....  154
 Basis Dimension        Dim             ....  828

ORBITAL ENERGIES
----------------

  NO   OCC          E(Eh)            E(eV)
   0   2.0000     -91.890104     -2500.4569
   1   2.0000     -20.596607      -560.4622
   2   2.0000     -20.586593      -560.1897
   3   2.0000     -20.551611      -559.2378
   4   2.0000     -15.630279      -425.3215
   5   2.0000     -15.608037      -424.7163
   6   2.0000     -11.395513      -310.0877
   7   2.0000     -11.385009      -309.8018
   8   2.0000     -11.338692      -308.5415
   9   2.0000     -11.312984      -307.8419
  10   2.0000     -11.309863      -307.7570
  11   2.0000     -11.306662      -307.6699
  12   2.0000     -11.263152      -306.4859
  13   2.0000     -11.261207      -306.4330
  14   2.0000     -11.259784      -306.3943
  15   2.0000     -11.252926      -306.2077
  16   2.0000     -11.242891      -305.9346
  17   2.0000     -11.238648      -305.8192
  18   2.0000     -11.235014      -305.7203
  19   2.0000     -11.233185      -305.6705
  20   2.0000      -8.895186      -242.0503
  21   2.0000      -6.576761      -178.9628
  22   2.0000      -6.574758      -178.9083
  23   2.0000      -6.574168      -178.8922
  24   2.0000      -1.445570       -39.3360
  25   2.0000      -1.416392       -38.5420
  26   2.0000      -1.356462       -36.9112
  27   2.0000      -1.341864       -36.5140
  28   2.0000      -1.239154       -33.7191
  29   2.0000      -1.157178       -31.4884
  30   2.0000      -1.123222       -30.5644
  31   2.0000      -1.045302       -28.4441
  32   2.0000      -1.034851       -28.1597
  33   2.0000      -1.015074       -27.6216
  34   2.0000      -1.003838       -27.3158
  35   2.0000      -0.988393       -26.8955
  36   2.0000      -0.924877       -25.1672
  37   2.0000      -0.899405       -24.4741
  38   2.0000      -0.851434       -23.1687
  39   2.0000      -0.839477       -22.8433
  40   2.0000      -0.832973       -22.6664
  41   2.0000      -0.823170       -22.3996
  42   2.0000      -0.744330       -20.2542
  43   2.0000      -0.731495       -19.9050
  44   2.0000      -0.728913       -19.8347
  45   2.0000      -0.693498       -18.8710
  46   2.0000      -0.687046       -18.6955
  47   2.0000      -0.678905       -18.4739
  48   2.0000      -0.675061       -18.3693
  49   2.0000      -0.664446       -18.0805
  50   2.0000      -0.652297       -17.7499
  51   2.0000      -0.649667       -17.6783
  52   2.0000      -0.637427       -17.3453
  53   2.0000      -0.623509       -16.9665
  54   2.0000      -0.607225       -16.5234
  55   2.0000      -0.603056       -16.4100
  56   2.0000      -0.600201       -16.3323
  57   2.0000      -0.581334       -15.8189
  58   2.0000      -0.575937       -15.6720
  59   2.0000      -0.564313       -15.3557
  60   2.0000      -0.557688       -15.1755
  61   2.0000      -0.547144       -14.8885
  62   2.0000      -0.541514       -14.7353
  63   2.0000      -0.535644       -14.5756
  64   2.0000      -0.520628       -14.1670
  65   2.0000      -0.511657       -13.9229
  66   2.0000      -0.499016       -13.5789
  67   2.0000      -0.490619       -13.3504
  68   2.0000      -0.486030       -13.2255
  69   2.0000      -0.470051       -12.7907
  70   2.0000      -0.456524       -12.4226
  71   2.0000      -0.448640       -12.2081
  72   2.0000      -0.355376        -9.6703
  73   2.0000      -0.348043        -9.4707
  74   2.0000      -0.329265        -8.9598
  75   2.0000      -0.320634        -8.7249
  76   2.0000      -0.319220        -8.6864
  77   0.0000       0.074171         2.0183
  78   0.0000       0.105388         2.8678
  79   0.0000       0.117801         3.2055
  80   0.0000       0.131769         3.5856
  81   0.0000       0.136071         3.7027

MULLIKEN ATOMIC CHARGES
-----------------------
   0 C :   -0.338391
   1 C :    0.042693
   2 O :   -0.373946
   3 C :    0.474575
   4 O :   -0.385898
   5 C :   -0.273274
   6 C :    0.191306
   7 C :   -0.302631
   8 N :   -0.130752
   9 C :    0.204243
  10 S :   -0.440341
  11 N :   -0.215929
  12 C :    0.062641
  13 C :    0.028161
  14 C :   -0.195883
  15 C :   -0.131692
  16 C :   -0.278413
  17 C :    0.321072
  18 O :   -0.358566
  19 C :   -0.268838
  20 H :    0.125842
  21 H :    0.118351
  22 H :    0.109522
  23 H :    0.119843
  24 H :    0.089470
  25 H :    0.118336
  26 H :    0.139687
  27 H :    0.111646
  28 H :    0.198316
  29 H :    0.200431
  30 H :    0.159874
  31 H :    0.170610
  32 H :    0.163222
  33 H :    0.130878
  34 H :    0.240804
  35 H :    0.173031
Sum of atomic charges:   -0.0000000

LOEWDIN ATOMIC CHARGES
----------------------
   0 C :    0.105986
   1 C :   -0.013075
   2 O :    0.286116
   3 C :   -0.423886
   4 O :    0.126008
   5 C :   -0.093261
   6 C :   -0.071874
   7 C :    0.127915
   8 N :    0.404980
   9 C :   -0.458618
  10 S :   -0.036271
  11 N :    0.396339
  12 C :   -0.048307
  13 C :   -0.042061
  14 C :    0.023502
  15 C :    0.041894
  16 C :   -0.001089
  17 C :   -0.193352
  18 O :    0.394006
  19 C :    0.029507
  20 H :   -0.019349
  21 H :   -0.021655
  22 H :   -0.032951
  23 H :   -0.023355
  24 H :   -0.035313
  25 H :   -0.014448
  26 H :   -0.005750
  27 H :   -0.018134
  28 H :   -0.058391
  29 H :   -0.063275
  30 H :   -0.006050
  31 H :   -0.022319
  32 H :   -0.019671
  33 H :   -0.035372
  34 H :   -0.153893
  35 H :   -0.024534

  Mayer bond orders larger than 0.100000
B(  0-C ,  1-C ) :   0.9598 B(  0-C , 20-H ) :   0.9665 B(  0-C , 21-H ) :   0.9745
B(  0-C , 22-H ) :   0.9701 B(  1-C ,  2-O ) :   0.9044 B(  1-C , 23-H ) :   0.9831
B(  1-C , 24-H ) :   0.9776 B(  2-O ,  3-C ) :   1.0994 B(  3-C ,  4-O ) :   2.0657
B(  3-C ,  5-C ) :   0.9744 B(  5-C ,  6-C ) :   1.6732 B(  5-C , 12-C ) :   0.9488
B(  6-C ,  7-C ) :   0.9456 B(  6-C ,  8-N ) :   1.1311 B(  7-C , 25-H ) :   0.9681
B(  7-C , 26-H ) :   0.9642 B(  7-C , 27-H ) :   0.9887 B(  8-N ,  9-C ) :   1.1877
B(  8-N , 28-H ) :   0.9475 B(  9-C , 10-S ) :   1.6117 B(  9-C , 11-N ) :   1.2998
B( 11-N , 12-C ) :   0.9798 B( 11-N , 29-H ) :   0.9486 B( 12-C , 13-C ) :   0.9680
B( 12-C , 30-H ) :   0.9942 B( 13-C , 14-C ) :   1.3864 B( 13-C , 19-C ) :   1.3484
B( 14-C , 15-C ) :   1.3951 B( 14-C , 31-H ) :   0.9594 B( 15-C , 16-C ) :   1.3598
B( 15-C , 32-H ) :   0.9704 B( 16-C , 17-C ) :   1.3315 B( 16-C , 33-H ) :   0.9850
B( 17-C , 18-O ) :   1.1069 B( 17-C , 19-C ) :   1.3606 B( 18-O , 34-H ) :   0.9801
B( 19-C , 35-H ) :   0.9586

MP2 TOTAL ENERGY:    -1274.323934441 Eh
FINAL SINGLE POINT ENERGY     -1274.323934441496

DIPOLE MOMENT
-------------
                                X             Y             Z
Electronic contribution:      8.77992       7.92928       6.91317
Nuclear contribution   :    -10.28997      -9.10459      -7.54910
                        -----------------------------------------
Total Dipole Moment    :     -1.51005      -1.17531      -0.63593
                        -----------------------------------------
Magnitude (a.u.)       :      2.01644
Magnitude (Debye)      :      5.12537

Rotational constants in cm-1:     0.011399     0.009369     0.006406
Rotational constants in MHz :   341.737236   280.886667   192.058776

                             ****ORCA TERMINATED NORMALLY****
TOTAL RUN TIME: 0 days 2 hours 2 minutes 40 seconds 242 msec
