                         Program Version 4.2.0 -  RELEASE  -
|  1> ! ri-mp2 cc-pvtz cc-pvtz/c TightSCF NoKeepInts
|  2>
|  3> %scf
|  4>   MaxCore 4096
|  5> end
|  6> *xyz  0  1
|  7>     C       14.0937867   15.4046801   14.1388948
|  8>     C       14.9429810   15.7781513   15.3649174
|  9>     O       16.2106850   16.2457462   14.8838440
| 10>     C       17.2054823   16.3261707   15.8067433
| 11>     O       17.9355578   15.3784724   16.0337651
| 12>     C       17.2205122   17.5901010   16.6153600
| 13>     C       16.9130405   18.7987082   16.0768463
| 14>     C       16.3171914   19.0795831   14.7113675
| 15>     N       17.1963223   19.9791317   16.7681824
| 16>     C       17.9800651   20.0499234   17.8885797
| 17>     S       18.3626278   21.4953729   18.5950182
| 18>     N       18.4487783   18.8584645   18.3823445
| 19>     C       18.0547156   17.5207766   17.8986151
| 20>     C       17.4248100   16.6461664   18.9741691
| 21>     C       17.9216094   15.3554555   19.2293061
| 22>     C       17.3351079   14.5462605   20.2167443
| 23>     C       16.2424570   15.0321485   20.9552474
| 24>     C       15.7432808   16.3168876   20.7005743
| 25>     O       14.6839372   16.7860920   21.4067182
| 26>     C       16.3283844   17.1195495   19.7159662
| 27>     H       14.5913303   14.6239807   13.5495496
| 28>     H       13.9376796   16.2781865   13.4939136
| 29>     H       13.1125586   15.0261728   14.4502150
| 30>     H       14.4426716   16.5531869   15.9605963
| 31>     H       15.0802800   14.8866021   15.9931281
| 32>     H       16.8837238   18.5658369   13.9240372
| 33>     H       16.3220572   20.1469831   14.4584453
| 34>     H       15.2775975   18.7347529   14.6588802
| 35>     H       16.8824213   20.8640902   16.4027029
| 36>     H       19.0111168   18.9372301   19.2204705
| 37>     H       19.0351065   17.1215698   17.5992842
| 38>     H       18.7570698   14.9730613   18.6469607
| 39>     H       17.7251339   13.5468097   20.4014931
| 40>     H       15.7858420   14.4096472   21.7175657
| 41>     H       14.4511390   16.1117546   22.0626594
| 42>     H       15.9299391   18.1122932   19.5348945
| 43> *
| 44>
| 45>                          ****END OF INPUT****

CARTESIAN COORDINATES (ANGSTROEM)
---------------------------------
  C     14.093787   15.404680   14.138895
  C     14.942981   15.778151   15.364917
  O     16.210685   16.245746   14.883844
  C     17.205482   16.326171   15.806743
  O     17.935558   15.378472   16.033765
  C     17.220512   17.590101   16.615360
  C     16.913041   18.798708   16.076846
  C     16.317191   19.079583   14.711367
  N     17.196322   19.979132   16.768182
  C     17.980065   20.049923   17.888580
  S     18.362628   21.495373   18.595018
  N     18.448778   18.858465   18.382344
  C     18.054716   17.520777   17.898615
  C     17.424810   16.646166   18.974169
  C     17.921609   15.355455   19.229306
  C     17.335108   14.546261   20.216744
  C     16.242457   15.032148   20.955247
  C     15.743281   16.316888   20.700574
  O     14.683937   16.786092   21.406718
  C     16.328384   17.119550   19.715966
  H     14.591330   14.623981   13.549550
  H     13.937680   16.278187   13.493914
  H     13.112559   15.026173   14.450215
  H     14.442672   16.553187   15.960596
  H     15.080280   14.886602   15.993128
  H     16.883724   18.565837   13.924037
  H     16.322057   20.146983   14.458445
  H     15.277598   18.734753   14.658880
  H     16.882421   20.864090   16.402703
  H     19.011117   18.937230   19.220471
  H     19.035107   17.121570   17.599284
  H     18.757070   14.973061   18.646961
  H     17.725134   13.546810   20.401493
  H     15.785842   14.409647   21.717566
  H     14.451139   16.111755   22.062659
  H     15.929939   18.112293   19.534895

 Total Charge           Charge          ....    0
 Multiplicity           Mult            ....    1
 Number of Electrons    NEL             ....  154
 Basis Dimension        Dim             ....  828

ORBITAL ENERGIES
----------------

  NO   OCC          E(Eh)            E(eV)
   0   2.0000     -91.890075     -2500.4561
   1   2.0000     -20.594765      -560.4121
   2   2.0000     -20.589176      -560.2600
   3   2.0000     -20.552985      -559.2752
   4   2.0000     -15.631107      -425.3440
   5   2.0000     -15.607624      -424.7050
   6   2.0000     -11.393308      -310.0277
   7   2.0000     -11.384880      -309.7983
   8   2.0000     -11.340579      -308.5928
   9   2.0000     -11.310954      -307.7867
  10   2.0000     -11.305814      -307.6468
  11   2.0000     -11.305636      -307.6420
  12   2.0000     -11.263318      -306.4905
  13   2.0000     -11.260785      -306.4216
  14   2.0000     -11.258150      -306.3498
  15   2.0000     -11.250826      -306.1505
  16   2.0000     -11.240927      -305.8812
  17   2.0000     -11.237263      -305.7815
  18   2.0000     -11.235714      -305.7393
  19   2.0000     -11.233619      -305.6823
  20   2.0000      -8.895151      -242.0494
  21   2.0000      -6.576724      -178.9618
  22   2.0000      -6.574723      -178.9073
  23   2.0000      -6.574131      -178.8912
  24   2.0000      -1.454102       -39.5681
  25   2.0000      -1.414508       -38.4907
  26   2.0000      -1.360790       -37.0290
  27   2.0000      -1.342042       -36.5188
  28   2.0000      -1.239009       -33.7151
  29   2.0000      -1.155456       -31.4415
  30   2.0000      -1.122927       -30.5564
  31   2.0000      -1.045190       -28.4411
  32   2.0000      -1.038852       -28.2686
  33   2.0000      -1.013126       -27.5686
  34   2.0000      -1.001940       -27.2642
  35   2.0000      -0.986789       -26.8519
  36   2.0000      -0.923213       -25.1219
  37   2.0000      -0.880772       -23.9670
  38   2.0000      -0.851928       -23.1821
  39   2.0000      -0.840576       -22.8732
  40   2.0000      -0.832023       -22.6405
  41   2.0000      -0.830726       -22.6052
  42   2.0000      -0.761029       -20.7087
  43   2.0000      -0.737299       -20.0629
  44   2.0000      -0.728958       -19.8359
  45   2.0000      -0.692681       -18.8488
  46   2.0000      -0.689380       -18.7590
  47   2.0000      -0.682190       -18.5633
  48   2.0000      -0.673646       -18.3308
  49   2.0000      -0.656396       -17.8614
  50   2.0000      -0.649468       -17.6729
  51   2.0000      -0.643996       -17.5240
  52   2.0000      -0.635421       -17.2907
  53   2.0000      -0.620322       -16.8798
  54   2.0000      -0.605659       -16.4808
  55   2.0000      -0.601797       -16.3757
  56   2.0000      -0.598089       -16.2748
  57   2.0000      -0.579850       -15.7785
  58   2.0000      -0.575700       -15.6656
  59   2.0000      -0.564333       -15.3563
  60   2.0000      -0.560546       -15.2532
  61   2.0000      -0.552880       -15.0446
  62   2.0000      -0.539324       -14.6758
  63   2.0000      -0.524717       -14.2783
  64   2.0000      -0.519387       -14.1333
  65   2.0000      -0.512121       -13.9355
  66   2.0000      -0.504111       -13.7176
  67   2.0000      -0.496601       -13.5132
  68   2.0000      -0.482983       -13.1426
  69   2.0000      -0.465761       -12.6740
  70   2.0000      -0.463107       -12.6018
  71   2.0000      -0.453101       -12.3295
  72   2.0000      -0.355636        -9.6773
  73   2.0000      -0.347427        -9.4540
  74   2.0000      -0.329111        -8.9556
  75   2.0000      -0.319406        -8.6915
  76   2.0000      -0.317705        -8.6452
  77   0.0000       0.072489         1.9725
  78   0.0000       0.107451         2.9239
  79   0.0000       0.118068         3.2128
  80   0.0000       0.133649         3.6368
  81   0.0000       0.138688         3.7739

MULLIKEN ATOMIC CHARGES
-----------------------
   0 C :   -0.259765
   1 C :    0.017850
   2 O :   -0.361614
   3 C :    0.467007
   4 O :   -0.383609
   5 C :   -0.250032
   6 C :    0.170249
   7 C :   -0.291466
   8 N :   -0.128957
   9 C :    0.205620
  10 S :   -0.439612
  11 N :   -0.212211
  12 C :    0.048020
  13 C :    0.030164
  14 C :   -0.180126
  15 C :   -0.132720
  16 C :   -0.277672
  17 C :    0.313625
  18 O :   -0.358761
  19 C :   -0.253942
  20 H :    0.107429
  21 H :    0.092352
  22 H :    0.091312
  23 H :    0.095952
  24 H :    0.110644
  25 H :    0.134809
  26 H :    0.108873
  27 H :    0.118753
  28 H :    0.198620
  29 H :    0.200013
  30 H :    0.157672
  31 H :    0.164423
  32 H :    0.161764
  33 H :    0.129404
  34 H :    0.240583
  35 H :    0.165349
Sum of atomic charges:   -0.0000000

LOEWDIN ATOMIC CHARGES
----------------------
   0 C :    0.111475
   1 C :   -0.026300
   2 O :    0.300889
   3 C :   -0.424776
   4 O :    0.127368
   5 C :   -0.097504
   6 C :   -0.066908
   7 C :    0.126640
   8 N :    0.405674
   9 C :   -0.458298
  10 S :   -0.035604
  11 N :    0.396210
  12 C :   -0.049161
  13 C :   -0.041964
  14 C :    0.024242
  15 C :    0.041935
  16 C :   -0.000973
  17 C :   -0.193064
  18 O :    0.393101
  19 C :    0.027822
  20 H :   -0.021581
  21 H :   -0.029376
  22 H :   -0.024247
  23 H :   -0.037428
  24 H :   -0.024841
  25 H :   -0.006201
  26 H :   -0.019346
  27 H :   -0.012253
  28 H :   -0.058272
  29 H :   -0.063206
  30 H :   -0.006995
  31 H :   -0.022890
  32 H :   -0.020186
  33 H :   -0.035713
  34 H :   -0.154185
  35 H :   -0.024085

  Mayer bond orders larger than 0.100000
B(  0-C ,  1-C ) :   0.9783 B(  0-C , 20-H ) :   0.9768 B(  0-C , 21-H ) :   0.9784
B(  0-C , 22-H ) :   0.9755 B(  1-C ,  2-O ) :   0.8945 B(  1-C , 23-H ) :   0.9708
B(  1-C , 24-H ) :   0.9753 B(  2-O ,  3-C ) :   1.0960 B(  3-C ,  4-O ) :   2.0709
B(  3-C ,  5-C ) :   0.9966 B(  5-C ,  6-C ) :   1.6641 B(  5-C , 12-C ) :   0.9550
B(  6-C ,  7-C ) :   0.9489 B(  6-C ,  8-N ) :   1.1375 B(  7-C , 25-H ) :   0.9649
B(  7-C , 26-H ) :   0.9892 B(  7-C , 27-H ) :   0.9673 B(  8-N ,  9-C ) :   1.1840
B(  8-N , 28-H ) :   0.9472 B(  9-C , 10-S ) :   1.6122 B(  9-C , 11-N ) :   1.3033
B( 11-N , 12-C ) :   0.9811 B( 11-N , 29-H ) :   0.9487 B( 12-C , 13-C ) :   0.9721
B( 12-C , 30-H ) :   0.9947 B( 13-C , 14-C ) :   1.3804 B( 13-C , 19-C ) :   1.3616
B( 14-C , 15-C ) :   1.3964 B( 14-C , 31-H ) :   0.9617 B( 15-C , 16-C ) :   1.3598
B( 15-C , 32-H ) :   0.9706 B( 16-C , 17-C ) :   1.3324 B( 16-C , 33-H ) :   0.9856
B( 17-C , 18-O ) :   1.1048 B( 17-C , 19-C ) :   1.3674 B( 18-O , 34-H ) :   0.9801
B( 19-C , 35-H ) :   0.9597

MP2 TOTAL ENERGY:    -1274.327902777 Eh
FINAL SINGLE POINT ENERGY     -1274.327902776944

DIPOLE MOMENT
-------------
                                X             Y             Z
Electronic contribution:     10.65377       8.99424      10.28429
Nuclear contribution   :    -12.16203     -10.15890     -10.86198
                        -----------------------------------------
Total Dipole Moment    :     -1.50825      -1.16465      -0.57769
                        -----------------------------------------
Magnitude (a.u.)       :      1.99122
Magnitude (Debye)      :      5.06129

Rotational constants in cm-1:     0.009712     0.009464     0.005893
Rotational constants in MHz :   291.160801   283.729589   176.663479

                             ****ORCA TERMINATED NORMALLY****
TOTAL RUN TIME: 0 days 1 hours 39 minutes 36 seconds 147 msec
