                         Program Version 4.2.0 -  RELEASE  -
|  1> ! ri-mp2 cc-pvtz cc-pvtz/c TightSCF NoKeepInts
|  2>
|  3> %scf
|  4>   MaxCore 4096
|  5> end
|  6> *xyz  0  1
|  7>     C       14.3533609   16.7114470   16.0793516
|  8>     C       15.1708307   15.6472340   15.3149054
|  9>     O       16.4205084   16.1043487   14.7353006
| 10>     C       17.4826956   16.5953494   15.4513560
| 11>     O       18.5920706   16.1088390   15.3325767
| 12>     C       17.2000820   17.6660189   16.4471792
| 13>     C       16.8022667   18.8870477   16.0165594
| 14>     C       16.4137593   19.2657666   14.6010404
| 15>     N       16.8597317   19.9964910   16.8624658
| 16>     C       17.5123043   20.0113087   18.0673307
| 17>     S       17.6381192   21.3888565   18.9734565
| 18>     N       18.0839001   18.8289243   18.4697344
| 19>     C       17.9165157   17.5286465   17.7902711
| 20>     C       17.3432587   16.4148963   18.6541389
| 21>     C       17.8632311   15.1116274   18.5584811
| 22>     C       17.3247709   14.0692091   19.3309976
| 23>     C       16.2550157   14.3320639   20.2038178
| 24>     C       15.7314414   15.6289306   20.2970844
| 25>     O       14.6920109   15.8834186   21.1309168
| 26>     C       16.2690819   16.6647960   19.5263642
| 27>     H       14.7989276   16.9556761   17.0493543
| 28>     H       13.3496076   16.3207196   16.2869463
| 29>     H       14.2295743   17.6263386   15.4904845
| 30>     H       15.3752850   14.8067311   15.9920605
| 31>     H       14.5453381   15.2570491   14.5015287
| 32>     H       15.8898542   18.4604861   14.0758754
| 33>     H       17.3092827   19.5068651   14.0140091
| 34>     H       15.7530116   20.1409033   14.5773498
| 35>     H       16.4898056   20.8829008   16.5576708
| 36>     H       18.5600230   18.8670092   19.3623503
| 37>     H       18.9656192   17.3061880   17.5436903
| 38>     H       18.6846554   14.9058224   17.8746426
| 39>     H       17.7358820   13.0642716   19.2493721
| 40>     H       15.8356371   13.5295514   20.8017445
| 41>     H       14.4941015   15.0637600   21.6087252
| 42>     H       15.8454393   17.6605076   19.6088671
| 43> *
| 44>
| 45>                          ****END OF INPUT****

CARTESIAN COORDINATES (ANGSTROEM)
---------------------------------
  C     14.353361   16.711447   16.079352
  C     15.170831   15.647234   15.314905
  O     16.420508   16.104349   14.735301
  C     17.482696   16.595349   15.451356
  O     18.592071   16.108839   15.332577
  C     17.200082   17.666019   16.447179
  C     16.802267   18.887048   16.016559
  C     16.413759   19.265767   14.601040
  N     16.859732   19.996491   16.862466
  C     17.512304   20.011309   18.067331
  S     17.638119   21.388856   18.973457
  N     18.083900   18.828924   18.469734
  C     17.916516   17.528647   17.790271
  C     17.343259   16.414896   18.654139
  C     17.863231   15.111627   18.558481
  C     17.324771   14.069209   19.330998
  C     16.255016   14.332064   20.203818
  C     15.731441   15.628931   20.297084
  O     14.692011   15.883419   21.130917
  C     16.269082   16.664796   19.526364
  H     14.798928   16.955676   17.049354
  H     13.349608   16.320720   16.286946
  H     14.229574   17.626339   15.490485
  H     15.375285   14.806731   15.992060
  H     14.545338   15.257049   14.501529
  H     15.889854   18.460486   14.075875
  H     17.309283   19.506865   14.014009
  H     15.753012   20.140903   14.577350
  H     16.489806   20.882901   16.557671
  H     18.560023   18.867009   19.362350
  H     18.965619   17.306188   17.543690
  H     18.684655   14.905822   17.874643
  H     17.735882   13.064272   19.249372
  H     15.835637   13.529551   20.801745
  H     14.494101   15.063760   21.608725
  H     15.845439   17.660508   19.608867

 Total Charge           Charge          ....    0
 Multiplicity           Mult            ....    1
 Number of Electrons    NEL             ....  154
 Basis Dimension        Dim             ....  828

ORBITAL ENERGIES
----------------

  NO   OCC          E(Eh)            E(eV)
   0   2.0000     -91.889685     -2500.4455
   1   2.0000     -20.600814      -560.5766
   2   2.0000     -20.593320      -560.3727
   3   2.0000     -20.553248      -559.2823
   4   2.0000     -15.627486      -425.2455
   5   2.0000     -15.609523      -424.7567
   6   2.0000     -11.397839      -310.1510
   7   2.0000     -11.385309      -309.8100
   8   2.0000     -11.331074      -308.3342
   9   2.0000     -11.318460      -307.9910
  10   2.0000     -11.309954      -307.7595
  11   2.0000     -11.309883      -307.7576
  12   2.0000     -11.266322      -306.5722
  13   2.0000     -11.261994      -306.4544
  14   2.0000     -11.258996      -306.3729
  15   2.0000     -11.258783      -306.3671
  16   2.0000     -11.247348      -306.0559
  17   2.0000     -11.243302      -305.9458
  18   2.0000     -11.240760      -305.8766
  19   2.0000     -11.234288      -305.7005
  20   2.0000      -8.894779      -242.0392
  21   2.0000      -6.576359      -178.9518
  22   2.0000      -6.574351      -178.8972
  23   2.0000      -6.573765      -178.8813
  24   2.0000      -1.445108       -39.3234
  25   2.0000      -1.420533       -38.6547
  26   2.0000      -1.358383       -36.9635
  27   2.0000      -1.340057       -36.4648
  28   2.0000      -1.238793       -33.7093
  29   2.0000      -1.162334       -31.6287
  30   2.0000      -1.125625       -30.6298
  31   2.0000      -1.048650       -28.5352
  32   2.0000      -1.038057       -28.2470
  33   2.0000      -1.020258       -27.7626
  34   2.0000      -1.004770       -27.3412
  35   2.0000      -0.990231       -26.9455
  36   2.0000      -0.926535       -25.2123
  37   2.0000      -0.896391       -24.3920
  38   2.0000      -0.851401       -23.1678
  39   2.0000      -0.842308       -22.9204
  40   2.0000      -0.838098       -22.8058
  41   2.0000      -0.828448       -22.5432
  42   2.0000      -0.752196       -20.4683
  43   2.0000      -0.736540       -20.0423
  44   2.0000      -0.729325       -19.8459
  45   2.0000      -0.698431       -19.0053
  46   2.0000      -0.689208       -18.7543
  47   2.0000      -0.677474       -18.4350
  48   2.0000      -0.674272       -18.3479
  49   2.0000      -0.664805       -18.0903
  50   2.0000      -0.653289       -17.7769
  51   2.0000      -0.649059       -17.6618
  52   2.0000      -0.637517       -17.3477
  53   2.0000      -0.613862       -16.7040
  54   2.0000      -0.605020       -16.4634
  55   2.0000      -0.604379       -16.4460
  56   2.0000      -0.598233       -16.2787
  57   2.0000      -0.595011       -16.1911
  58   2.0000      -0.579068       -15.7573
  59   2.0000      -0.577009       -15.7012
  60   2.0000      -0.564509       -15.3611
  61   2.0000      -0.556900       -15.1540
  62   2.0000      -0.543939       -14.8013
  63   2.0000      -0.530911       -14.4468
  64   2.0000      -0.522651       -14.2220
  65   2.0000      -0.513361       -13.9693
  66   2.0000      -0.502371       -13.6702
  67   2.0000      -0.495092       -13.4721
  68   2.0000      -0.486985       -13.2515
  69   2.0000      -0.464504       -12.6398
  70   2.0000      -0.459521       -12.5042
  71   2.0000      -0.451686       -12.2910
  72   2.0000      -0.354643        -9.6503
  73   2.0000      -0.350806        -9.5459
  74   2.0000      -0.329175        -8.9573
  75   2.0000      -0.326073        -8.8729
  76   2.0000      -0.319173        -8.6852
  77   0.0000       0.082860         2.2547
  78   0.0000       0.102194         2.7808
  79   0.0000       0.118988         3.2378
  80   0.0000       0.122635         3.3371
  81   0.0000       0.129253         3.5171

MULLIKEN ATOMIC CHARGES
-----------------------
   0 C :   -0.330597
   1 C :    0.038173
   2 O :   -0.357066
   3 C :    0.435311
   4 O :   -0.374699
   5 C :   -0.241448
   6 C :    0.165165
   7 C :   -0.319130
   8 N :   -0.139351
   9 C :    0.210136
  10 S :   -0.442122
  11 N :   -0.230970
  12 C :    0.094106
  13 C :    0.029990
  14 C :   -0.238024
  15 C :   -0.128797
  16 C :   -0.278079
  17 C :    0.323958
  18 O :   -0.355326
  19 C :   -0.274377
  20 H :    0.121229
  21 H :    0.123776
  22 H :    0.097519
  23 H :    0.104057
  24 H :    0.118865
  25 H :    0.128815
  26 H :    0.146578
  27 H :    0.103478
  28 H :    0.197392
  29 H :    0.203513
  30 H :    0.168306
  31 H :    0.179439
  32 H :    0.165902
  33 H :    0.132487
  34 H :    0.241369
  35 H :    0.180424
Sum of atomic charges:   -0.0000000

LOEWDIN ATOMIC CHARGES
----------------------
   0 C :    0.102211
   1 C :   -0.012176
   2 O :    0.285165
   3 C :   -0.414529
   4 O :    0.127392
   5 C :   -0.085601
   6 C :   -0.083220
   7 C :    0.125917
   8 N :    0.404573
   9 C :   -0.455936
  10 S :   -0.037706
  11 N :    0.396341
  12 C :   -0.049980
  13 C :   -0.043520
  14 C :    0.018508
  15 C :    0.043686
  16 C :   -0.000759
  17 C :   -0.191333
  18 O :    0.395797
  19 C :    0.027641
  20 H :   -0.032665
  21 H :   -0.021893
  22 H :   -0.031444
  23 H :   -0.027488
  24 H :   -0.019503
  25 H :   -0.016092
  26 H :   -0.006236
  27 H :   -0.018746
  28 H :   -0.058673
  29 H :   -0.064133
  30 H :   -0.004437
  31 H :   -0.021459
  32 H :   -0.018466
  33 H :   -0.034733
  34 H :   -0.152990
  35 H :   -0.023515

  Mayer bond orders larger than 0.100000
B(  0-C ,  1-C ) :   0.9594 B(  0-C , 20-H ) :   0.9668 B(  0-C , 21-H ) :   0.9784
B(  0-C , 22-H ) :   0.9766 B(  1-C ,  2-O ) :   0.9017 B(  1-C , 23-H ) :   0.9796
B(  1-C , 24-H ) :   0.9827 B(  2-O ,  3-C ) :   1.1328 B(  3-C ,  4-O ) :   2.0985
B(  3-C ,  5-C ) :   0.9484 B(  5-C ,  6-C ) :   1.7021 B(  5-C , 12-C ) :   0.9231
B(  6-C ,  7-C ) :   0.9426 B(  6-C ,  8-N ) :   1.1092 B(  7-C , 25-H ) :   0.9725
B(  7-C , 26-H ) :   0.9629 B(  7-C , 27-H ) :   0.9812 B(  8-N ,  9-C ) :   1.1972
B(  8-N , 28-H ) :   0.9490 B(  9-C , 10-S ) :   1.6092 B(  9-C , 11-N ) :   1.2905
B( 11-N , 12-C ) :   0.9766 B( 11-N , 29-H ) :   0.9474 B( 12-C , 13-C ) :   0.9661
B( 12-C , 30-H ) :   0.9920 B( 13-C , 14-C ) :   1.3851 B( 13-C , 19-C ) :   1.3433
B( 14-C , 15-C ) :   1.3955 B( 14-C , 31-H ) :   0.9584 B( 15-C , 16-C ) :   1.3603
B( 15-C , 32-H ) :   0.9693 B( 16-C , 17-C ) :   1.3318 B( 16-C , 33-H ) :   0.9846
B( 17-C , 18-O ) :   1.1098 B( 17-C , 19-C ) :   1.3609 B( 18-O , 34-H ) :   0.9793
B( 19-C , 35-H ) :   0.9551

MP2 TOTAL ENERGY:    -1274.321115359 Eh
FINAL SINGLE POINT ENERGY     -1274.321115358567

DIPOLE MOMENT
-------------
                                X             Y             Z
Electronic contribution:      8.99487       6.31941       6.90333
Nuclear contribution   :    -10.53501      -7.78512      -7.27642
                        -----------------------------------------
Total Dipole Moment    :     -1.54014      -1.46571      -0.37309
                        -----------------------------------------
Magnitude (a.u.)       :      2.15860
Magnitude (Debye)      :      5.48672

Rotational constants in cm-1:     0.011641     0.009197     0.006522
Rotational constants in MHz :   348.980927   275.709534   195.523193

                             ****ORCA TERMINATED NORMALLY****
TOTAL RUN TIME: 0 days 1 hours 48 minutes 40 seconds 186 msec
