                         Program Version 4.2.0 -  RELEASE  -
|  1> ! ri-mp2 cc-pvtz cc-pvtz/c TightSCF NoKeepInts
|  2>
|  3> %scf
|  4>   MaxCore 4096
|  5> end
|  6> *xyz  0  1
|  7>     C       14.4500451   15.4921224   16.3064882
|  8>     C       15.0824048   16.2532370   15.1284611
|  9>     O       16.4615756   15.8473846   15.0261994
| 10>     C       17.5364161   16.5775388   15.4672947
| 11>     O       18.6777588   16.2419489   15.2135300
| 12>     C       17.2451488   17.6810721   16.4251681
| 13>     C       16.9595820   18.9122910   15.9387922
| 14>     C       16.6193844   19.2672823   14.5048700
| 15>     N       17.0425915   20.0434804   16.7521432
| 16>     C       17.6586104   20.0619323   17.9759921
| 17>     S       17.8386388   21.4600145   18.8404310
| 18>     N       18.1460640   18.8618625   18.4332950
| 19>     C       17.9044876   17.5502912   17.7983721
| 20>     C       17.2480523   16.5061939   18.6884146
| 21>     C       17.6554497   15.1622128   18.6111574
| 22>     C       17.0410628   14.1829462   19.4091578
| 23>     C       16.0097893   14.5508761   20.2902423
| 24>     C       15.5992882   15.8889151   20.3662671
| 25>     O       14.5966163   16.2446718   21.2080023
| 26>     C       16.2113828   16.8620750   19.5695748
| 27>     H       14.9003191   15.7969431   17.2573409
| 28>     H       14.5931282   14.4103863   16.1903323
| 29>     H       13.3730849   15.6916751   16.3614967
| 30>     H       14.5599861   15.9618104   14.2079635
| 31>     H       14.9539522   17.3325092   15.2561452
| 32>     H       16.7584246   18.4279394   13.8127709
| 33>     H       17.2655738   20.0772797   14.1420950
| 34>     H       15.5787185   19.6028560   14.4179747
| 35>     H       16.7315361   20.9380170   16.4071087
| 36>     H       18.5996613   18.9016646   19.3375695
| 37>     H       18.9432476   17.2516121   17.5908271
| 38>     H       18.4465094   14.8750610   17.9210830
| 39>     H       17.3631116   13.1451631   19.3399317
| 40>     H       15.5317307   13.7971050   20.9071977
| 41>     H       14.3311001   15.4508890   21.6965539
| 42>     H       15.8725663   17.8907400   19.6377557
| 43> *
| 44>
| 45>                          ****END OF INPUT****

CARTESIAN COORDINATES (ANGSTROEM)
---------------------------------
  C     14.450045   15.492122   16.306488
  C     15.082405   16.253237   15.128461
  O     16.461576   15.847385   15.026199
  C     17.536416   16.577539   15.467295
  O     18.677759   16.241949   15.213530
  C     17.245149   17.681072   16.425168
  C     16.959582   18.912291   15.938792
  C     16.619384   19.267282   14.504870
  N     17.042591   20.043480   16.752143
  C     17.658610   20.061932   17.975992
  S     17.838639   21.460014   18.840431
  N     18.146064   18.861863   18.433295
  C     17.904488   17.550291   17.798372
  C     17.248052   16.506194   18.688415
  C     17.655450   15.162213   18.611157
  C     17.041063   14.182946   19.409158
  C     16.009789   14.550876   20.290242
  C     15.599288   15.888915   20.366267
  O     14.596616   16.244672   21.208002
  C     16.211383   16.862075   19.569575
  H     14.900319   15.796943   17.257341
  H     14.593128   14.410386   16.190332
  H     13.373085   15.691675   16.361497
  H     14.559986   15.961810   14.207963
  H     14.953952   17.332509   15.256145
  H     16.758425   18.427939   13.812771
  H     17.265574   20.077280   14.142095
  H     15.578718   19.602856   14.417975
  H     16.731536   20.938017   16.407109
  H     18.599661   18.901665   19.337570
  H     18.943248   17.251612   17.590827
  H     18.446509   14.875061   17.921083
  H     17.363112   13.145163   19.339932
  H     15.531731   13.797105   20.907198
  H     14.331100   15.450889   21.696554
  H     15.872566   17.890740   19.637756

 Total Charge           Charge          ....    0
 Multiplicity           Mult            ....    1
 Number of Electrons    NEL             ....  154
 Basis Dimension        Dim             ....  828

ORBITAL ENERGIES
----------------

  NO   OCC          E(Eh)            E(eV)
   0   2.0000     -91.889461     -2500.4393
   1   2.0000     -20.604096      -560.6660
   2   2.0000     -20.600634      -560.5718
   3   2.0000     -20.552778      -559.2695
   4   2.0000     -15.626231      -425.2114
   5   2.0000     -15.610194      -424.7750
   6   2.0000     -11.401006      -310.2371
   7   2.0000     -11.385612      -309.8183
   8   2.0000     -11.330562      -308.3203
   9   2.0000     -11.318549      -307.9934
  10   2.0000     -11.313001      -307.8424
  11   2.0000     -11.306472      -307.6648
  12   2.0000     -11.269071      -306.6470
  13   2.0000     -11.266802      -306.5853
  14   2.0000     -11.263923      -306.5069
  15   2.0000     -11.259345      -306.3824
  16   2.0000     -11.247332      -306.0555
  17   2.0000     -11.243069      -305.9395
  18   2.0000     -11.241500      -305.8968
  19   2.0000     -11.227818      -305.5245
  20   2.0000      -8.894566      -242.0335
  21   2.0000      -6.576151      -178.9462
  22   2.0000      -6.574135      -178.8913
  23   2.0000      -6.573556      -178.8755
  24   2.0000      -1.449555       -39.4444
  25   2.0000      -1.420352       -38.6498
  26   2.0000      -1.363925       -37.1143
  27   2.0000      -1.340267       -36.4705
  28   2.0000      -1.239310       -33.7233
  29   2.0000      -1.162859       -31.6430
  30   2.0000      -1.127452       -30.6795
  31   2.0000      -1.049883       -28.5688
  32   2.0000      -1.038688       -28.2641
  33   2.0000      -1.020914       -27.7805
  34   2.0000      -1.007008       -27.4021
  35   2.0000      -0.990374       -26.9494
  36   2.0000      -0.927441       -25.2370
  37   2.0000      -0.889889       -24.2151
  38   2.0000      -0.854385       -23.2490
  39   2.0000      -0.842507       -22.9258
  40   2.0000      -0.838045       -22.8044
  41   2.0000      -0.835089       -22.7239
  42   2.0000      -0.755355       -20.5542
  43   2.0000      -0.740343       -20.1458
  44   2.0000      -0.732819       -19.9410
  45   2.0000      -0.698308       -19.0019
  46   2.0000      -0.691714       -18.8225
  47   2.0000      -0.683463       -18.5980
  48   2.0000      -0.674963       -18.3667
  49   2.0000      -0.665050       -18.0969
  50   2.0000      -0.652941       -17.7674
  51   2.0000      -0.639195       -17.3934
  52   2.0000      -0.634324       -17.2608
  53   2.0000      -0.621886       -16.9224
  54   2.0000      -0.613829       -16.7031
  55   2.0000      -0.608178       -16.5494
  56   2.0000      -0.603845       -16.4314
  57   2.0000      -0.587335       -15.9822
  58   2.0000      -0.578885       -15.7523
  59   2.0000      -0.570812       -15.5326
  60   2.0000      -0.562989       -15.3197
  61   2.0000      -0.558368       -15.1940
  62   2.0000      -0.537626       -14.6295
  63   2.0000      -0.537200       -14.6180
  64   2.0000      -0.521082       -14.1794
  65   2.0000      -0.512816       -13.9544
  66   2.0000      -0.506458       -13.7814
  67   2.0000      -0.502898       -13.6845
  68   2.0000      -0.487843       -13.2749
  69   2.0000      -0.468333       -12.7440
  70   2.0000      -0.454204       -12.3595
  71   2.0000      -0.451882       -12.2963
  72   2.0000      -0.356720        -9.7069
  73   2.0000      -0.352367        -9.5884
  74   2.0000      -0.329111        -8.9556
  75   2.0000      -0.326358        -8.8807
  76   2.0000      -0.319700        -8.6995
  77   0.0000       0.091282         2.4839
  78   0.0000       0.104297         2.8381
  79   0.0000       0.114520         3.1162
  80   0.0000       0.126426         3.4402
  81   0.0000       0.128825         3.5055

MULLIKEN ATOMIC CHARGES
-----------------------
   0 C :   -0.277419
   1 C :    0.023214
   2 O :   -0.313790
   3 C :    0.419115
   4 O :   -0.382142
   5 C :   -0.184641
   6 C :    0.121349
   7 C :   -0.326122
   8 N :   -0.139572
   9 C :    0.212464
  10 S :   -0.443877
  11 N :   -0.231971
  12 C :    0.053542
  13 C :    0.005245
  14 C :   -0.207299
  15 C :   -0.137080
  16 C :   -0.267932
  17 C :    0.313976
  18 O :   -0.356570
  19 C :   -0.241038
  20 H :    0.109749
  21 H :    0.105276
  22 H :    0.094297
  23 H :    0.117691
  24 H :    0.088908
  25 H :    0.124570
  26 H :    0.138037
  27 H :    0.123302
  28 H :    0.196446
  29 H :    0.205382
  30 H :    0.170079
  31 H :    0.172469
  32 H :    0.164722
  33 H :    0.133032
  34 H :    0.241259
  35 H :    0.175331
Sum of atomic charges:   -0.0000000

LOEWDIN ATOMIC CHARGES
----------------------
   0 C :    0.107811
   1 C :   -0.022821
   2 O :    0.311015
   3 C :   -0.418071
   4 O :    0.121706
   5 C :   -0.081507
   6 C :   -0.100027
   7 C :    0.123824
   8 N :    0.402158
   9 C :   -0.455838
  10 S :   -0.038909
  11 N :    0.396600
  12 C :   -0.049454
  13 C :   -0.044827
  14 C :    0.018868
  15 C :    0.046673
  16 C :    0.000290
  17 C :   -0.190611
  18 O :    0.396581
  19 C :    0.026800
  20 H :   -0.027614
  21 H :   -0.023597
  22 H :   -0.027133
  23 H :   -0.024618
  24 H :   -0.038235
  25 H :   -0.008365
  26 H :   -0.008529
  27 H :   -0.017081
  28 H :   -0.057344
  29 H :   -0.063827
  30 H :   -0.003406
  31 H :   -0.021931
  32 H :   -0.018042
  33 H :   -0.034454
  34 H :   -0.152875
  35 H :   -0.023212

  Mayer bond orders larger than 0.100000
B(  0-C ,  1-C ) :   0.9759 B(  0-C , 20-H ) :   0.9685 B(  0-C , 21-H ) :   0.9779
B(  0-C , 22-H ) :   0.9767 B(  1-C ,  2-O ) :   0.9026 B(  1-C , 23-H ) :   0.9823
B(  1-C , 24-H ) :   0.9620 B(  2-O ,  3-C ) :   1.1713 B(  3-C ,  4-O ) :   2.1037
B(  3-C ,  5-C ) :   0.9069 B(  5-C ,  6-C ) :   1.7314 B(  5-C , 12-C ) :   0.9411
B(  6-C ,  7-C ) :   0.9373 B(  6-C ,  8-N ) :   1.1023 B(  7-C , 25-H ) :   0.9785
B(  7-C , 26-H ) :   0.9718 B(  7-C , 27-H ) :   0.9671 B(  8-N ,  9-C ) :   1.2018
B(  8-N , 28-H ) :   0.9518 B(  9-C , 10-S ) :   1.6080 B(  9-C , 11-N ) :   1.2889
B( 11-N , 12-C ) :   0.9747 B( 11-N , 29-H ) :   0.9458 B( 12-C , 13-C ) :   0.9710
B( 12-C , 30-H ) :   0.9889 B( 13-C , 14-C ) :   1.3862 B( 13-C , 19-C ) :   1.3493
B( 14-C , 15-C ) :   1.3983 B( 14-C , 31-H ) :   0.9611 B( 15-C , 16-C ) :   1.3597
B( 15-C , 32-H ) :   0.9693 B( 16-C , 17-C ) :   1.3326 B( 16-C , 33-H ) :   0.9843
B( 17-C , 18-O ) :   1.1103 B( 17-C , 19-C ) :   1.3621 B( 18-O , 34-H ) :   0.9792
B( 19-C , 35-H ) :   0.9575

MP2 TOTAL ENERGY:    -1274.327778860 Eh
FINAL SINGLE POINT ENERGY     -1274.327778860373

DIPOLE MOMENT
-------------
                                X             Y             Z
Electronic contribution:      9.18002       7.88284       6.85226
Nuclear contribution   :    -10.86671      -9.12151      -7.33476
                        -----------------------------------------
Total Dipole Moment    :     -1.68669      -1.23867      -0.48250
                        -----------------------------------------
Magnitude (a.u.)       :      2.14756
Magnitude (Debye)      :      5.45867

Rotational constants in cm-1:     0.011710     0.009127     0.006357
Rotational constants in MHz :   351.065517   273.608189   190.567813

                             ****ORCA TERMINATED NORMALLY****
TOTAL RUN TIME: 0 days 1 hours 42 minutes 0 seconds 394 msec
