                         Program Version 4.2.0 -  RELEASE  -
|  1> ! ri-mp2 cc-pvtz cc-pvtz/c TightSCF NoKeepInts
|  2>
|  3> %scf
|  4>   MaxCore 4096
|  5> end
|  6> *xyz  0  1
|  7>     C       15.2578630   15.1658491   13.7330500
|  8>     C       15.2021392   14.9445751   15.2613047
|  9>     O       15.9547264   15.9405214   15.9889617
| 10>     C       15.7695939   17.2911630   15.8485713
| 11>     O       14.9482063   17.7748292   15.0895707
| 12>     C       16.6441867   18.0862324   16.7828901
| 13>     C       16.8020095   19.4252318   16.6162136
| 14>     C       15.9896178   20.3420063   15.7246417
| 15>     N       17.8066622   20.1220010   17.2917239
| 16>     C       18.8161844   19.5308900   18.0015316
| 17>     S       20.0324670   20.4117352   18.6947899
| 18>     N       18.7798749   18.1626118   18.0893837
| 19>     C       17.6848681   17.3026246   17.6022263
| 20>     C       17.0898995   16.4357623   18.7043671
| 21>     C       17.3181759   15.0474629   18.7268158
| 22>     C       16.7723089   14.2511861   19.7477845
| 23>     C       15.9953911   14.8489464   20.7551078
| 24>     C       15.7706648   16.2325831   20.7368441
| 25>     O       15.0227781   16.8123632   21.7092945
| 26>     C       16.3154968   17.0224052   19.7195982
| 27>     H       14.5984594   15.9822672   13.4155538
| 28>     H       14.9285847   14.2605820   13.2090197
| 29>     H       16.2804904   15.3934326   13.4080298
| 30>     H       14.1542225   14.9585106   15.5892220
| 31>     H       15.6118893   13.9539800   15.4964061
| 32>     H       14.9177158   20.2331291   15.9343964
| 33>     H       16.1440570   20.0907105   14.6676142
| 34>     H       16.2402905   21.4014767   15.8535663
| 35>     H       17.8568290   21.1253878   17.2167540
| 36>     H       19.5193265   17.7570587   18.6489504
| 37>     H       18.2323992   16.6854090   16.8759958
| 38>     H       17.9149261   14.5843153   17.9456972
| 39>     H       16.9514130   13.1775126   19.7563443
| 40>     H       15.5718470   14.2383782   21.5456961
| 41>     H       14.7541304   16.1143515   22.3251964
| 42>     H       16.1373046   18.0925183   19.7248862
| 43> *
| 44>
| 45>                          ****END OF INPUT****

CARTESIAN COORDINATES (ANGSTROEM)
---------------------------------
  C     15.257863   15.165849   13.733050
  C     15.202139   14.944575   15.261305
  O     15.954726   15.940521   15.988962
  C     15.769594   17.291163   15.848571
  O     14.948206   17.774829   15.089571
  C     16.644187   18.086232   16.782890
  C     16.802010   19.425232   16.616214
  C     15.989618   20.342006   15.724642
  N     17.806662   20.122001   17.291724
  C     18.816184   19.530890   18.001532
  S     20.032467   20.411735   18.694790
  N     18.779875   18.162612   18.089384
  C     17.684868   17.302625   17.602226
  C     17.089899   16.435762   18.704367
  C     17.318176   15.047463   18.726816
  C     16.772309   14.251186   19.747784
  C     15.995391   14.848946   20.755108
  C     15.770665   16.232583   20.736844
  O     15.022778   16.812363   21.709294
  C     16.315497   17.022405   19.719598
  H     14.598459   15.982267   13.415554
  H     14.928585   14.260582   13.209020
  H     16.280490   15.393433   13.408030
  H     14.154222   14.958511   15.589222
  H     15.611889   13.953980   15.496406
  H     14.917716   20.233129   15.934396
  H     16.144057   20.090711   14.667614
  H     16.240291   21.401477   15.853566
  H     17.856829   21.125388   17.216754
  H     19.519326   17.757059   18.648950
  H     18.232399   16.685409   16.875996
  H     17.914926   14.584315   17.945697
  H     16.951413   13.177513   19.756344
  H     15.571847   14.238378   21.545696
  H     14.754130   16.114352   22.325196
  H     16.137305   18.092518   19.724886

 Total Charge           Charge          ....    0
 Multiplicity           Mult            ....    1
 Number of Electrons    NEL             ....  154
 Basis Dimension        Dim             ....  828

ORBITAL ENERGIES
----------------

  NO   OCC          E(Eh)            E(eV)
   0   2.0000     -91.888192     -2500.4048
   1   2.0000     -20.599988      -560.5542
   2   2.0000     -20.595157      -560.4227
   3   2.0000     -20.541009      -558.9493
   4   2.0000     -15.628497      -425.2730
   5   2.0000     -15.606194      -424.6661
   6   2.0000     -11.396768      -310.1218
   7   2.0000     -11.382745      -309.7402
   8   2.0000     -11.336744      -308.4885
   9   2.0000     -11.312167      -307.8197
  10   2.0000     -11.306602      -307.6683
  11   2.0000     -11.301577      -307.5315
  12   2.0000     -11.259361      -306.3828
  13   2.0000     -11.259104      -306.3758
  14   2.0000     -11.253691      -306.2285
  15   2.0000     -11.251241      -306.1618
  16   2.0000     -11.242031      -305.9112
  17   2.0000     -11.237398      -305.7851
  18   2.0000     -11.237349      -305.7838
  19   2.0000     -11.223222      -305.3994
  20   2.0000      -8.893270      -241.9982
  21   2.0000      -6.574845      -178.9106
  22   2.0000      -6.572845      -178.8562
  23   2.0000      -6.572257      -178.8402
  24   2.0000      -1.447507       -39.3887
  25   2.0000      -1.414804       -38.4988
  26   2.0000      -1.354638       -36.8616
  27   2.0000      -1.339771       -36.4570
  28   2.0000      -1.237569       -33.6760
  29   2.0000      -1.156104       -31.4592
  30   2.0000      -1.120103       -30.4796
  31   2.0000      -1.041673       -28.3454
  32   2.0000      -1.036334       -28.2001
  33   2.0000      -1.013487       -27.5784
  34   2.0000      -0.995372       -27.0854
  35   2.0000      -0.983510       -26.7627
  36   2.0000      -0.920888       -25.0586
  37   2.0000      -0.896630       -24.3985
  38   2.0000      -0.846184       -23.0258
  39   2.0000      -0.836916       -22.7736
  40   2.0000      -0.832739       -22.6600
  41   2.0000      -0.817599       -22.2480
  42   2.0000      -0.750824       -20.4310
  43   2.0000      -0.731492       -19.9049
  44   2.0000      -0.720466       -19.6049
  45   2.0000      -0.694337       -18.8939
  46   2.0000      -0.688032       -18.7223
  47   2.0000      -0.678992       -18.4763
  48   2.0000      -0.669609       -18.2210
  49   2.0000      -0.653170       -17.7737
  50   2.0000      -0.647521       -17.6199
  51   2.0000      -0.644863       -17.5476
  52   2.0000      -0.632618       -17.2144
  53   2.0000      -0.609486       -16.5850
  54   2.0000      -0.604858       -16.4590
  55   2.0000      -0.599089       -16.3020
  56   2.0000      -0.597631       -16.2624
  57   2.0000      -0.578939       -15.7537
  58   2.0000      -0.572210       -15.5706
  59   2.0000      -0.569229       -15.4895
  60   2.0000      -0.561839       -15.2884
  61   2.0000      -0.539494       -14.6804
  62   2.0000      -0.536927       -14.6105
  63   2.0000      -0.523553       -14.2466
  64   2.0000      -0.521977       -14.2037
  65   2.0000      -0.512246       -13.9389
  66   2.0000      -0.502547       -13.6750
  67   2.0000      -0.496967       -13.5232
  68   2.0000      -0.482987       -13.1428
  69   2.0000      -0.462520       -12.5858
  70   2.0000      -0.455857       -12.4045
  71   2.0000      -0.442180       -12.0323
  72   2.0000      -0.352328        -9.5873
  73   2.0000      -0.348362        -9.4794
  74   2.0000      -0.327347        -8.9076
  75   2.0000      -0.319620        -8.6973
  76   2.0000      -0.317327        -8.6349
  77   0.0000       0.078412         2.1337
  78   0.0000       0.107074         2.9136
  79   0.0000       0.123615         3.3637
  80   0.0000       0.133643         3.6366
  81   0.0000       0.136562         3.7161

MULLIKEN ATOMIC CHARGES
-----------------------
   0 C :   -0.301422
   1 C :    0.047473
   2 O :   -0.347469
   3 C :    0.441681
   4 O :   -0.439288
   5 C :   -0.216859
   6 C :    0.171890
   7 C :   -0.269064
   8 N :   -0.125490
   9 C :    0.210677
  10 S :   -0.443172
  11 N :   -0.214650
  12 C :    0.054173
  13 C :    0.052589
  14 C :   -0.176725
  15 C :   -0.133953
  16 C :   -0.275650
  17 C :    0.316900
  18 O :   -0.357172
  19 C :   -0.248794
  20 H :    0.128647
  21 H :    0.095680
  22 H :    0.090964
  23 H :    0.090760
  24 H :    0.103060
  25 H :    0.134018
  26 H :    0.127597
  27 H :    0.094711
  28 H :    0.199524
  29 H :    0.200317
  30 H :    0.150407
  31 H :    0.148060
  32 H :    0.159193
  33 H :    0.129144
  34 H :    0.240359
  35 H :    0.161885
Sum of atomic charges:    0.0000000

LOEWDIN ATOMIC CHARGES
----------------------
   0 C :    0.103766
   1 C :   -0.010975
   2 O :    0.302509
   3 C :   -0.412678
   4 O :    0.100865
   5 C :   -0.093293
   6 C :   -0.056853
   7 C :    0.130497
   8 N :    0.406983
   9 C :   -0.456922
  10 S :   -0.037484
  11 N :    0.394642
  12 C :   -0.055103
  13 C :   -0.038702
  14 C :    0.016604
  15 C :    0.039277
  16 C :   -0.000575
  17 C :   -0.189406
  18 O :    0.394866
  19 C :    0.033416
  20 H :   -0.025922
  21 H :   -0.028387
  22 H :   -0.029491
  23 H :   -0.028148
  24 H :   -0.024788
  25 H :   -0.004326
  26 H :   -0.005660
  27 H :   -0.023769
  28 H :   -0.057298
  29 H :   -0.064418
  30 H :   -0.014677
  31 H :   -0.030048
  32 H :   -0.021668
  33 H :   -0.035651
  34 H :   -0.154190
  35 H :   -0.022994

  Mayer bond orders larger than 0.100000
B(  0-C ,  1-C ) :   0.9665 B(  0-C , 20-H ) :   0.9713 B(  0-C , 21-H ) :   0.9777
B(  0-C , 22-H ) :   0.9758 B(  1-C ,  2-O ) :   0.9073 B(  1-C , 23-H ) :   0.9788
B(  1-C , 24-H ) :   0.9839 B(  2-O ,  3-C ) :   1.1673 B(  3-C ,  4-O ) :   1.9514
B(  3-C ,  5-C ) :   1.0761 B(  5-C ,  6-C ) :   1.6402 B(  5-C , 12-C ) :   0.9531
B(  6-C ,  7-C ) :   0.9659 B(  6-C ,  8-N ) :   1.1541 B(  7-C , 25-H ) :   0.9613
B(  7-C , 26-H ) :   0.9588 B(  7-C , 27-H ) :   0.9910 B(  8-N ,  9-C ) :   1.1878
B(  8-N , 28-H ) :   0.9465 B(  9-C , 10-S ) :   1.6047 B(  9-C , 11-N ) :   1.3098
B( 11-N , 12-C ) :   0.9679 B( 11-N , 29-H ) :   0.9484 B( 12-C , 13-C ) :   0.9676
B( 12-C , 30-H ) :   1.0007 B( 13-C , 14-C ) :   1.3536 B( 13-C , 19-C ) :   1.3816
B( 14-C , 15-C ) :   1.3964 B( 14-C , 31-H ) :   0.9725 B( 15-C , 16-C ) :   1.3605
B( 15-C , 32-H ) :   0.9711 B( 16-C , 17-C ) :   1.3341 B( 16-C , 33-H ) :   0.9854
B( 17-C , 18-O ) :   1.1037 B( 17-C , 19-C ) :   1.3651 B( 18-O , 34-H ) :   0.9801
B( 19-C , 35-H ) :   0.9597

MP2 TOTAL ENERGY:    -1274.338858191 Eh
FINAL SINGLE POINT ENERGY     -1274.338858190851

DIPOLE MOMENT
-------------
                                X             Y             Z
Electronic contribution:      8.48926       8.94283      11.34951
Nuclear contribution   :     -9.57801     -10.62752     -11.77248
                        -----------------------------------------
Total Dipole Moment    :     -1.08875      -1.68469      -0.42297
                        -----------------------------------------
Magnitude (a.u.)       :      2.04999
Magnitude (Debye)      :      5.21066

Rotational constants in cm-1:     0.010146     0.009018     0.005776
Rotational constants in MHz :   304.155376   270.352199   173.154530

                             ****ORCA TERMINATED NORMALLY****
TOTAL RUN TIME: 0 days 1 hours 36 minutes 2 seconds 170 msec
