                         Program Version 4.2.0 -  RELEASE  -
|  1> ! ri-mp2 cc-pvtz cc-pvtz/c TightSCF NoKeepInts
|  2>
|  3> %scf
|  4>   MaxCore 4096
|  5> end
|  6> *xyz  0  1
|  7>     C       14.4516474   15.2421071   15.6575874
|  8>     C       15.1702238   15.7143244   14.3748616
|  9>     O       15.9984375   16.8553638   14.6699658
| 10>     C       17.0071506   16.7269298   15.5794033
| 11>     O       17.6707160   15.7070997   15.6688378
| 12>     C       17.1086015   17.8539974   16.5650622
| 13>     C       16.8297474   19.1423300   16.2364145
| 14>     C       16.1819215   19.6565314   14.9661200
| 15>     N       17.1882943   20.1885789   17.0901604
| 16>     C       18.0091204   20.0540511   18.1775784
| 17>     S       18.4761723   21.3559545   19.0844477
| 18>     N       18.4415025   18.7835013   18.4629868
| 19>     C       17.9806480   17.5539126   17.7891545
| 20>     C       17.3488190   16.5445693   18.7385326
| 21>     C       17.8286261   15.2241332   18.8042619
| 22>     C       17.2379554   14.2915718   19.6733328
| 23>     C       16.1584568   14.6831753   20.4836839
| 24>     C       15.6765940   15.9978178   20.4179453
| 25>     O       14.6304446   16.3768842   21.1945335
| 26>     C       16.2662993   16.9235534   19.5513112
| 27>     H       15.1638671   14.8432481   16.3916617
| 28>     H       13.7358465   14.4455328   15.4214393
| 29>     H       13.9008836   16.0692096   16.1225008
| 30>     H       15.7800521   14.8963101   13.9673941
| 31>     H       14.4242566   15.9919391   13.6192383
| 32>     H       15.1427339   19.3119763   14.8944245
| 33>     H       16.7196719   19.2961514   14.0801186
| 34>     H       16.1682537   20.7517450   14.9084846
| 35>     H       16.8969038   21.1299871   16.8809853
| 36>     H       19.0284133   18.7087708   19.2842717
| 37>     H       18.9338943   17.1729163   17.3944576
| 38>     H       18.6523742   14.9164547   18.1642910
| 39>     H       17.6139617   13.2707383   19.7110436
| 40>     H       15.6982908   13.9656803   21.1548144
| 41>     H       14.3855754   15.6160499   21.7422669
| 42>     H       15.8806427   17.9369035   19.5144258
| 43> *
| 44>
| 45>                          ****END OF INPUT****

CARTESIAN COORDINATES (ANGSTROEM)
---------------------------------
  C     14.451647   15.242107   15.657587
  C     15.170224   15.714324   14.374862
  O     15.998437   16.855364   14.669966
  C     17.007151   16.726930   15.579403
  O     17.670716   15.707100   15.668838
  C     17.108601   17.853997   16.565062
  C     16.829747   19.142330   16.236414
  C     16.181922   19.656531   14.966120
  N     17.188294   20.188579   17.090160
  C     18.009120   20.054051   18.177578
  S     18.476172   21.355954   19.084448
  N     18.441502   18.783501   18.462987
  C     17.980648   17.553913   17.789154
  C     17.348819   16.544569   18.738533
  C     17.828626   15.224133   18.804262
  C     17.237955   14.291572   19.673333
  C     16.158457   14.683175   20.483684
  C     15.676594   15.997818   20.417945
  O     14.630445   16.376884   21.194533
  C     16.266299   16.923553   19.551311
  H     15.163867   14.843248   16.391662
  H     13.735846   14.445533   15.421439
  H     13.900884   16.069210   16.122501
  H     15.780052   14.896310   13.967394
  H     14.424257   15.991939   13.619238
  H     15.142734   19.311976   14.894424
  H     16.719672   19.296151   14.080119
  H     16.168254   20.751745   14.908485
  H     16.896904   21.129987   16.880985
  H     19.028413   18.708771   19.284272
  H     18.933894   17.172916   17.394458
  H     18.652374   14.916455   18.164291
  H     17.613962   13.270738   19.711044
  H     15.698291   13.965680   21.154814
  H     14.385575   15.616050   21.742267
  H     15.880643   17.936903   19.514426

 Total Charge           Charge          ....    0
 Multiplicity           Mult            ....    1
 Number of Electrons    NEL             ....  154
 Basis Dimension        Dim             ....  828

ORBITAL ENERGIES
----------------

  NO   OCC          E(Eh)            E(eV)
   0   2.0000     -91.888435     -2500.4114
   1   2.0000     -20.595605      -560.4349
   2   2.0000     -20.593417      -560.3754
   3   2.0000     -20.547548      -559.1272
   4   2.0000     -15.628856      -425.2828
   5   2.0000     -15.606290      -424.6688
   6   2.0000     -11.395104      -310.0765
   7   2.0000     -11.383181      -309.7521
   8   2.0000     -11.337724      -308.5152
   9   2.0000     -11.309623      -307.7505
  10   2.0000     -11.304874      -307.6213
  11   2.0000     -11.301347      -307.5253
  12   2.0000     -11.259927      -306.3982
  13   2.0000     -11.258969      -306.3721
  14   2.0000     -11.256627      -306.3084
  15   2.0000     -11.249754      -306.1214
  16   2.0000     -11.239887      -305.8529
  17   2.0000     -11.235867      -305.7435
  18   2.0000     -11.232655      -305.6561
  19   2.0000     -11.227555      -305.5173
  20   2.0000      -8.893514      -242.0048
  21   2.0000      -6.575090      -178.9173
  22   2.0000      -6.573088      -178.8628
  23   2.0000      -6.572500      -178.8468
  24   2.0000      -1.452250       -39.5177
  25   2.0000      -1.413177       -38.4545
  26   2.0000      -1.356385       -36.9091
  27   2.0000      -1.340025       -36.4639
  28   2.0000      -1.237330       -33.6695
  29   2.0000      -1.154134       -31.4056
  30   2.0000      -1.121493       -30.5174
  31   2.0000      -1.043102       -28.3843
  32   2.0000      -1.032597       -28.0984
  33   2.0000      -1.011564       -27.5261
  34   2.0000      -0.999550       -27.1991
  35   2.0000      -0.984710       -26.7953
  36   2.0000      -0.921855       -25.0849
  37   2.0000      -0.895416       -24.3655
  38   2.0000      -0.847885       -23.0721
  39   2.0000      -0.836229       -22.7549
  40   2.0000      -0.829820       -22.5805
  41   2.0000      -0.815814       -22.1994
  42   2.0000      -0.750611       -20.4252
  43   2.0000      -0.735663       -20.0184
  44   2.0000      -0.727193       -19.7879
  45   2.0000      -0.691805       -18.8250
  46   2.0000      -0.686086       -18.6693
  47   2.0000      -0.678596       -18.4655
  48   2.0000      -0.670024       -18.2323
  49   2.0000      -0.658286       -17.9129
  50   2.0000      -0.652986       -17.7687
  51   2.0000      -0.645449       -17.5636
  52   2.0000      -0.632872       -17.2213
  53   2.0000      -0.613002       -16.6806
  54   2.0000      -0.603576       -16.4241
  55   2.0000      -0.599539       -16.3143
  56   2.0000      -0.596756       -16.2385
  57   2.0000      -0.579169       -15.7600
  58   2.0000      -0.574414       -15.6306
  59   2.0000      -0.562993       -15.3198
  60   2.0000      -0.554502       -15.0888
  61   2.0000      -0.549731       -14.9589
  62   2.0000      -0.534822       -14.5533
  63   2.0000      -0.534559       -14.5461
  64   2.0000      -0.517514       -14.0823
  65   2.0000      -0.509704       -13.8698
  66   2.0000      -0.497381       -13.5344
  67   2.0000      -0.493716       -13.4347
  68   2.0000      -0.481501       -13.1023
  69   2.0000      -0.463799       -12.6206
  70   2.0000      -0.459563       -12.5053
  71   2.0000      -0.449998       -12.2451
  72   2.0000      -0.353290        -9.6135
  73   2.0000      -0.346194        -9.4204
  74   2.0000      -0.327522        -8.9123
  75   2.0000      -0.317604        -8.6425
  76   2.0000      -0.316372        -8.6089
  77   0.0000       0.075759         2.0615
  78   0.0000       0.108862         2.9623
  79   0.0000       0.120173         3.2701
  80   0.0000       0.134457         3.6588
  81   0.0000       0.141665         3.8549

MULLIKEN ATOMIC CHARGES
-----------------------
   0 C :   -0.309635
   1 C :    0.035647
   2 O :   -0.365564
   3 C :    0.424048
   4 O :   -0.413915
   5 C :   -0.161847
   6 C :    0.149250
   7 C :   -0.280263
   8 N :   -0.128149
   9 C :    0.208138
  10 S :   -0.441701
  11 N :   -0.211798
  12 C :    0.047787
  13 C :    0.028592
  14 C :   -0.176075
  15 C :   -0.134268
  16 C :   -0.278177
  17 C :    0.315016
  18 O :   -0.358608
  19 C :   -0.250854
  20 H :    0.123997
  21 H :    0.100939
  22 H :    0.096234
  23 H :    0.108259
  24 H :    0.107228
  25 H :    0.127048
  26 H :    0.126653
  27 H :    0.101268
  28 H :    0.198742
  29 H :    0.199621
  30 H :    0.155972
  31 H :    0.161462
  32 H :    0.161097
  33 H :    0.129342
  34 H :    0.240160
  35 H :    0.164359
Sum of atomic charges:   -0.0000000

LOEWDIN ATOMIC CHARGES
----------------------
   0 C :    0.106063
   1 C :   -0.017960
   2 O :    0.298005
   3 C :   -0.417201
   4 O :    0.109883
   5 C :   -0.093111
   6 C :   -0.065564
   7 C :    0.126052
   8 N :    0.405490
   9 C :   -0.457842
  10 S :   -0.037282
  11 N :    0.396240
  12 C :   -0.048099
  13 C :   -0.041322
  14 C :    0.023987
  15 C :    0.040374
  16 C :   -0.001216
  17 C :   -0.192636
  18 O :    0.393398
  19 C :    0.029885
  20 H :   -0.022710
  21 H :   -0.025451
  22 H :   -0.028774
  23 H :   -0.027846
  24 H :   -0.024998
  25 H :   -0.009783
  26 H :   -0.008360
  27 H :   -0.021024
  28 H :   -0.058566
  29 H :   -0.063417
  30 H :   -0.007744
  31 H :   -0.023608
  32 H :   -0.020723
  33 H :   -0.035888
  34 H :   -0.154617
  35 H :   -0.023636

  Mayer bond orders larger than 0.100000
B(  0-C ,  1-C ) :   0.9581 B(  0-C , 20-H ) :   0.9703 B(  0-C , 21-H ) :   0.9764
B(  0-C , 22-H ) :   0.9758 B(  1-C ,  2-O ) :   0.9011 B(  1-C , 23-H ) :   0.9811
B(  1-C , 24-H ) :   0.9838 B(  2-O ,  3-C ) :   1.1004 B(  3-C ,  4-O ) :   2.0040
B(  3-C ,  5-C ) :   1.0302 B(  5-C ,  6-C ) :   1.6589 B(  5-C , 12-C ) :   0.9489
B(  6-C ,  7-C ) :   0.9562 B(  6-C ,  8-N ) :   1.1373 B(  7-C , 25-H ) :   0.9637
B(  7-C , 26-H ) :   0.9654 B(  7-C , 27-H ) :   0.9901 B(  8-N ,  9-C ) :   1.1853
B(  8-N , 28-H ) :   0.9470 B(  9-C , 10-S ) :   1.6097 B(  9-C , 11-N ) :   1.3043
B( 11-N , 12-C ) :   0.9784 B( 11-N , 29-H ) :   0.9486 B( 12-C , 13-C ) :   0.9687
B( 12-C , 30-H ) :   0.9957 B( 13-C , 14-C ) :   1.3782 B( 13-C , 19-C ) :   1.3661
B( 14-C , 15-C ) :   1.3964 B( 14-C , 31-H ) :   0.9629 B( 15-C , 16-C ) :   1.3592
B( 15-C , 32-H ) :   0.9709 B( 16-C , 17-C ) :   1.3326 B( 16-C , 33-H ) :   0.9856
B( 17-C , 18-O ) :   1.1045 B( 17-C , 19-C ) :   1.3667 B( 18-O , 34-H ) :   0.9804
B( 19-C , 35-H ) :   0.9598

MP2 TOTAL ENERGY:    -1274.336629611 Eh
FINAL SINGLE POINT ENERGY     -1274.336629610566

DIPOLE MOMENT
-------------
                                X             Y             Z
Electronic contribution:      9.42679       9.66203       8.50683
Nuclear contribution   :    -10.82629     -10.98001      -9.49905
                        -----------------------------------------
Total Dipole Moment    :     -1.39950      -1.31798      -0.99222
                        -----------------------------------------
Magnitude (a.u.)       :      2.16337
Magnitude (Debye)      :      5.49885

Rotational constants in cm-1:     0.010784     0.009237     0.006003
Rotational constants in MHz :   323.308435   276.928814   179.974278

                             ****ORCA TERMINATED NORMALLY****
TOTAL RUN TIME: 0 days 1 hours 40 minutes 7 seconds 689 msec
