                         Program Version 4.2.0 -  RELEASE  -
|  1> ! ri-mp2 cc-pvtz cc-pvtz/c TightSCF NoKeepInts
|  2>
|  3> %scf
|  4>   MaxCore 4096
|  5> end
|  6> *xyz  0  1
|  7>     C       14.5537534   16.4620344   16.2268177
|  8>     C       15.4004762   15.3104439   15.6422578
|  9>     O       16.7881639   15.5874098   15.3013991
| 10>     C       17.5139144   16.7536473   15.3333202
| 11>     O       18.4278206   16.9350379   14.5507988
| 12>     C       17.1653000   17.7697994   16.3638983
| 13>     C       16.9169764   19.0347610   15.9560201
| 14>     C       16.5855112   19.4517560   14.5394510
| 15>     N       16.9998084   20.1109487   16.8408162
| 16>     C       17.5765852   20.0353158   18.0815298
| 17>     S       17.7598764   21.3676794   19.0437999
| 18>     N       18.0233412   18.7970607   18.4755141
| 19>     C       17.7783694   17.5332241   17.7509470
| 20>     C       17.1515235   16.4242270   18.5870991
| 21>     C       17.5598773   15.0898724   18.4064335
| 22>     C       16.9884981   14.0570754   19.1680367
| 23>     C       16.0038707   14.3610980   20.1233172
| 24>     C       15.6002290   15.6898108   20.3123988
| 25>     O       14.6476478   15.9860964   21.2315980
| 26>     C       16.1702691   16.7161934   19.5523039
| 27>     H       14.8829001   16.7602127   17.2238908
| 28>     H       13.5117398   16.1341910   16.3260285
| 29>     H       14.5551485   17.3348347   15.5642424
| 30>     H       15.3800210   14.4738850   16.3531213
| 31>     H       14.8992282   14.9567258   14.7319143
| 32>     H       16.0049840   18.6804356   14.0190247
| 33>     H       17.5085530   19.6065485   13.9649123
| 34>     H       16.0027343   20.3799480   14.5037292
| 35>     H       16.7252074   21.0330248   16.5411906
| 36>     H       18.4481583   18.7713799   19.3941802
| 37>     H       18.8201748   17.2509433   17.5374038
| 38>     H       18.3194664   14.8510828   17.6653389
| 39>     H       17.3106852   13.0278742   19.0175168
| 40>     H       15.5601113   13.5665645   20.7144352
| 41>     H       14.4084179   15.1618082   21.6817300
| 42>     H       15.8376577   17.7370494   19.7115837
| 43> *
| 44>
| 45>                          ****END OF INPUT****

CARTESIAN COORDINATES (ANGSTROEM)
---------------------------------
  C     14.553753   16.462034   16.226818
  C     15.400476   15.310444   15.642258
  O     16.788164   15.587410   15.301399
  C     17.513914   16.753647   15.333320
  O     18.427821   16.935038   14.550799
  C     17.165300   17.769799   16.363898
  C     16.916976   19.034761   15.956020
  C     16.585511   19.451756   14.539451
  N     16.999808   20.110949   16.840816
  C     17.576585   20.035316   18.081530
  S     17.759876   21.367679   19.043800
  N     18.023341   18.797061   18.475514
  C     17.778369   17.533224   17.750947
  C     17.151523   16.424227   18.587099
  C     17.559877   15.089872   18.406433
  C     16.988498   14.057075   19.168037
  C     16.003871   14.361098   20.123317
  C     15.600229   15.689811   20.312399
  O     14.647648   15.986096   21.231598
  C     16.170269   16.716193   19.552304
  H     14.882900   16.760213   17.223891
  H     13.511740   16.134191   16.326028
  H     14.555148   17.334835   15.564242
  H     15.380021   14.473885   16.353121
  H     14.899228   14.956726   14.731914
  H     16.004984   18.680436   14.019025
  H     17.508553   19.606548   13.964912
  H     16.002734   20.379948   14.503729
  H     16.725207   21.033025   16.541191
  H     18.448158   18.771380   19.394180
  H     18.820175   17.250943   17.537404
  H     18.319466   14.851083   17.665339
  H     17.310685   13.027874   19.017517
  H     15.560111   13.566565   20.714435
  H     14.408418   15.161808   21.681730
  H     15.837658   17.737049   19.711584

 Total Charge           Charge          ....    0
 Multiplicity           Mult            ....    1
 Number of Electrons    NEL             ....  154
 Basis Dimension        Dim             ....  828

ORBITAL ENERGIES
----------------

  NO   OCC          E(Eh)            E(eV)
   0   2.0000     -91.889279     -2500.4344
   1   2.0000     -20.603275      -560.6436
   2   2.0000     -20.595155      -560.4227
   3   2.0000     -20.552071      -559.2503
   4   2.0000     -15.625081      -425.1801
   5   2.0000     -15.610610      -424.7863
   6   2.0000     -11.398918      -310.1803
   7   2.0000     -11.384951      -309.8003
   8   2.0000     -11.324352      -308.1513
   9   2.0000     -11.321540      -308.0748
  10   2.0000     -11.316438      -307.9359
  11   2.0000     -11.309229      -307.7398
  12   2.0000     -11.270723      -306.6920
  13   2.0000     -11.262911      -306.4794
  14   2.0000     -11.258292      -306.3537
  15   2.0000     -11.255706      -306.2833
  16   2.0000     -11.250838      -306.1509
  17   2.0000     -11.246407      -306.0303
  18   2.0000     -11.245867      -306.0156
  19   2.0000     -11.234532      -305.7072
  20   2.0000      -8.894364      -242.0279
  21   2.0000      -6.575942      -178.9405
  22   2.0000      -6.573936      -178.8859
  23   2.0000      -6.573352      -178.8700
  24   2.0000      -1.441940       -39.2372
  25   2.0000      -1.423038       -38.7228
  26   2.0000      -1.356421       -36.9101
  27   2.0000      -1.338367       -36.4188
  28   2.0000      -1.238644       -33.7052
  29   2.0000      -1.165118       -31.7045
  30   2.0000      -1.124909       -30.6103
  31   2.0000      -1.050095       -28.5745
  32   2.0000      -1.038533       -28.2599
  33   2.0000      -1.023753       -27.8577
  34   2.0000      -1.004114       -27.3233
  35   2.0000      -0.989812       -26.9342
  36   2.0000      -0.926449       -25.2100
  37   2.0000      -0.902747       -24.5650
  38   2.0000      -0.850686       -23.1484
  39   2.0000      -0.844128       -22.9699
  40   2.0000      -0.840628       -22.8746
  41   2.0000      -0.826390       -22.4872
  42   2.0000      -0.747511       -20.3408
  43   2.0000      -0.738136       -20.0857
  44   2.0000      -0.724797       -19.7227
  45   2.0000      -0.701833       -19.0978
  46   2.0000      -0.688272       -18.7288
  47   2.0000      -0.675537       -18.3823
  48   2.0000      -0.674974       -18.3670
  49   2.0000      -0.664473       -18.0812
  50   2.0000      -0.657636       -17.8952
  51   2.0000      -0.650404       -17.6984
  52   2.0000      -0.637959       -17.3598
  53   2.0000      -0.615505       -16.7488
  54   2.0000      -0.610040       -16.6000
  55   2.0000      -0.604752       -16.4561
  56   2.0000      -0.604261       -16.4428
  57   2.0000      -0.583674       -15.8826
  58   2.0000      -0.578274       -15.7356
  59   2.0000      -0.574925       -15.6445
  60   2.0000      -0.565372       -15.3845
  61   2.0000      -0.558621       -15.2009
  62   2.0000      -0.541824       -14.7438
  63   2.0000      -0.532035       -14.4774
  64   2.0000      -0.522365       -14.2143
  65   2.0000      -0.513751       -13.9799
  66   2.0000      -0.504655       -13.7324
  67   2.0000      -0.496632       -13.5140
  68   2.0000      -0.492721       -13.4076
  69   2.0000      -0.464742       -12.6463
  70   2.0000      -0.454589       -12.3700
  71   2.0000      -0.449090       -12.2204
  72   2.0000      -0.357650        -9.7321
  73   2.0000      -0.347783        -9.4637
  74   2.0000      -0.329340        -8.9618
  75   2.0000      -0.328356        -8.9350
  76   2.0000      -0.318435        -8.6651
  77   0.0000       0.086908         2.3649
  78   0.0000       0.099995         2.7210
  79   0.0000       0.120239         3.2719
  80   0.0000       0.125849         3.4245
  81   0.0000       0.127909         3.4806

MULLIKEN ATOMIC CHARGES
-----------------------
   0 C :   -0.322722
   1 C :    0.035311
   2 O :   -0.337989
   3 C :    0.416581
   4 O :   -0.373016
   5 C :   -0.219631
   6 C :    0.150690
   7 C :   -0.294831
   8 N :   -0.139859
   9 C :    0.217110
  10 S :   -0.442826
  11 N :   -0.240750
  12 C :    0.066097
  13 C :    0.031720
  14 C :   -0.237133
  15 C :   -0.138345
  16 C :   -0.274089
  17 C :    0.321075
  18 O :   -0.353570
  19 C :   -0.248896
  20 H :    0.120589
  21 H :    0.122377
  22 H :    0.097036
  23 H :    0.105856
  24 H :    0.119749
  25 H :    0.109811
  26 H :    0.150154
  27 H :    0.101557
  28 H :    0.197074
  29 H :    0.206469
  30 H :    0.165336
  31 H :    0.162597
  32 H :    0.168421
  33 H :    0.134543
  34 H :    0.241512
  35 H :    0.181988
Sum of atomic charges:    0.0000000

LOEWDIN ATOMIC CHARGES
----------------------
   0 C :    0.102893
   1 C :   -0.011944
   2 O :    0.292032
   3 C :   -0.422017
   4 O :    0.128759
   5 C :   -0.088397
   6 C :   -0.087933
   7 C :    0.127700
   8 N :    0.404683
   9 C :   -0.454053
  10 S :   -0.037911
  11 N :    0.396124
  12 C :   -0.052089
  13 C :   -0.041950
  14 C :    0.021049
  15 C :    0.043361
  16 C :   -0.000537
  17 C :   -0.191051
  18 O :    0.397109
  19 C :    0.028837
  20 H :   -0.032414
  21 H :   -0.020448
  22 H :   -0.032429
  23 H :   -0.025669
  24 H :   -0.024795
  25 H :   -0.013335
  26 H :   -0.003058
  27 H :   -0.019698
  28 H :   -0.058605
  29 H :   -0.064786
  30 H :   -0.007295
  31 H :   -0.024473
  32 H :   -0.018340
  33 H :   -0.034061
  34 H :   -0.152572
  35 H :   -0.022688

  Mayer bond orders larger than 0.100000
B(  0-C ,  1-C ) :   0.9641 B(  0-C , 20-H ) :   0.9665 B(  0-C , 21-H ) :   0.9760
B(  0-C , 22-H ) :   0.9726 B(  1-C ,  2-O ) :   0.9030 B(  1-C , 23-H ) :   0.9748
B(  1-C , 24-H ) :   0.9799 B(  2-O ,  3-C ) :   1.1647 B(  3-C ,  4-O ) :   2.1190
B(  3-C ,  5-C ) :   0.9224 B(  5-C ,  6-C ) :   1.7061 B(  5-C , 12-C ) :   0.9446
B(  6-C ,  7-C ) :   0.9445 B(  6-C ,  8-N ) :   1.1189 B(  7-C , 25-H ) :   0.9793
B(  7-C , 26-H ) :   0.9583 B(  7-C , 27-H ) :   0.9830 B(  8-N ,  9-C ) :   1.2051
B(  8-N , 28-H ) :   0.9499 B(  9-C , 10-S ) :   1.6069 B(  9-C , 11-N ) :   1.2846
B( 11-N , 12-C ) :   0.9663 B( 11-N , 29-H ) :   0.9444 B( 12-C , 13-C ) :   0.9638
B( 12-C , 30-H ) :   0.9994 B( 13-C , 14-C ) :   1.3653 B( 13-C , 19-C ) :   1.3353
B( 14-C , 15-C ) :   1.4027 B( 14-C , 31-H ) :   0.9710 B( 15-C , 16-C ) :   1.3542
B( 15-C , 32-H ) :   0.9686 B( 16-C , 17-C ) :   1.3336 B( 16-C , 33-H ) :   0.9838
B( 17-C , 18-O ) :   1.1105 B( 17-C , 19-C ) :   1.3631 B( 18-O , 34-H ) :   0.9789
B( 19-C , 35-H ) :   0.9564

MP2 TOTAL ENERGY:    -1274.312601537 Eh
FINAL SINGLE POINT ENERGY     -1274.312601537476

DIPOLE MOMENT
-------------
                                X             Y             Z
Electronic contribution:      8.60530       7.02660       6.68732
Nuclear contribution   :    -10.23109      -8.79410      -6.79275
                        -----------------------------------------
Total Dipole Moment    :     -1.62579      -1.76749      -0.10542
                        -----------------------------------------
Magnitude (a.u.)       :      2.40382
Magnitude (Debye)      :      6.11001

Rotational constants in cm-1:     0.012238     0.009180     0.006273
Rotational constants in MHz :   366.878097   275.203359   188.052156

                             ****ORCA TERMINATED NORMALLY****
TOTAL RUN TIME: 0 days 2 hours 8 minutes 43 seconds 111 msec
