                         Program Version 4.2.0 -  RELEASE  -
|  1> ! ri-mp2 cc-pvtz cc-pvtz/c TightSCF NoKeepInts
|  2>
|  3> %scf
|  4>   MaxCore 4096
|  5> end
|  6> *xyz  0  1
|  7>     C       14.5211163   15.3358512   16.5199624
|  8>     C       15.1471034   15.9888763   15.2768253
|  9>     O       16.5625723   15.7200774   15.2587325
| 10>     C       17.4889035   16.7222139   15.3453167
| 11>     O       18.5083316   16.7181855   14.6819432
| 12>     C       17.2105261   17.7716938   16.3637484
| 13>     C       17.0252360   19.0360805   15.9226784
| 14>     C       16.7228540   19.4271798   14.4916017
| 15>     N       17.1799823   20.1313769   16.7742112
| 16>     C       17.7758647   20.0603088   18.0059777
| 17>     S       18.0483241   21.4084517   18.9240603
| 18>     N       18.1637714   18.8112832   18.4266983
| 19>     C       17.8354376   17.5433845   17.7431419
| 20>     C       17.1419111   16.5057711   18.6128242
| 21>     C       17.4804233   15.1456535   18.4914083
| 22>     C       16.8488001   14.1783207   19.2906812
| 23>     C       15.8726198   14.5746228   20.2207695
| 24>     C       15.5349547   15.9292129   20.3457771
| 25>     O       14.5879644   16.3134321   21.2378318
| 26>     C       16.1639504   16.8906661   19.5478768
| 27>     H       14.7544920   15.9088097   17.4213812
| 28>     H       14.8892024   14.3104863   16.6515025
| 29>     H       13.4293509   15.2983115   16.4239939
| 30>     H       14.6967629   15.5421898   14.3807339
| 31>     H       14.9241108   17.0628772   15.2620983
| 32>     H       17.6325984   19.3554289   13.8798923
| 33>     H       16.3463579   20.4540087   14.4088772
| 34>     H       15.9724434   18.7671640   14.0420317
| 35>     H       16.9489751   21.0585163   16.4540989
| 36>     H       18.6038451   18.7868944   19.3382141
| 37>     H       18.8554622   17.1927932   17.5249227
| 38>     H       18.2310217   14.8361880   17.7675312
| 39>     H       17.1159951   13.1279898   19.1861742
| 40>     H       15.3818847   13.8304037   20.8394170
| 41>     H       14.3004711   15.5219619   21.7176119
| 42>     H       15.8833793   17.9333339   19.6574522
| 43> *
| 44>
| 45>                          ****END OF INPUT****

CARTESIAN COORDINATES (ANGSTROEM)
---------------------------------
  C     14.521116   15.335851   16.519962
  C     15.147103   15.988876   15.276825
  O     16.562572   15.720077   15.258733
  C     17.488903   16.722214   15.345317
  O     18.508332   16.718186   14.681943
  C     17.210526   17.771694   16.363748
  C     17.025236   19.036080   15.922678
  C     16.722854   19.427180   14.491602
  N     17.179982   20.131377   16.774211
  C     17.775865   20.060309   18.005978
  S     18.048324   21.408452   18.924060
  N     18.163771   18.811283   18.426698
  C     17.835438   17.543384   17.743142
  C     17.141911   16.505771   18.612824
  C     17.480423   15.145653   18.491408
  C     16.848800   14.178321   19.290681
  C     15.872620   14.574623   20.220769
  C     15.534955   15.929213   20.345777
  O     14.587964   16.313432   21.237832
  C     16.163950   16.890666   19.547877
  H     14.754492   15.908810   17.421381
  H     14.889202   14.310486   16.651502
  H     13.429351   15.298312   16.423994
  H     14.696763   15.542190   14.380734
  H     14.924111   17.062877   15.262098
  H     17.632598   19.355429   13.879892
  H     16.346358   20.454009   14.408877
  H     15.972443   18.767164   14.042032
  H     16.948975   21.058516   16.454099
  H     18.603845   18.786894   19.338214
  H     18.855462   17.192793   17.524923
  H     18.231022   14.836188   17.767531
  H     17.115995   13.127990   19.186174
  H     15.381885   13.830404   20.839417
  H     14.300471   15.521962   21.717612
  H     15.883379   17.933334   19.657452

 Total Charge           Charge          ....    0
 Multiplicity           Mult            ....    1
 Number of Electrons    NEL             ....  154
 Basis Dimension        Dim             ....  828

ORBITAL ENERGIES
----------------

  NO   OCC          E(Eh)            E(eV)
   0   2.0000     -91.889638     -2500.4442
   1   2.0000     -20.601496      -560.5952
   2   2.0000     -20.598007      -560.5003
   3   2.0000     -20.558280      -559.4192
   4   2.0000     -15.626131      -425.2086
   5   2.0000     -15.610598      -424.7860
   6   2.0000     -11.398434      -310.1671
   7   2.0000     -11.385250      -309.8084
   8   2.0000     -11.327664      -308.2414
   9   2.0000     -11.319584      -308.0216
  10   2.0000     -11.315806      -307.9187
  11   2.0000     -11.305315      -307.6333
  12   2.0000     -11.268140      -306.6217
  13   2.0000     -11.262644      -306.4721
  14   2.0000     -11.260609      -306.4167
  15   2.0000     -11.257590      -306.3346
  16   2.0000     -11.248657      -306.0915
  17   2.0000     -11.244162      -305.9692
  18   2.0000     -11.243622      -305.9545
  19   2.0000     -11.225267      -305.4550
  20   2.0000      -8.894717      -242.0376
  21   2.0000      -6.576296      -178.9501
  22   2.0000      -6.574288      -178.8955
  23   2.0000      -6.573704      -178.8796
  24   2.0000      -1.450804       -39.4784
  25   2.0000      -1.421252       -38.6742
  26   2.0000      -1.365189       -37.1487
  27   2.0000      -1.339428       -36.4477
  28   2.0000      -1.239025       -33.7156
  29   2.0000      -1.163506       -31.6606
  30   2.0000      -1.126763       -30.6608
  31   2.0000      -1.049815       -28.5669
  32   2.0000      -1.037137       -28.2219
  33   2.0000      -1.021780       -27.8040
  34   2.0000      -1.004489       -27.3335
  35   2.0000      -0.990026       -26.9400
  36   2.0000      -0.926818       -25.2200
  37   2.0000      -0.886495       -24.1227
  38   2.0000      -0.852273       -23.1915
  39   2.0000      -0.843046       -22.9405
  40   2.0000      -0.838999       -22.8303
  41   2.0000      -0.835234       -22.7279
  42   2.0000      -0.758591       -20.6423
  43   2.0000      -0.738086       -20.0843
  44   2.0000      -0.731834       -19.9142
  45   2.0000      -0.699643       -19.0383
  46   2.0000      -0.693720       -18.8771
  47   2.0000      -0.683498       -18.5989
  48   2.0000      -0.675802       -18.3895
  49   2.0000      -0.664375       -18.0786
  50   2.0000      -0.652531       -17.7563
  51   2.0000      -0.638221       -17.3669
  52   2.0000      -0.628470       -17.1015
  53   2.0000      -0.622492       -16.9389
  54   2.0000      -0.611539       -16.6408
  55   2.0000      -0.606005       -16.4902
  56   2.0000      -0.604504       -16.4494
  57   2.0000      -0.583396       -15.8750
  58   2.0000      -0.579590       -15.7714
  59   2.0000      -0.572429       -15.5766
  60   2.0000      -0.564649       -15.3649
  61   2.0000      -0.559318       -15.2198
  62   2.0000      -0.538818       -14.6620
  63   2.0000      -0.528988       -14.3945
  64   2.0000      -0.522724       -14.2240
  65   2.0000      -0.514854       -14.0099
  66   2.0000      -0.504076       -13.7166
  67   2.0000      -0.499098       -13.5811
  68   2.0000      -0.491490       -13.3741
  69   2.0000      -0.467014       -12.7081
  70   2.0000      -0.457526       -12.4499
  71   2.0000      -0.451820       -12.2947
  72   2.0000      -0.355657        -9.6779
  73   2.0000      -0.351341        -9.5605
  74   2.0000      -0.329073        -8.9545
  75   2.0000      -0.327059        -8.8997
  76   2.0000      -0.319206        -8.6861
  77   0.0000       0.088107         2.3975
  78   0.0000       0.101630         2.7655
  79   0.0000       0.121734         3.3126
  80   0.0000       0.127510         3.4697
  81   0.0000       0.130032         3.5384

MULLIKEN ATOMIC CHARGES
-----------------------
   0 C :   -0.293022
   1 C :    0.023301
   2 O :   -0.321764
   3 C :    0.425212
   4 O :   -0.371347
   5 C :   -0.190988
   6 C :    0.135378
   7 C :   -0.300704
   8 N :   -0.136811
   9 C :    0.217274
  10 S :   -0.441940
  11 N :   -0.237052
  12 C :    0.033162
  13 C :    0.018823
  14 C :   -0.195977
  15 C :   -0.147374
  16 C :   -0.264650
  17 C :    0.311463
  18 O :   -0.355928
  19 C :   -0.237528
  20 H :    0.106834
  21 H :    0.106571
  22 H :    0.106649
  23 H :    0.118325
  24 H :    0.084425
  25 H :    0.147559
  26 H :    0.102043
  27 H :    0.113168
  28 H :    0.196106
  29 H :    0.206424
  30 H :    0.166158
  31 H :    0.157384
  32 H :    0.166119
  33 H :    0.133808
  34 H :    0.241218
  35 H :    0.177681
Sum of atomic charges:   -0.0000000

LOEWDIN ATOMIC CHARGES
----------------------
   0 C :    0.107394
   1 C :   -0.023104
   2 O :    0.306102
   3 C :   -0.420005
   4 O :    0.132375
   5 C :   -0.090517
   6 C :   -0.091631
   7 C :    0.128739
   8 N :    0.403764
   9 C :   -0.454757
  10 S :   -0.037284
  11 N :    0.396725
  12 C :   -0.052089
  13 C :   -0.043271
  14 C :    0.020792
  15 C :    0.047071
  16 C :    0.000710
  17 C :   -0.190711
  18 O :    0.397189
  19 C :    0.027575
  20 H :   -0.029541
  21 H :   -0.024144
  22 H :   -0.026935
  23 H :   -0.025862
  24 H :   -0.037891
  25 H :   -0.002772
  26 H :   -0.018338
  27 H :   -0.016020
  28 H :   -0.059537
  29 H :   -0.064156
  30 H :   -0.006532
  31 H :   -0.024899
  32 H :   -0.018573
  33 H :   -0.034301
  34 H :   -0.152732
  35 H :   -0.022834

  Mayer bond orders larger than 0.100000
B(  0-C ,  1-C ) :   0.9742 B(  0-C , 20-H ) :   0.9713 B(  0-C , 21-H ) :   0.9738
B(  0-C , 22-H ) :   0.9794 B(  1-C ,  2-O ) :   0.9072 B(  1-C , 23-H ) :   0.9824
B(  1-C , 24-H ) :   0.9647 B(  2-O ,  3-C ) :   1.1499 B(  3-C ,  4-O ) :   2.1294
B(  3-C ,  5-C ) :   0.9130 B(  5-C ,  6-C ) :   1.7138 B(  5-C , 12-C ) :   0.9576
B(  6-C ,  7-C ) :   0.9348 B(  6-C ,  8-N ) :   1.1096 B(  7-C , 25-H ) :   0.9604
B(  7-C , 26-H ) :   0.9864 B(  7-C , 27-H ) :   0.9782 B(  8-N ,  9-C ) :   1.2021
B(  8-N , 28-H ) :   0.9498 B(  9-C , 10-S ) :   1.6086 B(  9-C , 11-N ) :   1.2865
B( 11-N , 12-C ) :   0.9687 B( 11-N , 29-H ) :   0.9446 B( 12-C , 13-C ) :   0.9623
B( 12-C , 30-H ) :   0.9953 B( 13-C , 14-C ) :   1.3792 B( 13-C , 19-C ) :   1.3474
B( 14-C , 15-C ) :   1.3989 B( 14-C , 31-H ) :   0.9709 B( 15-C , 16-C ) :   1.3545
B( 15-C , 32-H ) :   0.9694 B( 16-C , 17-C ) :   1.3353 B( 16-C , 33-H ) :   0.9839
B( 17-C , 18-O ) :   1.1097 B( 17-C , 19-C ) :   1.3611 B( 18-O , 34-H ) :   0.9791
B( 19-C , 35-H ) :   0.9564

MP2 TOTAL ENERGY:    -1274.319840588 Eh
FINAL SINGLE POINT ENERGY     -1274.319840587968

DIPOLE MOMENT
-------------
                                X             Y             Z
Electronic contribution:      9.16666       8.53572       6.35625
Nuclear contribution   :    -10.84318      -9.99874      -6.66406
                        -----------------------------------------
Total Dipole Moment    :     -1.67652      -1.46302      -0.30781
                        -----------------------------------------
Magnitude (a.u.)       :      2.24630
Magnitude (Debye)      :      5.70965

Rotational constants in cm-1:     0.012062     0.009090     0.006181
Rotational constants in MHz :   361.599364   272.512987   185.287595

                             ****ORCA TERMINATED NORMALLY****
TOTAL RUN TIME: 0 days 1 hours 44 minutes 44 seconds 179 msec
