                         Program Version 4.2.0 -  RELEASE  -
|  1> ! ri-mp2 cc-pvtz cc-pvtz/c TightSCF NoKeepInts
|  2>
|  3> %scf
|  4>   MaxCore 4096
|  5> end
|  6> *xyz  0  1
|  7>     C       15.3814938   14.9812374   13.5109129
|  8>     C       14.5172123   15.7710203   14.5185895
|  9>     O       15.2847918   16.8038293   15.1728462
| 10>     C       16.3479972   16.5231588   15.9870931
| 11>     O       16.7931220   15.3980066   16.1387569
| 12>     C       16.8381729   17.6921581   16.7959508
| 13>     C       16.7696482   18.9756831   16.3515312
| 14>     C       16.0223334   19.5083754   15.1443740
| 15>     N       17.4777735   19.9928358   16.9970242
| 16>     C       18.4445295   19.7848481   17.9430966
| 17>     S       19.3231148   21.0319315   18.5822586
| 18>     N       18.6624097   18.4829468   18.3152386
| 19>     C       17.8442138   17.3284201   17.8965070
| 20>     C       17.2231484   16.5782779   19.0676093
| 21>     C       17.4460547   15.1997823   19.2361222
| 22>     C       16.8752263   14.5105756   20.3192527
| 23>     C       16.0759766   15.2063257   21.2425676
| 24>     C       15.8508012   16.5797858   21.0758996
| 25>     O       15.0764817   17.2531529   21.9638301
| 26>     C       16.4200086   17.2628583   19.9963892
| 27>     H       15.9500219   15.6636322   12.8673094
| 28>     H       14.7427008   14.3623408   12.8694235
| 29>     H       16.0859365   14.3095956   14.0154716
| 30>     H       13.6813012   16.2375694   13.9818457
| 31>     H       14.0970422   15.0824737   15.2641082
| 32>     H       14.9407307   19.3702213   15.2665588
| 33>     H       16.3309784   18.9837905   14.2315121
| 34>     H       16.1959882   20.5777274   14.9730315
| 35>     H       17.3441459   20.9517518   16.7188234
| 36>     H       19.3652373   18.3579480   19.0328223
| 37>     H       18.6131139   16.7129720   17.4071567
| 38>     H       18.0515427   14.6584290   18.5130020
| 39>     H       17.0489992   13.4423577   20.4353168
| 40>     H       15.6319178   14.6776379   22.0793261
| 41>     H       14.7955134   16.6199255   22.6411566
| 42>     H       16.2373196   18.3264177   19.8852848
| 43> *
| 44>
| 45>                          ****END OF INPUT****

CARTESIAN COORDINATES (ANGSTROEM)
---------------------------------
  C     15.381494   14.981237   13.510913
  C     14.517212   15.771020   14.518589
  O     15.284792   16.803829   15.172846
  C     16.347997   16.523159   15.987093
  O     16.793122   15.398007   16.138757
  C     16.838173   17.692158   16.795951
  C     16.769648   18.975683   16.351531
  C     16.022333   19.508375   15.144374
  N     17.477774   19.992836   16.997024
  C     18.444530   19.784848   17.943097
  S     19.323115   21.031931   18.582259
  N     18.662410   18.482947   18.315239
  C     17.844214   17.328420   17.896507
  C     17.223148   16.578278   19.067609
  C     17.446055   15.199782   19.236122
  C     16.875226   14.510576   20.319253
  C     16.075977   15.206326   21.242568
  C     15.850801   16.579786   21.075900
  O     15.076482   17.253153   21.963830
  C     16.420009   17.262858   19.996389
  H     15.950022   15.663632   12.867309
  H     14.742701   14.362341   12.869423
  H     16.085936   14.309596   14.015472
  H     13.681301   16.237569   13.981846
  H     14.097042   15.082474   15.264108
  H     14.940731   19.370221   15.266559
  H     16.330978   18.983791   14.231512
  H     16.195988   20.577727   14.973031
  H     17.344146   20.951752   16.718823
  H     19.365237   18.357948   19.032822
  H     18.613114   16.712972   17.407157
  H     18.051543   14.658429   18.513002
  H     17.048999   13.442358   20.435317
  H     15.631918   14.677638   22.079326
  H     14.795513   16.619926   22.641157
  H     16.237320   18.326418   19.885285

 Total Charge           Charge          ....    0
 Multiplicity           Mult            ....    1
 Number of Electrons    NEL             ....  154
 Basis Dimension        Dim             ....  828

ORBITAL ENERGIES
----------------

  NO   OCC          E(Eh)            E(eV)
   0   2.0000     -91.887439     -2500.3843
   1   2.0000     -20.603274      -560.6436
   2   2.0000     -20.590924      -560.3075
   3   2.0000     -20.545614      -559.0746
   4   2.0000     -15.627729      -425.2521
   5   2.0000     -15.605162      -424.6380
   6   2.0000     -11.397499      -310.1417
   7   2.0000     -11.381942      -309.7184
   8   2.0000     -11.337169      -308.5000
   9   2.0000     -11.306917      -307.6768
  10   2.0000     -11.303949      -307.5961
  11   2.0000     -11.303753      -307.5908
  12   2.0000     -11.260601      -306.4165
  13   2.0000     -11.258616      -306.3625
  14   2.0000     -11.254235      -306.2433
  15   2.0000     -11.247064      -306.0482
  16   2.0000     -11.237232      -305.7806
  17   2.0000     -11.233294      -305.6735
  18   2.0000     -11.230162      -305.5882
  19   2.0000     -11.225054      -305.4493
  20   2.0000      -8.892529      -241.9780
  21   2.0000      -6.574108      -178.8906
  22   2.0000      -6.572104      -178.8360
  23   2.0000      -6.571518      -178.8201
  24   2.0000      -1.451638       -39.5011
  25   2.0000      -1.410667       -38.3862
  26   2.0000      -1.358034       -36.9540
  27   2.0000      -1.339244       -36.4427
  28   2.0000      -1.236439       -33.6452
  29   2.0000      -1.151574       -31.3359
  30   2.0000      -1.120049       -30.4781
  31   2.0000      -1.042045       -28.3555
  32   2.0000      -1.034104       -28.1394
  33   2.0000      -1.009071       -27.4582
  34   2.0000      -0.997641       -27.1472
  35   2.0000      -0.982702       -26.7407
  36   2.0000      -0.920379       -25.0448
  37   2.0000      -0.894911       -24.3518
  38   2.0000      -0.847346       -23.0574
  39   2.0000      -0.834533       -22.7088
  40   2.0000      -0.827262       -22.5109
  41   2.0000      -0.817759       -22.2524
  42   2.0000      -0.750590       -20.4246
  43   2.0000      -0.732776       -19.9399
  44   2.0000      -0.725371       -19.7384
  45   2.0000      -0.690257       -18.7828
  46   2.0000      -0.684952       -18.6385
  47   2.0000      -0.679568       -18.4920
  48   2.0000      -0.669434       -18.2162
  49   2.0000      -0.662257       -18.0209
  50   2.0000      -0.645329       -17.5603
  51   2.0000      -0.640533       -17.4298
  52   2.0000      -0.631692       -17.1892
  53   2.0000      -0.608536       -16.5591
  54   2.0000      -0.601363       -16.3639
  55   2.0000      -0.597418       -16.2566
  56   2.0000      -0.594014       -16.1639
  57   2.0000      -0.586407       -15.9569
  58   2.0000      -0.572075       -15.5669
  59   2.0000      -0.566770       -15.4226
  60   2.0000      -0.559936       -15.2366
  61   2.0000      -0.546050       -14.8588
  62   2.0000      -0.537170       -14.6171
  63   2.0000      -0.523302       -14.2398
  64   2.0000      -0.514769       -14.0076
  65   2.0000      -0.510567       -13.8932
  66   2.0000      -0.500943       -13.6314
  67   2.0000      -0.493524       -13.4295
  68   2.0000      -0.480072       -13.0634
  69   2.0000      -0.463326       -12.6077
  70   2.0000      -0.456436       -12.4203
  71   2.0000      -0.450474       -12.2580
  72   2.0000      -0.352485        -9.5916
  73   2.0000      -0.343718        -9.3530
  74   2.0000      -0.326547        -8.8858
  75   2.0000      -0.316607        -8.6153
  76   2.0000      -0.313581        -8.5330
  77   0.0000       0.078492         2.1359
  78   0.0000       0.112536         3.0623
  79   0.0000       0.120621         3.2823
  80   0.0000       0.136473         3.7136
  81   0.0000       0.140778         3.8308

MULLIKEN ATOMIC CHARGES
-----------------------
   0 C :   -0.304278
   1 C :    0.040367
   2 O :   -0.346818
   3 C :    0.419783
   4 O :   -0.429537
   5 C :   -0.163911
   6 C :    0.165915
   7 C :   -0.282469
   8 N :   -0.129171
   9 C :    0.207731
  10 S :   -0.443435
  11 N :   -0.210642
  12 C :    0.039971
  13 C :    0.032193
  14 C :   -0.166295
  15 C :   -0.134394
  16 C :   -0.276915
  17 C :    0.314357
  18 O :   -0.359041
  19 C :   -0.250002
  20 H :    0.089127
  21 H :    0.096443
  22 H :    0.129205
  23 H :    0.105956
  24 H :    0.097419
  25 H :    0.131259
  26 H :    0.122724
  27 H :    0.102108
  28 H :    0.198714
  29 H :    0.199820
  30 H :    0.155053
  31 H :    0.158353
  32 H :    0.159497
  33 H :    0.127929
  34 H :    0.239768
  35 H :    0.163215
Sum of atomic charges:   -0.0000000

LOEWDIN ATOMIC CHARGES
----------------------
   0 C :    0.104157
   1 C :   -0.013291
   2 O :    0.300778
   3 C :   -0.412960
   4 O :    0.108042
   5 C :   -0.089857
   6 C :   -0.064692
   7 C :    0.124594
   8 N :    0.405196
   9 C :   -0.458784
  10 S :   -0.038429
  11 N :    0.396488
  12 C :   -0.048120
  13 C :   -0.040350
  14 C :    0.024634
  15 C :    0.040817
  16 C :   -0.001126
  17 C :   -0.192278
  18 O :    0.393121
  19 C :    0.030096
  20 H :   -0.030709
  21 H :   -0.027933
  22 H :   -0.025654
  23 H :   -0.024628
  24 H :   -0.027090
  25 H :   -0.008952
  26 H :   -0.010543
  27 H :   -0.021326
  28 H :   -0.058917
  29 H :   -0.063107
  30 H :   -0.008601
  31 H :   -0.024285
  32 H :   -0.021227
  33 H :   -0.036255
  34 H :   -0.154990
  35 H :   -0.023818

  Mayer bond orders larger than 0.100000
B(  0-C ,  1-C ) :   0.9654 B(  0-C , 20-H ) :   0.9763 B(  0-C , 21-H ) :   0.9771
B(  0-C , 22-H ) :   0.9707 B(  1-C ,  2-O ) :   0.9070 B(  1-C , 23-H ) :   0.9849
B(  1-C , 24-H ) :   0.9791 B(  2-O ,  3-C ) :   1.1466 B(  3-C ,  4-O ) :   1.9625
B(  3-C ,  5-C ) :   1.0575 B(  5-C ,  6-C ) :   1.6524 B(  5-C , 12-C ) :   0.9484
B(  6-C ,  7-C ) :   0.9527 B(  6-C ,  8-N ) :   1.1347 B(  7-C , 25-H ) :   0.9626
B(  7-C , 26-H ) :   0.9662 B(  7-C , 27-H ) :   0.9917 B(  8-N ,  9-C ) :   1.1862
B(  8-N , 28-H ) :   0.9471 B(  9-C , 10-S ) :   1.6071 B(  9-C , 11-N ) :   1.3061
B( 11-N , 12-C ) :   0.9770 B( 11-N , 29-H ) :   0.9485 B( 12-C , 13-C ) :   0.9750
B( 12-C , 30-H ) :   0.9972 B( 13-C , 14-C ) :   1.3754 B( 13-C , 19-C ) :   1.3676
B( 14-C , 15-C ) :   1.3972 B( 14-C , 31-H ) :   0.9641 B( 15-C , 16-C ) :   1.3588
B( 15-C , 32-H ) :   0.9713 B( 16-C , 17-C ) :   1.3333 B( 16-C , 33-H ) :   0.9861
B( 17-C , 18-O ) :   1.1031 B( 17-C , 19-C ) :   1.3675 B( 18-O , 34-H ) :   0.9808
B( 19-C , 35-H ) :   0.9600

MP2 TOTAL ENERGY:    -1274.338482743 Eh
FINAL SINGLE POINT ENERGY     -1274.338482743239

DIPOLE MOMENT
-------------
                                X             Y             Z
Electronic contribution:      8.46488       9.51177      12.85442
Nuclear contribution   :    -10.07145     -10.66960     -13.89196
                        -----------------------------------------
Total Dipole Moment    :     -1.60656      -1.15783      -1.03754
                        -----------------------------------------
Magnitude (a.u.)       :      2.23564
Magnitude (Debye)      :      5.68255

Rotational constants in cm-1:     0.009989     0.008840     0.005463
Rotational constants in MHz :   299.449767   265.005478   163.783053

                             ****ORCA TERMINATED NORMALLY****
TOTAL RUN TIME: 0 days 1 hours 48 minutes 12 seconds 922 msec
