                         Program Version 4.2.0 -  RELEASE  -
|  1> ! ri-mp2 cc-pvtz cc-pvtz/c TightSCF NoKeepInts
|  2>
|  3> %scf
|  4>   MaxCore 4096
|  5> end
|  6> *xyz  0  1
|  7>     C       14.4230182   15.2869924   13.4618582
|  8>     C       14.7817719   15.4284748   14.9505352
|  9>     O       15.7571445   16.4802999   15.0564831
| 10>     C       16.7704160   16.3580279   15.9612953
| 11>     O       17.2862680   15.2828662   16.2172179
| 12>     C       17.0726069   17.6075002   16.7392110
| 13>     C       16.9288840   18.8523632   16.2118595
| 14>     C       16.2546302   19.2415291   14.9106916
| 15>     N       17.4750903   19.9663324   16.8546123
| 16>     C       18.3604301   19.9030577   17.8965220
| 17>     S       19.0534617   21.2614696   18.5367564
| 18>     N       18.6600243   18.6497380   18.3666326
| 19>     C       17.9968500   17.4002523   17.9460096
| 20>     C       17.3356379   16.6543840   19.0975988
| 21>     C       17.6653837   15.3140063   19.3676341
| 22>     C       17.0557880   14.6284382   20.4317712
| 23>     C       16.1093516   15.2895043   21.2334202
| 24>     C       15.7774835   16.6246955   20.9651556
| 25>     O       14.8608934   17.2640366   21.7348436
| 26>     C       16.3854755   17.3041230   19.9046444
| 27>     H       14.0099974   16.2252566   13.0713665
| 28>     H       13.6762653   14.4963755   13.3195425
| 29>     H       15.3127839   15.0278686   12.8742815
| 30>     H       13.8912315   15.6730192   15.5439409
| 31>     H       15.1818329   14.4689530   15.3062365
| 32>     H       16.6903978   18.6931427   14.0659772
| 33>     H       16.3524504   20.3099239   14.6827190
| 34>     H       15.1822276   19.0125211   14.9457431
| 35>     H       17.2826146   20.8916442   16.5058472
| 36>     H       19.2993863   18.6318079   19.1511675
| 37>     H       18.8624963   16.8377147   17.5667938
| 38>     H       18.3862661   14.7978386   18.7378531
| 39>     H       17.3143572   13.5892924   20.6271745
| 40>     H       15.6352699   14.7633407   22.0552112
| 41>     H       14.5801268   16.6449302   22.4252664
| 42>     H       16.1186859   18.3382789   19.7141265
| 43> *
| 44>
| 45>                          ****END OF INPUT****

CARTESIAN COORDINATES (ANGSTROEM)
---------------------------------
  C     14.423018   15.286992   13.461858
  C     14.781772   15.428475   14.950535
  O     15.757145   16.480300   15.056483
  C     16.770416   16.358028   15.961295
  O     17.286268   15.282866   16.217218
  C     17.072607   17.607500   16.739211
  C     16.928884   18.852363   16.211859
  C     16.254630   19.241529   14.910692
  N     17.475090   19.966332   16.854612
  C     18.360430   19.903058   17.896522
  S     19.053462   21.261470   18.536756
  N     18.660024   18.649738   18.366633
  C     17.996850   17.400252   17.946010
  C     17.335638   16.654384   19.097599
  C     17.665384   15.314006   19.367634
  C     17.055788   14.628438   20.431771
  C     16.109352   15.289504   21.233420
  C     15.777484   16.624696   20.965156
  O     14.860893   17.264037   21.734844
  C     16.385475   17.304123   19.904644
  H     14.009997   16.225257   13.071366
  H     13.676265   14.496375   13.319543
  H     15.312784   15.027869   12.874282
  H     13.891231   15.673019   15.543941
  H     15.181833   14.468953   15.306237
  H     16.690398   18.693143   14.065977
  H     16.352450   20.309924   14.682719
  H     15.182228   19.012521   14.945743
  H     17.282615   20.891644   16.505847
  H     19.299386   18.631808   19.151167
  H     18.862496   16.837715   17.566794
  H     18.386266   14.797839   18.737853
  H     17.314357   13.589292   20.627174
  H     15.635270   14.763341   22.055211
  H     14.580127   16.644930   22.425266
  H     16.118686   18.338279   19.714126

 Total Charge           Charge          ....    0
 Multiplicity           Mult            ....    1
 Number of Electrons    NEL             ....  154
 Basis Dimension        Dim             ....  828

ORBITAL ENERGIES
----------------

  NO   OCC          E(Eh)            E(eV)
   0   2.0000     -91.888218     -2500.4055
   1   2.0000     -20.597990      -560.4998
   2   2.0000     -20.592063      -560.3385
   3   2.0000     -20.547354      -559.1219
   4   2.0000     -15.628885      -425.2836
   5   2.0000     -15.605790      -424.6551
   6   2.0000     -11.395363      -310.0836
   7   2.0000     -11.382777      -309.7411
   8   2.0000     -11.338384      -308.5331
   9   2.0000     -11.308051      -307.7077
  10   2.0000     -11.304219      -307.6034
  11   2.0000     -11.299706      -307.4806
  12   2.0000     -11.260368      -306.4102
  13   2.0000     -11.259388      -306.3835
  14   2.0000     -11.255278      -306.2717
  15   2.0000     -11.248097      -306.0763
  16   2.0000     -11.238295      -305.8096
  17   2.0000     -11.234424      -305.7042
  18   2.0000     -11.232177      -305.6431
  19   2.0000     -11.231141      -305.6149
  20   2.0000      -8.893300      -241.9990
  21   2.0000      -6.574877      -178.9115
  22   2.0000      -6.572875      -178.8570
  23   2.0000      -6.572286      -178.8410
  24   2.0000      -1.453498       -39.5517
  25   2.0000      -1.411806       -38.4172
  26   2.0000      -1.357623       -36.9428
  27   2.0000      -1.340072       -36.4652
  28   2.0000      -1.237160       -33.6648
  29   2.0000      -1.152628       -31.3646
  30   2.0000      -1.120964       -30.5030
  31   2.0000      -1.044339       -28.4179
  32   2.0000      -1.036451       -28.2033
  33   2.0000      -1.010176       -27.4883
  34   2.0000      -0.998875       -27.1808
  35   2.0000      -0.983922       -26.7739
  36   2.0000      -0.920805       -25.0564
  37   2.0000      -0.886339       -24.1185
  38   2.0000      -0.847560       -23.0633
  39   2.0000      -0.835445       -22.7336
  40   2.0000      -0.828306       -22.5393
  41   2.0000      -0.821588       -22.3566
  42   2.0000      -0.761192       -20.7131
  43   2.0000      -0.736150       -20.0317
  44   2.0000      -0.726421       -19.7669
  45   2.0000      -0.690235       -18.7823
  46   2.0000      -0.686019       -18.6675
  47   2.0000      -0.680092       -18.5062
  48   2.0000      -0.673044       -18.3145
  49   2.0000      -0.653584       -17.7849
  50   2.0000      -0.650077       -17.6895
  51   2.0000      -0.639448       -17.4003
  52   2.0000      -0.629046       -17.1172
  53   2.0000      -0.618000       -16.8166
  54   2.0000      -0.603335       -16.4176
  55   2.0000      -0.598749       -16.2928
  56   2.0000      -0.595339       -16.2000
  57   2.0000      -0.579337       -15.7646
  58   2.0000      -0.573352       -15.6017
  59   2.0000      -0.562391       -15.3034
  60   2.0000      -0.561764       -15.2864
  61   2.0000      -0.547479       -14.8977
  62   2.0000      -0.535542       -14.5728
  63   2.0000      -0.529702       -14.4139
  64   2.0000      -0.516234       -14.0474
  65   2.0000      -0.509169       -13.8552
  66   2.0000      -0.501119       -13.6361
  67   2.0000      -0.494207       -13.4481
  68   2.0000      -0.480983       -13.0882
  69   2.0000      -0.462904       -12.5962
  70   2.0000      -0.461789       -12.5659
  71   2.0000      -0.451404       -12.2833
  72   2.0000      -0.353267        -9.6129
  73   2.0000      -0.344763        -9.3815
  74   2.0000      -0.327276        -8.9056
  75   2.0000      -0.317398        -8.6368
  76   2.0000      -0.314713        -8.5638
  77   0.0000       0.075278         2.0484
  78   0.0000       0.111084         3.0228
  79   0.0000       0.120862         3.2888
  80   0.0000       0.135321         3.6823
  81   0.0000       0.138488         3.7685

MULLIKEN ATOMIC CHARGES
-----------------------
   0 C :   -0.264761
   1 C :    0.025714
   2 O :   -0.357265
   3 C :    0.443610
   4 O :   -0.414194
   5 C :   -0.183583
   6 C :    0.153609
   7 C :   -0.281731
   8 N :   -0.128555
   9 C :    0.207437
  10 S :   -0.442056
  11 N :   -0.210665
  12 C :    0.040014
  13 C :    0.032400
  14 C :   -0.169024
  15 C :   -0.134279
  16 C :   -0.277229
  17 C :    0.313854
  18 O :   -0.359084
  19 C :   -0.251581
  20 H :    0.090337
  21 H :    0.091707
  22 H :    0.100911
  23 H :    0.095556
  24 H :    0.116427
  25 H :    0.126532
  26 H :    0.102730
  27 H :    0.127235
  28 H :    0.198866
  29 H :    0.199959
  30 H :    0.155734
  31 H :    0.159425
  32 H :    0.160126
  33 H :    0.128291
  34 H :    0.239983
  35 H :    0.163549
Sum of atomic charges:   -0.0000000

LOEWDIN ATOMIC CHARGES
----------------------
   0 C :    0.105934
   1 C :   -0.013980
   2 O :    0.303480
   3 C :   -0.415898
   4 O :    0.109396
   5 C :   -0.093358
   6 C :   -0.064471
   7 C :    0.125287
   8 N :    0.405568
   9 C :   -0.458544
  10 S :   -0.037382
  11 N :    0.396346
  12 C :   -0.048362
  13 C :   -0.040676
  14 C :    0.024803
  15 C :    0.040982
  16 C :   -0.001223
  17 C :   -0.192648
  18 O :    0.393024
  19 C :    0.029378
  20 H :   -0.030163
  21 H :   -0.025218
  22 H :   -0.024292
  23 H :   -0.032162
  24 H :   -0.026360
  25 H :   -0.008848
  26 H :   -0.021039
  27 H :   -0.009918
  28 H :   -0.058643
  29 H :   -0.063179
  30 H :   -0.008072
  31 H :   -0.023883
  32 H :   -0.020997
  33 H :   -0.036152
  34 H :   -0.154820
  35 H :   -0.023911

  Mayer bond orders larger than 0.100000
B(  0-C ,  1-C ) :   0.9759 B(  0-C , 20-H ) :   0.9798 B(  0-C , 21-H ) :   0.9762
B(  0-C , 22-H ) :   0.9779 B(  1-C ,  2-O ) :   0.8933 B(  1-C , 23-H ) :   0.9757
B(  1-C , 24-H ) :   0.9736 B(  2-O ,  3-C ) :   1.1092 B(  3-C ,  4-O ) :   2.0062
B(  3-C ,  5-C ) :   1.0388 B(  5-C ,  6-C ) :   1.6590 B(  5-C , 12-C ) :   0.9471
B(  6-C ,  7-C ) :   0.9542 B(  6-C ,  8-N ) :   1.1362 B(  7-C , 25-H ) :   0.9654
B(  7-C , 26-H ) :   0.9910 B(  7-C , 27-H ) :   0.9639 B(  8-N ,  9-C ) :   1.1850
B(  8-N , 28-H ) :   0.9469 B(  9-C , 10-S ) :   1.6086 B(  9-C , 11-N ) :   1.3062
B( 11-N , 12-C ) :   0.9761 B( 11-N , 29-H ) :   0.9485 B( 12-C , 13-C ) :   0.9726
B( 12-C , 30-H ) :   0.9968 B( 13-C , 14-C ) :   1.3772 B( 13-C , 19-C ) :   1.3648
B( 14-C , 15-C ) :   1.3974 B( 14-C , 31-H ) :   0.9636 B( 15-C , 16-C ) :   1.3588
B( 15-C , 32-H ) :   0.9711 B( 16-C , 17-C ) :   1.3332 B( 16-C , 33-H ) :   0.9860
B( 17-C , 18-O ) :   1.1036 B( 17-C , 19-C ) :   1.3676 B( 18-O , 34-H ) :   0.9806
B( 19-C , 35-H ) :   0.9602

MP2 TOTAL ENERGY:    -1274.334983209 Eh
FINAL SINGLE POINT ENERGY     -1274.334983209439

DIPOLE MOMENT
-------------
                                X             Y             Z
Electronic contribution:     10.36928       9.48058      12.31955
Nuclear contribution   :    -11.93746     -10.74420     -13.16574
                        -----------------------------------------
Total Dipole Moment    :     -1.56818      -1.26363      -0.84619
                        -----------------------------------------
Magnitude (a.u.)       :      2.18449
Magnitude (Debye)      :      5.55253

Rotational constants in cm-1:     0.009840     0.008872     0.005479
Rotational constants in MHz :   295.002982   265.965666   164.258680

                             ****ORCA TERMINATED NORMALLY****
TOTAL RUN TIME: 0 days 1 hours 39 minutes 52 seconds 401 msec
