                         Program Version 4.2.0 -  RELEASE  -
|  1> ! ri-mp2 cc-pvtz cc-pvtz/c TightSCF NoKeepInts
|  2>
|  3> %scf
|  4>   MaxCore 4096
|  5> end
|  6> *xyz  0  1
|  7>     C       14.0175712   15.4167745   14.4929793
|  8>     C       14.9697296   16.0320846   15.5311985
|  9>     O       16.2689196   16.1225358   14.9216778
| 10>     C       17.3354639   16.3418693   15.7424438
| 11>     O       18.2428993   15.5362445   15.8379440
| 12>     C       17.2557980   17.5848129   16.5740202
| 13>     C       16.9211004   18.7795460   16.0245780
| 14>     C       16.4077635   19.0320259   14.6202011
| 15>     N       17.1200434   19.9683869   16.7299951
| 16>     C       17.8582889   20.0677666   17.8794830
| 17>     S       18.1468510   21.5247424   18.6062855
| 18>     N       18.3650480   18.8958904   18.3844796
| 19>     C       18.0481840   17.5442506   17.8819320
| 20>     C       17.4232862   16.6225502   18.9193209
| 21>     C       17.9150756   15.3175121   19.0999601
| 22>     C       17.3293674   14.4577808   20.0441150
| 23>     C       16.2413236   14.9065355   20.8123316
| 24>     C       15.7456929   16.2048837   20.6300781
| 25>     O       14.6893489   16.6377806   21.3632094
| 26>     C       16.3297588   17.0580590   19.6881776
| 27>     H       14.3739024   14.4260954   14.1830995
| 28>     H       13.9511033   16.0537292   13.6022412
| 29>     H       13.0102871   15.3034402   14.9119453
| 30>     H       14.6051533   17.0172028   15.8484008
| 31>     H       15.0115891   15.3762962   16.4123122
| 32>     H       16.9398281   18.4139389   13.8855489
| 33>     H       16.5494381   20.0740300   14.3071430
| 34>     H       15.3384286   18.8058173   14.5398298
| 35>     H       16.7820302   20.8403358   16.3543698
| 36>     H       18.8979720   18.9957996   19.2394987
| 37>     H       19.0553109   17.1922228   17.6128681
| 38>     H       18.7478595   14.9647165   18.4949179
| 39>     H       17.7168611   13.4485250   20.1731267
| 40>     H       15.7854047   14.2449440   21.5415256
| 41>     H       14.4585928   15.9314079   21.9854187
| 42>     H       15.9317249   18.0594661   19.5613431
| 43> *
| 44>
| 45>                          ****END OF INPUT****

CARTESIAN COORDINATES (ANGSTROEM)
---------------------------------
  C     14.017571   15.416775   14.492979
  C     14.969730   16.032085   15.531199
  O     16.268920   16.122536   14.921678
  C     17.335464   16.341869   15.742444
  O     18.242899   15.536244   15.837944
  C     17.255798   17.584813   16.574020
  C     16.921100   18.779546   16.024578
  C     16.407764   19.032026   14.620201
  N     17.120043   19.968387   16.729995
  C     17.858289   20.067767   17.879483
  S     18.146851   21.524742   18.606285
  N     18.365048   18.895890   18.384480
  C     18.048184   17.544251   17.881932
  C     17.423286   16.622550   18.919321
  C     17.915076   15.317512   19.099960
  C     17.329367   14.457781   20.044115
  C     16.241324   14.906536   20.812332
  C     15.745693   16.204884   20.630078
  O     14.689349   16.637781   21.363209
  C     16.329759   17.058059   19.688178
  H     14.373902   14.426095   14.183100
  H     13.951103   16.053729   13.602241
  H     13.010287   15.303440   14.911945
  H     14.605153   17.017203   15.848401
  H     15.011589   15.376296   16.412312
  H     16.939828   18.413939   13.885549
  H     16.549438   20.074030   14.307143
  H     15.338429   18.805817   14.539830
  H     16.782030   20.840336   16.354370
  H     18.897972   18.995800   19.239499
  H     19.055311   17.192223   17.612868
  H     18.747859   14.964716   18.494918
  H     17.716861   13.448525   20.173127
  H     15.785405   14.244944   21.541526
  H     14.458593   15.931408   21.985419
  H     15.931725   18.059466   19.561343

 Total Charge           Charge          ....    0
 Multiplicity           Mult            ....    1
 Number of Electrons    NEL             ....  154
 Basis Dimension        Dim             ....  828

ORBITAL ENERGIES
----------------

  NO   OCC          E(Eh)            E(eV)
   0   2.0000     -91.890225     -2500.4602
   1   2.0000     -20.597006      -560.4730
   2   2.0000     -20.595257      -560.4254
   3   2.0000     -20.553780      -559.2968
   4   2.0000     -15.630165      -425.3184
   5   2.0000     -15.608558      -424.7305
   6   2.0000     -11.395302      -310.0819
   7   2.0000     -11.385504      -309.8153
   8   2.0000     -11.338191      -308.5279
   9   2.0000     -11.313668      -307.8606
  10   2.0000     -11.307231      -307.6854
  11   2.0000     -11.307104      -307.6819
  12   2.0000     -11.265118      -306.5394
  13   2.0000     -11.261449      -306.4396
  14   2.0000     -11.260995      -306.4273
  15   2.0000     -11.253683      -306.2283
  16   2.0000     -11.243314      -305.9461
  17   2.0000     -11.239499      -305.8423
  18   2.0000     -11.236240      -305.7536
  19   2.0000     -11.236075      -305.7492
  20   2.0000      -8.895314      -242.0538
  21   2.0000      -6.576890      -178.9663
  22   2.0000      -6.574885      -178.9117
  23   2.0000      -6.574297      -178.8957
  24   2.0000      -1.452855       -39.5342
  25   2.0000      -1.416739       -38.5514
  26   2.0000      -1.363175       -37.0939
  27   2.0000      -1.341750       -36.5109
  28   2.0000      -1.239222       -33.7209
  29   2.0000      -1.158089       -31.5132
  30   2.0000      -1.124487       -30.5988
  31   2.0000      -1.046512       -28.4770
  32   2.0000      -1.040649       -28.3175
  33   2.0000      -1.015792       -27.6411
  34   2.0000      -1.003694       -27.3119
  35   2.0000      -0.988347       -26.8943
  36   2.0000      -0.924735       -25.1633
  37   2.0000      -0.879945       -23.9445
  38   2.0000      -0.854651       -23.2562
  39   2.0000      -0.842562       -22.9273
  40   2.0000      -0.835399       -22.7324
  41   2.0000      -0.833228       -22.6733
  42   2.0000      -0.759927       -20.6787
  43   2.0000      -0.738441       -20.0940
  44   2.0000      -0.730814       -19.8864
  45   2.0000      -0.694520       -18.8988
  46   2.0000      -0.688601       -18.7378
  47   2.0000      -0.684070       -18.6145
  48   2.0000      -0.674023       -18.3411
  49   2.0000      -0.661271       -17.9941
  50   2.0000      -0.652997       -17.7689
  51   2.0000      -0.647103       -17.6086
  52   2.0000      -0.639282       -17.3958
  53   2.0000      -0.612988       -16.6802
  54   2.0000      -0.605380       -16.4732
  55   2.0000      -0.604004       -16.4358
  56   2.0000      -0.600246       -16.3335
  57   2.0000      -0.581896       -15.8342
  58   2.0000      -0.576606       -15.6903
  59   2.0000      -0.564965       -15.3735
  60   2.0000      -0.560712       -15.2578
  61   2.0000      -0.558190       -15.1891
  62   2.0000      -0.544810       -14.8250
  63   2.0000      -0.524067       -14.2606
  64   2.0000      -0.522598       -14.2206
  65   2.0000      -0.513547       -13.9743
  66   2.0000      -0.501798       -13.6546
  67   2.0000      -0.498985       -13.5781
  68   2.0000      -0.488580       -13.2949
  69   2.0000      -0.468780       -12.7562
  70   2.0000      -0.462598       -12.5879
  71   2.0000      -0.452482       -12.3127
  72   2.0000      -0.356175        -9.6920
  73   2.0000      -0.349466        -9.5094
  74   2.0000      -0.329437        -8.9644
  75   2.0000      -0.321111        -8.7379
  76   2.0000      -0.319541        -8.6952
  77   0.0000       0.075971         2.0673
  78   0.0000       0.105758         2.8778
  79   0.0000       0.116692         3.1753
  80   0.0000       0.131900         3.5892
  81   0.0000       0.134875         3.6701

MULLIKEN ATOMIC CHARGES
-----------------------
   0 C :   -0.257458
   1 C :    0.016240
   2 O :   -0.339105
   3 C :    0.434115
   4 O :   -0.375253
   5 C :   -0.238684
   6 C :    0.163632
   7 C :   -0.302184
   8 N :   -0.133256
   9 C :    0.206398
  10 S :   -0.440459
  11 N :   -0.216562
  12 C :    0.057302
  13 C :    0.025421
  14 C :   -0.201388
  15 C :   -0.129927
  16 C :   -0.278199
  17 C :    0.313760
  18 O :   -0.357466
  19 C :   -0.251952
  20 H :    0.108115
  21 H :    0.094112
  22 H :    0.090817
  23 H :    0.093018
  24 H :    0.111305
  25 H :    0.138821
  26 H :    0.114777
  27 H :    0.118766
  28 H :    0.198024
  29 H :    0.200897
  30 H :    0.161449
  31 H :    0.171373
  32 H :    0.163307
  33 H :    0.130613
  34 H :    0.240907
  35 H :    0.168724
Sum of atomic charges:   -0.0000000

LOEWDIN ATOMIC CHARGES
----------------------
   0 C :    0.112028
   1 C :   -0.027179
   2 O :    0.302006
   3 C :   -0.421741
   4 O :    0.127615
   5 C :   -0.093314
   6 C :   -0.075326
   7 C :    0.128024
   8 N :    0.404384
   9 C :   -0.457610
  10 S :   -0.036340
  11 N :    0.396022
  12 C :   -0.049503
  13 C :   -0.043294
  14 C :    0.022031
  15 C :    0.042742
  16 C :   -0.000810
  17 C :   -0.192672
  18 O :    0.393868
  19 C :    0.027400
  20 H :   -0.021278
  21 H :   -0.028013
  22 H :   -0.024243
  23 H :   -0.039435
  24 H :   -0.025984
  25 H :   -0.006011
  26 H :   -0.016596
  27 H :   -0.015244
  28 H :   -0.058151
  29 H :   -0.063442
  30 H :   -0.005846
  31 H :   -0.021944
  32 H :   -0.019447
  33 H :   -0.035303
  34 H :   -0.153694
  35 H :   -0.023701

  Mayer bond orders larger than 0.100000
B(  0-C ,  1-C ) :   0.9792 B(  0-C , 20-H ) :   0.9771 B(  0-C , 21-H ) :   0.9777
B(  0-C , 22-H ) :   0.9758 B(  1-C ,  2-O ) :   0.8975 B(  1-C , 23-H ) :   0.9696
B(  1-C , 24-H ) :   0.9752 B(  2-O ,  3-C ) :   1.1302 B(  3-C ,  4-O ) :   2.0954
B(  3-C ,  5-C ) :   0.9538 B(  5-C ,  6-C ) :   1.6925 B(  5-C , 12-C ) :   0.9470
B(  6-C ,  7-C ) :   0.9410 B(  6-C ,  8-N ) :   1.1259 B(  7-C , 25-H ) :   0.9671
B(  7-C , 26-H ) :   0.9868 B(  7-C , 27-H ) :   0.9665 B(  8-N ,  9-C ) :   1.1884
B(  8-N , 28-H ) :   0.9484 B(  9-C , 10-S ) :   1.6119 B(  9-C , 11-N ) :   1.2975
B( 11-N , 12-C ) :   0.9838 B( 11-N , 29-H ) :   0.9484 B( 12-C , 13-C ) :   0.9698
B( 12-C , 30-H ) :   0.9921 B( 13-C , 14-C ) :   1.3833 B( 13-C , 19-C ) :   1.3591
B( 14-C , 15-C ) :   1.3942 B( 14-C , 31-H ) :   0.9600 B( 15-C , 16-C ) :   1.3608
B( 15-C , 32-H ) :   0.9703 B( 16-C , 17-C ) :   1.3312 B( 16-C , 33-H ) :   0.9853
B( 17-C , 18-O ) :   1.1068 B( 17-C , 19-C ) :   1.3671 B( 18-O , 34-H ) :   0.9798
B( 19-C , 35-H ) :   0.9581

MP2 TOTAL ENERGY:    -1274.329842077 Eh
FINAL SINGLE POINT ENERGY     -1274.329842076625

DIPOLE MOMENT
-------------
                                X             Y             Z
Electronic contribution:     10.53184       8.63910       9.53024
Nuclear contribution   :    -12.09389      -9.78621      -9.96150
                        -----------------------------------------
Total Dipole Moment    :     -1.56205      -1.14711      -0.43126
                        -----------------------------------------
Magnitude (a.u.)       :      1.98540
Magnitude (Debye)      :      5.04650

Rotational constants in cm-1:     0.010106     0.009319     0.006072
Rotational constants in MHz :   302.975449   279.370527   182.043967

                             ****ORCA TERMINATED NORMALLY****
TOTAL RUN TIME: 0 days 1 hours 45 minutes 55 seconds 308 msec
