                         Program Version 4.2.0 -  RELEASE  -
|  1> ! ri-mp2 cc-pvtz cc-pvtz/c TightSCF NoKeepInts
|  2>
|  3> %scf
|  4>   MaxCore 4096
|  5> end
|  6> *xyz  0  1
|  7>     C       14.3700012   14.9053018   15.0257808
|  8>     C       15.1325843   15.8408283   14.0621463
|  9>     O       15.7512703   16.9200135   14.7920362
| 10>     C       16.7139676   16.6780002   15.7315198
| 11>     O       17.2790826   15.6005562   15.8250398
| 12>     C       17.0031056   17.8245089   16.6611271
| 13>     C       16.8104997   19.1270708   16.3201762
| 14>     C       16.0815881   19.6812485   15.1115535
| 15>     N       17.3428010   20.1549137   17.1031610
| 16>     C       18.2516247   19.9727727   18.1100104
| 17>     S       18.9212545   21.2481770   18.9227706
| 18>     N       18.5941994   18.6756195   18.3942377
| 19>     C       17.9591065   17.4783560   17.8105783
| 20>     C       17.3427287   16.5587024   18.8567422
| 21>     C       17.7204847   15.2061154   18.9351492
| 22>     C       17.1511281   14.3598233   19.9013755
| 23>     C       16.1969611   14.8710616   20.7977882
| 24>     C       15.8174415   16.2182316   20.7206102
| 25>     O       14.8933847   16.7133772   21.5821946
| 26>     C       16.3855976   17.0579156   19.7572702
| 27>     H       15.0542828   14.3522065   15.6807174
| 28>     H       13.7877674   14.1692672   14.4584732
| 29>     H       13.6761089   15.4775301   15.6538445
| 30>     H       15.8931145   15.2683207   13.5139504
| 31>     H       14.4285181   16.2574734   13.3305946
| 32>     H       16.5339793   19.3146696   14.1816540
| 33>     H       16.1003154   20.7769966   15.0671837
| 34>     H       15.0277778   19.3757989   15.1208456
| 35>     H       17.1173237   21.1138950   16.8927601
| 36>     H       19.2489459   18.5666360   19.1584018
| 37>     H       18.8322931   17.0019078   17.3415039
| 38>     H       18.4467487   14.8067256   18.2311515
| 39>     H       17.4461736   13.3131327   19.9478682
| 40>     H       15.7535925   14.2206205   21.5442670
| 41>     H       14.6395224   15.9937834   22.1792344
| 42>     H       16.0817240   18.0984419   19.7142816
| 43> *
| 44>
| 45>                          ****END OF INPUT****

CARTESIAN COORDINATES (ANGSTROEM)
---------------------------------
  C     14.370001   14.905302   15.025781
  C     15.132584   15.840828   14.062146
  O     15.751270   16.920013   14.792036
  C     16.713968   16.678000   15.731520
  O     17.279083   15.600556   15.825040
  C     17.003106   17.824509   16.661127
  C     16.810500   19.127071   16.320176
  C     16.081588   19.681248   15.111553
  N     17.342801   20.154914   17.103161
  C     18.251625   19.972773   18.110010
  S     18.921254   21.248177   18.922771
  N     18.594199   18.675619   18.394238
  C     17.959107   17.478356   17.810578
  C     17.342729   16.558702   18.856742
  C     17.720485   15.206115   18.935149
  C     17.151128   14.359823   19.901375
  C     16.196961   14.871062   20.797788
  C     15.817441   16.218232   20.720610
  O     14.893385   16.713377   21.582195
  C     16.385598   17.057916   19.757270
  H     15.054283   14.352206   15.680717
  H     13.787767   14.169267   14.458473
  H     13.676109   15.477530   15.653844
  H     15.893114   15.268321   13.513950
  H     14.428518   16.257473   13.330595
  H     16.533979   19.314670   14.181654
  H     16.100315   20.776997   15.067184
  H     15.027778   19.375799   15.120846
  H     17.117324   21.113895   16.892760
  H     19.248946   18.566636   19.158402
  H     18.832293   17.001908   17.341504
  H     18.446749   14.806726   18.231151
  H     17.446174   13.313133   19.947868
  H     15.753592   14.220621   21.544267
  H     14.639522   15.993783   22.179234
  H     16.081724   18.098442   19.714282

 Total Charge           Charge          ....    0
 Multiplicity           Mult            ....    1
 Number of Electrons    NEL             ....  154
 Basis Dimension        Dim             ....  828

ORBITAL ENERGIES
----------------

  NO   OCC          E(Eh)            E(eV)
   0   2.0000     -91.887733     -2500.3923
   1   2.0000     -20.602707      -560.6282
   2   2.0000     -20.591534      -560.3241
   3   2.0000     -20.544901      -559.0552
   4   2.0000     -15.628234      -425.2659
   5   2.0000     -15.605461      -424.6462
   6   2.0000     -11.396859      -310.1243
   7   2.0000     -11.382230      -309.7262
   8   2.0000     -11.338049      -308.5240
   9   2.0000     -11.307545      -307.6939
  10   2.0000     -11.303968      -307.5966
  11   2.0000     -11.302401      -307.5540
  12   2.0000     -11.261230      -306.4337
  13   2.0000     -11.258447      -306.3579
  14   2.0000     -11.254781      -306.2582
  15   2.0000     -11.247675      -306.0648
  16   2.0000     -11.237849      -305.7974
  17   2.0000     -11.233955      -305.6915
  18   2.0000     -11.230742      -305.6040
  19   2.0000     -11.225617      -305.4646
  20   2.0000      -8.892819      -241.9859
  21   2.0000      -6.574397      -178.8984
  22   2.0000      -6.572393      -178.8439
  23   2.0000      -6.571806      -178.8279
  24   2.0000      -1.452577       -39.5266
  25   2.0000      -1.411283       -38.4030
  26   2.0000      -1.356720       -36.9182
  27   2.0000      -1.339629       -36.4531
  28   2.0000      -1.236822       -33.6556
  29   2.0000      -1.152168       -31.3521
  30   2.0000      -1.120310       -30.4852
  31   2.0000      -1.042090       -28.3567
  32   2.0000      -1.033453       -28.1217
  33   2.0000      -1.009665       -27.4744
  34   2.0000      -0.998226       -27.1631
  35   2.0000      -0.983083       -26.7510
  36   2.0000      -0.920760       -25.0552
  37   2.0000      -0.895386       -24.3647
  38   2.0000      -0.847542       -23.0628
  39   2.0000      -0.834822       -22.7167
  40   2.0000      -0.827858       -22.5272
  41   2.0000      -0.815915       -22.2022
  42   2.0000      -0.750702       -20.4276
  43   2.0000      -0.735265       -20.0076
  44   2.0000      -0.725813       -19.7504
  45   2.0000      -0.690371       -18.7859
  46   2.0000      -0.685663       -18.6578
  47   2.0000      -0.678922       -18.4744
  48   2.0000      -0.669362       -18.2143
  49   2.0000      -0.654649       -17.8139
  50   2.0000      -0.652433       -17.7536
  51   2.0000      -0.643948       -17.5227
  52   2.0000      -0.630530       -17.1576
  53   2.0000      -0.613601       -16.6969
  54   2.0000      -0.602570       -16.3968
  55   2.0000      -0.598008       -16.2726
  56   2.0000      -0.594828       -16.1861
  57   2.0000      -0.579390       -15.7660
  58   2.0000      -0.573433       -15.6039
  59   2.0000      -0.564344       -15.3566
  60   2.0000      -0.557817       -15.1790
  61   2.0000      -0.546176       -14.8622
  62   2.0000      -0.537692       -14.6313
  63   2.0000      -0.527443       -14.3525
  64   2.0000      -0.515199       -14.0193
  65   2.0000      -0.508602       -13.8398
  66   2.0000      -0.498880       -13.5752
  67   2.0000      -0.493746       -13.4355
  68   2.0000      -0.480801       -13.0833
  69   2.0000      -0.464069       -12.6280
  70   2.0000      -0.458651       -12.4805
  71   2.0000      -0.450154       -12.2493
  72   2.0000      -0.352845        -9.6014
  73   2.0000      -0.344385        -9.3712
  74   2.0000      -0.326828        -8.8934
  75   2.0000      -0.316889        -8.6230
  76   2.0000      -0.314163        -8.5488
  77   0.0000       0.077585         2.1112
  78   0.0000       0.111743         3.0407
  79   0.0000       0.121795         3.3142
  80   0.0000       0.136144         3.7047
  81   0.0000       0.141705         3.8560

MULLIKEN ATOMIC CHARGES
-----------------------
   0 C :   -0.304759
   1 C :    0.037035
   2 O :   -0.352248
   3 C :    0.432407
   4 O :   -0.429270
   5 C :   -0.172780
   6 C :    0.159874
   7 C :   -0.279016
   8 N :   -0.128496
   9 C :    0.207683
  10 S :   -0.442882
  11 N :   -0.210937
  12 C :    0.042280
  13 C :    0.032900
  14 C :   -0.169534
  15 C :   -0.134448
  16 C :   -0.276899
  17 C :    0.314517
  18 O :   -0.359041
  19 C :   -0.251769
  20 H :    0.126251
  21 H :    0.095896
  22 H :    0.095282
  23 H :    0.101299
  24 H :    0.107195
  25 H :    0.125084
  26 H :    0.100989
  27 H :    0.128700
  28 H :    0.198806
  29 H :    0.199911
  30 H :    0.155378
  31 H :    0.159303
  32 H :    0.159971
  33 H :    0.128168
  34 H :    0.239881
  35 H :    0.163268
Sum of atomic charges:   -0.0000000

LOEWDIN ATOMIC CHARGES
----------------------
   0 C :    0.106191
   1 C :   -0.015637
   2 O :    0.301782
   3 C :   -0.413484
   4 O :    0.104364
   5 C :   -0.090936
   6 C :   -0.063619
   7 C :    0.124953
   8 N :    0.405437
   9 C :   -0.458737
  10 S :   -0.037995
  11 N :    0.396605
  12 C :   -0.048259
  13 C :   -0.040497
  14 C :    0.024617
  15 C :    0.040489
  16 C :   -0.001106
  17 C :   -0.192418
  18 O :    0.393105
  19 C :    0.029866
  20 H :   -0.024197
  21 H :   -0.026675
  22 H :   -0.029024
  23 H :   -0.028738
  24 H :   -0.025207
  25 H :   -0.009393
  26 H :   -0.021507
  27 H :   -0.009441
  28 H :   -0.058811
  29 H :   -0.063081
  30 H :   -0.008503
  31 H :   -0.024076
  32 H :   -0.021146
  33 H :   -0.036185
  34 H :   -0.154912
  35 H :   -0.023824

  Mayer bond orders larger than 0.100000
B(  0-C ,  1-C ) :   0.9624 B(  0-C , 20-H ) :   0.9721 B(  0-C , 21-H ) :   0.9764
B(  0-C , 22-H ) :   0.9759 B(  1-C ,  2-O ) :   0.8995 B(  1-C , 23-H ) :   0.9798
B(  1-C , 24-H ) :   0.9839 B(  2-O ,  3-C ) :   1.1411 B(  3-C ,  4-O ) :   1.9713
B(  3-C ,  5-C ) :   1.0485 B(  5-C ,  6-C ) :   1.6519 B(  5-C , 12-C ) :   0.9524
B(  6-C ,  7-C ) :   0.9550 B(  6-C ,  8-N ) :   1.1375 B(  7-C , 25-H ) :   0.9650
B(  7-C , 26-H ) :   0.9910 B(  7-C , 27-H ) :   0.9635 B(  8-N ,  9-C ) :   1.1852
B(  8-N , 28-H ) :   0.9469 B(  9-C , 10-S ) :   1.6076 B(  9-C , 11-N ) :   1.3067
B( 11-N , 12-C ) :   0.9771 B( 11-N , 29-H ) :   0.9485 B( 12-C , 13-C ) :   0.9727
B( 12-C , 30-H ) :   0.9974 B( 13-C , 14-C ) :   1.3752 B( 13-C , 19-C ) :   1.3667
B( 14-C , 15-C ) :   1.3968 B( 14-C , 31-H ) :   0.9637 B( 15-C , 16-C ) :   1.3587
B( 15-C , 32-H ) :   0.9712 B( 16-C , 17-C ) :   1.3335 B( 16-C , 33-H ) :   0.9860
B( 17-C , 18-O ) :   1.1033 B( 17-C , 19-C ) :   1.3672 B( 18-O , 34-H ) :   0.9807
B( 19-C , 35-H ) :   0.9602

MP2 TOTAL ENERGY:    -1274.340910988 Eh
FINAL SINGLE POINT ENERGY     -1274.340910987821

DIPOLE MOMENT
-------------
                                X             Y             Z
Electronic contribution:      9.89091       9.99670      10.15374
Nuclear contribution   :    -11.34285     -11.23327     -11.30669
                        -----------------------------------------
Total Dipole Moment    :     -1.45194      -1.23656      -1.15295
                        -----------------------------------------
Magnitude (a.u.)       :      2.22857
Magnitude (Debye)      :      5.66457

Rotational constants in cm-1:     0.010041     0.009268     0.005670
Rotational constants in MHz :   301.035227   277.843215   169.994489

                             ****ORCA TERMINATED NORMALLY****
TOTAL RUN TIME: 0 days 1 hours 37 minutes 30 seconds 766 msec
