                         Program Version 4.2.0 -  RELEASE  -
|  1> ! ri-mp2 cc-pvtz cc-pvtz/c TightSCF NoKeepInts
|  2>
|  3> %scf
|  4>   MaxCore 4096
|  5> end
|  6> *xyz  0  1
|  7>     C       14.9977562   14.5049599   14.6864120
|  8>     C       14.6683647   16.0024622   14.5082153
|  9>     O       15.7473852   16.9191449   14.8268304
| 10>     C       16.7587212   16.6900904   15.7222344
| 11>     O       17.3417510   15.6251167   15.8306658
| 12>     C       17.0282751   17.8402041   16.6521829
| 13>     C       16.8636995   19.1395785   16.2865391
| 14>     C       16.1987480   19.6811406   15.0360041
| 15>     N       17.3772215   20.1726988   17.0749792
| 16>     C       18.2495034   19.9947821   18.1145158
| 17>     S       18.9024823   21.2741371   18.9345475
| 18>     N       18.5704427   18.6980978   18.4255442
| 19>     C       17.9419027   17.4996401   17.8369629
| 20>     C       17.2806153   16.5984600   18.8716491
| 21>     C       17.6268810   15.2383647   18.9639614
| 22>     C       17.0154799   14.4082323   19.9184118
| 23>     C       16.0503327   14.9432633   20.7888058
| 24>     C       15.7017802   16.2978894   20.6974277
| 25>     O       14.7668203   16.8159338   21.5333775
| 26>     C       16.3115643   17.1214083   19.7456166
| 27>     H       15.8899787   14.2284325   14.1103973
| 28>     H       14.1636671   13.8878507   14.3316318
| 29>     H       15.1673363   14.2576344   15.7420738
| 30>     H       14.3500036   16.1795938   13.4728598
| 31>     H       13.8114254   16.2355968   15.1534640
| 32>     H       15.1289764   19.4384421   15.0290840
| 33>     H       16.6513818   19.2481881   14.1349924
| 34>     H       16.2864615   20.7706540   14.9445668
| 35>     H       17.1692530   21.1309918   16.8442654
| 36>     H       19.1999608   18.5925101   19.2110885
| 37>     H       18.8250385   17.0080255   17.4033086
| 38>     H       18.3622544   14.8208926   18.2800069
| 39>     H       17.2872468   13.3557757   19.9761051
| 40>     H       15.5747872   14.3054053   21.5263134
| 41>     H       14.4884010   16.1064150   22.1315938
| 42>     H       16.0311002   18.1679867   19.6913646
| 43> *
| 44>
| 45>                          ****END OF INPUT****

CARTESIAN COORDINATES (ANGSTROEM)
---------------------------------
  C     14.997756   14.504960   14.686412
  C     14.668365   16.002462   14.508215
  O     15.747385   16.919145   14.826830
  C     16.758721   16.690090   15.722234
  O     17.341751   15.625117   15.830666
  C     17.028275   17.840204   16.652183
  C     16.863699   19.139578   16.286539
  C     16.198748   19.681141   15.036004
  N     17.377221   20.172699   17.074979
  C     18.249503   19.994782   18.114516
  S     18.902482   21.274137   18.934548
  N     18.570443   18.698098   18.425544
  C     17.941903   17.499640   17.836963
  C     17.280615   16.598460   18.871649
  C     17.626881   15.238365   18.963961
  C     17.015480   14.408232   19.918412
  C     16.050333   14.943263   20.788806
  C     15.701780   16.297889   20.697428
  O     14.766820   16.815934   21.533378
  C     16.311564   17.121408   19.745617
  H     15.889979   14.228433   14.110397
  H     14.163667   13.887851   14.331632
  H     15.167336   14.257634   15.742074
  H     14.350004   16.179594   13.472860
  H     13.811425   16.235597   15.153464
  H     15.128976   19.438442   15.029084
  H     16.651382   19.248188   14.134992
  H     16.286462   20.770654   14.944567
  H     17.169253   21.130992   16.844265
  H     19.199961   18.592510   19.211088
  H     18.825039   17.008025   17.403309
  H     18.362254   14.820893   18.280007
  H     17.287247   13.355776   19.976105
  H     15.574787   14.305405   21.526313
  H     14.488401   16.106415   22.131594
  H     16.031100   18.167987   19.691365

 Total Charge           Charge          ....    0
 Multiplicity           Mult            ....    1
 Number of Electrons    NEL             ....  154
 Basis Dimension        Dim             ....  828

ORBITAL ENERGIES
----------------

  NO   OCC          E(Eh)            E(eV)
   0   2.0000     -91.887459     -2500.3849
   1   2.0000     -20.594720      -560.4108
   2   2.0000     -20.592517      -560.3509
   3   2.0000     -20.546767      -559.1060
   4   2.0000     -15.627649      -425.2500
   5   2.0000     -15.605196      -424.6390
   6   2.0000     -11.397866      -310.1517
   7   2.0000     -11.381972      -309.7192
   8   2.0000     -11.336699      -308.4873
   9   2.0000     -11.308592      -307.7224
  10   2.0000     -11.307415      -307.6904
  11   2.0000     -11.303560      -307.5855
  12   2.0000     -11.259319      -306.3817
  13   2.0000     -11.258090      -306.3482
  14   2.0000     -11.255662      -306.2821
  15   2.0000     -11.248757      -306.0942
  16   2.0000     -11.238839      -305.8244
  17   2.0000     -11.234816      -305.7149
  18   2.0000     -11.231613      -305.6277
  19   2.0000     -11.224536      -305.4352
  20   2.0000      -8.892551      -241.9786
  21   2.0000      -6.574131      -178.8912
  22   2.0000      -6.572126      -178.8366
  23   2.0000      -6.571540      -178.8207
  24   2.0000      -1.445216       -39.3263
  25   2.0000      -1.412264       -38.4296
  26   2.0000      -1.356771       -36.9196
  27   2.0000      -1.339100       -36.4388
  28   2.0000      -1.236383       -33.6437
  29   2.0000      -1.152817       -31.3697
  30   2.0000      -1.119740       -30.4697
  31   2.0000      -1.042382       -28.3646
  32   2.0000      -1.033819       -28.1316
  33   2.0000      -1.010480       -27.4966
  34   2.0000      -0.998091       -27.1594
  35   2.0000      -0.982878       -26.7455
  36   2.0000      -0.920840       -25.0573
  37   2.0000      -0.895099       -24.3569
  38   2.0000      -0.847739       -23.0682
  39   2.0000      -0.835765       -22.7423
  40   2.0000      -0.828798       -22.5527
  41   2.0000      -0.819723       -22.3058
  42   2.0000      -0.743600       -20.2344
  43   2.0000      -0.727510       -19.7965
  44   2.0000      -0.724637       -19.7184
  45   2.0000      -0.690232       -18.7822
  46   2.0000      -0.683800       -18.6071
  47   2.0000      -0.678587       -18.4653
  48   2.0000      -0.673421       -18.3247
  49   2.0000      -0.665576       -18.1112
  50   2.0000      -0.645823       -17.5737
  51   2.0000      -0.643238       -17.5034
  52   2.0000      -0.632971       -17.2240
  53   2.0000      -0.608480       -16.5576
  54   2.0000      -0.603009       -16.4087
  55   2.0000      -0.598554       -16.2875
  56   2.0000      -0.595869       -16.2144
  57   2.0000      -0.574896       -15.6437
  58   2.0000      -0.572963       -15.5911
  59   2.0000      -0.570540       -15.5252
  60   2.0000      -0.557995       -15.1838
  61   2.0000      -0.545939       -14.8557
  62   2.0000      -0.537718       -14.6321
  63   2.0000      -0.526425       -14.3248
  64   2.0000      -0.515999       -14.0410
  65   2.0000      -0.510117       -13.8810
  66   2.0000      -0.497822       -13.5464
  67   2.0000      -0.493435       -13.4270
  68   2.0000      -0.479293       -13.0422
  69   2.0000      -0.462520       -12.5858
  70   2.0000      -0.454733       -12.3739
  71   2.0000      -0.446222       -12.1423
  72   2.0000      -0.352132        -9.5820
  73   2.0000      -0.345086        -9.3903
  74   2.0000      -0.326618        -8.8877
  75   2.0000      -0.316671        -8.6171
  76   2.0000      -0.315288        -8.5794
  77   0.0000       0.076409         2.0792
  78   0.0000       0.110294         3.0013
  79   0.0000       0.121907         3.3173
  80   0.0000       0.135214         3.6794
  81   0.0000       0.138120         3.7584

MULLIKEN ATOMIC CHARGES
-----------------------
   0 C :   -0.286397
   1 C :    0.046868
   2 O :   -0.372422
   3 C :    0.429275
   4 O :   -0.409082
   5 C :   -0.163565
   6 C :    0.156272
   7 C :   -0.281672
   8 N :   -0.128776
   9 C :    0.207230
  10 S :   -0.443510
  11 N :   -0.211486
  12 C :    0.042468
  13 C :    0.031721
  14 C :   -0.175878
  15 C :   -0.134500
  16 C :   -0.277696
  17 C :    0.314155
  18 O :   -0.358768
  19 C :   -0.252055
  20 H :    0.112296
  21 H :    0.096258
  22 H :    0.109767
  23 H :    0.097178
  24 H :    0.086342
  25 H :    0.125929
  26 H :    0.126836
  27 H :    0.102290
  28 H :    0.198641
  29 H :    0.199834
  30 H :    0.156920
  31 H :    0.161777
  32 H :    0.160748
  33 H :    0.128651
  34 H :    0.239988
  35 H :    0.164362
Sum of atomic charges:    0.0000000

LOEWDIN ATOMIC CHARGES
----------------------
   0 C :    0.103887
   1 C :   -0.011451
   2 O :    0.289105
   3 C :   -0.412518
   4 O :    0.119831
   5 C :   -0.093271
   6 C :   -0.065072
   7 C :    0.124807
   8 N :    0.405226
   9 C :   -0.458707
  10 S :   -0.038551
  11 N :    0.396340
  12 C :   -0.048453
  13 C :   -0.040841
  14 C :    0.023743
  15 C :    0.040204
  16 C :   -0.001461
  17 C :   -0.192638
  18 O :    0.393175
  19 C :    0.029497
  20 H :   -0.023397
  21 H :   -0.027672
  22 H :   -0.025282
  23 H :   -0.025160
  24 H :   -0.031419
  25 H :   -0.010051
  26 H :   -0.008606
  27 H :   -0.021358
  28 H :   -0.058865
  29 H :   -0.063357
  30 H :   -0.008343
  31 H :   -0.023770
  32 H :   -0.020969
  33 H :   -0.036131
  34 H :   -0.154794
  35 H :   -0.023678

  Mayer bond orders larger than 0.100000
B(  0-C ,  1-C ) :   0.9821 B(  0-C , 20-H ) :   0.9726 B(  0-C , 21-H ) :   0.9722
B(  0-C , 22-H ) :   0.9730 B(  1-C ,  2-O ) :   0.9085 B(  1-C , 23-H ) :   0.9791
B(  1-C , 24-H ) :   0.9756 B(  2-O ,  3-C ) :   1.0878 B(  3-C ,  4-O ) :   2.0050
B(  3-C ,  5-C ) :   1.0311 B(  5-C ,  6-C ) :   1.6670 B(  5-C , 12-C ) :   0.9480
B(  6-C ,  7-C ) :   0.9535 B(  6-C ,  8-N ) :   1.1333 B(  7-C , 25-H ) :   0.9646
B(  7-C , 26-H ) :   0.9650 B(  7-C , 27-H ) :   0.9914 B(  8-N ,  9-C ) :   1.1868
B(  8-N , 28-H ) :   0.9470 B(  9-C , 10-S ) :   1.6072 B(  9-C , 11-N ) :   1.3058
B( 11-N , 12-C ) :   0.9755 B( 11-N , 29-H ) :   0.9486 B( 12-C , 13-C ) :   0.9711
B( 12-C , 30-H ) :   0.9967 B( 13-C , 14-C ) :   1.3758 B( 13-C , 19-C ) :   1.3657
B( 14-C , 15-C ) :   1.3963 B( 14-C , 31-H ) :   0.9630 B( 15-C , 16-C ) :   1.3589
B( 15-C , 32-H ) :   0.9710 B( 16-C , 17-C ) :   1.3331 B( 16-C , 33-H ) :   0.9858
B( 17-C , 18-O ) :   1.1040 B( 17-C , 19-C ) :   1.3668 B( 18-O , 34-H ) :   0.9806
B( 19-C , 35-H ) :   0.9599

MP2 TOTAL ENERGY:    -1274.326688776 Eh
FINAL SINGLE POINT ENERGY     -1274.326688775859

DIPOLE MOMENT
-------------
                                X             Y             Z
Electronic contribution:      9.23213      10.59864      10.37298
Nuclear contribution   :    -10.83114     -11.84978     -11.36844
                        -----------------------------------------
Total Dipole Moment    :     -1.59902      -1.25114      -0.99546
                        -----------------------------------------
Magnitude (a.u.)       :      2.26123
Magnitude (Debye)      :      5.74758

Rotational constants in cm-1:     0.010211     0.009149     0.005685
Rotational constants in MHz :   306.128291   274.268408   170.442877

                             ****ORCA TERMINATED NORMALLY****
TOTAL RUN TIME: 0 days 1 hours 54 minutes 18 seconds 128 msec
