                         Program Version 4.2.0 -  RELEASE  -
|  1> ! ri-mp2 cc-pvtz cc-pvtz/c TightSCF NoKeepInts
|  2>
|  3> %scf
|  4>   MaxCore 4096
|  5> end
|  6> *xyz  0  1
|  7>     C       14.1302422   15.9525322   15.2305062
|  8>     C       15.3203416   15.6127385   16.1443805
|  9>     O       16.5265564   15.7756790   15.3700445
| 10>     C       17.2338447   16.9470855   15.3002330
| 11>     O       17.9322340   17.2037167   14.3374306
| 12>     C       17.0958763   17.8829349   16.4567427
| 13>     C       16.8440124   19.1855248   16.1925516
| 14>     C       16.3061053   19.7319809   14.8877229
| 15>     N       17.1007090   20.1808318   17.1366777
| 16>     C       17.8444820   19.9842062   18.2700782
| 17>     S       18.2196316   21.2245558   19.2973120
| 18>     N       18.2855142   18.7033800   18.4982369
| 19>     C       17.8874374   17.5131079   17.7200192
| 20>     C       17.3178208   16.3820219   18.5628509
| 21>     C       17.7835170   15.0654231   18.3927297
| 22>     C       17.2472878   14.0151122   19.1561464
| 23>     C       16.2401366   14.2843712   20.0987169
| 24>     C       15.7774347   15.5958652   20.2730128
| 25>     O       14.8007931   15.8578698   21.1770589
| 26>     C       16.3107532   16.6393769   19.5096318
| 27>     H       14.1582153   17.0055612   14.9263049
| 28>     H       13.1822312   15.7721158   15.7518745
| 29>     H       14.1478932   15.3304856   14.3265313
| 30>     H       15.2864848   16.2410200   17.0391687
| 31>     H       15.2358997   14.5655437   16.4629862
| 32>     H       15.6008270   19.0329978   14.4223847
| 33>     H       17.1267147   19.8886194   14.1748318
| 34>     H       15.7823326   20.6865211   15.0178768
| 35>     H       16.8255250   21.1328036   16.9533213
| 36>     H       18.8282423   18.5875340   19.3451890
| 37>     H       18.8758318   17.2114568   17.3426562
| 38>     H       18.5567991   14.8535071   17.6577942
| 39>     H       17.6122963   12.9987331   19.0156732
| 40>     H       15.8236061   13.4756934   20.6906769
| 41>     H       14.6016955   15.0309303   21.6420046
| 42>     H       15.9376753   17.6481624   19.6566424
| 43> *
| 44>
| 45>                          ****END OF INPUT****

CARTESIAN COORDINATES (ANGSTROEM)
---------------------------------
  C     14.130242   15.952532   15.230506
  C     15.320342   15.612738   16.144381
  O     16.526556   15.775679   15.370044
  C     17.233845   16.947086   15.300233
  O     17.932234   17.203717   14.337431
  C     17.095876   17.882935   16.456743
  C     16.844012   19.185525   16.192552
  C     16.306105   19.731981   14.887723
  N     17.100709   20.180832   17.136678
  C     17.844482   19.984206   18.270078
  S     18.219632   21.224556   19.297312
  N     18.285514   18.703380   18.498237
  C     17.887437   17.513108   17.720019
  C     17.317821   16.382022   18.562851
  C     17.783517   15.065423   18.392730
  C     17.247288   14.015112   19.156146
  C     16.240137   14.284371   20.098717
  C     15.777435   15.595865   20.273013
  O     14.800793   15.857870   21.177059
  C     16.310753   16.639377   19.509632
  H     14.158215   17.005561   14.926305
  H     13.182231   15.772116   15.751874
  H     14.147893   15.330486   14.326531
  H     15.286485   16.241020   17.039169
  H     15.235900   14.565544   16.462986
  H     15.600827   19.032998   14.422385
  H     17.126715   19.888619   14.174832
  H     15.782333   20.686521   15.017877
  H     16.825525   21.132804   16.953321
  H     18.828242   18.587534   19.345189
  H     18.875832   17.211457   17.342656
  H     18.556799   14.853507   17.657794
  H     17.612296   12.998733   19.015673
  H     15.823606   13.475693   20.690677
  H     14.601695   15.030930   21.642005
  H     15.937675   17.648162   19.656642

 Total Charge           Charge          ....    0
 Multiplicity           Mult            ....    1
 Number of Electrons    NEL             ....  154
 Basis Dimension        Dim             ....  828

ORBITAL ENERGIES
----------------

  NO   OCC          E(Eh)            E(eV)
   0   2.0000     -91.890504     -2500.4677
   1   2.0000     -20.604720      -560.6829
   2   2.0000     -20.598672      -560.5183
   3   2.0000     -20.550786      -559.2153
   4   2.0000     -15.627235      -425.2387
   5   2.0000     -15.611394      -424.8076
   6   2.0000     -11.396534      -310.1155
   7   2.0000     -11.385974      -309.8281
   8   2.0000     -11.329499      -308.2914
   9   2.0000     -11.323236      -308.1209
  10   2.0000     -11.317364      -307.9611
  11   2.0000     -11.299677      -307.4798
  12   2.0000     -11.270509      -306.6861
  13   2.0000     -11.264292      -306.5170
  14   2.0000     -11.257624      -306.3355
  15   2.0000     -11.257523      -306.3328
  16   2.0000     -11.252695      -306.2014
  17   2.0000     -11.247532      -306.0609
  18   2.0000     -11.247461      -306.0590
  19   2.0000     -11.231726      -305.6308
  20   2.0000      -8.895575      -242.0609
  21   2.0000      -6.577148      -178.9733
  22   2.0000      -6.575147      -178.9188
  23   2.0000      -6.574557      -178.9028
  24   2.0000      -1.446649       -39.3653
  25   2.0000      -1.424470       -38.7618
  26   2.0000      -1.360276       -37.0150
  27   2.0000      -1.340368       -36.4733
  28   2.0000      -1.240272       -33.7495
  29   2.0000      -1.166528       -31.7429
  30   2.0000      -1.125716       -30.6323
  31   2.0000      -1.051344       -28.6085
  32   2.0000      -1.036747       -28.2113
  33   2.0000      -1.024667       -27.8826
  34   2.0000      -1.003808       -27.3150
  35   2.0000      -0.989928       -26.9373
  36   2.0000      -0.927472       -25.2378
  37   2.0000      -0.888816       -24.1859
  38   2.0000      -0.852479       -23.1971
  39   2.0000      -0.844716       -22.9859
  40   2.0000      -0.843015       -22.9396
  41   2.0000      -0.835842       -22.7444
  42   2.0000      -0.757919       -20.6240
  43   2.0000      -0.739401       -20.1201
  44   2.0000      -0.722914       -19.6715
  45   2.0000      -0.703043       -19.1308
  46   2.0000      -0.693728       -18.8773
  47   2.0000      -0.678939       -18.4749
  48   2.0000      -0.677663       -18.4402
  49   2.0000      -0.668604       -18.1936
  50   2.0000      -0.651218       -17.7205
  51   2.0000      -0.646648       -17.5962
  52   2.0000      -0.633511       -17.2387
  53   2.0000      -0.614674       -16.7261
  54   2.0000      -0.612334       -16.6625
  55   2.0000      -0.607305       -16.5256
  56   2.0000      -0.604029       -16.4365
  57   2.0000      -0.584160       -15.8958
  58   2.0000      -0.578600       -15.7445
  59   2.0000      -0.567862       -15.4523
  60   2.0000      -0.560904       -15.2630
  61   2.0000      -0.551744       -15.0137
  62   2.0000      -0.549556       -14.9542
  63   2.0000      -0.531802       -14.4711
  64   2.0000      -0.527848       -14.3635
  65   2.0000      -0.518226       -14.1017
  66   2.0000      -0.506343       -13.7783
  67   2.0000      -0.503964       -13.7136
  68   2.0000      -0.487723       -13.2716
  69   2.0000      -0.467198       -12.7131
  70   2.0000      -0.454908       -12.3787
  71   2.0000      -0.448642       -12.2082
  72   2.0000      -0.358642        -9.7591
  73   2.0000      -0.351745        -9.5715
  74   2.0000      -0.331572        -9.0225
  75   2.0000      -0.329213        -8.9583
  76   2.0000      -0.320433        -8.7194
  77   0.0000       0.084700         2.3048
  78   0.0000       0.095828         2.6076
  79   0.0000       0.121123         3.2959
  80   0.0000       0.127006         3.4560
  81   0.0000       0.128075         3.4851

MULLIKEN ATOMIC CHARGES
-----------------------
   0 C :   -0.273516
   1 C :    0.026735
   2 O :   -0.320844
   3 C :    0.399614
   4 O :   -0.374833
   5 C :   -0.211394
   6 C :    0.146187
   7 C :   -0.286214
   8 N :   -0.134073
   9 C :    0.213129
  10 S :   -0.439783
  11 N :   -0.220806
  12 C :    0.032119
  13 C :    0.001641
  14 C :   -0.178109
  15 C :   -0.145453
  16 C :   -0.269480
  17 C :    0.309362
  18 O :   -0.353238
  19 C :   -0.234183
  20 H :    0.082974
  21 H :    0.096709
  22 H :    0.110446
  23 H :    0.102570
  24 H :    0.120844
  25 H :    0.114201
  26 H :    0.145343
  27 H :    0.099214
  28 H :    0.198028
  29 H :    0.202113
  30 H :    0.163035
  31 H :    0.155601
  32 H :    0.166395
  33 H :    0.135632
  34 H :    0.241767
  35 H :    0.178267
Sum of atomic charges:   -0.0000000

LOEWDIN ATOMIC CHARGES
----------------------
   0 C :    0.105080
   1 C :   -0.021018
   2 O :    0.308311
   3 C :   -0.421481
   4 O :    0.125124
   5 C :   -0.097307
   6 C :   -0.082000
   7 C :    0.129644
   8 N :    0.405012
   9 C :   -0.454883
  10 S :   -0.035478
  11 N :    0.395555
  12 C :   -0.054035
  13 C :   -0.045194
  14 C :    0.020902
  15 C :    0.044968
  16 C :    0.001242
  17 C :   -0.191214
  18 O :    0.397217
  19 C :    0.030162
  20 H :   -0.033354
  21 H :   -0.025463
  22 H :   -0.023115
  23 H :   -0.039094
  24 H :   -0.022278
  25 H :   -0.012463
  26 H :   -0.003317
  27 H :   -0.020216
  28 H :   -0.057727
  29 H :   -0.063932
  30 H :   -0.008921
  31 H :   -0.025406
  32 H :   -0.018122
  33 H :   -0.033549
  34 H :   -0.152160
  35 H :   -0.021490

  Mayer bond orders larger than 0.100000
B(  0-C ,  1-C ) :   0.9806 B(  0-C , 20-H ) :   0.9778 B(  0-C , 21-H ) :   0.9769
B(  0-C , 22-H ) :   0.9782 B(  1-C ,  2-O ) :   0.8811 B(  1-C , 23-H ) :   0.9530
B(  1-C , 24-H ) :   0.9789 B(  2-O ,  3-C ) :   1.1812 B(  3-C ,  4-O ) :   2.1271
B(  3-C ,  5-C ) :   0.9147 B(  5-C ,  6-C ) :   1.7001 B(  5-C , 12-C ) :   0.9544
B(  6-C ,  7-C ) :   0.9461 B(  6-C ,  8-N ) :   1.1251 B(  7-C , 25-H ) :   0.9774
B(  7-C , 26-H ) :   0.9567 B(  7-C , 27-H ) :   0.9845 B(  8-N ,  9-C ) :   1.1985
B(  8-N , 28-H ) :   0.9493 B(  9-C , 10-S ) :   1.6132 B(  9-C , 11-N ) :   1.2863
B( 11-N , 12-C ) :   0.9798 B( 11-N , 29-H ) :   0.9460 B( 12-C , 13-C ) :   0.9632
B( 12-C , 30-H ) :   1.0036 B( 13-C , 14-C ) :   1.3750 B( 13-C , 19-C ) :   1.3464
B( 14-C , 15-C ) :   1.3984 B( 14-C , 31-H ) :   0.9721 B( 15-C , 16-C ) :   1.3605
B( 15-C , 32-H ) :   0.9694 B( 16-C , 17-C ) :   1.3304 B( 16-C , 33-H ) :   0.9829
B( 17-C , 18-O ) :   1.1122 B( 17-C , 19-C ) :   1.3630 B( 18-O , 34-H ) :   0.9786
B( 19-C , 35-H ) :   0.9560

MP2 TOTAL ENERGY:    -1274.325008286 Eh
FINAL SINGLE POINT ENERGY     -1274.325008285890

DIPOLE MOMENT
-------------
                                X             Y             Z
Electronic contribution:     10.03846       7.41003       8.03272
Nuclear contribution   :    -11.53063      -9.10094      -7.84319
                        -----------------------------------------
Total Dipole Moment    :     -1.49217      -1.69091       0.18953
                        -----------------------------------------
Magnitude (a.u.)       :      2.26311
Magnitude (Debye)      :      5.75236

Rotational constants in cm-1:     0.011636     0.009085     0.006170
Rotational constants in MHz :   348.844272   272.350782   184.985783

                             ****ORCA TERMINATED NORMALLY****
TOTAL RUN TIME: 0 days 2 hours 14 minutes 10 seconds 321 msec
