                         Program Version 4.2.0 -  RELEASE  -
|  1> ! ri-mp2 cc-pvtz cc-pvtz/c TightSCF NoKeepInts
|  2>
|  3> %scf
|  4>   MaxCore 4096
|  5> end
|  6> *xyz  0  1
|  7>     C       14.7289481   14.5828064   14.6241312
|  8>     C       14.9024604   15.9993780   14.0316924
|  9>     O       15.5665447   16.9450444   14.9084669
| 10>     C       16.5402992   16.6550541   15.8280300
| 11>     O       17.0739656   15.5636801   15.9274566
| 12>     C       16.9302582   17.8085420   16.7138532
| 13>     C       16.7935177   19.1125968   16.3496718
| 14>     C       16.0438012   19.6833796   15.1613084
| 15>     N       17.4131789   20.1270375   17.0846098
| 16>     C       18.3542029   19.9191592   18.0559629
| 17>     S       19.1255051   21.1747424   18.8071820
| 18>     N       18.6393396   18.6123420   18.3573372
| 19>     C       17.9159302   17.4387228   17.8315906
| 20>     C       17.2988672   16.5792670   18.9274936
| 21>     C       17.6081652   15.2106928   19.0259753
| 22>     C       17.0398378   14.4204807   20.0391651
| 23>     C       16.1559674   15.0044082   20.9628308
| 24>     C       15.8447987   16.3677319   20.8659472
| 25>     O       14.9887703   16.9331720   21.7541547
| 26>     C       16.4117103   17.1514778   19.8558648
| 27>     H       15.6668367   14.0150518   14.5891513
| 28>     H       13.9869689   14.0196226   14.0455772
| 29>     H       14.3826036   14.6303598   15.6642460
| 30>     H       15.4763893   15.9112830   13.1000436
| 31>     H       13.9157574   16.4019221   13.7690697
| 32>     H       16.4391754   19.2797904   14.2208780
| 33>     H       16.1150816   20.7759516   15.0961998
| 34>     H       14.9772591   19.4324406   15.2190087
| 35>     H       17.2299547   21.0918776   16.8605964
| 36>     H       19.3201663   18.4849761   19.0953890
| 37>     H       18.7417441   16.9049638   17.3390253
| 38>     H       18.2795445   14.7555473   18.3016222
| 39>     H       17.2810892   13.3608872   20.1008411
| 40>     H       15.7135659   14.3974724   21.7456228
| 41>     H       14.7231527   16.2426198   22.3796760
| 42>     H       16.1616418   18.2055181   19.7983283
| 43> *
| 44>
| 45>                          ****END OF INPUT****

CARTESIAN COORDINATES (ANGSTROEM)
---------------------------------
  C     14.728948   14.582806   14.624131
  C     14.902460   15.999378   14.031692
  O     15.566545   16.945044   14.908467
  C     16.540299   16.655054   15.828030
  O     17.073966   15.563680   15.927457
  C     16.930258   17.808542   16.713853
  C     16.793518   19.112597   16.349672
  C     16.043801   19.683380   15.161308
  N     17.413179   20.127038   17.084610
  C     18.354203   19.919159   18.055963
  S     19.125505   21.174742   18.807182
  N     18.639340   18.612342   18.357337
  C     17.915930   17.438723   17.831591
  C     17.298867   16.579267   18.927494
  C     17.608165   15.210693   19.025975
  C     17.039838   14.420481   20.039165
  C     16.155967   15.004408   20.962831
  C     15.844799   16.367732   20.865947
  O     14.988770   16.933172   21.754155
  C     16.411710   17.151478   19.855865
  H     15.666837   14.015052   14.589151
  H     13.986969   14.019623   14.045577
  H     14.382604   14.630360   15.664246
  H     15.476389   15.911283   13.100044
  H     13.915757   16.401922   13.769070
  H     16.439175   19.279790   14.220878
  H     16.115082   20.775952   15.096200
  H     14.977259   19.432441   15.219009
  H     17.229955   21.091878   16.860596
  H     19.320166   18.484976   19.095389
  H     18.741744   16.904964   17.339025
  H     18.279545   14.755547   18.301622
  H     17.281089   13.360887   20.100841
  H     15.713566   14.397472   21.745623
  H     14.723153   16.242620   22.379676
  H     16.161642   18.205518   19.798328

 Total Charge           Charge          ....    0
 Multiplicity           Mult            ....    1
 Number of Electrons    NEL             ....  154
 Basis Dimension        Dim             ....  828

ORBITAL ENERGIES
----------------

  NO   OCC          E(Eh)            E(eV)
   0   2.0000     -91.886914     -2500.3700
   1   2.0000     -20.601916      -560.6066
   2   2.0000     -20.590927      -560.3076
   3   2.0000     -20.543563      -559.0188
   4   2.0000     -15.627138      -425.2360
   5   2.0000     -15.604651      -424.6241
   6   2.0000     -11.398577      -310.1711
   7   2.0000     -11.381299      -309.7009
   8   2.0000     -11.336817      -308.4905
   9   2.0000     -11.306867      -307.6755
  10   2.0000     -11.306656      -307.6698
  11   2.0000     -11.303038      -307.5713
  12   2.0000     -11.260714      -306.4196
  13   2.0000     -11.257850      -306.3417
  14   2.0000     -11.254038      -306.2379
  15   2.0000     -11.246989      -306.0461
  16   2.0000     -11.237184      -305.7793
  17   2.0000     -11.233224      -305.6716
  18   2.0000     -11.230010      -305.5841
  19   2.0000     -11.224993      -305.4476
  20   2.0000      -8.892010      -241.9639
  21   2.0000      -6.573592      -178.8765
  22   2.0000      -6.571585      -178.8219
  23   2.0000      -6.571001      -178.8060
  24   2.0000      -1.447309       -39.3833
  25   2.0000      -1.410674       -38.3864
  26   2.0000      -1.356777       -36.9198
  27   2.0000      -1.338762       -36.4296
  28   2.0000      -1.236011       -33.6336
  29   2.0000      -1.151303       -31.3286
  30   2.0000      -1.118977       -30.4489
  31   2.0000      -1.041804       -28.3489
  32   2.0000      -1.034019       -28.1371
  33   2.0000      -1.008915       -27.4540
  34   2.0000      -0.997343       -27.1391
  35   2.0000      -0.982023       -26.7222
  36   2.0000      -0.920161       -25.0388
  37   2.0000      -0.897025       -24.4093
  38   2.0000      -0.847180       -23.0530
  39   2.0000      -0.834362       -22.7041
  40   2.0000      -0.827164       -22.5083
  41   2.0000      -0.816938       -22.2300
  42   2.0000      -0.744119       -20.2485
  43   2.0000      -0.730407       -19.8754
  44   2.0000      -0.724818       -19.7233
  45   2.0000      -0.688665       -18.7395
  46   2.0000      -0.684077       -18.6147
  47   2.0000      -0.678307       -18.4577
  48   2.0000      -0.670968       -18.2580
  49   2.0000      -0.661313       -17.9952
  50   2.0000      -0.648669       -17.6512
  51   2.0000      -0.642235       -17.4761
  52   2.0000      -0.630769       -17.1641
  53   2.0000      -0.610702       -16.6180
  54   2.0000      -0.602199       -16.3867
  55   2.0000      -0.597251       -16.2520
  56   2.0000      -0.594257       -16.1706
  57   2.0000      -0.577856       -15.7243
  58   2.0000      -0.572874       -15.5887
  59   2.0000      -0.567429       -15.4405
  60   2.0000      -0.558181       -15.1889
  61   2.0000      -0.543093       -14.7783
  62   2.0000      -0.538072       -14.6417
  63   2.0000      -0.524524       -14.2730
  64   2.0000      -0.514229       -13.9929
  65   2.0000      -0.510475       -13.8907
  66   2.0000      -0.499489       -13.5918
  67   2.0000      -0.493177       -13.4200
  68   2.0000      -0.479580       -13.0500
  69   2.0000      -0.464199       -12.6315
  70   2.0000      -0.453653       -12.3445
  71   2.0000      -0.447110       -12.1665
  72   2.0000      -0.351844        -9.5742
  73   2.0000      -0.343662        -9.3515
  74   2.0000      -0.326079        -8.8731
  75   2.0000      -0.316045        -8.6000
  76   2.0000      -0.313458        -8.5296
  77   0.0000       0.078928         2.1477
  78   0.0000       0.112655         3.0655
  79   0.0000       0.121646         3.3102
  80   0.0000       0.136565         3.7161
  81   0.0000       0.140542         3.8243

MULLIKEN ATOMIC CHARGES
-----------------------
   0 C :   -0.297124
   1 C :    0.048502
   2 O :   -0.352678
   3 C :    0.428437
   4 O :   -0.426355
   5 C :   -0.176635
   6 C :    0.164396
   7 C :   -0.281175
   8 N :   -0.128974
   9 C :    0.207388
  10 S :   -0.444432
  11 N :   -0.210889
  12 C :    0.044446
  13 C :    0.030785
  14 C :   -0.167369
  15 C :   -0.134494
  16 C :   -0.277171
  17 C :    0.314642
  18 O :   -0.359110
  19 C :   -0.251523
  20 H :    0.124343
  21 H :    0.095084
  22 H :    0.102895
  23 H :    0.087714
  24 H :    0.100051
  25 H :    0.123865
  26 H :    0.102331
  27 H :    0.129753
  28 H :    0.198580
  29 H :    0.199795
  30 H :    0.155670
  31 H :    0.158675
  32 H :    0.159564
  33 H :    0.127961
  34 H :    0.239768
  35 H :    0.163287
Sum of atomic charges:   -0.0000000

LOEWDIN ATOMIC CHARGES
----------------------
   0 C :    0.103992
   1 C :   -0.008930
   2 O :    0.295217
   3 C :   -0.413712
   4 O :    0.110981
   5 C :   -0.090163
   6 C :   -0.064068
   7 C :    0.124043
   8 N :    0.405108
   9 C :   -0.459150
  10 S :   -0.039163
  11 N :    0.396700
  12 C :   -0.048340
  13 C :   -0.040399
  14 C :    0.024679
  15 C :    0.040535
  16 C :   -0.001350
  17 C :   -0.192491
  18 O :    0.393040
  19 C :    0.029880
  20 H :   -0.024846
  21 H :   -0.028248
  22 H :   -0.024878
  23 H :   -0.030536
  24 H :   -0.025139
  25 H :   -0.009907
  26 H :   -0.021703
  27 H :   -0.009399
  28 H :   -0.059101
  29 H :   -0.063088
  30 H :   -0.008973
  31 H :   -0.024187
  32 H :   -0.021263
  33 H :   -0.036299
  34 H :   -0.155015
  35 H :   -0.023829

  Mayer bond orders larger than 0.100000
B(  0-C ,  1-C ) :   0.9707 B(  0-C , 20-H ) :   0.9721 B(  0-C , 21-H ) :   0.9751
B(  0-C , 22-H ) :   0.9750 B(  1-C ,  2-O ) :   0.9003 B(  1-C , 23-H ) :   0.9795
B(  1-C , 24-H ) :   0.9818 B(  2-O ,  3-C ) :   1.1551 B(  3-C ,  4-O ) :   1.9733
B(  3-C ,  5-C ) :   1.0447 B(  5-C ,  6-C ) :   1.6576 B(  5-C , 12-C ) :   0.9517
B(  6-C ,  7-C ) :   0.9523 B(  6-C ,  8-N ) :   1.1352 B(  7-C , 25-H ) :   0.9657
B(  7-C , 26-H ) :   0.9921 B(  7-C , 27-H ) :   0.9636 B(  8-N ,  9-C ) :   1.1865
B(  8-N , 28-H ) :   0.9470 B(  9-C , 10-S ) :   1.6059 B(  9-C , 11-N ) :   1.3072
B( 11-N , 12-C ) :   0.9769 B( 11-N , 29-H ) :   0.9486 B( 12-C , 13-C ) :   0.9727
B( 12-C , 30-H ) :   0.9978 B( 13-C , 14-C ) :   1.3753 B( 13-C , 19-C ) :   1.3675
B( 14-C , 15-C ) :   1.3971 B( 14-C , 31-H ) :   0.9638 B( 15-C , 16-C ) :   1.3585
B( 15-C , 32-H ) :   0.9713 B( 16-C , 17-C ) :   1.3335 B( 16-C , 33-H ) :   0.9861
B( 17-C , 18-O ) :   1.1031 B( 17-C , 19-C ) :   1.3671 B( 18-O , 34-H ) :   0.9808
B( 19-C , 35-H ) :   0.9600

MP2 TOTAL ENERGY:    -1274.333535329 Eh
FINAL SINGLE POINT ENERGY     -1274.333535329312

DIPOLE MOMENT
-------------
                                X             Y             Z
Electronic contribution:      9.45393      10.27009      11.10003
Nuclear contribution   :    -10.99904     -11.48263     -12.29318
                        -----------------------------------------
Total Dipole Moment    :     -1.54511      -1.21254      -1.19315
                        -----------------------------------------
Magnitude (a.u.)       :      2.29810
Magnitude (Debye)      :      5.84129

Rotational constants in cm-1:     0.009902     0.009159     0.005541
Rotational constants in MHz :   296.850655   274.590654   166.118060

                             ****ORCA TERMINATED NORMALLY****
TOTAL RUN TIME: 0 days 1 hours 45 minutes 15 seconds 229 msec
