                         Program Version 4.2.0 -  RELEASE  -
|  1> ! ri-mp2 cc-pvtz cc-pvtz/c TightSCF NoKeepInts
|  2>
|  3> %scf
|  4>   MaxCore 4096
|  5> end
|  6> *xyz  0  1
|  7>     C       14.4238228   15.0846856   14.9901688
|  8>     C       15.8021861   14.7816682   15.6164772
|  9>     O       16.7180965   15.9052492   15.6817606
| 10>     C       16.3917973   17.2206890   15.4772110
| 11>     O       15.7124817   17.5991243   14.5392107
| 12>     C       16.9463543   18.1184503   16.5522219
| 13>     C       16.9595444   19.4679133   16.3984583
| 14>     C       16.2418333   20.2775749   15.3381621
| 15>     N       17.6956753   20.2838588   17.2606810
| 16>     C       18.5886652   19.8231072   18.1896648
| 17>     S       19.4951238   20.8487706   19.1181977
| 18>     N       18.7091470   18.4609999   18.2976940
| 19>     C       17.8756675   17.4692470   17.5927338
| 20>     C       17.1720953   16.5136614   18.5479350
| 21>     C       17.6423972   15.1981883   18.7163902
| 22>     C       16.9890601   14.3134190   19.5907480
| 23>     C       15.8591033   14.7493244   20.3039505
| 24>     C       15.3929072   16.0614992   20.1423597
| 25>     O       14.3032512   16.4853039   20.8306858
| 26>     C       16.0448936   16.9394706   19.2708999
| 27>     H       13.9032055   15.8791473   15.5394786
| 28>     H       13.7907917   14.1897445   15.0173999
| 29>     H       14.5266933   15.3876125   13.9404643
| 30>     H       15.6340309   14.4175218   16.6385648
| 31>     H       16.2788820   13.9655646   15.0586026
| 32>     H       15.1740539   20.0245343   15.3160829
| 33>     H       16.6504806   20.0597663   14.3431035
| 34>     H       16.3170626   21.3595937   15.4977965
| 35>     H       17.6332489   21.2858307   17.1762460
| 36>     H       19.3522346   18.1512621   19.0151927
| 37>     H       18.6447458   16.9388714   17.0132705
| 38>     H       18.5136730   14.8595332   18.1618762
| 39>     H       17.3591442   13.2970686   19.7149654
| 40>     H       15.3517616   14.0703236   20.9814953
| 41>     H       14.0192697   15.7583072   21.4049922
| 42>     H       15.6736186   17.9531129   19.1628574
| 43> *
| 44>
| 45>                          ****END OF INPUT****

CARTESIAN COORDINATES (ANGSTROEM)
---------------------------------
  C     14.423823   15.084686   14.990169
  C     15.802186   14.781668   15.616477
  O     16.718097   15.905249   15.681761
  C     16.391797   17.220689   15.477211
  O     15.712482   17.599124   14.539211
  C     16.946354   18.118450   16.552222
  C     16.959544   19.467913   16.398458
  C     16.241833   20.277575   15.338162
  N     17.695675   20.283859   17.260681
  C     18.588665   19.823107   18.189665
  S     19.495124   20.848771   19.118198
  N     18.709147   18.461000   18.297694
  C     17.875667   17.469247   17.592734
  C     17.172095   16.513661   18.547935
  C     17.642397   15.198188   18.716390
  C     16.989060   14.313419   19.590748
  C     15.859103   14.749324   20.303950
  C     15.392907   16.061499   20.142360
  O     14.303251   16.485304   20.830686
  C     16.044894   16.939471   19.270900
  H     13.903206   15.879147   15.539479
  H     13.790792   14.189744   15.017400
  H     14.526693   15.387612   13.940464
  H     15.634031   14.417522   16.638565
  H     16.278882   13.965565   15.058603
  H     15.174054   20.024534   15.316083
  H     16.650481   20.059766   14.343103
  H     16.317063   21.359594   15.497796
  H     17.633249   21.285831   17.176246
  H     19.352235   18.151262   19.015193
  H     18.644746   16.938871   17.013271
  H     18.513673   14.859533   18.161876
  H     17.359144   13.297069   19.714965
  H     15.351762   14.070324   20.981495
  H     14.019270   15.758307   21.404992
  H     15.673619   17.953113   19.162857

 Total Charge           Charge          ....    0
 Multiplicity           Mult            ....    1
 Number of Electrons    NEL             ....  154
 Basis Dimension        Dim             ....  828

ORBITAL ENERGIES
----------------

  NO   OCC          E(Eh)            E(eV)
   0   2.0000     -91.888778     -2500.4208
   1   2.0000     -20.599291      -560.5352
   2   2.0000     -20.589439      -560.2671
   3   2.0000     -20.541440      -558.9610
   4   2.0000     -15.629057      -425.2883
   5   2.0000     -15.606871      -424.6845
   6   2.0000     -11.395369      -310.0838
   7   2.0000     -11.383405      -309.7582
   8   2.0000     -11.336843      -308.4912
   9   2.0000     -11.316801      -307.9458
  10   2.0000     -11.307328      -307.6880
  11   2.0000     -11.300289      -307.4965
  12   2.0000     -11.263200      -306.4873
  13   2.0000     -11.258122      -306.3491
  14   2.0000     -11.257640      -306.3360
  15   2.0000     -11.251461      -306.1678
  16   2.0000     -11.246350      -306.0287
  17   2.0000     -11.241365      -305.8931
  18   2.0000     -11.241053      -305.8846
  19   2.0000     -11.222825      -305.3886
  20   2.0000      -8.893852      -242.0140
  21   2.0000      -6.575425      -178.9264
  22   2.0000      -6.573426      -178.8720
  23   2.0000      -6.572837      -178.8560
  24   2.0000      -1.441055       -39.2131
  25   2.0000      -1.418950       -38.6116
  26   2.0000      -1.351586       -36.7785
  27   2.0000      -1.340187       -36.4683
  28   2.0000      -1.238206       -33.6933
  29   2.0000      -1.159836       -31.5607
  30   2.0000      -1.120601       -30.4931
  31   2.0000      -1.044148       -28.4127
  32   2.0000      -1.033808       -28.1313
  33   2.0000      -1.017761       -27.6947
  34   2.0000      -0.996422       -27.1140
  35   2.0000      -0.984402       -26.7869
  36   2.0000      -0.922394       -25.0996
  37   2.0000      -0.895493       -24.3676
  38   2.0000      -0.847249       -23.0548
  39   2.0000      -0.840025       -22.8582
  40   2.0000      -0.836546       -22.7636
  41   2.0000      -0.819117       -22.2893
  42   2.0000      -0.744457       -20.2577
  43   2.0000      -0.733519       -19.9601
  44   2.0000      -0.716990       -19.5103
  45   2.0000      -0.697478       -18.9794
  46   2.0000      -0.687576       -18.7099
  47   2.0000      -0.674972       -18.3669
  48   2.0000      -0.669636       -18.2217
  49   2.0000      -0.662197       -18.0193
  50   2.0000      -0.648902       -17.6575
  51   2.0000      -0.643657       -17.5148
  52   2.0000      -0.635591       -17.2953
  53   2.0000      -0.612218       -16.6593
  54   2.0000      -0.609097       -16.5744
  55   2.0000      -0.602365       -16.3912
  56   2.0000      -0.600424       -16.3384
  57   2.0000      -0.579070       -15.7573
  58   2.0000      -0.570423       -15.5220
  59   2.0000      -0.566826       -15.4241
  60   2.0000      -0.556781       -15.1508
  61   2.0000      -0.540856       -14.7175
  62   2.0000      -0.535040       -14.5592
  63   2.0000      -0.526316       -14.3218
  64   2.0000      -0.522995       -14.2314
  65   2.0000      -0.513310       -13.9679
  66   2.0000      -0.500754       -13.6262
  67   2.0000      -0.494598       -13.4587
  68   2.0000      -0.486379       -13.2350
  69   2.0000      -0.462723       -12.5913
  70   2.0000      -0.451740       -12.2925
  71   2.0000      -0.440532       -11.9875
  72   2.0000      -0.353422        -9.6171
  73   2.0000      -0.351327        -9.5601
  74   2.0000      -0.328386        -8.9358
  75   2.0000      -0.323968        -8.8156
  76   2.0000      -0.318149        -8.6573
  77   0.0000       0.075420         2.0523
  78   0.0000       0.102422         2.7870
  79   0.0000       0.124402         3.3851
  80   0.0000       0.131664         3.5828
  81   0.0000       0.134999         3.6735

MULLIKEN ATOMIC CHARGES
-----------------------
   0 C :   -0.293039
   1 C :    0.044290
   2 O :   -0.375320
   3 C :    0.447460
   4 O :   -0.420140
   5 C :   -0.252175
   6 C :    0.182858
   7 C :   -0.266115
   8 N :   -0.127050
   9 C :    0.212563
  10 S :   -0.442739
  11 N :   -0.218113
  12 C :    0.078893
  13 C :    0.036824
  14 C :   -0.194752
  15 C :   -0.128748
  16 C :   -0.277825
  17 C :    0.315502
  18 O :   -0.355966
  19 C :   -0.247999
  20 H :    0.099801
  21 H :    0.098353
  22 H :    0.118790
  23 H :    0.101446
  24 H :    0.099598
  25 H :    0.131831
  26 H :    0.130418
  27 H :    0.094451
  28 H :    0.199425
  29 H :    0.200712
  30 H :    0.151299
  31 H :    0.154647
  32 H :    0.163048
  33 H :    0.132008
  34 H :    0.241090
  35 H :    0.164672
Sum of atomic charges:   -0.0000000

LOEWDIN ATOMIC CHARGES
----------------------
   0 C :    0.103755
   1 C :   -0.011190
   2 O :    0.291329
   3 C :   -0.415226
   4 O :    0.110293
   5 C :   -0.098144
   6 C :   -0.056113
   7 C :    0.130872
   8 N :    0.407214
   9 C :   -0.455946
  10 S :   -0.037023
  11 N :    0.394247
  12 C :   -0.054732
  13 C :   -0.038218
  14 C :    0.017021
  15 C :    0.038985
  16 C :   -0.001779
  17 C :   -0.189890
  18 O :    0.395587
  19 C :    0.032140
  20 H :   -0.027411
  21 H :   -0.026753
  22 H :   -0.024098
  23 H :   -0.029026
  24 H :   -0.026940
  25 H :   -0.004880
  26 H :   -0.004641
  27 H :   -0.023785
  28 H :   -0.057209
  29 H :   -0.064836
  30 H :   -0.013100
  31 H :   -0.028451
  32 H :   -0.020734
  33 H :   -0.035043
  34 H :   -0.153460
  35 H :   -0.022813

  Mayer bond orders larger than 0.100000
B(  0-C ,  1-C ) :   0.9785 B(  0-C , 20-H ) :   0.9751 B(  0-C , 21-H ) :   0.9731
B(  0-C , 22-H ) :   0.9726 B(  1-C ,  2-O ) :   0.8964 B(  1-C , 23-H ) :   0.9707
B(  1-C , 24-H ) :   0.9804 B(  2-O ,  3-C ) :   1.1191 B(  3-C ,  4-O ) :   1.9934
B(  3-C ,  5-C ) :   1.0609 B(  5-C ,  6-C ) :   1.6322 B(  5-C , 12-C ) :   0.9560
B(  6-C ,  7-C ) :   0.9650 B(  6-C ,  8-N ) :   1.1548 B(  7-C , 25-H ) :   0.9618
B(  7-C , 26-H ) :   0.9583 B(  7-C , 27-H ) :   0.9904 B(  8-N ,  9-C ) :   1.1873
B(  8-N , 28-H ) :   0.9466 B(  9-C , 10-S ) :   1.6035 B(  9-C , 11-N ) :   1.3113
B( 11-N , 12-C ) :   0.9647 B( 11-N , 29-H ) :   0.9486 B( 12-C , 13-C ) :   0.9615
B( 12-C , 30-H ) :   1.0001 B( 13-C , 14-C ) :   1.3495 B( 13-C , 19-C ) :   1.3794
B( 14-C , 15-C ) :   1.3916 B( 14-C , 31-H ) :   0.9729 B( 15-C , 16-C ) :   1.3575
B( 15-C , 32-H ) :   0.9704 B( 16-C , 17-C ) :   1.3328 B( 16-C , 33-H ) :   0.9847
B( 17-C , 18-O ) :   1.1060 B( 17-C , 19-C ) :   1.3644 B( 18-O , 34-H ) :   0.9793
B( 19-C , 35-H ) :   0.9591

MP2 TOTAL ENERGY:    -1274.330222041 Eh
FINAL SINGLE POINT ENERGY     -1274.330222040935

DIPOLE MOMENT
-------------
                                X             Y             Z
Electronic contribution:      9.62104       9.93299       8.20837
Nuclear contribution   :    -10.63505     -11.71186      -8.34479
                        -----------------------------------------
Total Dipole Moment    :     -1.01401      -1.77887      -0.13642
                        -----------------------------------------
Magnitude (a.u.)       :      2.05212
Magnitude (Debye)      :      5.21608

Rotational constants in cm-1:     0.011855     0.008574     0.006002
Rotational constants in MHz :   355.415723   257.036193   179.927789

                             ****ORCA TERMINATED NORMALLY****
TOTAL RUN TIME: 0 days 1 hours 42 minutes 16 seconds 164 msec
