                         Program Version 4.2.0 -  RELEASE  -
|  1> ! ri-mp2 cc-pvtz cc-pvtz/c TightSCF NoKeepInts
|  2>
|  3> %scf
|  4>   MaxCore 4096
|  5> end
|  6> *xyz  0  1
|  7>     C       14.9067000   14.5888820   14.2361417
|  8>     C       14.5341137   15.9301873   14.9017651
|  9>     O       15.6601476   16.8309003   14.9225758
| 10>     C       16.7126982   16.6135213   15.7661526
| 11>     O       17.2340815   15.5213916   15.9098375
| 12>     C       17.0395515   17.7798883   16.6544972
| 13>     C       16.9184439   19.0691009   16.2411479
| 14>     C       16.2560373   19.5827767   14.9777654
| 15>     N       17.4842375   20.1111230   16.9803047
| 16>     C       18.3688400   19.9385647   18.0105087
| 17>     S       19.0854687   21.2214358   18.7695342
| 18>     N       18.6467851   18.6428230   18.3649533
| 19>     C       17.9612641   17.4481600   17.8348660
| 20>     C       17.2859779   16.6124495   18.9143186
| 21>     C       17.5816888   15.2443073   19.0519429
| 22>     C       16.9575867   14.4748056   20.0480845
| 23>     C       16.0306179   15.0790818   20.9146584
| 24>     C       15.7323733   16.4418785   20.7781110
| 25>     O       14.8340969   17.0267412   21.6101621
| 26>     C       16.3545943   17.2049325   19.7848497
| 27>     H       15.4478071   14.7578590   13.2969109
| 28>     H       14.0019311   14.0119746   14.0102413
| 29>     H       15.5338234   13.9742853   14.8930070
| 30>     H       13.7249419   16.3940136   14.3232393
| 31>     H       14.1629530   15.7546326   15.9205564
| 32>     H       16.6654452   19.0825076   14.0909923
| 33>     H       16.3989014   20.6602227   14.8300923
| 34>     H       15.1752307   19.3965815   15.0028512
| 35>     H       17.3082931   21.0673218   16.7163940
| 36>     H       19.2870987   18.5428366   19.1425121
| 37>     H       18.8163484   16.9066482   17.4044266
| 38>     H       18.2872471   14.7732735   18.3713745
| 39>     H       17.1900246   13.4154440   20.1409315
| 40>     H       15.5454506   14.4881426   21.6843121
| 41>     H       14.5426360   16.3523332   22.2418911
| 42>     H       16.1135626   18.2589721   19.6960901
| 43> *
| 44>
| 45>                          ****END OF INPUT****

CARTESIAN COORDINATES (ANGSTROEM)
---------------------------------
  C     14.906700   14.588882   14.236142
  C     14.534114   15.930187   14.901765
  O     15.660148   16.830900   14.922576
  C     16.712698   16.613521   15.766153
  O     17.234081   15.521392   15.909837
  C     17.039551   17.779888   16.654497
  C     16.918444   19.069101   16.241148
  C     16.256037   19.582777   14.977765
  N     17.484237   20.111123   16.980305
  C     18.368840   19.938565   18.010509
  S     19.085469   21.221436   18.769534
  N     18.646785   18.642823   18.364953
  C     17.961264   17.448160   17.834866
  C     17.285978   16.612450   18.914319
  C     17.581689   15.244307   19.051943
  C     16.957587   14.474806   20.048085
  C     16.030618   15.079082   20.914658
  C     15.732373   16.441879   20.778111
  O     14.834097   17.026741   21.610162
  C     16.354594   17.204933   19.784850
  H     15.447807   14.757859   13.296911
  H     14.001931   14.011975   14.010241
  H     15.533823   13.974285   14.893007
  H     13.724942   16.394014   14.323239
  H     14.162953   15.754633   15.920556
  H     16.665445   19.082508   14.090992
  H     16.398901   20.660223   14.830092
  H     15.175231   19.396581   15.002851
  H     17.308293   21.067322   16.716394
  H     19.287099   18.542837   19.142512
  H     18.816348   16.906648   17.404427
  H     18.287247   14.773274   18.371375
  H     17.190025   13.415444   20.140932
  H     15.545451   14.488143   21.684312
  H     14.542636   16.352333   22.241891
  H     16.113563   18.258972   19.696090

 Total Charge           Charge          ....    0
 Multiplicity           Mult            ....    1
 Number of Electrons    NEL             ....  154
 Basis Dimension        Dim             ....  828

ORBITAL ENERGIES
----------------

  NO   OCC          E(Eh)            E(eV)
   0   2.0000     -91.888296     -2500.4077
   1   2.0000     -20.593315      -560.3726
   2   2.0000     -20.592983      -560.3635
   3   2.0000     -20.550186      -559.1990
   4   2.0000     -15.628772      -425.2805
   5   2.0000     -15.605979      -424.6603
   6   2.0000     -11.396602      -310.1173
   7   2.0000     -11.382892      -309.7442
   8   2.0000     -11.337854      -308.5187
   9   2.0000     -11.309104      -307.7364
  10   2.0000     -11.304970      -307.6239
  11   2.0000     -11.304425      -307.6090
  12   2.0000     -11.259658      -306.3909
  13   2.0000     -11.259115      -306.3761
  14   2.0000     -11.256262      -306.2985
  15   2.0000     -11.249193      -306.1061
  16   2.0000     -11.239301      -305.8369
  17   2.0000     -11.235372      -305.7300
  18   2.0000     -11.232140      -305.6421
  19   2.0000     -11.221114      -305.3420
  20   2.0000      -8.893380      -242.0012
  21   2.0000      -6.574956      -178.9137
  22   2.0000      -6.572954      -178.8592
  23   2.0000      -6.572365      -178.8431
  24   2.0000      -1.450511       -39.4704
  25   2.0000      -1.412730       -38.4423
  26   2.0000      -1.358911       -36.9778
  27   2.0000      -1.340025       -36.4639
  28   2.0000      -1.237203       -33.6660
  29   2.0000      -1.153467       -31.3874
  30   2.0000      -1.120933       -30.5021
  31   2.0000      -1.042687       -28.3730
  32   2.0000      -1.032686       -28.1008
  33   2.0000      -1.011036       -27.5117
  34   2.0000      -0.998661       -27.1750
  35   2.0000      -0.983545       -26.7636
  36   2.0000      -0.921318       -25.0703
  37   2.0000      -0.889520       -24.2051
  38   2.0000      -0.848503       -23.0890
  39   2.0000      -0.836601       -22.7651
  40   2.0000      -0.829333       -22.5673
  41   2.0000      -0.822796       -22.3894
  42   2.0000      -0.749960       -20.4075
  43   2.0000      -0.732197       -19.9241
  44   2.0000      -0.726991       -19.7824
  45   2.0000      -0.691597       -18.8193
  46   2.0000      -0.685692       -18.6586
  47   2.0000      -0.680501       -18.5174
  48   2.0000      -0.669155       -18.2086
  49   2.0000      -0.665769       -18.1165
  50   2.0000      -0.645192       -17.5566
  51   2.0000      -0.642835       -17.4924
  52   2.0000      -0.633707       -17.2441
  53   2.0000      -0.605161       -16.4673
  54   2.0000      -0.599319       -16.3083
  55   2.0000      -0.596941       -16.2436
  56   2.0000      -0.595626       -16.2078
  57   2.0000      -0.585726       -15.9384
  58   2.0000      -0.573785       -15.6135
  59   2.0000      -0.569731       -15.5032
  60   2.0000      -0.560222       -15.2444
  61   2.0000      -0.548200       -14.9173
  62   2.0000      -0.536796       -14.6070
  63   2.0000      -0.520637       -14.1673
  64   2.0000      -0.517035       -14.0692
  65   2.0000      -0.510729       -13.8976
  66   2.0000      -0.500725       -13.6254
  67   2.0000      -0.494638       -13.4598
  68   2.0000      -0.479569       -13.0497
  69   2.0000      -0.462222       -12.5777
  70   2.0000      -0.458219       -12.4688
  71   2.0000      -0.447893       -12.1878
  72   2.0000      -0.353136        -9.6093
  73   2.0000      -0.345622        -9.4048
  74   2.0000      -0.327386        -8.9086
  75   2.0000      -0.317503        -8.6397
  76   2.0000      -0.315836        -8.5943
  77   0.0000       0.074577         2.0293
  78   0.0000       0.109827         2.9886
  79   0.0000       0.121653         3.3104
  80   0.0000       0.135077         3.6756
  81   0.0000       0.139141         3.7862

MULLIKEN ATOMIC CHARGES
-----------------------
   0 C :   -0.280759
   1 C :    0.041843
   2 O :   -0.367511
   3 C :    0.430241
   4 O :   -0.408672
   5 C :   -0.160996
   6 C :    0.149766
   7 C :   -0.279270
   8 N :   -0.127845
   9 C :    0.207398
  10 S :   -0.442075
  11 N :   -0.211142
  12 C :    0.039382
  13 C :    0.033717
  14 C :   -0.173531
  15 C :   -0.134186
  16 C :   -0.277595
  17 C :    0.313750
  18 O :   -0.358719
  19 C :   -0.252552
  20 H :    0.094879
  21 H :    0.090486
  22 H :    0.120794
  23 H :    0.099563
  24 H :    0.088682
  25 H :    0.126293
  26 H :    0.101646
  27 H :    0.126368
  28 H :    0.198827
  29 H :    0.199772
  30 H :    0.156673
  31 H :    0.160905
  32 H :    0.160613
  33 H :    0.128736
  34 H :    0.240094
  35 H :    0.164423
Sum of atomic charges:   -0.0000000

LOEWDIN ATOMIC CHARGES
----------------------
   0 C :    0.105223
   1 C :   -0.015922
   2 O :    0.293023
   3 C :   -0.414201
   4 O :    0.121584
   5 C :   -0.094141
   6 C :   -0.064817
   7 C :    0.125542
   8 N :    0.405518
   9 C :   -0.458490
  10 S :   -0.037460
  11 N :    0.396214
  12 C :   -0.048429
  13 C :   -0.040962
  14 C :    0.023853
  15 C :    0.040810
  16 C :   -0.001322
  17 C :   -0.192748
  18 O :    0.393190
  19 C :    0.029195
  20 H :   -0.026310
  21 H :   -0.030232
  22 H :   -0.026662
  23 H :   -0.024514
  24 H :   -0.029610
  25 H :   -0.008500
  26 H :   -0.021000
  27 H :   -0.009665
  28 H :   -0.058580
  29 H :   -0.063319
  30 H :   -0.008100
  31 H :   -0.023852
  32 H :   -0.020880
  33 H :   -0.036040
  34 H :   -0.154682
  35 H :   -0.023715

  Mayer bond orders larger than 0.100000
B(  0-C ,  1-C ) :   0.9777 B(  0-C , 20-H ) :   0.9755 B(  0-C , 21-H ) :   0.9757
B(  0-C , 22-H ) :   0.9709 B(  1-C ,  2-O ) :   0.9074 B(  1-C , 23-H ) :   0.9838
B(  1-C , 24-H ) :   0.9758 B(  2-O ,  3-C ) :   1.0705 B(  3-C ,  4-O ) :   2.0026
B(  3-C ,  5-C ) :   1.0425 B(  5-C ,  6-C ) :   1.6609 B(  5-C , 12-C ) :   0.9462
B(  6-C ,  7-C ) :   0.9549 B(  6-C ,  8-N ) :   1.1355 B(  7-C , 25-H ) :   0.9656
B(  7-C , 26-H ) :   0.9905 B(  7-C , 27-H ) :   0.9639 B(  8-N ,  9-C ) :   1.1855
B(  8-N , 28-H ) :   0.9470 B(  9-C , 10-S ) :   1.6089 B(  9-C , 11-N ) :   1.3052
B( 11-N , 12-C ) :   0.9762 B( 11-N , 29-H ) :   0.9485 B( 12-C , 13-C ) :   0.9709
B( 12-C , 30-H ) :   0.9966 B( 13-C , 14-C ) :   1.3778 B( 13-C , 19-C ) :   1.3643
B( 14-C , 15-C ) :   1.3970 B( 14-C , 31-H ) :   0.9632 B( 15-C , 16-C ) :   1.3591
B( 15-C , 32-H ) :   0.9710 B( 16-C , 17-C ) :   1.3330 B( 16-C , 33-H ) :   0.9858
B( 17-C , 18-O ) :   1.1041 B( 17-C , 19-C ) :   1.3671 B( 18-O , 34-H ) :   0.9805
B( 19-C , 35-H ) :   0.9600

MP2 TOTAL ENERGY:    -1274.329097679 Eh
FINAL SINGLE POINT ENERGY     -1274.329097679170

DIPOLE MOMENT
-------------
                                X             Y             Z
Electronic contribution:      9.67847      10.47906      10.74575
Nuclear contribution   :    -11.29779     -11.63174     -11.55316
                        -----------------------------------------
Total Dipole Moment    :     -1.61932      -1.15268      -0.80740
                        -----------------------------------------
Magnitude (a.u.)       :      2.14541
Magnitude (Debye)      :      5.45319

Rotational constants in cm-1:     0.010094     0.009133     0.005646
Rotational constants in MHz :   302.613794   273.796729   169.265933

                             ****ORCA TERMINATED NORMALLY****
TOTAL RUN TIME: 0 days 1 hours 35 minutes 6 seconds 607 msec
