                         Program Version 4.2.0 -  RELEASE  -
|  1> ! ri-mp2 cc-pvtz cc-pvtz/c TightSCF NoKeepInts
|  2>
|  3> %scf
|  4>   MaxCore 4096
|  5> end
|  6> *xyz  0  1
|  7>     C       14.6711489   14.7558030   14.6055074
|  8>     C       15.3307194   15.2235117   15.9163186
|  9>     O       16.4286978   16.0972881   15.6002009
| 10>     C       16.1800602   17.4364235   15.5214945
| 11>     O       15.4039582   17.8921878   14.7008126
| 12>     C       16.8450722   18.2244769   16.6186804
| 13>     C       16.8790115   19.5814636   16.5758912
| 14>     C       16.0907283   20.4890013   15.6541410
| 15>     N       17.7114296   20.3082724   17.4301096
| 16>     C       18.6792337   19.7547326   18.2236982
| 17>     S       19.6962033   20.6815127   19.1414986
| 18>     N       18.7777431   18.3866700   18.2020824
| 19>     C       17.8526922   17.4729961   17.5059531
| 20>     C       17.2248212   16.4516677   18.4452286
| 21>     C       17.6980945   15.1269868   18.4773651
| 22>     C       17.1123788   14.1808906   19.3352147
| 23>     C       16.0483732   14.5642883   20.1696686
| 24>     C       15.5807407   15.8855281   20.1448923
| 25>     O       14.5539585   16.2586152   20.9491888
| 26>     C       16.1644757   16.8244679   19.2887015
| 27>     H       14.2203163   15.6001074   14.0691731
| 28>     H       13.8805072   14.0248261   14.8128402
| 29>     H       15.4110982   14.2847204   13.9467808
| 30>     H       14.5986674   15.7255061   16.5639128
| 31>     H       15.7119732   14.3446982   16.4520587
| 32>     H       15.0183192   20.2629383   15.7135595
| 33>     H       16.3986699   20.3423841   14.6109020
| 34>     H       16.2131494   21.5528893   15.8889613
| 35>     H       17.6656285   21.3147395   17.4370109
| 36>     H       19.4817200   18.0061619   18.8218393
| 37>     H       18.5474963   16.9808804   16.8103175
| 38>     H       18.5178669   14.8286423   17.8288589
| 39>     H       17.4838584   13.1575147   19.3529069
| 40>     H       15.5936519   13.8374565   20.8349739
| 41>     H       14.3209110   15.4956684   21.4995615
| 42>     H       15.7936253   17.8440823   19.2876946
| 43> *
| 44>
| 45>                          ****END OF INPUT****

CARTESIAN COORDINATES (ANGSTROEM)
---------------------------------
  C     14.671149   14.755803   14.605507
  C     15.330719   15.223512   15.916319
  O     16.428698   16.097288   15.600201
  C     16.180060   17.436424   15.521494
  O     15.403958   17.892188   14.700813
  C     16.845072   18.224477   16.618680
  C     16.879012   19.581464   16.575891
  C     16.090728   20.489001   15.654141
  N     17.711430   20.308272   17.430110
  C     18.679234   19.754733   18.223698
  S     19.696203   20.681513   19.141499
  N     18.777743   18.386670   18.202082
  C     17.852692   17.472996   17.505953
  C     17.224821   16.451668   18.445229
  C     17.698094   15.126987   18.477365
  C     17.112379   14.180891   19.335215
  C     16.048373   14.564288   20.169669
  C     15.580741   15.885528   20.144892
  O     14.553959   16.258615   20.949189
  C     16.164476   16.824468   19.288701
  H     14.220316   15.600107   14.069173
  H     13.880507   14.024826   14.812840
  H     15.411098   14.284720   13.946781
  H     14.598667   15.725506   16.563913
  H     15.711973   14.344698   16.452059
  H     15.018319   20.262938   15.713559
  H     16.398670   20.342384   14.610902
  H     16.213149   21.552889   15.888961
  H     17.665629   21.314740   17.437011
  H     19.481720   18.006162   18.821839
  H     18.547496   16.980880   16.810318
  H     18.517867   14.828642   17.828859
  H     17.483858   13.157515   19.352907
  H     15.593652   13.837457   20.834974
  H     14.320911   15.495668   21.499561
  H     15.793625   17.844082   19.287695

 Total Charge           Charge          ....    0
 Multiplicity           Mult            ....    1
 Number of Electrons    NEL             ....  154
 Basis Dimension        Dim             ....  828

ORBITAL ENERGIES
----------------

  NO   OCC          E(Eh)            E(eV)
   0   2.0000     -91.890394     -2500.4647
   1   2.0000     -20.601025      -560.5824
   2   2.0000     -20.584783      -560.1404
   3   2.0000     -20.546012      -559.0854
   4   2.0000     -15.630985      -425.3407
   5   2.0000     -15.608490      -424.7286
   6   2.0000     -11.393404      -310.0303
   7   2.0000     -11.385026      -309.8023
   8   2.0000     -11.339135      -308.5536
   9   2.0000     -11.318681      -307.9970
  10   2.0000     -11.309385      -307.7440
  11   2.0000     -11.296373      -307.3899
  12   2.0000     -11.265016      -306.5367
  13   2.0000     -11.259940      -306.3985
  14   2.0000     -11.258623      -306.3627
  15   2.0000     -11.253190      -306.2149
  16   2.0000     -11.248278      -306.0812
  17   2.0000     -11.243283      -305.9453
  18   2.0000     -11.242979      -305.9370
  19   2.0000     -11.216858      -305.2262
  20   2.0000      -8.895453      -242.0576
  21   2.0000      -6.577022      -178.9699
  22   2.0000      -6.575027      -178.9156
  23   2.0000      -6.574433      -178.8994
  24   2.0000      -1.448010       -39.4024
  25   2.0000      -1.420709       -38.6595
  26   2.0000      -1.354143       -36.8481
  27   2.0000      -1.342035       -36.5186
  28   2.0000      -1.239989       -33.7418
  29   2.0000      -1.161830       -31.6150
  30   2.0000      -1.122487       -30.5444
  31   2.0000      -1.046118       -28.4663
  32   2.0000      -1.031438       -28.0669
  33   2.0000      -1.019740       -27.7485
  34   2.0000      -0.997435       -27.1416
  35   2.0000      -0.985937       -26.8287
  36   2.0000      -0.924248       -25.1501
  37   2.0000      -0.883098       -24.0303
  38   2.0000      -0.849102       -23.1052
  39   2.0000      -0.841768       -22.9057
  40   2.0000      -0.838393       -22.8138
  41   2.0000      -0.826223       -22.4827
  42   2.0000      -0.756869       -20.5955
  43   2.0000      -0.736350       -20.0371
  44   2.0000      -0.721922       -19.6445
  45   2.0000      -0.699605       -19.0372
  46   2.0000      -0.690360       -18.7857
  47   2.0000      -0.678860       -18.4727
  48   2.0000      -0.671515       -18.2728
  49   2.0000      -0.655770       -17.8444
  50   2.0000      -0.647944       -17.6315
  51   2.0000      -0.646206       -17.5842
  52   2.0000      -0.636677       -17.3249
  53   2.0000      -0.611322       -16.6349
  54   2.0000      -0.605341       -16.4722
  55   2.0000      -0.602369       -16.3913
  56   2.0000      -0.590631       -16.0719
  57   2.0000      -0.583063       -15.8659
  58   2.0000      -0.577204       -15.7065
  59   2.0000      -0.570692       -15.5293
  60   2.0000      -0.565764       -15.3952
  61   2.0000      -0.541626       -14.7384
  62   2.0000      -0.535229       -14.5643
  63   2.0000      -0.527863       -14.3639
  64   2.0000      -0.516456       -14.0535
  65   2.0000      -0.511591       -13.9211
  66   2.0000      -0.502201       -13.6656
  67   2.0000      -0.496067       -13.4987
  68   2.0000      -0.488363       -13.2890
  69   2.0000      -0.464297       -12.6342
  70   2.0000      -0.455310       -12.3896
  71   2.0000      -0.442541       -12.0421
  72   2.0000      -0.355565        -9.6754
  73   2.0000      -0.353163        -9.6101
  74   2.0000      -0.329994        -8.9796
  75   2.0000      -0.325783        -8.8650
  76   2.0000      -0.319874        -8.7042
  77   0.0000       0.072178         1.9641
  78   0.0000       0.099664         2.7120
  79   0.0000       0.123367         3.3570
  80   0.0000       0.130401         3.5484
  81   0.0000       0.132607         3.6084

MULLIKEN ATOMIC CHARGES
-----------------------
   0 C :   -0.267420
   1 C :    0.028862
   2 O :   -0.374387
   3 C :    0.462072
   4 O :   -0.417335
   5 C :   -0.268238
   6 C :    0.186588
   7 C :   -0.266321
   8 N :   -0.126615
   9 C :    0.213066
  10 S :   -0.440250
  11 N :   -0.218149
  12 C :    0.077223
  13 C :    0.035079
  14 C :   -0.194077
  15 C :   -0.129030
  16 C :   -0.275509
  17 C :    0.314440
  18 O :   -0.355838
  19 C :   -0.248611
  20 H :    0.115786
  21 H :    0.086475
  22 H :    0.091330
  23 H :    0.089817
  24 H :    0.110563
  25 H :    0.132407
  26 H :    0.130694
  27 H :    0.094950
  28 H :    0.199271
  29 H :    0.201160
  30 H :    0.152077
  31 H :    0.153845
  32 H :    0.165542
  33 H :    0.133111
  34 H :    0.241590
  35 H :    0.165833
Sum of atomic charges:    0.0000000

LOEWDIN ATOMIC CHARGES
----------------------
   0 C :    0.105435
   1 C :   -0.020306
   2 O :    0.295584
   3 C :   -0.419350
   4 O :    0.113314
   5 C :   -0.100194
   6 C :   -0.054501
   7 C :    0.131652
   8 N :    0.407669
   9 C :   -0.455896
  10 S :   -0.034999
  11 N :    0.394177
  12 C :   -0.054637
  13 C :   -0.038155
  14 C :    0.017964
  15 C :    0.040286
  16 C :   -0.000722
  17 C :   -0.190369
  18 O :    0.395905
  19 C :    0.032650
  20 H :   -0.025573
  21 H :   -0.030879
  22 H :   -0.027813
  23 H :   -0.030944
  24 H :   -0.025495
  25 H :   -0.004492
  26 H :   -0.004232
  27 H :   -0.023401
  28 H :   -0.056858
  29 H :   -0.064643
  30 H :   -0.012336
  31 H :   -0.028061
  32 H :   -0.020266
  33 H :   -0.034562
  34 H :   -0.152930
  35 H :   -0.023021

  Mayer bond orders larger than 0.100000
B(  0-C ,  1-C ) :   0.9867 B(  0-C , 20-H ) :   0.9733 B(  0-C , 21-H ) :   0.9776
B(  0-C , 22-H ) :   0.9774 B(  1-C ,  2-O ) :   0.8833 B(  1-C , 23-H ) :   0.9689
B(  1-C , 24-H ) :   0.9767 B(  2-O ,  3-C ) :   1.0897 B(  3-C ,  4-O ) :   1.9927
B(  3-C ,  5-C ) :   1.0822 B(  5-C ,  6-C ) :   1.6269 B(  5-C , 12-C ) :   0.9510
B(  6-C ,  7-C ) :   0.9658 B(  6-C ,  8-N ) :   1.1595 B(  7-C , 25-H ) :   0.9610
B(  7-C , 26-H ) :   0.9581 B(  7-C , 27-H ) :   0.9902 B(  8-N ,  9-C ) :   1.1850
B(  8-N , 28-H ) :   0.9461 B(  9-C , 10-S ) :   1.6057 B(  9-C , 11-N ) :   1.3110
B( 11-N , 12-C ) :   0.9621 B( 11-N , 29-H ) :   0.9483 B( 12-C , 13-C ) :   0.9651
B( 12-C , 30-H ) :   1.0007 B( 13-C , 14-C ) :   1.3447 B( 13-C , 19-C ) :   1.3723
B( 14-C , 15-C ) :   1.3913 B( 14-C , 31-H ) :   0.9741 B( 15-C , 16-C ) :   1.3584
B( 15-C , 32-H ) :   0.9692 B( 16-C , 17-C ) :   1.3331 B( 16-C , 33-H ) :   0.9840
B( 17-C , 18-O ) :   1.1067 B( 17-C , 19-C ) :   1.3642 B( 18-O , 34-H ) :   0.9789
B( 19-C , 35-H ) :   0.9599

MP2 TOTAL ENERGY:    -1274.331177323 Eh
FINAL SINGLE POINT ENERGY     -1274.331177322752

DIPOLE MOMENT
-------------
                                X             Y             Z
Electronic contribution:      9.74344       9.99601       8.54831
Nuclear contribution   :    -10.73835     -11.57072      -8.49122
                        -----------------------------------------
Total Dipole Moment    :     -0.99492      -1.57471       0.05709
                        -----------------------------------------
Magnitude (a.u.)       :      1.86355
Magnitude (Debye)      :      4.73678

Rotational constants in cm-1:     0.011912     0.008517     0.005957
Rotational constants in MHz :   357.102172   255.345169   178.579234

                             ****ORCA TERMINATED NORMALLY****
TOTAL RUN TIME: 0 days 1 hours 56 minutes 56 seconds 108 msec
