                         Program Version 4.2.0 -  RELEASE  -
|  1> ! ri-mp2 cc-pvtz cc-pvtz/c TightSCF NoKeepInts
|  2>
|  3> %scf
|  4>   MaxCore 4096
|  5> end
|  6> *xyz  0  1
|  7>     C       14.1908003   15.0499543   14.9818073
|  8>     C       15.2114242   15.7697289   14.0792077
|  9>     O       15.7665871   16.8795071   14.8092066
| 10>     C       16.7500000   16.6622007   15.7324499
| 11>     O       17.3274568   15.5914381   15.8299367
| 12>     C       17.0149440   17.8119950   16.6646067
| 13>     C       16.7997807   19.1103863   16.3218475
| 14>     C       16.0665338   19.6488743   15.1088040
| 15>     N       17.3109347   20.1484734   17.1053382
| 16>     C       18.2211660   19.9836541   18.1139553
| 17>     S       18.8659973   21.2716304   18.9269293
| 18>     N       18.5872792   18.6931539   18.3994549
| 19>     C       17.9747148   17.4840127   17.8161035
| 20>     C       17.3734222   16.5541092   18.8619368
| 21>     C       17.7757780   15.2087547   18.9423001
| 22>     C       17.2204609   14.3531329   19.9084898
| 23>     C       16.2556406   14.8476835   20.8028627
| 24>     C       15.8516151   16.1875923   20.7237099
| 25>     O       14.9172838   16.6665826   21.5833450
| 26>     C       16.4058712   17.0365934   19.7604414
| 27>     H       14.6845700   14.6135554   15.8595935
| 28>     H       13.6984859   14.2385182   14.4323609
| 29>     H       13.4188946   15.7476864   15.3292844
| 30>     H       15.9967072   15.0759881   13.7483725
| 31>     H       14.6932665   16.1461312   13.1879712
| 32>     H       16.5239304   19.2814208   14.1817257
| 33>     H       16.0734585   20.7444598   15.0575376
| 34>     H       15.0161608   19.3316853   15.1186911
| 35>     H       17.0679293   21.1029651   16.8939826
| 36>     H       19.2425067   18.5967768   19.1649099
| 37>     H       18.8572137   17.0231126   17.3489576
| 38>     H       18.5103488   14.8220161   18.2398760
| 39>     H       17.5345132   13.3120552   19.9564965
| 40>     H       15.8230501   14.1899618   21.5492861
| 41>     H       14.6752320   15.9428785   22.1803173
| 42>     H       16.0830415   18.0713311   19.7159039
| 43> *
| 44>
| 45>                          ****END OF INPUT****

CARTESIAN COORDINATES (ANGSTROEM)
---------------------------------
  C     14.190800   15.049954   14.981807
  C     15.211424   15.769729   14.079208
  O     15.766587   16.879507   14.809207
  C     16.750000   16.662201   15.732450
  O     17.327457   15.591438   15.829937
  C     17.014944   17.811995   16.664607
  C     16.799781   19.110386   16.321848
  C     16.066534   19.648874   15.108804
  N     17.310935   20.148473   17.105338
  C     18.221166   19.983654   18.113955
  S     18.865997   21.271630   18.926929
  N     18.587279   18.693154   18.399455
  C     17.974715   17.484013   17.816104
  C     17.373422   16.554109   18.861937
  C     17.775778   15.208755   18.942300
  C     17.220461   14.353133   19.908490
  C     16.255641   14.847684   20.802863
  C     15.851615   16.187592   20.723710
  O     14.917284   16.666583   21.583345
  C     16.405871   17.036593   19.760441
  H     14.684570   14.613555   15.859593
  H     13.698486   14.238518   14.432361
  H     13.418895   15.747686   15.329284
  H     15.996707   15.075988   13.748373
  H     14.693267   16.146131   13.187971
  H     16.523930   19.281421   14.181726
  H     16.073459   20.744460   15.057538
  H     15.016161   19.331685   15.118691
  H     17.067929   21.102965   16.893983
  H     19.242507   18.596777   19.164910
  H     18.857214   17.023113   17.348958
  H     18.510349   14.822016   18.239876
  H     17.534513   13.312055   19.956497
  H     15.823050   14.189962   21.549286
  H     14.675232   15.942879   22.180317
  H     16.083042   18.071331   19.715904

 Total Charge           Charge          ....    0
 Multiplicity           Mult            ....    1
 Number of Electrons    NEL             ....  154
 Basis Dimension        Dim             ....  828

ORBITAL ENERGIES
----------------

  NO   OCC          E(Eh)            E(eV)
   0   2.0000     -91.887863     -2500.3959
   1   2.0000     -20.603807      -560.6581
   2   2.0000     -20.591484      -560.3228
   3   2.0000     -20.545080      -559.0601
   4   2.0000     -15.628403      -425.2705
   5   2.0000     -15.605563      -424.6490
   6   2.0000     -11.396584      -310.1168
   7   2.0000     -11.382381      -309.7303
   8   2.0000     -11.338211      -308.5284
   9   2.0000     -11.307499      -307.6927
  10   2.0000     -11.304095      -307.6001
  11   2.0000     -11.300053      -307.4901
  12   2.0000     -11.261236      -306.4338
  13   2.0000     -11.258742      -306.3659
  14   2.0000     -11.254764      -306.2577
  15   2.0000     -11.247624      -306.0634
  16   2.0000     -11.237819      -305.7966
  17   2.0000     -11.233918      -305.6904
  18   2.0000     -11.230711      -305.6032
  19   2.0000     -11.227338      -305.5114
  20   2.0000      -8.892947      -241.9894
  21   2.0000      -6.574525      -178.9019
  22   2.0000      -6.572521      -178.8474
  23   2.0000      -6.571934      -178.8314
  24   2.0000      -1.454148       -39.5694
  25   2.0000      -1.411233       -38.4016
  26   2.0000      -1.357115       -36.9290
  27   2.0000      -1.339766       -36.4569
  28   2.0000      -1.236933       -33.6587
  29   2.0000      -1.152191       -31.3527
  30   2.0000      -1.120583       -30.4926
  31   2.0000      -1.042551       -28.3693
  32   2.0000      -1.034210       -28.1423
  33   2.0000      -1.009667       -27.4744
  34   2.0000      -0.998430       -27.1687
  35   2.0000      -0.983330       -26.7578
  36   2.0000      -0.920748       -25.0548
  37   2.0000      -0.893857       -24.3231
  38   2.0000      -0.847488       -23.0613
  39   2.0000      -0.834703       -22.7134
  40   2.0000      -0.827817       -22.5260
  41   2.0000      -0.815429       -22.1890
  42   2.0000      -0.755048       -20.5459
  43   2.0000      -0.736218       -20.0335
  44   2.0000      -0.725899       -19.7527
  45   2.0000      -0.690729       -18.7957
  46   2.0000      -0.685850       -18.6629
  47   2.0000      -0.679498       -18.4901
  48   2.0000      -0.669302       -18.2126
  49   2.0000      -0.654788       -17.8177
  50   2.0000      -0.651068       -17.7165
  51   2.0000      -0.644375       -17.5343
  52   2.0000      -0.630929       -17.1684
  53   2.0000      -0.610439       -16.6109
  54   2.0000      -0.602361       -16.3911
  55   2.0000      -0.597951       -16.2711
  56   2.0000      -0.594726       -16.1833
  57   2.0000      -0.580551       -15.7976
  58   2.0000      -0.573530       -15.6065
  59   2.0000      -0.563459       -15.3325
  60   2.0000      -0.558274       -15.1914
  61   2.0000      -0.549003       -14.9391
  62   2.0000      -0.535655       -14.5759
  63   2.0000      -0.531715       -14.4687
  64   2.0000      -0.515378       -14.0241
  65   2.0000      -0.508329       -13.8323
  66   2.0000      -0.497546       -13.5389
  67   2.0000      -0.493732       -13.4351
  68   2.0000      -0.481826       -13.1111
  69   2.0000      -0.464159       -12.6304
  70   2.0000      -0.459224       -12.4961
  71   2.0000      -0.451197       -12.2777
  72   2.0000      -0.353083        -9.6079
  73   2.0000      -0.344378        -9.3710
  74   2.0000      -0.326942        -8.8966
  75   2.0000      -0.317045        -8.6272
  76   2.0000      -0.314133        -8.5480
  77   0.0000       0.077679         2.1138
  78   0.0000       0.111799         3.0422
  79   0.0000       0.121084         3.2949
  80   0.0000       0.136162         3.7052
  81   0.0000       0.141481         3.8499

MULLIKEN ATOMIC CHARGES
-----------------------
   0 C :   -0.289005
   1 C :    0.026759
   2 O :   -0.350127
   3 C :    0.426292
   4 O :   -0.427285
   5 C :   -0.170228
   6 C :    0.159658
   7 C :   -0.279551
   8 N :   -0.128870
   9 C :    0.207474
  10 S :   -0.442655
  11 N :   -0.211009
  12 C :    0.042163
  13 C :    0.032135
  14 C :   -0.168208
  15 C :   -0.134633
  16 C :   -0.277021
  17 C :    0.314322
  18 O :   -0.359029
  19 C :   -0.250935
  20 H :    0.115427
  21 H :    0.094642
  22 H :    0.094142
  23 H :    0.110461
  24 H :    0.105780
  25 H :    0.124795
  26 H :    0.101157
  27 H :    0.129257
  28 H :    0.198871
  29 H :    0.199944
  30 H :    0.155165
  31 H :    0.158899
  32 H :    0.159964
  33 H :    0.128203
  34 H :    0.239872
  35 H :    0.163174
Sum of atomic charges:    0.0000000

LOEWDIN ATOMIC CHARGES
----------------------
   0 C :    0.105928
   1 C :   -0.017869
   2 O :    0.305860
   3 C :   -0.414452
   4 O :    0.102347
   5 C :   -0.090925
   6 C :   -0.063785
   7 C :    0.125081
   8 N :    0.405451
   9 C :   -0.458676
  10 S :   -0.037808
  11 N :    0.396566
  12 C :   -0.048255
  13 C :   -0.040558
  14 C :    0.024741
  15 C :    0.040572
  16 C :   -0.001138
  17 C :   -0.192423
  18 O :    0.393114
  19 C :    0.029893
  20 H :   -0.023183
  21 H :   -0.026324
  22 H :   -0.028901
  23 H :   -0.027969
  24 H :   -0.026697
  25 H :   -0.009464
  26 H :   -0.021379
  27 H :   -0.009401
  28 H :   -0.058777
  29 H :   -0.063072
  30 H :   -0.008419
  31 H :   -0.024033
  32 H :   -0.021111
  33 H :   -0.036177
  34 H :   -0.154918
  35 H :   -0.023840

  Mayer bond orders larger than 0.100000
B(  0-C ,  1-C ) :   0.9643 B(  0-C , 20-H ) :   0.9751 B(  0-C , 21-H ) :   0.9759
B(  0-C , 22-H ) :   0.9770 B(  1-C ,  2-O ) :   0.8935 B(  1-C , 23-H ) :   0.9765
B(  1-C , 24-H ) :   0.9841 B(  2-O ,  3-C ) :   1.1449 B(  3-C ,  4-O ) :   1.9740
B(  3-C ,  5-C ) :   1.0470 B(  5-C ,  6-C ) :   1.6526 B(  5-C , 12-C ) :   0.9523
B(  6-C ,  7-C ) :   0.9547 B(  6-C ,  8-N ) :   1.1364 B(  7-C , 25-H ) :   0.9652
B(  7-C , 26-H ) :   0.9910 B(  7-C , 27-H ) :   0.9634 B(  8-N ,  9-C ) :   1.1853
B(  8-N , 28-H ) :   0.9469 B(  9-C , 10-S ) :   1.6079 B(  9-C , 11-N ) :   1.3067
B( 11-N , 12-C ) :   0.9767 B( 11-N , 29-H ) :   0.9485 B( 12-C , 13-C ) :   0.9735
B( 12-C , 30-H ) :   0.9973 B( 13-C , 14-C ) :   1.3751 B( 13-C , 19-C ) :   1.3666
B( 14-C , 15-C ) :   1.3972 B( 14-C , 31-H ) :   0.9638 B( 15-C , 16-C ) :   1.3586
B( 15-C , 32-H ) :   0.9712 B( 16-C , 17-C ) :   1.3335 B( 16-C , 33-H ) :   0.9860
B( 17-C , 18-O ) :   1.1033 B( 17-C , 19-C ) :   1.3674 B( 18-O , 34-H ) :   0.9807
B( 19-C , 35-H ) :   0.9602

MP2 TOTAL ENERGY:    -1274.342534332 Eh
FINAL SINGLE POINT ENERGY     -1274.342534332108

DIPOLE MOMENT
-------------
                                X             Y             Z
Electronic contribution:     10.14368       9.79255      10.23068
Nuclear contribution   :    -11.55118     -11.04060     -11.39365
                        -----------------------------------------
Total Dipole Moment    :     -1.40750      -1.24805      -1.16296
                        -----------------------------------------
Magnitude (a.u.)       :      2.21160
Magnitude (Debye)      :      5.62145

Rotational constants in cm-1:     0.009976     0.009261     0.005676
Rotational constants in MHz :   299.076264   277.646573   170.165232

                             ****ORCA TERMINATED NORMALLY****
TOTAL RUN TIME: 0 days 1 hours 34 minutes 6 seconds 284 msec
