                         Program Version 4.2.0 -  RELEASE  -
|  1> ! ri-mp2 cc-pvtz cc-pvtz/c TightSCF NoKeepInts
|  2>
|  3> %scf
|  4>   MaxCore 4096
|  5> end
|  6> *xyz  0  1
|  7>     C       13.7539902   16.2476609   14.4983474
|  8>     C       14.8028391   16.2218128   15.6228630
|  9>     O       16.0982504   16.1235408   14.9960383
| 10>     C       17.2545757   16.5683868   15.5845699
| 11>     O       18.3253334   16.0465446   15.3349904
| 12>     C       17.1247722   17.6523148   16.6056290
| 13>     C       16.6484989   18.8713570   16.2514687
| 14>     C       15.9944250   19.2514464   14.9377750
| 15>     N       16.8082958   19.9734545   17.0934058
| 16>     C       17.6447803   19.9957260   18.1782565
| 17>     S       17.8792045   21.3687498   19.0693113
| 18>     N       18.2974687   18.8234920   18.4717764
| 19>     C       18.0439782   17.5228057   17.8200348
| 20>     C       17.6182208   16.4069667   18.7621124
| 21>     C       18.1877175   15.1266212   18.6436663
| 22>     C       17.7855821   14.0848071   19.4959876
| 23>     C       16.8032880   14.3251482   20.4721057
| 24>     C       16.2290384   15.5986395   20.5870681
| 25>     O       15.2732769   15.8308422   21.5215779
| 26>     C       16.6302332   16.6338036   19.7362767
| 27>     H       12.7417753   16.3111849   14.9160335
| 28>     H       13.8176251   15.3344081   13.8931241
| 29>     H       13.9092634   17.1090114   13.8374242
| 30>     H       14.6875033   17.1291817   16.2255363
| 31>     H       14.6389716   15.3563130   16.2787784
| 32>     H       14.9013295   19.2246600   15.0178500
| 33>     H       16.2910846   18.5852275   14.1181673
| 34>     H       16.2814863   20.2639204   14.6260947
| 35>     H       16.3653985   20.8501779   16.8671906
| 36>     H       18.9060812   18.8647529   19.2798558
| 37>     H       19.0449773   17.3118439   17.4145259
| 38>     H       18.9387124   14.9370940   17.8790622
| 39>     H       18.2324084   13.0971059   19.3945848
| 40>     H       16.4891197   13.5226699   21.1313929
| 41>     H       15.1654321   15.0163321   22.0356814
| 42>     H       16.1720618   17.6119958   19.8394367
| 43> *
| 44>
| 45>                          ****END OF INPUT****

CARTESIAN COORDINATES (ANGSTROEM)
---------------------------------
  C     13.753990   16.247661   14.498347
  C     14.802839   16.221813   15.622863
  O     16.098250   16.123541   14.996038
  C     17.254576   16.568387   15.584570
  O     18.325333   16.046545   15.334990
  C     17.124772   17.652315   16.605629
  C     16.648499   18.871357   16.251469
  C     15.994425   19.251446   14.937775
  N     16.808296   19.973454   17.093406
  C     17.644780   19.995726   18.178256
  S     17.879205   21.368750   19.069311
  N     18.297469   18.823492   18.471776
  C     18.043978   17.522806   17.820035
  C     17.618221   16.406967   18.762112
  C     18.187718   15.126621   18.643666
  C     17.785582   14.084807   19.495988
  C     16.803288   14.325148   20.472106
  C     16.229038   15.598639   20.587068
  O     15.273277   15.830842   21.521578
  C     16.630233   16.633804   19.736277
  H     12.741775   16.311185   14.916033
  H     13.817625   15.334408   13.893124
  H     13.909263   17.109011   13.837424
  H     14.687503   17.129182   16.225536
  H     14.638972   15.356313   16.278778
  H     14.901329   19.224660   15.017850
  H     16.291085   18.585227   14.118167
  H     16.281486   20.263920   14.626095
  H     16.365399   20.850178   16.867191
  H     18.906081   18.864753   19.279856
  H     19.044977   17.311844   17.414526
  H     18.938712   14.937094   17.879062
  H     18.232408   13.097106   19.394585
  H     16.489120   13.522670   21.131393
  H     15.165432   15.016332   22.035681
  H     16.172062   17.611996   19.839437

 Total Charge           Charge          ....    0
 Multiplicity           Mult            ....    1
 Number of Electrons    NEL             ....  154
 Basis Dimension        Dim             ....  828

ORBITAL ENERGIES
----------------

  NO   OCC          E(Eh)            E(eV)
   0   2.0000     -91.889957     -2500.4529
   1   2.0000     -20.603763      -560.6569
   2   2.0000     -20.598422      -560.5116
   3   2.0000     -20.550635      -559.2112
   4   2.0000     -15.628562      -425.2748
   5   2.0000     -15.609377      -424.7527
   6   2.0000     -11.399006      -310.1827
   7   2.0000     -11.385758      -309.8222
   8   2.0000     -11.334809      -308.4358
   9   2.0000     -11.315514      -307.9108
  10   2.0000     -11.309374      -307.7437
  11   2.0000     -11.306970      -307.6783
  12   2.0000     -11.267829      -306.6132
  13   2.0000     -11.263987      -306.5087
  14   2.0000     -11.263315      -306.4904
  15   2.0000     -11.255743      -306.2843
  16   2.0000     -11.244727      -305.9846
  17   2.0000     -11.240940      -305.8815
  18   2.0000     -11.238320      -305.8102
  19   2.0000     -11.238034      -305.8025
  20   2.0000      -8.895061      -242.0469
  21   2.0000      -6.576642      -178.9595
  22   2.0000      -6.574630      -178.9048
  23   2.0000      -6.574047      -178.8889
  24   2.0000      -1.449675       -39.4477
  25   2.0000      -1.418122       -38.5891
  26   2.0000      -1.362523       -37.0761
  27   2.0000      -1.341300       -36.4986
  28   2.0000      -1.239365       -33.7248
  29   2.0000      -1.160029       -31.5660
  30   2.0000      -1.126200       -30.6455
  31   2.0000      -1.047749       -28.5107
  32   2.0000      -1.044224       -28.4148
  33   2.0000      -1.017822       -27.6963
  34   2.0000      -1.005481       -27.3605
  35   2.0000      -0.989714       -26.9315
  36   2.0000      -0.926014       -25.1981
  37   2.0000      -0.884827       -24.0774
  38   2.0000      -0.855203       -23.2713
  39   2.0000      -0.842748       -22.9323
  40   2.0000      -0.836909       -22.7735
  41   2.0000      -0.834845       -22.7173
  42   2.0000      -0.759642       -20.6709
  43   2.0000      -0.739832       -20.1318
  44   2.0000      -0.731971       -19.9179
  45   2.0000      -0.695867       -18.9355
  46   2.0000      -0.688834       -18.7441
  47   2.0000      -0.683693       -18.6042
  48   2.0000      -0.673776       -18.3344
  49   2.0000      -0.664634       -18.0856
  50   2.0000      -0.653775       -17.7901
  51   2.0000      -0.646936       -17.6040
  52   2.0000      -0.639363       -17.3979
  53   2.0000      -0.614472       -16.7206
  54   2.0000      -0.606463       -16.5027
  55   2.0000      -0.603711       -16.4278
  56   2.0000      -0.601244       -16.3607
  57   2.0000      -0.585256       -15.9256
  58   2.0000      -0.577209       -15.7067
  59   2.0000      -0.568920       -15.4811
  60   2.0000      -0.561356       -15.2753
  61   2.0000      -0.560316       -15.2470
  62   2.0000      -0.545646       -14.8478
  63   2.0000      -0.535217       -14.5640
  64   2.0000      -0.522671       -14.2226
  65   2.0000      -0.514979       -14.0133
  66   2.0000      -0.504389       -13.7251
  67   2.0000      -0.500727       -13.6255
  68   2.0000      -0.487932       -13.2773
  69   2.0000      -0.468710       -12.7542
  70   2.0000      -0.460250       -12.5240
  71   2.0000      -0.450993       -12.2721
  72   2.0000      -0.356253        -9.6941
  73   2.0000      -0.350648        -9.5416
  74   2.0000      -0.329372        -8.9627
  75   2.0000      -0.323151        -8.7934
  76   2.0000      -0.319619        -8.6973
  77   0.0000       0.082599         2.2476
  78   0.0000       0.105068         2.8591
  79   0.0000       0.116188         3.1616
  80   0.0000       0.130177         3.5423
  81   0.0000       0.131036         3.5657

MULLIKEN ATOMIC CHARGES
-----------------------
   0 C :   -0.266982
   1 C :    0.019794
   2 O :   -0.321979
   3 C :    0.420662
   4 O :   -0.381572
   5 C :   -0.224966
   6 C :    0.155222
   7 C :   -0.332960
   8 N :   -0.138121
   9 C :    0.208591
  10 S :   -0.442239
  11 N :   -0.220907
  12 C :    0.055359
  13 C :    0.029229
  14 C :   -0.219788
  15 C :   -0.127691
  16 C :   -0.277535
  17 C :    0.314113
  18 O :   -0.356529
  19 C :   -0.250152
  20 H :    0.093115
  21 H :    0.110221
  22 H :    0.093247
  23 H :    0.096266
  24 H :    0.121849
  25 H :    0.122671
  26 H :    0.138579
  27 H :    0.132069
  28 H :    0.198330
  29 H :    0.202437
  30 H :    0.166857
  31 H :    0.175067
  32 H :    0.164225
  33 H :    0.130971
  34 H :    0.241162
  35 H :    0.171383
Sum of atomic charges:   -0.0000000

LOEWDIN ATOMIC CHARGES
----------------------
   0 C :    0.107879
   1 C :   -0.019029
   2 O :    0.305896
   3 C :   -0.415528
   4 O :    0.121324
   5 C :   -0.087211
   6 C :   -0.088423
   7 C :    0.127134
   8 N :    0.402879
   9 C :   -0.456962
  10 S :   -0.037756
  11 N :    0.396197
  12 C :   -0.049575
  13 C :   -0.043739
  14 C :    0.020270
  15 C :    0.044267
  16 C :   -0.000290
  17 C :   -0.191398
  18 O :    0.394546
  19 C :    0.027008
  20 H :   -0.024133
  21 H :   -0.022704
  22 H :   -0.030302
  23 H :   -0.039656
  24 H :   -0.026861
  25 H :   -0.016876
  26 H :   -0.007530
  27 H :   -0.011636
  28 H :   -0.057521
  29 H :   -0.063443
  30 H :   -0.004537
  31 H :   -0.021447
  32 H :   -0.018860
  33 H :   -0.035035
  34 H :   -0.153379
  35 H :   -0.023568

  Mayer bond orders larger than 0.100000
B(  0-C ,  1-C ) :   0.9738 B(  0-C , 20-H ) :   0.9751 B(  0-C , 21-H ) :   0.9777
B(  0-C , 22-H ) :   0.9779 B(  1-C ,  2-O ) :   0.9005 B(  1-C , 23-H ) :   0.9641
B(  1-C , 24-H ) :   0.9786 B(  2-O ,  3-C ) :   1.1732 B(  3-C ,  4-O ) :   2.0979
B(  3-C ,  5-C ) :   0.9347 B(  5-C ,  6-C ) :   1.7120 B(  5-C , 12-C ) :   0.9424
B(  6-C ,  7-C ) :   0.9335 B(  6-C ,  8-N ) :   1.1102 B(  7-C , 25-H ) :   0.9650
B(  7-C , 26-H ) :   0.9727 B(  7-C , 27-H ) :   0.9815 B(  8-N ,  9-C ) :   1.1942
B(  8-N , 28-H ) :   0.9503 B(  9-C , 10-S ) :   1.6105 B(  9-C , 11-N ) :   1.2930
B( 11-N , 12-C ) :   0.9837 B( 11-N , 29-H ) :   0.9476 B( 12-C , 13-C ) :   0.9700
B( 12-C , 30-H ) :   0.9894 B( 13-C , 14-C ) :   1.3841 B( 13-C , 19-C ) :   1.3551
B( 14-C , 15-C ) :   1.3939 B( 14-C , 31-H ) :   0.9598 B( 15-C , 16-C ) :   1.3614
B( 15-C , 32-H ) :   0.9698 B( 16-C , 17-C ) :   1.3311 B( 16-C , 33-H ) :   0.9852
B( 17-C , 18-O ) :   1.1078 B( 17-C , 19-C ) :   1.3674 B( 18-O , 34-H ) :   0.9795
B( 19-C , 35-H ) :   0.9567

MP2 TOTAL ENERGY:    -1274.330443404 Eh
FINAL SINGLE POINT ENERGY     -1274.330443403517

DIPOLE MOMENT
-------------
                                X             Y             Z
Electronic contribution:     11.09593       6.30736       9.93863
Nuclear contribution   :    -12.72837      -7.48547     -10.29260
                        -----------------------------------------
Total Dipole Moment    :     -1.63244      -1.17812      -0.35397
                        -----------------------------------------
Magnitude (a.u.)       :      2.04404
Magnitude (Debye)      :      5.19554

Rotational constants in cm-1:     0.010197     0.009209     0.006137
Rotational constants in MHz :   305.711688   276.067567   183.985001

                             ****ORCA TERMINATED NORMALLY****
TOTAL RUN TIME: 0 days 1 hours 48 minutes 55 seconds 617 msec
