                         Program Version 4.2.0 -  RELEASE  -
|  1> ! ri-mp2 cc-pvtz cc-pvtz/c TightSCF NoKeepInts
|  2>
|  3> %scf
|  4>   MaxCore 4096
|  5> end
|  6> *xyz  0  1
|  7>     C       14.3904268   16.2483966   15.4690496
|  8>     C       15.4753149   15.2988417   16.0222225
|  9>     O       16.7768785   15.6002648   15.4657991
| 10>     C       17.2321114   16.8727706   15.2528476
| 11>     O       17.7054659   17.1859009   14.1759547
| 12>     C       17.1058974   17.8274413   16.4034270
| 13>     C       16.8905387   19.1376165   16.1292952
| 14>     C       16.3564589   19.7059040   14.8311046
| 15>     N       17.1547139   20.1316359   17.0726334
| 16>     C       17.8765765   19.9274426   18.2174126
| 17>     S       18.2688323   21.1666978   19.2396777
| 18>     N       18.2813463   18.6386578   18.4606096
| 19>     C       17.8599039   17.4514304   17.6908504
| 20>     C       17.2359028   16.3744935   18.5621104
| 21>     C       17.7771493   15.0760906   18.5932322
| 22>     C       17.1965212   14.0818509   19.3984092
| 23>     C       16.0710906   14.3906301   20.1819247
| 24>     C       15.5358691   15.6859538   20.1587644
| 25>     O       14.4474410   15.9857617   20.9106274
| 26>     C       16.1136051   16.6732131   19.3541651
| 27>     H       14.4772335   17.2542900   15.8952892
| 28>     H       13.3935497   15.8688635   15.7247373
| 29>     H       14.4543421   16.3188012   14.3754993
| 30>     H       15.4756852   15.3570608   17.1129555
| 31>     H       15.2167923   14.2652121   15.7584165
| 32>     H       15.6624696   19.0090611   14.3454239
| 33>     H       17.1797403   19.8859126   14.1272059
| 34>     H       15.8195244   20.6508281   14.9763217
| 35>     H       16.9037180   21.0881444   16.8787664
| 36>     H       18.8024771   18.5158724   19.3199691
| 37>     H       18.8461979   17.1128722   17.3414543
| 38>     H       18.6439084   14.8339037   17.9828873
| 39>     H       17.6190344   13.0782902   19.4135953
| 40>     H       15.6202854   13.6253507   20.8055920
| 41>     H       14.2317737   15.2027622   21.4397851
| 42>     H       15.6882235   17.6717804   19.3499840
| 43> *
| 44>
| 45>                          ****END OF INPUT****

CARTESIAN COORDINATES (ANGSTROEM)
---------------------------------
  C     14.390427   16.248397   15.469050
  C     15.475315   15.298842   16.022223
  O     16.776878   15.600265   15.465799
  C     17.232111   16.872771   15.252848
  O     17.705466   17.185901   14.175955
  C     17.105897   17.827441   16.403427
  C     16.890539   19.137616   16.129295
  C     16.356459   19.705904   14.831105
  N     17.154714   20.131636   17.072633
  C     17.876576   19.927443   18.217413
  S     18.268832   21.166698   19.239678
  N     18.281346   18.638658   18.460610
  C     17.859904   17.451430   17.690850
  C     17.235903   16.374493   18.562110
  C     17.777149   15.076091   18.593232
  C     17.196521   14.081851   19.398409
  C     16.071091   14.390630   20.181925
  C     15.535869   15.685954   20.158764
  O     14.447441   15.985762   20.910627
  C     16.113605   16.673213   19.354165
  H     14.477233   17.254290   15.895289
  H     13.393550   15.868863   15.724737
  H     14.454342   16.318801   14.375499
  H     15.475685   15.357061   17.112956
  H     15.216792   14.265212   15.758416
  H     15.662470   19.009061   14.345424
  H     17.179740   19.885913   14.127206
  H     15.819524   20.650828   14.976322
  H     16.903718   21.088144   16.878766
  H     18.802477   18.515872   19.319969
  H     18.846198   17.112872   17.341454
  H     18.643908   14.833904   17.982887
  H     17.619034   13.078290   19.413595
  H     15.620285   13.625351   20.805592
  H     14.231774   15.202762   21.439785
  H     15.688223   17.671780   19.349984

 Total Charge           Charge          ....    0
 Multiplicity           Mult            ....    1
 Number of Electrons    NEL             ....  154
 Basis Dimension        Dim             ....  828

ORBITAL ENERGIES
----------------

  NO   OCC          E(Eh)            E(eV)
   0   2.0000     -91.890664     -2500.4721
   1   2.0000     -20.604201      -560.6688
   2   2.0000     -20.588873      -560.2517
   3   2.0000     -20.550997      -559.2211
   4   2.0000     -15.628295      -425.2675
   5   2.0000     -15.610543      -424.7845
   6   2.0000     -11.394576      -310.0622
   7   2.0000     -11.385524      -309.8159
   8   2.0000     -11.332278      -308.3670
   9   2.0000     -11.322556      -308.1024
  10   2.0000     -11.315793      -307.9184
  11   2.0000     -11.299465      -307.4741
  12   2.0000     -11.268692      -306.6367
  13   2.0000     -11.263425      -306.4934
  14   2.0000     -11.257175      -306.3233
  15   2.0000     -11.255267      -306.2714
  16   2.0000     -11.252534      -306.1970
  17   2.0000     -11.247188      -306.0515
  18   2.0000     -11.246638      -306.0366
  19   2.0000     -11.232809      -305.6603
  20   2.0000      -8.895727      -242.0650
  21   2.0000      -6.577297      -178.9773
  22   2.0000      -6.575300      -178.9230
  23   2.0000      -6.574707      -178.9069
  24   2.0000      -1.443536       -39.2806
  25   2.0000      -1.423986       -38.7486
  26   2.0000      -1.355882       -36.8954
  27   2.0000      -1.341365       -36.5004
  28   2.0000      -1.240708       -33.7614
  29   2.0000      -1.165661       -31.7192
  30   2.0000      -1.124080       -30.5878
  31   2.0000      -1.050025       -28.5726
  32   2.0000      -1.033919       -28.1344
  33   2.0000      -1.023624       -27.8542
  34   2.0000      -1.003042       -27.2942
  35   2.0000      -0.989194       -26.9173
  36   2.0000      -0.926738       -25.2178
  37   2.0000      -0.896661       -24.3994
  38   2.0000      -0.850509       -23.1435
  39   2.0000      -0.844316       -22.9750
  40   2.0000      -0.842528       -22.9264
  41   2.0000      -0.828624       -22.5480
  42   2.0000      -0.751149       -20.4398
  43   2.0000      -0.739078       -20.1113
  44   2.0000      -0.717528       -19.5249
  45   2.0000      -0.702402       -19.1133
  46   2.0000      -0.690416       -18.7872
  47   2.0000      -0.680144       -18.5077
  48   2.0000      -0.675610       -18.3843
  49   2.0000      -0.664581       -18.0842
  50   2.0000      -0.651873       -17.7384
  51   2.0000      -0.648614       -17.6497
  52   2.0000      -0.637220       -17.3396
  53   2.0000      -0.623189       -16.9578
  54   2.0000      -0.613106       -16.6835
  55   2.0000      -0.607017       -16.5178
  56   2.0000      -0.603021       -16.4090
  57   2.0000      -0.583048       -15.8655
  58   2.0000      -0.576867       -15.6974
  59   2.0000      -0.566822       -15.4240
  60   2.0000      -0.554644       -15.0926
  61   2.0000      -0.548708       -14.9311
  62   2.0000      -0.542912       -14.7734
  63   2.0000      -0.535198       -14.5635
  64   2.0000      -0.529397       -14.4056
  65   2.0000      -0.517409       -14.0794
  66   2.0000      -0.504953       -13.7405
  67   2.0000      -0.498960       -13.5774
  68   2.0000      -0.482132       -13.1195
  69   2.0000      -0.468532       -12.7494
  70   2.0000      -0.451554       -12.2874
  71   2.0000      -0.449658       -12.2358
  72   2.0000      -0.357714        -9.7339
  73   2.0000      -0.353044        -9.6068
  74   2.0000      -0.331482        -9.0201
  75   2.0000      -0.328870        -8.9490
  76   2.0000      -0.320312        -8.7161
  77   0.0000       0.079223         2.1558
  78   0.0000       0.096884         2.6364
  79   0.0000       0.121121         3.2959
  80   0.0000       0.126513         3.4426
  81   0.0000       0.129646         3.5278

MULLIKEN ATOMIC CHARGES
-----------------------
   0 C :   -0.329383
   1 C :    0.039431
   2 O :   -0.345585
   3 C :    0.432411
   4 O :   -0.370431
   5 C :   -0.252028
   6 C :    0.165826
   7 C :   -0.282251
   8 N :   -0.130556
   9 C :    0.209056
  10 S :   -0.439221
  11 N :   -0.209602
  12 C :    0.032046
  13 C :   -0.004936
  14 C :   -0.173018
  15 C :   -0.132642
  16 C :   -0.270637
  17 C :    0.302122
  18 O :   -0.355672
  19 C :   -0.225291
  20 H :    0.102930
  21 H :    0.113008
  22 H :    0.115669
  23 H :    0.100158
  24 H :    0.121663
  25 H :    0.119007
  26 H :    0.146352
  27 H :    0.098092
  28 H :    0.198728
  29 H :    0.199963
  30 H :    0.156377
  31 H :    0.156531
  32 H :    0.164996
  33 H :    0.135097
  34 H :    0.241737
  35 H :    0.170054
Sum of atomic charges:   -0.0000000

LOEWDIN ATOMIC CHARGES
----------------------
   0 C :    0.102597
   1 C :   -0.013770
   2 O :    0.293618
   3 C :   -0.424556
   4 O :    0.129176
   5 C :   -0.097892
   6 C :   -0.071854
   7 C :    0.128871
   8 N :    0.406613
   9 C :   -0.456757
  10 S :   -0.034676
  11 N :    0.395802
  12 C :   -0.054652
  13 C :   -0.046440
  14 C :    0.020893
  15 C :    0.044033
  16 C :    0.001547
  17 C :   -0.192493
  18 O :    0.396954
  19 C :    0.031217
  20 H :   -0.035137
  21 H :   -0.022630
  22 H :   -0.024890
  23 H :   -0.036961
  24 H :   -0.021422
  25 H :   -0.010062
  26 H :   -0.003623
  27 H :   -0.021385
  28 H :   -0.056812
  29 H :   -0.063603
  30 H :   -0.010365
  31 H :   -0.025919
  32 H :   -0.018410
  33 H :   -0.033413
  34 H :   -0.152309
  35 H :   -0.021293

  Mayer bond orders larger than 0.100000
B(  0-C ,  1-C ) :   0.9623 B(  0-C , 20-H ) :   0.9716 B(  0-C , 21-H ) :   0.9776
B(  0-C , 22-H ) :   0.9744 B(  1-C ,  2-O ) :   0.8982 B(  1-C , 23-H ) :   0.9629
B(  1-C , 24-H ) :   0.9833 B(  2-O ,  3-C ) :   1.1497 B(  3-C ,  4-O ) :   2.1083
B(  3-C ,  5-C ) :   0.9567 B(  5-C ,  6-C ) :   1.6679 B(  5-C , 12-C ) :   0.9678
B(  6-C ,  7-C ) :   0.9497 B(  6-C ,  8-N ) :   1.1379 B(  7-C , 25-H ) :   0.9740
B(  7-C , 26-H ) :   0.9561 B(  7-C , 27-H ) :   0.9842 B(  8-N ,  9-C ) :   1.1944
B(  8-N , 28-H ) :   0.9489 B(  9-C , 10-S ) :   1.6138 B(  9-C , 11-N ) :   1.2917
B( 11-N , 12-C ) :   0.9803 B( 11-N , 29-H ) :   0.9475 B( 12-C , 13-C ) :   0.9544
B( 12-C , 30-H ) :   1.0064 B( 13-C , 14-C ) :   1.3715 B( 13-C , 19-C ) :   1.3629
B( 14-C , 15-C ) :   1.3936 B( 14-C , 31-H ) :   0.9685 B( 15-C , 16-C ) :   1.3618
B( 15-C , 32-H ) :   0.9695 B( 16-C , 17-C ) :   1.3301 B( 16-C , 33-H ) :   0.9833
B( 17-C , 18-O ) :   1.1103 B( 17-C , 19-C ) :   1.3635 B( 18-O , 34-H ) :   0.9786
B( 19-C , 35-H ) :   0.9595

MP2 TOTAL ENERGY:    -1274.321388635 Eh
FINAL SINGLE POINT ENERGY     -1274.321388635390

DIPOLE MOMENT
-------------
                                X             Y             Z
Electronic contribution:      9.42053       6.93245       7.31085
Nuclear contribution   :    -10.84397      -8.59897      -7.07430
                        -----------------------------------------
Total Dipole Moment    :     -1.42343      -1.66652       0.23655
                        -----------------------------------------
Magnitude (a.u.)       :      2.20441
Magnitude (Debye)      :      5.60316

Rotational constants in cm-1:     0.011914     0.009146     0.006295
Rotational constants in MHz :   357.178258   274.177363   188.731620

                             ****ORCA TERMINATED NORMALLY****
TOTAL RUN TIME: 0 days 1 hours 52 minutes 25 seconds 389 msec
