                         Program Version 4.2.0 -  RELEASE  -
|  1> ! ri-mp2 cc-pvtz cc-pvtz/c TightSCF NoKeepInts
|  2>
|  3> %scf
|  4>   MaxCore 4096
|  5> end
|  6> *xyz  0  1
|  7>     C       14.8345865   14.8925397   13.6417043
|  8>     C       14.5660308   15.6854334   14.9330057
|  9>     O       15.5731139   16.7060297   15.0432614
| 10>     C       16.6169934   16.5039910   15.8978847
| 11>     O       17.0969282   15.3978955   16.0829663
| 12>     C       16.9965193   17.7010217   16.7224024
| 13>     C       16.8880692   18.9740646   16.2581309
| 14>     C       16.1895828   19.4501238   14.9994631
| 15>     N       17.5013264   20.0333893   16.9320077
| 16>     C       18.4170945   19.8849186   17.9384073
| 17>     S       19.1873528   21.1822424   18.6159910
| 18>     N       18.6791585   18.5995599   18.3395092
| 19>     C       17.9504857   17.3992837   17.8851946
| 20>     C       17.2966184   16.6264320   19.0231043
| 21>     C       17.5750381   15.2613302   19.2160924
| 22>     C       16.9720487   14.5505447   20.2673617
| 23>     C       16.0840693   15.2110319   21.1337518
| 24>     C       15.8033123   16.5709496   20.9423459
| 25>     O       14.9430201   17.2100482   21.7746660
| 26>     C       16.4045013   17.2754779   19.8944060
| 27>     H       14.8306569   15.5573462   12.7691608
| 28>     H       14.0653928   14.1249095   13.4941709
| 29>     H       15.8104329   14.3927369   13.6926633
| 30>     H       13.5765939   16.1552783   14.8635480
| 31>     H       14.5679069   15.0185369   15.8067933
| 32>     H       16.5714900   18.9211015   14.1171661
| 33>     H       16.3289291   20.5221891   14.8142758
| 34>     H       15.1095837   19.2676836   15.0624426
| 35>     H       17.3364859   20.9812300   16.6331346
| 36>     H       19.3428329   18.5185455   19.0994930
| 37>     H       18.7786888   16.8208522   17.4503355
| 38>     H       18.2501595   14.7465595   18.5364058
| 39>     H       17.1903997   13.4928075   20.4029496
| 40>     H       15.6152658   14.6655442   21.9459168
| 41>     H       14.6586034   16.5700699   22.4442483
| 42>     H       16.1777277   18.3283014   19.7636388
| 43> *
| 44>
| 45>                          ****END OF INPUT****

CARTESIAN COORDINATES (ANGSTROEM)
---------------------------------
  C     14.834587   14.892540   13.641704
  C     14.566031   15.685433   14.933006
  O     15.573114   16.706030   15.043261
  C     16.616993   16.503991   15.897885
  O     17.096928   15.397896   16.082966
  C     16.996519   17.701022   16.722402
  C     16.888069   18.974065   16.258131
  C     16.189583   19.450124   14.999463
  N     17.501326   20.033389   16.932008
  C     18.417095   19.884919   17.938407
  S     19.187353   21.182242   18.615991
  N     18.679158   18.599560   18.339509
  C     17.950486   17.399284   17.885195
  C     17.296618   16.626432   19.023104
  C     17.575038   15.261330   19.216092
  C     16.972049   14.550545   20.267362
  C     16.084069   15.211032   21.133752
  C     15.803312   16.570950   20.942346
  O     14.943020   17.210048   21.774666
  C     16.404501   17.275478   19.894406
  H     14.830657   15.557346   12.769161
  H     14.065393   14.124909   13.494171
  H     15.810433   14.392737   13.692663
  H     13.576594   16.155278   14.863548
  H     14.567907   15.018537   15.806793
  H     16.571490   18.921101   14.117166
  H     16.328929   20.522189   14.814276
  H     15.109584   19.267684   15.062443
  H     17.336486   20.981230   16.633135
  H     19.342833   18.518545   19.099493
  H     18.778689   16.820852   17.450336
  H     18.250159   14.746560   18.536406
  H     17.190400   13.492807   20.402950
  H     15.615266   14.665544   21.945917
  H     14.658603   16.570070   22.444248
  H     16.177728   18.328301   19.763639

 Total Charge           Charge          ....    0
 Multiplicity           Mult            ....    1
 Number of Electrons    NEL             ....  154
 Basis Dimension        Dim             ....  828

ORBITAL ENERGIES
----------------

  NO   OCC          E(Eh)            E(eV)
   0   2.0000     -91.888345     -2500.4090
   1   2.0000     -20.597506      -560.4866
   2   2.0000     -20.592316      -560.3454
   3   2.0000     -20.548393      -559.1502
   4   2.0000     -15.628963      -425.2857
   5   2.0000     -15.606005      -424.6610
   6   2.0000     -11.396048      -310.1022
   7   2.0000     -11.382933      -309.7453
   8   2.0000     -11.338369      -308.5327
   9   2.0000     -11.308385      -307.7168
  10   2.0000     -11.304560      -307.6127
  11   2.0000     -11.301251      -307.5227
  12   2.0000     -11.260550      -306.4151
  13   2.0000     -11.259332      -306.3820
  14   2.0000     -11.255651      -306.2818
  15   2.0000     -11.248485      -306.0868
  16   2.0000     -11.238652      -305.8193
  17   2.0000     -11.234751      -305.7131
  18   2.0000     -11.231530      -305.6255
  19   2.0000     -11.225269      -305.4551
  20   2.0000      -8.893426      -242.0024
  21   2.0000      -6.575002      -178.9149
  22   2.0000      -6.573000      -178.8604
  23   2.0000      -6.572411      -178.8444
  24   2.0000      -1.454261       -39.5725
  25   2.0000      -1.412062       -38.4242
  26   2.0000      -1.357985       -36.9526
  27   2.0000      -1.340183       -36.4682
  28   2.0000      -1.237313       -33.6690
  29   2.0000      -1.152986       -31.3743
  30   2.0000      -1.121239       -30.5105
  31   2.0000      -1.043117       -28.3847
  32   2.0000      -1.034415       -28.1479
  33   2.0000      -1.010479       -27.4965
  34   2.0000      -0.998753       -27.1775
  35   2.0000      -0.983698       -26.7678
  36   2.0000      -0.921109       -25.0646
  37   2.0000      -0.887793       -24.1581
  38   2.0000      -0.848075       -23.0773
  39   2.0000      -0.835918       -22.7465
  40   2.0000      -0.828668       -22.5492
  41   2.0000      -0.821867       -22.3641
  42   2.0000      -0.757489       -20.6123
  43   2.0000      -0.735372       -20.0105
  44   2.0000      -0.726721       -19.7751
  45   2.0000      -0.691038       -18.8041
  46   2.0000      -0.686423       -18.6785
  47   2.0000      -0.680155       -18.5080
  48   2.0000      -0.670630       -18.2488
  49   2.0000      -0.658634       -17.9224
  50   2.0000      -0.646237       -17.5850
  51   2.0000      -0.640339       -17.4245
  52   2.0000      -0.630612       -17.1598
  53   2.0000      -0.610454       -16.6113
  54   2.0000      -0.602448       -16.3934
  55   2.0000      -0.598884       -16.2965
  56   2.0000      -0.595482       -16.2039
  57   2.0000      -0.585439       -15.9306
  58   2.0000      -0.573517       -15.6062
  59   2.0000      -0.565805       -15.3963
  60   2.0000      -0.561183       -15.2706
  61   2.0000      -0.548118       -14.9150
  62   2.0000      -0.535499       -14.5717
  63   2.0000      -0.522065       -14.2061
  64   2.0000      -0.516328       -14.0500
  65   2.0000      -0.509874       -13.8744
  66   2.0000      -0.502848       -13.6832
  67   2.0000      -0.494648       -13.4600
  68   2.0000      -0.480569       -13.0769
  69   2.0000      -0.462836       -12.5944
  70   2.0000      -0.456300       -12.4165
  71   2.0000      -0.454157       -12.3582
  72   2.0000      -0.353349        -9.6151
  73   2.0000      -0.345088        -9.3903
  74   2.0000      -0.327405        -8.9091
  75   2.0000      -0.317531        -8.6404
  76   2.0000      -0.315082        -8.5738
  77   0.0000       0.075554         2.0559
  78   0.0000       0.110809         3.0153
  79   0.0000       0.121702         3.3117
  80   0.0000       0.135416         3.6849
  81   0.0000       0.140061         3.8112

MULLIKEN ATOMIC CHARGES
-----------------------
   0 C :   -0.274682
   1 C :    0.036697
   2 O :   -0.354358
   3 C :    0.417745
   4 O :   -0.416275
   5 C :   -0.162499
   6 C :    0.155556
   7 C :   -0.279799
   8 N :   -0.128614
   9 C :    0.207450
  10 S :   -0.441871
  11 N :   -0.210978
  12 C :    0.041080
  13 C :    0.031871
  14 C :   -0.170548
  15 C :   -0.134499
  16 C :   -0.277327
  17 C :    0.313978
  18 O :   -0.358873
  19 C :   -0.251134
  20 H :    0.090084
  21 H :    0.090387
  22 H :    0.112290
  23 H :    0.100734
  24 H :    0.100479
  25 H :    0.126003
  26 H :    0.101673
  27 H :    0.128325
  28 H :    0.198920
  29 H :    0.199986
  30 H :    0.155795
  31 H :    0.159818
  32 H :    0.160351
  33 H :    0.128479
  34 H :    0.239988
  35 H :    0.163767
Sum of atomic charges:   -0.0000000

LOEWDIN ATOMIC CHARGES
----------------------
   0 C :    0.104650
   1 C :   -0.016138
   2 O :    0.303326
   3 C :   -0.416967
   4 O :    0.109511
   5 C :   -0.092796
   6 C :   -0.064341
   7 C :    0.125558
   8 N :    0.405581
   9 C :   -0.458494
  10 S :   -0.037261
  11 N :    0.396308
  12 C :   -0.048250
  13 C :   -0.040812
  14 C :    0.024416
  15 C :    0.040763
  16 C :   -0.001219
  17 C :   -0.192578
  18 O :    0.393148
  19 C :    0.029554
  20 H :   -0.029741
  21 H :   -0.028230
  22 H :   -0.023090
  23 H :   -0.028364
  24 H :   -0.025875
  25 H :   -0.008955
  26 H :   -0.021017
  27 H :   -0.009293
  28 H :   -0.058589
  29 H :   -0.063190
  30 H :   -0.008078
  31 H :   -0.023893
  32 H :   -0.020966
  33 H :   -0.036104
  34 H :   -0.154782
  35 H :   -0.023793

  Mayer bond orders larger than 0.100000
B(  0-C ,  1-C ) :   0.9724 B(  0-C , 20-H ) :   0.9779 B(  0-C , 21-H ) :   0.9763
B(  0-C , 22-H ) :   0.9754 B(  1-C ,  2-O ) :   0.8964 B(  1-C , 23-H ) :   0.9833
B(  1-C , 24-H ) :   0.9731 B(  2-O ,  3-C ) :   1.1052 B(  3-C ,  4-O ) :   1.9862
B(  3-C ,  5-C ) :   1.0477 B(  5-C ,  6-C ) :   1.6558 B(  5-C , 12-C ) :   0.9464
B(  6-C ,  7-C ) :   0.9550 B(  6-C ,  8-N ) :   1.1346 B(  7-C , 25-H ) :   0.9655
B(  7-C , 26-H ) :   0.9907 B(  7-C , 27-H ) :   0.9635 B(  8-N ,  9-C ) :   1.1854
B(  8-N , 28-H ) :   0.9469 B(  9-C , 10-S ) :   1.6089 B(  9-C , 11-N ) :   1.3057
B( 11-N , 12-C ) :   0.9757 B( 11-N , 29-H ) :   0.9484 B( 12-C , 13-C ) :   0.9724
B( 12-C , 30-H ) :   0.9968 B( 13-C , 14-C ) :   1.3764 B( 13-C , 19-C ) :   1.3657
B( 14-C , 15-C ) :   1.3972 B( 14-C , 31-H ) :   0.9636 B( 15-C , 16-C ) :   1.3588
B( 15-C , 32-H ) :   0.9711 B( 16-C , 17-C ) :   1.3332 B( 16-C , 33-H ) :   0.9859
B( 17-C , 18-O ) :   1.1038 B( 17-C , 19-C ) :   1.3673 B( 18-O , 34-H ) :   0.9806
B( 19-C , 35-H ) :   0.9601

MP2 TOTAL ENERGY:    -1274.334877071 Eh
FINAL SINGLE POINT ENERGY     -1274.334877071311

DIPOLE MOMENT
-------------
                                X             Y             Z
Electronic contribution:      9.76102      10.02686      11.96955
Nuclear contribution   :    -11.37445     -11.19507     -12.77825
                        -----------------------------------------
Total Dipole Moment    :     -1.61343      -1.16821      -0.80869
                        -----------------------------------------
Magnitude (a.u.)       :      2.14985
Magnitude (Debye)      :      5.46448

Rotational constants in cm-1:     0.009893     0.009001     0.005506
Rotational constants in MHz :   296.580463   269.837181   165.071720

                             ****ORCA TERMINATED NORMALLY****
TOTAL RUN TIME: 0 days 1 hours 32 minutes 28 seconds 108 msec
