                         Program Version 4.2.0 -  RELEASE  -
|  1> ! ri-mp2 cc-pvtz cc-pvtz/c TightSCF NoKeepInts
|  2>
|  3> %scf
|  4>   MaxCore 4096
|  5> end
|  6> *xyz  0  1
|  7>     C       14.8058526   15.0088439   15.8770794
|  8>     C       14.8219665   16.2426076   14.9468116
|  9>     O       16.1653672   16.6415125   14.5940024
| 10>     C       17.1578429   16.5892738   15.5271848
| 11>     O       17.8918570   15.6219873   15.6274813
| 12>     C       17.2003815   17.7542989   16.4701325
| 13>     C       16.9563203   19.0266605   16.0637852
| 14>     C       16.4229586   19.4816357   14.7197393
| 15>     N       17.2610216   20.1091095   16.8926652
| 16>     C       18.0061311   20.0200149   18.0380701
| 17>     S       18.4163770   21.3592680   18.9172259
| 18>     N       18.4118462   18.7619432   18.4071713
| 19>     C       17.9883237   17.5050790   17.7593418
| 20>     C       17.2863438   16.5368944   18.7014225
| 21>     C       17.7151373   15.2014510   18.8038153
| 22>     C       17.0542182   14.3022517   19.6571600
| 23>     C       15.9548745   14.7424319   20.4140928
| 24>     C       15.5234733   16.0720452   20.3112801
| 25>     O       14.4567581   16.4975705   21.0337050
| 26>     C       16.1824907   16.9644716   19.4597044
| 27>     H       15.3931999   14.1883155   15.4449147
| 28>     H       13.7786960   14.6518584   16.0187882
| 29>     H       15.2150135   15.2446803   16.8677477
| 30>     H       14.2607479   16.0195868   14.0301352
| 31>     H       14.3136981   17.0711774   15.4569678
| 32>     H       16.9774391   19.0099188   13.8982620
| 33>     H       16.5101297   20.5656951   14.5760067
| 34>     H       15.3644541   19.2192902   14.6081101
| 35>     H       16.9940345   21.0419421   16.6210478
| 36>     H       18.9469835   18.7221379   19.2655731
| 37>     H       18.9627430   17.1026699   17.4450863
| 38>     H       18.5543628   14.8558321   18.2040495
| 39>     H       17.3918485   13.2694082   19.7236709
| 40>     H       15.4405622   14.0504524   21.0727277
| 41>     H       14.1697785   15.7580272   21.5904062
| 42>     H       15.8337666   17.9896566   19.3926351
| 43> *
| 44>
| 45>                          ****END OF INPUT****

CARTESIAN COORDINATES (ANGSTROEM)
---------------------------------
  C     14.805853   15.008844   15.877079
  C     14.821967   16.242608   14.946812
  O     16.165367   16.641513   14.594002
  C     17.157843   16.589274   15.527185
  O     17.891857   15.621987   15.627481
  C     17.200381   17.754299   16.470132
  C     16.956320   19.026660   16.063785
  C     16.422959   19.481636   14.719739
  N     17.261022   20.109109   16.892665
  C     18.006131   20.020015   18.038070
  S     18.416377   21.359268   18.917226
  N     18.411846   18.761943   18.407171
  C     17.988324   17.505079   17.759342
  C     17.286344   16.536894   18.701422
  C     17.715137   15.201451   18.803815
  C     17.054218   14.302252   19.657160
  C     15.954875   14.742432   20.414093
  C     15.523473   16.072045   20.311280
  O     14.456758   16.497570   21.033705
  C     16.182491   16.964472   19.459704
  H     15.393200   14.188315   15.444915
  H     13.778696   14.651858   16.018788
  H     15.215013   15.244680   16.867748
  H     14.260748   16.019587   14.030135
  H     14.313698   17.071177   15.456968
  H     16.977439   19.009919   13.898262
  H     16.510130   20.565695   14.576007
  H     15.364454   19.219290   14.608110
  H     16.994035   21.041942   16.621048
  H     18.946984   18.722138   19.265573
  H     18.962743   17.102670   17.445086
  H     18.554363   14.855832   18.204049
  H     17.391848   13.269408   19.723671
  H     15.440562   14.050452   21.072728
  H     14.169778   15.758027   21.590406
  H     15.833767   17.989657   19.392635

 Total Charge           Charge          ....    0
 Multiplicity           Mult            ....    1
 Number of Electrons    NEL             ....  154
 Basis Dimension        Dim             ....  828

ORBITAL ENERGIES
----------------

  NO   OCC          E(Eh)            E(eV)
   0   2.0000     -91.890009     -2500.4543
   1   2.0000     -20.596488      -560.4589
   2   2.0000     -20.586645      -560.1911
   3   2.0000     -20.552505      -559.2621
   4   2.0000     -15.630579      -425.3297
   5   2.0000     -15.607866      -424.7116
   6   2.0000     -11.394494      -310.0599
   7   2.0000     -11.384935      -309.7998
   8   2.0000     -11.339573      -308.5655
   9   2.0000     -11.313097      -307.8450
  10   2.0000     -11.308097      -307.7090
  11   2.0000     -11.306058      -307.6535
  12   2.0000     -11.262172      -306.4593
  13   2.0000     -11.260257      -306.4072
  14   2.0000     -11.259762      -306.3937
  15   2.0000     -11.252923      -306.2076
  16   2.0000     -11.243041      -305.9387
  17   2.0000     -11.239091      -305.8312
  18   2.0000     -11.235396      -305.7307
  19   2.0000     -11.227924      -305.5273
  20   2.0000      -8.895086      -242.0476
  21   2.0000      -6.576660      -178.9600
  22   2.0000      -6.574658      -178.9055
  23   2.0000      -6.574068      -178.8895
  24   2.0000      -1.448015       -39.4025
  25   2.0000      -1.416267       -38.5386
  26   2.0000      -1.357983       -36.9526
  27   2.0000      -1.341701       -36.5095
  28   2.0000      -1.238957       -33.7137
  29   2.0000      -1.157327       -31.4925
  30   2.0000      -1.123089       -30.5608
  31   2.0000      -1.045161       -28.4403
  32   2.0000      -1.032745       -28.1024
  33   2.0000      -1.014905       -27.6170
  34   2.0000      -1.002557       -27.2810
  35   2.0000      -0.987269       -26.8649
  36   2.0000      -0.924224       -25.1494
  37   2.0000      -0.894239       -24.3335
  38   2.0000      -0.851489       -23.1702
  39   2.0000      -0.839639       -22.8477
  40   2.0000      -0.832978       -22.6665
  41   2.0000      -0.826424       -22.4881
  42   2.0000      -0.744903       -20.2698
  43   2.0000      -0.730172       -19.8690
  44   2.0000      -0.729216       -19.8430
  45   2.0000      -0.693808       -18.8795
  46   2.0000      -0.685269       -18.6471
  47   2.0000      -0.681407       -18.5420
  48   2.0000      -0.677328       -18.4310
  49   2.0000      -0.665458       -18.1080
  50   2.0000      -0.650929       -17.7127
  51   2.0000      -0.646118       -17.5818
  52   2.0000      -0.635758       -17.2999
  53   2.0000      -0.621218       -16.9042
  54   2.0000      -0.606903       -16.5147
  55   2.0000      -0.602573       -16.3968
  56   2.0000      -0.599943       -16.3253
  57   2.0000      -0.578954       -15.7541
  58   2.0000      -0.575212       -15.6523
  59   2.0000      -0.566012       -15.4020
  60   2.0000      -0.554981       -15.1018
  61   2.0000      -0.548335       -14.9210
  62   2.0000      -0.540758       -14.7148
  63   2.0000      -0.530914       -14.4469
  64   2.0000      -0.519337       -14.1319
  65   2.0000      -0.511561       -13.9203
  66   2.0000      -0.498989       -13.5782
  67   2.0000      -0.491006       -13.3609
  68   2.0000      -0.485455       -13.2099
  69   2.0000      -0.466633       -12.6977
  70   2.0000      -0.459369       -12.5001
  71   2.0000      -0.449377       -12.2282
  72   2.0000      -0.355507        -9.6738
  73   2.0000      -0.349290        -9.5047
  74   2.0000      -0.329121        -8.9558
  75   2.0000      -0.320166        -8.7122
  76   2.0000      -0.319268        -8.6877
  77   0.0000       0.073055         1.9879
  78   0.0000       0.105586         2.8731
  79   0.0000       0.120035         3.2663
  80   0.0000       0.132050         3.5933
  81   0.0000       0.138012         3.7555

MULLIKEN ATOMIC CHARGES
-----------------------
   0 C :   -0.297958
   1 C :    0.032902
   2 O :   -0.377713
   3 C :    0.459121
   4 O :   -0.386199
   5 C :   -0.228337
   6 C :    0.157948
   7 C :   -0.289958
   8 N :   -0.127890
   9 C :    0.206774
  10 S :   -0.439853
  11 N :   -0.213629
  12 C :    0.060513
  13 C :   -0.009503
  14 C :   -0.172048
  15 C :   -0.135029
  16 C :   -0.273292
  17 C :    0.306096
  18 O :   -0.358363
  19 C :   -0.228761
  20 H :    0.115216
  21 H :    0.102566
  22 H :    0.114821
  23 H :    0.114572
  24 H :    0.080045
  25 H :    0.134432
  26 H :    0.107185
  27 H :    0.121274
  28 H :    0.198255
  29 H :    0.199818
  30 H :    0.158592
  31 H :    0.167115
  32 H :    0.162035
  33 H :    0.131233
  34 H :    0.240722
  35 H :    0.167297
Sum of atomic charges:   -0.0000000

LOEWDIN ATOMIC CHARGES
----------------------
   0 C :    0.109291
   1 C :   -0.020095
   2 O :    0.289274
   3 C :   -0.423325
   4 O :    0.127480
   5 C :   -0.097423
   6 C :   -0.067918
   7 C :    0.127257
   8 N :    0.405511
   9 C :   -0.457903
  10 S :   -0.035933
  11 N :    0.396121
  12 C :   -0.048945
  13 C :   -0.044123
  14 C :    0.023755
  15 C :    0.042041
  16 C :   -0.000756
  17 C :   -0.193305
  18 O :    0.393963
  19 C :    0.027611
  20 H :   -0.020585
  21 H :   -0.025030
  22 H :   -0.024571
  23 H :   -0.021954
  24 H :   -0.039114
  25 H :   -0.005929
  26 H :   -0.019288
  27 H :   -0.012559
  28 H :   -0.058215
  29 H :   -0.063464
  30 H :   -0.006781
  31 H :   -0.022545
  32 H :   -0.019779
  33 H :   -0.035263
  34 H :   -0.153906
  35 H :   -0.023595

  Mayer bond orders larger than 0.100000
B(  0-C ,  1-C ) :   0.9759 B(  0-C , 20-H ) :   0.9723 B(  0-C , 21-H ) :   0.9754
B(  0-C , 22-H ) :   0.9660 B(  1-C ,  2-O ) :   0.9026 B(  1-C , 23-H ) :   0.9777
B(  1-C , 24-H ) :   0.9740 B(  2-O ,  3-C ) :   1.0765 B(  3-C ,  4-O ) :   2.0571
B(  3-C ,  5-C ) :   0.9996 B(  5-C ,  6-C ) :   1.6754 B(  5-C , 12-C ) :   0.9446
B(  6-C ,  7-C ) :   0.9485 B(  6-C ,  8-N ) :   1.1416 B(  7-C , 25-H ) :   0.9649
B(  7-C , 26-H ) :   0.9885 B(  7-C , 27-H ) :   0.9678 B(  8-N ,  9-C ) :   1.1844
B(  8-N , 28-H ) :   0.9475 B(  9-C , 10-S ) :   1.6122 B(  9-C , 11-N ) :   1.3013
B( 11-N , 12-C ) :   0.9838 B( 11-N , 29-H ) :   0.9488 B( 12-C , 13-C ) :   0.9670
B( 12-C , 30-H ) :   0.9948 B( 13-C , 14-C ) :   1.3870 B( 13-C , 19-C ) :   1.3641
B( 14-C , 15-C ) :   1.3956 B( 14-C , 31-H ) :   0.9602 B( 15-C , 16-C ) :   1.3595
B( 15-C , 32-H ) :   0.9709 B( 16-C , 17-C ) :   1.3326 B( 16-C , 33-H ) :   0.9848
B( 17-C , 18-O ) :   1.1071 B( 17-C , 19-C ) :   1.3670 B( 18-O , 34-H ) :   0.9799
B( 19-C , 35-H ) :   0.9587

MP2 TOTAL ENERGY:    -1274.327563994 Eh
FINAL SINGLE POINT ENERGY     -1274.327563994231

DIPOLE MOMENT
-------------
                                X             Y             Z
Electronic contribution:      9.27334       9.17589       7.19307
Nuclear contribution   :    -10.83521     -10.28242      -7.79377
                        -----------------------------------------
Total Dipole Moment    :     -1.56187      -1.10653      -0.60070
                        -----------------------------------------
Magnitude (a.u.)       :      2.00616
Magnitude (Debye)      :      5.09926

Rotational constants in cm-1:     0.011397     0.009218     0.006237
Rotational constants in MHz :   341.684069   276.349176   186.994733

                             ****ORCA TERMINATED NORMALLY****
TOTAL RUN TIME: 0 days 1 hours 59 minutes 37 seconds 445 msec
