                         Program Version 4.2.0 -  RELEASE  -
|  1> ! ri-mp2 cc-pvtz cc-pvtz/c TightSCF NoKeepInts
|  2>
|  3> %scf
|  4>   MaxCore 4096
|  5> end
|  6> *xyz  0  1
|  7>     C       14.4888181   16.4405386   16.2573998
|  8>     C       15.1048681   16.0286130   14.9014104
|  9>     O       16.5305340   15.7672485   14.9412419
| 10>     C       17.5610343   16.4783839   15.5133743
| 11>     O       18.7127017   16.1160005   15.3611416
| 12>     C       17.2316721   17.5779241   16.4616400
| 13>     C       16.8683138   18.7847013   15.9656698
| 14>     C       16.4803855   19.0990919   14.5349943
| 15>     N       16.8881727   19.9259528   16.7692270
| 16>     C       17.5093057   19.9924485   17.9887350
| 17>     S       17.6062862   21.4061530   18.8410649
| 18>     N       18.0713057   18.8282943   18.4532097
| 19>     C       17.9062832   17.4987818   17.8312569
| 20>     C       17.3054417   16.4306327   18.7319668
| 21>     C       17.8098589   15.1183076   18.6991589
| 22>     C       17.2476164   14.1170182   19.5082850
| 23>     C       16.1698976   14.4305512   20.3542190
| 24>     C       15.6614531   15.7364315   20.3839501
| 25>     O       14.6138848   16.0390017   21.1912125
| 26>     C       16.2227988   16.7315622   19.5772973
| 27>     H       14.9308888   15.8633479   17.0792378
| 28>     H       13.4123529   16.2300662   16.2525639
| 29>     H       14.5980994   17.5091531   16.4653673
| 30>     H       14.6074430   15.1114209   14.5597813
| 31>     H       14.8861599   16.8033157   14.1565048
| 32>     H       16.8515041   18.3492829   13.8255481
| 33>     H       16.9023262   20.0598432   14.2127702
| 34>     H       15.3908075   19.1595142   14.4278155
| 35>     H       16.5163463   20.7957680   16.4214523
| 36>     H       18.5245576   18.9028500   19.3553873
| 37>     H       18.9597714   17.2572435   17.6244086
| 38>     H       18.6362470   14.8728228   18.0348180
| 39>     H       17.6451893   13.1040084   19.4739754
| 40>     H       15.7316023   13.6594475   20.9791743
| 41>     H       14.3931663   15.2397729   21.6929423
| 42>     H       15.8099053   17.7345055   19.6097977
| 43> *
| 44>
| 45>                          ****END OF INPUT****

CARTESIAN COORDINATES (ANGSTROEM)
---------------------------------
  C     14.488818   16.440539   16.257400
  C     15.104868   16.028613   14.901410
  O     16.530534   15.767248   14.941242
  C     17.561034   16.478384   15.513374
  O     18.712702   16.116000   15.361142
  C     17.231672   17.577924   16.461640
  C     16.868314   18.784701   15.965670
  C     16.480386   19.099092   14.534994
  N     16.888173   19.925953   16.769227
  C     17.509306   19.992448   17.988735
  S     17.606286   21.406153   18.841065
  N     18.071306   18.828294   18.453210
  C     17.906283   17.498782   17.831257
  C     17.305442   16.430633   18.731967
  C     17.809859   15.118308   18.699159
  C     17.247616   14.117018   19.508285
  C     16.169898   14.430551   20.354219
  C     15.661453   15.736432   20.383950
  O     14.613885   16.039002   21.191212
  C     16.222799   16.731562   19.577297
  H     14.930889   15.863348   17.079238
  H     13.412353   16.230066   16.252564
  H     14.598099   17.509153   16.465367
  H     14.607443   15.111421   14.559781
  H     14.886160   16.803316   14.156505
  H     16.851504   18.349283   13.825548
  H     16.902326   20.059843   14.212770
  H     15.390807   19.159514   14.427815
  H     16.516346   20.795768   16.421452
  H     18.524558   18.902850   19.355387
  H     18.959771   17.257244   17.624409
  H     18.636247   14.872823   18.034818
  H     17.645189   13.104008   19.473975
  H     15.731602   13.659448   20.979174
  H     14.393166   15.239773   21.692942
  H     15.809905   17.734506   19.609798

 Total Charge           Charge          ....    0
 Multiplicity           Mult            ....    1
 Number of Electrons    NEL             ....  154
 Basis Dimension        Dim             ....  828

ORBITAL ENERGIES
----------------

  NO   OCC          E(Eh)            E(eV)
   0   2.0000     -91.889130     -2500.4304
   1   2.0000     -20.600679      -560.5730
   2   2.0000     -20.599534      -560.5418
   3   2.0000     -20.549583      -559.1826
   4   2.0000     -15.626528      -425.2194
   5   2.0000     -15.609389      -424.7531
   6   2.0000     -11.401322      -310.2457
   7   2.0000     -11.385127      -309.8051
   8   2.0000     -11.329130      -308.2813
   9   2.0000     -11.316996      -307.9511
  10   2.0000     -11.313128      -307.8459
  11   2.0000     -11.310918      -307.7857
  12   2.0000     -11.269016      -306.6455
  13   2.0000     -11.264896      -306.5334
  14   2.0000     -11.262355      -306.4642
  15   2.0000     -11.257721      -306.3382
  16   2.0000     -11.246064      -306.0210
  17   2.0000     -11.241643      -305.9007
  18   2.0000     -11.239832      -305.8514
  19   2.0000     -11.233980      -305.6921
  20   2.0000      -8.894242      -242.0246
  21   2.0000      -6.575826      -178.9373
  22   2.0000      -6.573811      -178.8825
  23   2.0000      -6.573232      -178.8667
  24   2.0000      -1.444084       -39.2955
  25   2.0000      -1.419261       -38.6201
  26   2.0000      -1.358540       -36.9678
  27   2.0000      -1.339936       -36.4615
  28   2.0000      -1.238675       -33.7061
  29   2.0000      -1.161421       -31.6039
  30   2.0000      -1.126542       -30.6548
  31   2.0000      -1.048787       -28.5389
  32   2.0000      -1.040416       -28.3111
  33   2.0000      -1.019445       -27.7405
  34   2.0000      -1.006826       -27.3971
  35   2.0000      -0.990425       -26.9508
  36   2.0000      -0.927077       -25.2271
  37   2.0000      -0.900870       -24.5139
  38   2.0000      -0.853188       -23.2164
  39   2.0000      -0.841499       -22.8984
  40   2.0000      -0.836768       -22.7696
  41   2.0000      -0.829123       -22.5616
  42   2.0000      -0.746861       -20.3231
  43   2.0000      -0.737838       -20.0776
  44   2.0000      -0.732281       -19.9264
  45   2.0000      -0.696723       -18.9588
  46   2.0000      -0.688626       -18.7385
  47   2.0000      -0.677999       -18.4493
  48   2.0000      -0.673889       -18.3375
  49   2.0000      -0.664241       -18.0749
  50   2.0000      -0.655577       -17.8391
  51   2.0000      -0.651040       -17.7157
  52   2.0000      -0.639450       -17.4003
  53   2.0000      -0.614993       -16.7348
  54   2.0000      -0.609257       -16.5787
  55   2.0000      -0.605650       -16.4806
  56   2.0000      -0.602866       -16.4048
  57   2.0000      -0.590774       -16.0758
  58   2.0000      -0.578884       -15.7522
  59   2.0000      -0.576042       -15.6749
  60   2.0000      -0.563804       -15.3419
  61   2.0000      -0.558402       -15.1949
  62   2.0000      -0.543267       -14.7830
  63   2.0000      -0.530272       -14.4294
  64   2.0000      -0.519653       -14.1405
  65   2.0000      -0.513359       -13.9692
  66   2.0000      -0.504406       -13.7256
  67   2.0000      -0.501458       -13.6454
  68   2.0000      -0.486990       -13.2517
  69   2.0000      -0.463679       -12.6173
  70   2.0000      -0.453609       -12.3433
  71   2.0000      -0.453333       -12.3358
  72   2.0000      -0.354671        -9.6511
  73   2.0000      -0.350121        -9.5273
  74   2.0000      -0.328737        -8.9454
  75   2.0000      -0.324997        -8.8436
  76   2.0000      -0.318768        -8.6741
  77   0.0000       0.088900         2.4191
  78   0.0000       0.105854         2.8804
  79   0.0000       0.113637         3.0922
  80   0.0000       0.127352         3.4654
  81   0.0000       0.130032         3.5384

MULLIKEN ATOMIC CHARGES
-----------------------
   0 C :   -0.329127
   1 C :    0.036769
   2 O :   -0.326841
   3 C :    0.425998
   4 O :   -0.382028
   5 C :   -0.198978
   6 C :    0.140235
   7 C :   -0.339557
   8 N :   -0.143288
   9 C :    0.210226
  10 S :   -0.444322
  11 N :   -0.227947
  12 C :    0.067471
  13 C :    0.015993
  14 C :   -0.219641
  15 C :   -0.130856
  16 C :   -0.276964
  17 C :    0.320858
  18 O :   -0.356406
  19 C :   -0.259146
  20 H :    0.127272
  21 H :    0.116197
  22 H :    0.107914
  23 H :    0.131528
  24 H :    0.084244
  25 H :    0.131292
  26 H :    0.133485
  27 H :    0.123456
  28 H :    0.197985
  29 H :    0.204223
  30 H :    0.170746
  31 H :    0.175600
  32 H :    0.164437
  33 H :    0.132382
  34 H :    0.241271
  35 H :    0.175518
Sum of atomic charges:   -0.0000000

LOEWDIN ATOMIC CHARGES
----------------------
   0 C :    0.101656
   1 C :   -0.014624
   2 O :    0.296829
   3 C :   -0.416821
   4 O :    0.120758
   5 C :   -0.077916
   6 C :   -0.095610
   7 C :    0.125397
   8 N :    0.402196
   9 C :   -0.456267
  10 S :   -0.039394
  11 N :    0.396770
  12 C :   -0.048506
  13 C :   -0.044022
  14 C :    0.018900
  15 C :    0.045426
  16 C :   -0.000370
  17 C :   -0.191551
  18 O :    0.395765
  19 C :    0.028832
  20 H :   -0.020944
  21 H :   -0.024267
  22 H :   -0.035417
  23 H :   -0.017267
  24 H :   -0.037488
  25 H :   -0.007625
  26 H :   -0.010058
  27 H :   -0.018156
  28 H :   -0.058103
  29 H :   -0.063759
  30 H :   -0.003202
  31 H :   -0.021327
  32 H :   -0.018298
  33 H :   -0.034740
  34 H :   -0.153231
  35 H :   -0.023564

  Mayer bond orders larger than 0.100000
B(  0-C ,  1-C ) :   0.9497 B(  0-C , 20-H ) :   0.9669 B(  0-C , 21-H ) :   0.9788
B(  0-C , 22-H ) :   0.9753 B(  1-C ,  2-O ) :   0.9101 B(  1-C , 23-H ) :   0.9809
B(  1-C , 24-H ) :   0.9745 B(  2-O ,  3-C ) :   1.1711 B(  3-C ,  4-O ) :   2.0927
B(  3-C ,  5-C ) :   0.9192 B(  5-C ,  6-C ) :   1.7316 B(  5-C , 12-C ) :   0.9364
B(  6-C ,  7-C ) :   0.9371 B(  6-C ,  8-N ) :   1.0902 B(  7-C , 25-H ) :   0.9768
B(  7-C , 26-H ) :   0.9771 B(  7-C , 27-H ) :   0.9652 B(  8-N ,  9-C ) :   1.2008
B(  8-N , 28-H ) :   0.9508 B(  9-C , 10-S ) :   1.6075 B(  9-C , 11-N ) :   1.2897
B( 11-N , 12-C ) :   0.9767 B( 11-N , 29-H ) :   0.9467 B( 12-C , 13-C ) :   0.9660
B( 12-C , 30-H ) :   0.9882 B( 13-C , 14-C ) :   1.3856 B( 13-C , 19-C ) :   1.3504
B( 14-C , 15-C ) :   1.3979 B( 14-C , 31-H ) :   0.9598 B( 15-C , 16-C ) :   1.3612
B( 15-C , 32-H ) :   0.9697 B( 16-C , 17-C ) :   1.3309 B( 16-C , 33-H ) :   0.9846
B( 17-C , 18-O ) :   1.1099 B( 17-C , 19-C ) :   1.3630 B( 18-O , 34-H ) :   0.9793
B( 19-C , 35-H ) :   0.9566

MP2 TOTAL ENERGY:    -1274.320133385 Eh
FINAL SINGLE POINT ENERGY     -1274.320133384725

DIPOLE MOMENT
-------------
                                X             Y             Z
Electronic contribution:      8.94066       6.03613       7.24119
Nuclear contribution   :    -10.63062      -7.31576      -7.81795
                        -----------------------------------------
Total Dipole Moment    :     -1.68996      -1.27963      -0.57676
                        -----------------------------------------
Magnitude (a.u.)       :      2.19683
Magnitude (Debye)      :      5.58391

Rotational constants in cm-1:     0.011509     0.009238     0.006504
Rotational constants in MHz :   345.016599   276.960208   194.971203

                             ****ORCA TERMINATED NORMALLY****
TOTAL RUN TIME: 0 days 1 hours 56 minutes 34 seconds 96 msec
