                         Program Version 4.2.0 -  RELEASE  -
|  1> ! ri-mp2 cc-pvtz cc-pvtz/c TightSCF NoKeepInts
|  2>
|  3> %scf
|  4>   MaxCore 4096
|  5> end
|  6> *xyz  0  1
|  7>     C       15.1609070   14.0770096   15.8239682
|  8>     C       15.0520194   15.6098941   15.8863618
|  9>     O       16.2705836   16.1570869   15.3570261
| 10>     C       16.3171332   17.5097901   15.2114104
| 11>     O       15.8538031   18.0242234   14.2103173
| 12>     C       16.8537457   18.2557014   16.4077245
| 13>     C       16.9363595   19.6125732   16.3770801
| 14>     C       16.2426405   20.5561936   15.4155598
| 15>     N       17.7163139   20.3113461   17.3010057
| 16>     C       18.6289395   19.7296599   18.1371233
| 17>     S       19.6127719   20.6232065   19.1213752
| 18>     N       18.7042257   18.3613557   18.0957167
| 19>     C       17.7820904   17.4763670   17.3595491
| 20>     C       17.1030837   16.4774257   18.2839645
| 21>     C       17.5277006   15.1370998   18.3252837
| 22>     C       16.9112455   14.2206914   19.1939922
| 23>     C       15.8673687   14.6504552   20.0312524
| 24>     C       15.4531705   15.9891971   20.0020784
| 25>     O       14.4481248   16.4081629   20.8110247
| 26>     C       16.0689860   16.8992626   19.1371698
| 27>     H       14.2549123   13.6107159   16.2292933
| 28>     H       16.0192037   13.7206938   16.4046487
| 29>     H       15.2847878   13.7428775   14.7862952
| 30>     H       14.1981564   15.9372937   15.2774092
| 31>     H       14.8818071   15.9360132   16.9188316
| 32>     H       15.1870520   20.2818897   15.2938058
| 33>     H       16.7101150   20.5084461   14.4234728
| 34>     H       16.2681145   21.6012649   15.7461342
| 35>     H       17.6933376   21.3185660   17.3152225
| 36>     H       19.3704270   17.9583219   18.7426287
| 37>     H       18.5039444   16.9685941   16.7037800
| 38>     H       18.3334649   14.8032910   17.6764376
| 39>     H       17.2429703   13.1838523   19.2168260
| 40>     H       15.3882777   13.9458767   20.7033716
| 41>     H       14.1945516   15.6609126   21.3739455
| 42>     H       15.7446646   17.9346886   19.1369134
| 43> *
| 44>
| 45>                          ****END OF INPUT****

CARTESIAN COORDINATES (ANGSTROEM)
---------------------------------
  C     15.160907   14.077010   15.823968
  C     15.052019   15.609894   15.886362
  O     16.270584   16.157087   15.357026
  C     16.317133   17.509790   15.211410
  O     15.853803   18.024223   14.210317
  C     16.853746   18.255701   16.407725
  C     16.936359   19.612573   16.377080
  C     16.242641   20.556194   15.415560
  N     17.716314   20.311346   17.301006
  C     18.628939   19.729660   18.137123
  S     19.612772   20.623206   19.121375
  N     18.704226   18.361356   18.095717
  C     17.782090   17.476367   17.359549
  C     17.103084   16.477426   18.283964
  C     17.527701   15.137100   18.325284
  C     16.911245   14.220691   19.193992
  C     15.867369   14.650455   20.031252
  C     15.453171   15.989197   20.002078
  O     14.448125   16.408163   20.811025
  C     16.068986   16.899263   19.137170
  H     14.254912   13.610716   16.229293
  H     16.019204   13.720694   16.404649
  H     15.284788   13.742878   14.786295
  H     14.198156   15.937294   15.277409
  H     14.881807   15.936013   16.918832
  H     15.187052   20.281890   15.293806
  H     16.710115   20.508446   14.423473
  H     16.268114   21.601265   15.746134
  H     17.693338   21.318566   17.315223
  H     19.370427   17.958322   18.742629
  H     18.503944   16.968594   16.703780
  H     18.333465   14.803291   17.676438
  H     17.242970   13.183852   19.216826
  H     15.388278   13.945877   20.703372
  H     14.194552   15.660913   21.373946
  H     15.744665   17.934689   19.136913

 Total Charge           Charge          ....    0
 Multiplicity           Mult            ....    1
 Number of Electrons    NEL             ....  154
 Basis Dimension        Dim             ....  828

ORBITAL ENERGIES
----------------

  NO   OCC          E(Eh)            E(eV)
   0   2.0000     -91.891436     -2500.4931
   1   2.0000     -20.603079      -560.6383
   2   2.0000     -20.582285      -560.0724
   3   2.0000     -20.546151      -559.0892
   4   2.0000     -15.631722      -425.3608
   5   2.0000     -15.609579      -424.7582
   6   2.0000     -11.390889      -309.9618
   7   2.0000     -11.385617      -309.8184
   8   2.0000     -11.340370      -308.5871
   9   2.0000     -11.321008      -308.0603
  10   2.0000     -11.312137      -307.8189
  11   2.0000     -11.294468      -307.3381
  12   2.0000     -11.267083      -306.5929
  13   2.0000     -11.262340      -306.4639
  14   2.0000     -11.259911      -306.3978
  15   2.0000     -11.253372      -306.2198
  16   2.0000     -11.250926      -306.1533
  17   2.0000     -11.245422      -306.0035
  18   2.0000     -11.245160      -305.9964
  19   2.0000     -11.225282      -305.4554
  20   2.0000      -8.896482      -242.0856
  21   2.0000      -6.578048      -178.9978
  22   2.0000      -6.576056      -178.9436
  23   2.0000      -6.575458      -178.9273
  24   2.0000      -1.448034       -39.4030
  25   2.0000      -1.422820       -38.7169
  26   2.0000      -1.353081       -36.8192
  27   2.0000      -1.343596       -36.5611
  28   2.0000      -1.241714       -33.7887
  29   2.0000      -1.164180       -31.6789
  30   2.0000      -1.123149       -30.5624
  31   2.0000      -1.048075       -28.5196
  32   2.0000      -1.033556       -28.1245
  33   2.0000      -1.022332       -27.8191
  34   2.0000      -0.999772       -27.2052
  35   2.0000      -0.987612       -26.8743
  36   2.0000      -0.925925       -25.1957
  37   2.0000      -0.876408       -23.8483
  38   2.0000      -0.850225       -23.1358
  39   2.0000      -0.843512       -22.9531
  40   2.0000      -0.840703       -22.8767
  41   2.0000      -0.831148       -22.6167
  42   2.0000      -0.762771       -20.7561
  43   2.0000      -0.738997       -20.1091
  44   2.0000      -0.724849       -19.7241
  45   2.0000      -0.701957       -19.1012
  46   2.0000      -0.691037       -18.8041
  47   2.0000      -0.679170       -18.4812
  48   2.0000      -0.673979       -18.3399
  49   2.0000      -0.655897       -17.8479
  50   2.0000      -0.649782       -17.6815
  51   2.0000      -0.642291       -17.4776
  52   2.0000      -0.630035       -17.1441
  53   2.0000      -0.623262       -16.9598
  54   2.0000      -0.613235       -16.6870
  55   2.0000      -0.605224       -16.4690
  56   2.0000      -0.603096       -16.4111
  57   2.0000      -0.582421       -15.8485
  58   2.0000      -0.571988       -15.5646
  59   2.0000      -0.567182       -15.4338
  60   2.0000      -0.552654       -15.0385
  61   2.0000      -0.543597       -14.7920
  62   2.0000      -0.532244       -14.4831
  63   2.0000      -0.530077       -14.4241
  64   2.0000      -0.519236       -14.1291
  65   2.0000      -0.516759       -14.0617
  66   2.0000      -0.505913       -13.7666
  67   2.0000      -0.500617       -13.6225
  68   2.0000      -0.485095       -13.2001
  69   2.0000      -0.464960       -12.6522
  70   2.0000      -0.460906       -12.5419
  71   2.0000      -0.444730       -12.1017
  72   2.0000      -0.356255        -9.6942
  73   2.0000      -0.355278        -9.6676
  74   2.0000      -0.331226        -9.0131
  75   2.0000      -0.327959        -8.9242
  76   2.0000      -0.321216        -8.7407
  77   0.0000       0.071106         1.9349
  78   0.0000       0.097596         2.6557
  79   0.0000       0.121772         3.3136
  80   0.0000       0.128150         3.4871
  81   0.0000       0.129713         3.5297

MULLIKEN ATOMIC CHARGES
-----------------------
   0 C :   -0.270281
   1 C :    0.011637
   2 O :   -0.369161
   3 C :    0.485448
   4 O :   -0.397055
   5 C :   -0.304924
   6 C :    0.184794
   7 C :   -0.265657
   8 N :   -0.127328
   9 C :    0.209760
  10 S :   -0.438437
  11 N :   -0.213419
  12 C :    0.061813
  13 C :   -0.004453
  14 C :   -0.171407
  15 C :   -0.141042
  16 C :   -0.264376
  17 C :    0.308381
  18 O :   -0.356956
  19 C :   -0.231357
  20 H :    0.088811
  21 H :    0.093699
  22 H :    0.107886
  23 H :    0.112700
  24 H :    0.108161
  25 H :    0.129070
  26 H :    0.134540
  27 H :    0.093925
  28 H :    0.200091
  29 H :    0.201107
  30 H :    0.152316
  31 H :    0.159493
  32 H :    0.168449
  33 H :    0.134744
  34 H :    0.241767
  35 H :    0.167259
Sum of atomic charges:   -0.0000000

LOEWDIN ATOMIC CHARGES
----------------------
   0 C :    0.111173
   1 C :   -0.022472
   2 O :    0.294359
   3 C :   -0.424521
   4 O :    0.119263
   5 C :   -0.103954
   6 C :   -0.052810
   7 C :    0.130847
   8 N :    0.408135
   9 C :   -0.457787
  10 S :   -0.033327
  11 N :    0.394995
  12 C :   -0.054723
  13 C :   -0.041253
  14 C :    0.019523
  15 C :    0.045024
  16 C :    0.000927
  17 C :   -0.191670
  18 O :    0.396536
  19 C :    0.032615
  20 H :   -0.025620
  21 H :   -0.031728
  22 H :   -0.025401
  23 H :   -0.030034
  24 H :   -0.037193
  25 H :   -0.005017
  26 H :   -0.003842
  27 H :   -0.023371
  28 H :   -0.056338
  29 H :   -0.063938
  30 H :   -0.011694
  31 H :   -0.027814
  32 H :   -0.019659
  33 H :   -0.033803
  34 H :   -0.152481
  35 H :   -0.022947

  Mayer bond orders larger than 0.100000
B(  0-C ,  1-C ) :   0.9801 B(  0-C , 20-H ) :   0.9759 B(  0-C , 21-H ) :   0.9751
B(  0-C , 22-H ) :   0.9788 B(  1-C ,  2-O ) :   0.8860 B(  1-C , 23-H ) :   0.9794
B(  1-C , 24-H ) :   0.9632 B(  2-O ,  3-C ) :   1.1104 B(  3-C ,  4-O ) :   2.0509
B(  3-C ,  5-C ) :   1.0497 B(  5-C ,  6-C ) :   1.6298 B(  5-C , 12-C ) :   0.9551
B(  6-C ,  7-C ) :   0.9674 B(  6-C ,  8-N ) :   1.1573 B(  7-C , 25-H ) :   0.9643
B(  7-C , 26-H ) :   0.9550 B(  7-C , 27-H ) :   0.9889 B(  8-N ,  9-C ) :   1.1861
B(  8-N , 28-H ) :   0.9464 B(  9-C , 10-S ) :   1.6090 B(  9-C , 11-N ) :   1.3087
B( 11-N , 12-C ) :   0.9622 B( 11-N , 29-H ) :   0.9486 B( 12-C , 13-C ) :   0.9691
B( 12-C , 30-H ) :   1.0031 B( 13-C , 14-C ) :   1.3492 B( 13-C , 19-C ) :   1.3655
B( 14-C , 15-C ) :   1.3837 B( 14-C , 31-H ) :   0.9714 B( 15-C , 16-C ) :   1.3637
B( 15-C , 32-H ) :   0.9682 B( 16-C , 17-C ) :   1.3287 B( 16-C , 33-H ) :   0.9832
B( 17-C , 18-O ) :   1.1068 B( 17-C , 19-C ) :   1.3693 B( 18-O , 34-H ) :   0.9787
B( 19-C , 35-H ) :   0.9608

MP2 TOTAL ENERGY:    -1274.327707628 Eh
FINAL SINGLE POINT ENERGY     -1274.327707628372

DIPOLE MOMENT
-------------
                                X             Y             Z
Electronic contribution:      8.89496      10.82393       5.58494
Nuclear contribution   :    -10.04940     -12.30861      -5.24626
                        -----------------------------------------
Total Dipole Moment    :     -1.15444      -1.48469       0.33868
                        -----------------------------------------
Magnitude (a.u.)       :      1.91095
Magnitude (Debye)      :      4.85725

Rotational constants in cm-1:     0.012565     0.008519     0.006076
Rotational constants in MHz :   376.691885   255.408160   182.158103

                             ****ORCA TERMINATED NORMALLY****
TOTAL RUN TIME: 0 days 1 hours 46 minutes 10 seconds 287 msec
