                         Program Version 4.2.0 -  RELEASE  -
|  1> ! ri-mp2 cc-pvtz cc-pvtz/c TightSCF NoKeepInts
|  2>
|  3> %scf
|  4>   MaxCore 4096
|  5> end
|  6> *xyz  0  1
|  7>     C       14.2890307   16.5612257   15.8377318
|  8>     C       15.3491744   15.4464145   15.9615328
|  9>     O       16.5206550   15.7251292   15.1622518
| 10>     C       17.3807098   16.7884617   15.2861256
| 11>     O       18.2961694   16.9478796   14.5007991
| 12>     C       17.1374588   17.7524998   16.3962675
| 13>     C       16.8521641   19.0295506   16.0539362
| 14>     C       16.3974027   19.4889840   14.6853474
| 15>     N       17.0144809   20.0790718   16.9593916
| 16>     C       17.7013886   19.9679197   18.1393061
| 17>     S       17.9679707   21.2702769   19.1228948
| 18>     N       18.1818234   18.7194280   18.4516918
| 19>     C       17.8761324   17.4792847   17.7106386
| 20>     C       17.2899403   16.3704180   18.5668352
| 21>     C       17.8694404   15.0885689   18.5669214
| 22>     C       17.3154299   14.0572938   19.3437410
| 23>     C       16.1752531   14.3111662   20.1257013
| 24>     C       15.5983889   15.5886946   20.1285221
| 25>     O       14.4932773   15.8345068   20.8755943
| 26>     C       16.1504214   16.6131832   19.3530163
| 27>     H       14.5367368   17.4354855   16.4486787
| 28>     H       13.3177013   16.1904945   16.1875488
| 29>     H       14.1714785   16.8739083   14.7928681
| 30>     H       15.6061814   15.2794107   17.0110781
| 31>     H       14.9068528   14.5118997   15.5927784
| 32>     H       15.7286926   18.7564165   14.2179751
| 33>     H       17.2627480   19.6113026   14.0201394
| 34>     H       15.8606110   20.4444955   14.7217884
| 35>     H       16.7135171   21.0090008   16.7140782
| 36>     H       18.6811092   18.6657159   19.3308381
| 37>     H       18.8942762   17.2002524   17.4006028
| 38>     H       18.7473566   14.8886659   17.9568053
| 39>     H       17.7692224   13.0673239   19.3376058
| 40>     H       15.7444038   13.5168370   20.7267678
| 41>     H       14.2989499   15.0325881   21.3843702
| 42>     H       15.6904503   17.5962451   19.3658300
| 43> *
| 44>
| 45>                          ****END OF INPUT****

CARTESIAN COORDINATES (ANGSTROEM)
---------------------------------
  C     14.289031   16.561226   15.837732
  C     15.349174   15.446414   15.961533
  O     16.520655   15.725129   15.162252
  C     17.380710   16.788462   15.286126
  O     18.296169   16.947880   14.500799
  C     17.137459   17.752500   16.396268
  C     16.852164   19.029551   16.053936
  C     16.397403   19.488984   14.685347
  N     17.014481   20.079072   16.959392
  C     17.701389   19.967920   18.139306
  S     17.967971   21.270277   19.122895
  N     18.181823   18.719428   18.451692
  C     17.876132   17.479285   17.710639
  C     17.289940   16.370418   18.566835
  C     17.869440   15.088569   18.566921
  C     17.315430   14.057294   19.343741
  C     16.175253   14.311166   20.125701
  C     15.598389   15.588695   20.128522
  O     14.493277   15.834507   20.875594
  C     16.150421   16.613183   19.353016
  H     14.536737   17.435485   16.448679
  H     13.317701   16.190494   16.187549
  H     14.171478   16.873908   14.792868
  H     15.606181   15.279411   17.011078
  H     14.906853   14.511900   15.592778
  H     15.728693   18.756417   14.217975
  H     17.262748   19.611303   14.020139
  H     15.860611   20.444495   14.721788
  H     16.713517   21.009001   16.714078
  H     18.681109   18.665716   19.330838
  H     18.894276   17.200252   17.400603
  H     18.747357   14.888666   17.956805
  H     17.769222   13.067324   19.337606
  H     15.744404   13.516837   20.726768
  H     14.298950   15.032588   21.384370
  H     15.690450   17.596245   19.365830

 Total Charge           Charge          ....    0
 Multiplicity           Mult            ....    1
 Number of Electrons    NEL             ....  154
 Basis Dimension        Dim             ....  828

ORBITAL ENERGIES
----------------

  NO   OCC          E(Eh)            E(eV)
   0   2.0000     -91.889342     -2500.4361
   1   2.0000     -20.606428      -560.7294
   2   2.0000     -20.597924      -560.4980
   3   2.0000     -20.550582      -559.2098
   4   2.0000     -15.625619      -425.1947
   5   2.0000     -15.610598      -424.7860
   6   2.0000     -11.397847      -310.1512
   7   2.0000     -11.384866      -309.7980
   8   2.0000     -11.325787      -308.1903
   9   2.0000     -11.325272      -308.1763
  10   2.0000     -11.316503      -307.9377
  11   2.0000     -11.301646      -307.5334
  12   2.0000     -11.271568      -306.7150
  13   2.0000     -11.266438      -306.5754
  14   2.0000     -11.257893      -306.3428
  15   2.0000     -11.255709      -306.2834
  16   2.0000     -11.254890      -306.2611
  17   2.0000     -11.249721      -306.1205
  18   2.0000     -11.249237      -306.1073
  19   2.0000     -11.232239      -305.6448
  20   2.0000      -8.894428      -242.0297
  21   2.0000      -6.576007      -178.9422
  22   2.0000      -6.574000      -178.8876
  23   2.0000      -6.573416      -178.8717
  24   2.0000      -1.443868       -39.2896
  25   2.0000      -1.426163       -38.8079
  26   2.0000      -1.358775       -36.9741
  27   2.0000      -1.339185       -36.4411
  28   2.0000      -1.239231       -33.7212
  29   2.0000      -1.168537       -31.7975
  30   2.0000      -1.126290       -30.6479
  31   2.0000      -1.052813       -28.6485
  32   2.0000      -1.035725       -28.1835
  33   2.0000      -1.026449       -27.9311
  34   2.0000      -1.004489       -27.3335
  35   2.0000      -0.990140       -26.9431
  36   2.0000      -0.927845       -25.2479
  37   2.0000      -0.896494       -24.3949
  38   2.0000      -0.851777       -23.1780
  39   2.0000      -0.845265       -23.0008
  40   2.0000      -0.844640       -22.9838
  41   2.0000      -0.831428       -22.6243
  42   2.0000      -0.753770       -20.5111
  43   2.0000      -0.740566       -20.1518
  44   2.0000      -0.722882       -19.6706
  45   2.0000      -0.704999       -19.1840
  46   2.0000      -0.693656       -18.8753
  47   2.0000      -0.679270       -18.4839
  48   2.0000      -0.676939       -18.4204
  49   2.0000      -0.664525       -18.0826
  50   2.0000      -0.652044       -17.7430
  51   2.0000      -0.645720       -17.5709
  52   2.0000      -0.636779       -17.3276
  53   2.0000      -0.619019       -16.8444
  54   2.0000      -0.614206       -16.7134
  55   2.0000      -0.608772       -16.5655
  56   2.0000      -0.605427       -16.4745
  57   2.0000      -0.585429       -15.9303
  58   2.0000      -0.579189       -15.7605
  59   2.0000      -0.569735       -15.5033
  60   2.0000      -0.567248       -15.4356
  61   2.0000      -0.552208       -15.0263
  62   2.0000      -0.538190       -14.6449
  63   2.0000      -0.536988       -14.6122
  64   2.0000      -0.529327       -14.4037
  65   2.0000      -0.518000       -14.0955
  66   2.0000      -0.505115       -13.7449
  67   2.0000      -0.504782       -13.7358
  68   2.0000      -0.489691       -13.3252
  69   2.0000      -0.463097       -12.6015
  70   2.0000      -0.453217       -12.3327
  71   2.0000      -0.448607       -12.2072
  72   2.0000      -0.359385        -9.7794
  73   2.0000      -0.351533        -9.5657
  74   2.0000      -0.334261        -9.0957
  75   2.0000      -0.328339        -8.9346
  76   2.0000      -0.318377        -8.6635
  77   0.0000       0.086553         2.3552
  78   0.0000       0.095333         2.5941
  79   0.0000       0.120051         3.2668
  80   0.0000       0.126390         3.4392
  81   0.0000       0.129240         3.5168

MULLIKEN ATOMIC CHARGES
-----------------------
   0 C :   -0.330126
   1 C :    0.037511
   2 O :   -0.315051
   3 C :    0.418813
   4 O :   -0.379819
   5 C :   -0.224931
   6 C :    0.146644
   7 C :   -0.294874
   8 N :   -0.134246
   9 C :    0.212485
  10 S :   -0.442453
  11 N :   -0.214749
  12 C :    0.030173
  13 C :    0.001411
  14 C :   -0.196855
  15 C :   -0.130276
  16 C :   -0.271454
  17 C :    0.307602
  18 O :   -0.354030
  19 C :   -0.233696
  20 H :    0.110274
  21 H :    0.116796
  22 H :    0.107769
  23 H :    0.099102
  24 H :    0.125039
  25 H :    0.115976
  26 H :    0.149068
  27 H :    0.099253
  28 H :    0.197643
  29 H :    0.200250
  30 H :    0.166035
  31 H :    0.161985
  32 H :    0.165549
  33 H :    0.135794
  34 H :    0.242189
  35 H :    0.175200
Sum of atomic charges:   -0.0000000

LOEWDIN ATOMIC CHARGES
----------------------
   0 C :    0.101608
   1 C :   -0.014849
   2 O :    0.300793
   3 C :   -0.416036
   4 O :    0.125071
   5 C :   -0.088757
   6 C :   -0.087669
   7 C :    0.129692
   8 N :    0.404495
   9 C :   -0.454915
  10 S :   -0.037656
  11 N :    0.395754
  12 C :   -0.056014
  13 C :   -0.047473
  14 C :    0.016303
  15 C :    0.045660
  16 C :    0.002350
  17 C :   -0.191099
  18 O :    0.397792
  19 C :    0.032170
  20 H :   -0.036360
  21 H :   -0.023202
  22 H :   -0.029638
  23 H :   -0.035485
  24 H :   -0.019910
  25 H :   -0.011542
  26 H :   -0.002917
  27 H :   -0.019485
  28 H :   -0.058495
  29 H :   -0.064273
  30 H :   -0.007427
  31 H :   -0.025091
  32 H :   -0.017597
  33 H :   -0.032924
  34 H :   -0.151868
  35 H :   -0.021007

  Mayer bond orders larger than 0.100000
B(  0-C ,  1-C ) :   0.9547 B(  0-C , 20-H ) :   0.9717 B(  0-C , 21-H ) :   0.9777
B(  0-C , 22-H ) :   0.9767 B(  1-C ,  2-O ) :   0.9040 B(  1-C , 23-H ) :   0.9644
B(  1-C , 24-H ) :   0.9851 B(  2-O ,  3-C ) :   1.1999 B(  3-C ,  4-O ) :   2.1186
B(  3-C ,  5-C ) :   0.9108 B(  5-C ,  6-C ) :   1.7238 B(  5-C , 12-C ) :   0.9504
B(  6-C ,  7-C ) :   0.9403 B(  6-C ,  8-N ) :   1.1131 B(  7-C , 25-H ) :   0.9767
B(  7-C , 26-H ) :   0.9593 B(  7-C , 27-H ) :   0.9844 B(  8-N ,  9-C ) :   1.2012
B(  8-N , 28-H ) :   0.9492 B(  9-C , 10-S ) :   1.6113 B(  9-C , 11-N ) :   1.2848
B( 11-N , 12-C ) :   0.9804 B( 11-N , 29-H ) :   0.9473 B( 12-C , 13-C ) :   0.9575
B( 12-C , 30-H ) :   1.0007 B( 13-C , 14-C ) :   1.3750 B( 13-C , 19-C ) :   1.3572
B( 14-C , 15-C ) :   1.3937 B( 14-C , 31-H ) :   0.9681 B( 15-C , 16-C ) :   1.3657
B( 15-C , 32-H ) :   0.9695 B( 16-C , 17-C ) :   1.3275 B( 16-C , 33-H ) :   0.9831
B( 17-C , 18-O ) :   1.1135 B( 17-C , 19-C ) :   1.3629 B( 18-O , 34-H ) :   0.9783
B( 19-C , 35-H ) :   0.9569

MP2 TOTAL ENERGY:    -1274.321595534 Eh
FINAL SINGLE POINT ENERGY     -1274.321595533633

DIPOLE MOMENT
-------------
                                X             Y             Z
Electronic contribution:      9.21150       6.39126       6.63245
Nuclear contribution   :    -10.73153      -8.14824      -6.39171
                        -----------------------------------------
Total Dipole Moment    :     -1.52003      -1.75698       0.24073
                        -----------------------------------------
Magnitude (a.u.)       :      2.33568
Magnitude (Debye)      :      5.93684

Rotational constants in cm-1:     0.012085     0.009032     0.006466
Rotational constants in MHz :   362.298438   270.769059   193.859001

                             ****ORCA TERMINATED NORMALLY****
TOTAL RUN TIME: 0 days 1 hours 45 minutes 19 seconds 96 msec
