                         Program Version 4.2.0 -  RELEASE  -
|  1> ! ri-mp2 cc-pvtz cc-pvtz/c TightSCF NoKeepInts
|  2>
|  3> %scf
|  4>   MaxCore 4096
|  5> end
|  6> *xyz  0  1
|  7>     C       14.0685248   15.5486938   14.1396134
|  8>     C       14.9894678   15.7074400   15.3606455
|  9>     O       16.2546857   16.1884799   14.8870103
| 10>     C       17.2380240   16.2929437   15.8197508
| 11>     O       17.9783174   15.3576356   16.0643314
| 12>     C       17.2283131   17.5654091   16.6152478
| 13>     C       16.9073282   18.7639742   16.0623752
| 14>     C       16.3164852   19.0227093   14.6904922
| 15>     N       17.1677790   19.9552466   16.7440090
| 16>     C       17.9416840   20.0487944   17.8695391
| 17>     S       18.2973601   21.5066962   18.5643439
| 18>     N       18.4240008   18.8693693   18.3787928
| 19>     C       18.0533677   17.5212764   17.9055728
| 20>     C       17.4278186   16.6486183   18.9852448
| 21>     C       17.9427633   15.3689435   19.2592807
| 22>     C       17.3604202   14.5615664   20.2506641
| 23>     C       16.2536683   15.0381601   20.9740755
| 24>     C       15.7364513   16.3118391   20.7005490
| 25>     O       14.6635582   16.7719323   21.3920808
| 26>     C       16.3174914   17.1127065   19.7120838
| 27>     H       14.4996594   14.8388366   13.4223138
| 28>     H       13.9262870   16.5103117   13.6314650
| 29>     H       13.0849041   15.1718122   14.4453809
| 30>     H       14.5495766   16.4129039   16.0783734
| 31>     H       15.1153705   14.7348747   15.8567405
| 32>     H       16.8933013   18.5070011   13.9119812
| 33>     H       16.3104239   20.0872309   14.4257535
| 34>     H       15.2813005   18.6652946   14.6366946
| 35>     H       16.8435521   20.8317617   16.3673736
| 36>     H       18.9785167   18.9647505   19.2203969
| 37>     H       19.0418202   17.1335372   17.6179171
| 38>     H       18.7892916   14.9934517   18.6885556
| 39>     H       17.7645731   13.5705832   20.4500686
| 40>     H       15.8002148   14.4169871   21.7393572
| 41>     H       14.4356457   16.1013031   22.0535176
| 42>     H       15.9050531   18.0969253   19.5164078
| 43> *
| 44>
| 45>                          ****END OF INPUT****

CARTESIAN COORDINATES (ANGSTROEM)
---------------------------------
  C     14.068525   15.548694   14.139613
  C     14.989468   15.707440   15.360646
  O     16.254686   16.188480   14.887010
  C     17.238024   16.292944   15.819751
  O     17.978317   15.357636   16.064331
  C     17.228313   17.565409   16.615248
  C     16.907328   18.763974   16.062375
  C     16.316485   19.022709   14.690492
  N     17.167779   19.955247   16.744009
  C     17.941684   20.048794   17.869539
  S     18.297360   21.506696   18.564344
  N     18.424001   18.869369   18.378793
  C     18.053368   17.521276   17.905573
  C     17.427819   16.648618   18.985245
  C     17.942763   15.368944   19.259281
  C     17.360420   14.561566   20.250664
  C     16.253668   15.038160   20.974076
  C     15.736451   16.311839   20.700549
  O     14.663558   16.771932   21.392081
  C     16.317491   17.112707   19.712084
  H     14.499659   14.838837   13.422314
  H     13.926287   16.510312   13.631465
  H     13.084904   15.171812   14.445381
  H     14.549577   16.412904   16.078373
  H     15.115370   14.734875   15.856741
  H     16.893301   18.507001   13.911981
  H     16.310424   20.087231   14.425753
  H     15.281301   18.665295   14.636695
  H     16.843552   20.831762   16.367374
  H     18.978517   18.964751   19.220397
  H     19.041820   17.133537   17.617917
  H     18.789292   14.993452   18.688556
  H     17.764573   13.570583   20.450069
  H     15.800215   14.416987   21.739357
  H     14.435646   16.101303   22.053518
  H     15.905053   18.096925   19.516408

 Total Charge           Charge          ....    0
 Multiplicity           Mult            ....    1
 Number of Electrons    NEL             ....  154
 Basis Dimension        Dim             ....  828

ORBITAL ENERGIES
----------------

  NO   OCC          E(Eh)            E(eV)
   0   2.0000     -91.890089     -2500.4565
   1   2.0000     -20.594765      -560.4120
   2   2.0000     -20.589357      -560.2649
   3   2.0000     -20.552887      -559.2725
   4   2.0000     -15.631125      -425.3445
   5   2.0000     -15.607639      -424.7055
   6   2.0000     -11.393195      -310.0246
   7   2.0000     -11.384889      -309.7986
   8   2.0000     -11.340599      -308.5934
   9   2.0000     -11.310940      -307.7863
  10   2.0000     -11.305726      -307.6444
  11   2.0000     -11.305657      -307.6426
  12   2.0000     -11.263342      -306.4911
  13   2.0000     -11.260897      -306.4246
  14   2.0000     -11.258118      -306.3490
  15   2.0000     -11.250777      -306.1492
  16   2.0000     -11.240886      -305.8801
  17   2.0000     -11.237263      -305.7815
  18   2.0000     -11.236865      -305.7706
  19   2.0000     -11.233574      -305.6811
  20   2.0000      -8.895165      -242.0497
  21   2.0000      -6.576738      -178.9621
  22   2.0000      -6.574737      -178.9077
  23   2.0000      -6.574146      -178.8916
  24   2.0000      -1.454174       -39.5701
  25   2.0000      -1.414508       -38.4907
  26   2.0000      -1.360767       -37.0284
  27   2.0000      -1.342078       -36.5198
  28   2.0000      -1.239038       -33.7159
  29   2.0000      -1.155432       -31.4409
  30   2.0000      -1.122926       -30.5564
  31   2.0000      -1.045244       -28.4425
  32   2.0000      -1.039283       -28.2803
  33   2.0000      -1.013110       -27.5681
  34   2.0000      -1.001992       -27.2656
  35   2.0000      -0.986895       -26.8548
  36   2.0000      -0.923209       -25.1218
  37   2.0000      -0.881309       -23.9816
  38   2.0000      -0.851759       -23.1775
  39   2.0000      -0.840588       -22.8736
  40   2.0000      -0.831985       -22.6395
  41   2.0000      -0.830719       -22.6050
  42   2.0000      -0.761141       -20.7117
  43   2.0000      -0.737346       -20.0642
  44   2.0000      -0.728952       -19.8358
  45   2.0000      -0.692556       -18.8454
  46   2.0000      -0.689508       -18.7625
  47   2.0000      -0.682402       -18.5691
  48   2.0000      -0.674020       -18.3410
  49   2.0000      -0.655770       -17.8444
  50   2.0000      -0.650084       -17.6897
  51   2.0000      -0.642937       -17.4952
  52   2.0000      -0.634268       -17.2593
  53   2.0000      -0.623218       -16.9586
  54   2.0000      -0.605747       -16.4832
  55   2.0000      -0.601846       -16.3771
  56   2.0000      -0.598101       -16.2751
  57   2.0000      -0.579363       -15.7653
  58   2.0000      -0.575576       -15.6622
  59   2.0000      -0.565045       -15.3757
  60   2.0000      -0.560292       -15.2463
  61   2.0000      -0.552063       -15.0224
  62   2.0000      -0.539283       -14.6746
  63   2.0000      -0.527490       -14.3537
  64   2.0000      -0.519523       -14.1369
  65   2.0000      -0.512179       -13.9371
  66   2.0000      -0.504171       -13.7192
  67   2.0000      -0.496586       -13.5128
  68   2.0000      -0.482735       -13.1359
  69   2.0000      -0.465274       -12.6607
  70   2.0000      -0.463742       -12.6191
  71   2.0000      -0.452866       -12.3231
  72   2.0000      -0.355659        -9.6780
  73   2.0000      -0.347412        -9.4536
  74   2.0000      -0.329125        -8.9559
  75   2.0000      -0.319421        -8.6919
  76   2.0000      -0.317661        -8.6440
  77   0.0000       0.072505         1.9730
  78   0.0000       0.107318         2.9203
  79   0.0000       0.118646         3.2285
  80   0.0000       0.133707         3.6384
  81   0.0000       0.138675         3.7735

MULLIKEN ATOMIC CHARGES
-----------------------
   0 C :   -0.262719
   1 C :    0.015508
   2 O :   -0.360439
   3 C :    0.473071
   4 O :   -0.384485
   5 C :   -0.256006
   6 C :    0.171860
   7 C :   -0.293269
   8 N :   -0.128818
   9 C :    0.205487
  10 S :   -0.439630
  11 N :   -0.212100
  12 C :    0.047974
  13 C :    0.030098
  14 C :   -0.179262
  15 C :   -0.132534
  16 C :   -0.277523
  17 C :    0.313632
  18 O :   -0.358818
  19 C :   -0.254659
  20 H :    0.106803
  21 H :    0.091862
  22 H :    0.093478
  23 H :    0.097690
  24 H :    0.112072
  25 H :    0.135349
  26 H :    0.109456
  27 H :    0.118201
  28 H :    0.198616
  29 H :    0.200038
  30 H :    0.157684
  31 H :    0.164251
  32 H :    0.161699
  33 H :    0.129357
  34 H :    0.240606
  35 H :    0.165467
Sum of atomic charges:   -0.0000000

LOEWDIN ATOMIC CHARGES
----------------------
   0 C :    0.111263
   1 C :   -0.026550
   2 O :    0.300893
   3 C :   -0.424020
   4 O :    0.127593
   5 C :   -0.097702
   6 C :   -0.067107
   7 C :    0.126623
   8 N :    0.405687
   9 C :   -0.458331
  10 S :   -0.035606
  11 N :    0.396237
  12 C :   -0.049153
  13 C :   -0.041946
  14 C :    0.024407
  15 C :    0.042098
  16 C :   -0.000922
  17 C :   -0.193119
  18 O :    0.393067
  19 C :    0.027687
  20 H :   -0.022118
  21 H :   -0.030293
  22 H :   -0.023677
  23 H :   -0.036440
  24 H :   -0.025184
  25 H :   -0.006069
  26 H :   -0.019324
  27 H :   -0.012465
  28 H :   -0.058265
  29 H :   -0.063185
  30 H :   -0.006980
  31 H :   -0.022887
  32 H :   -0.020179
  33 H :   -0.035713
  34 H :   -0.154179
  35 H :   -0.024143

  Mayer bond orders larger than 0.100000
B(  0-C ,  1-C ) :   0.9770 B(  0-C , 20-H ) :   0.9767 B(  0-C , 21-H ) :   0.9784
B(  0-C , 22-H ) :   0.9756 B(  1-C ,  2-O ) :   0.8976 B(  1-C , 23-H ) :   0.9687
B(  1-C , 24-H ) :   0.9775 B(  2-O ,  3-C ) :   1.0943 B(  3-C ,  4-O ) :   2.0696
B(  3-C ,  5-C ) :   0.9985 B(  5-C ,  6-C ) :   1.6635 B(  5-C , 12-C ) :   0.9559
B(  6-C ,  7-C ) :   0.9490 B(  6-C ,  8-N ) :   1.1372 B(  7-C , 25-H ) :   0.9646
B(  7-C , 26-H ) :   0.9897 B(  7-C , 27-H ) :   0.9671 B(  8-N ,  9-C ) :   1.1841
B(  8-N , 28-H ) :   0.9472 B(  9-C , 10-S ) :   1.6121 B(  9-C , 11-N ) :   1.3034
B( 11-N , 12-C ) :   0.9816 B( 11-N , 29-H ) :   0.9487 B( 12-C , 13-C ) :   0.9719
B( 12-C , 30-H ) :   0.9949 B( 13-C , 14-C ) :   1.3805 B( 13-C , 19-C ) :   1.3613
B( 14-C , 15-C ) :   1.3965 B( 14-C , 31-H ) :   0.9617 B( 15-C , 16-C ) :   1.3598
B( 15-C , 32-H ) :   0.9706 B( 16-C , 17-C ) :   1.3324 B( 16-C , 33-H ) :   0.9857
B( 17-C , 18-O ) :   1.1047 B( 17-C , 19-C ) :   1.3672 B( 18-O , 34-H ) :   0.9801
B( 19-C , 35-H ) :   0.9597

MP2 TOTAL ENERGY:    -1274.328207612 Eh
FINAL SINGLE POINT ENERGY     -1274.328207612209

DIPOLE MOMENT
-------------
                                X             Y             Z
Electronic contribution:     10.61519       8.75367      10.26944
Nuclear contribution   :    -12.10957      -9.93337     -10.84920
                        -----------------------------------------
Total Dipole Moment    :     -1.49438      -1.17970      -0.57976
                        -----------------------------------------
Magnitude (a.u.)       :      1.99022
Magnitude (Debye)      :      5.05875

Rotational constants in cm-1:     0.009714     0.009464     0.005924
Rotational constants in MHz :   291.217731   283.711930   177.607178

                             ****ORCA TERMINATED NORMALLY****
TOTAL RUN TIME: 0 days 1 hours 42 minutes 55 seconds 363 msec
