                         Program Version 4.2.0 -  RELEASE  -
|  1> ! ri-mp2 cc-pvtz cc-pvtz/c TightSCF NoKeepInts
|  2>
|  3> %scf
|  4>   MaxCore 4096
|  5> end
|  6> *xyz  0  1
|  7>     C       14.6077625   15.3360257   16.5879769
|  8>     C       15.2960670   15.7394353   15.2746669
|  9>     O       16.7267835   15.6343102   15.4085212
| 10>     C       17.4858829   16.7634612   15.3109048
| 11>     O       18.3061524   16.9102562   14.4242962
| 12>     C       17.1941133   17.8078214   16.3353704
| 13>     C       17.0066892   19.0788830   15.9112378
| 14>     C       16.6743943   19.4963995   14.4945989
| 15>     N       17.1479148   20.1626649   16.7793227
| 16>     C       17.7295390   20.0780893   18.0165150
| 17>     S       17.9869461   21.4145752   18.9557650
| 18>     N       18.1151271   18.8250638   18.4261724
| 19>     C       17.7983356   17.5639907   17.7249881
| 20>     C       17.1124349   16.5207153   18.5949941
| 21>     C       17.5183858   15.1747584   18.5384848
| 22>     C       16.9067239   14.2089926   19.3551574
| 23>     C       15.8830574   14.5928231   20.2382016
| 24>     C       15.4809027   15.9339870   20.3016310
| 25>     O       14.4910053   16.3067070   21.1509710
| 26>     C       16.0924640   16.8940984   19.4888358
| 27>     H       15.0554784   14.4244629   17.0027991
| 28>     H       13.5415575   15.1449618   16.4169498
| 29>     H       14.6841484   16.1381774   17.3277249
| 30>     H       14.9721030   15.0498936   14.4841360
| 31>     H       14.9861347   16.7507610   14.9798927
| 32>     H       17.5918123   19.5642666   13.8945270
| 33>     H       16.1703956   20.4694814   14.4529549
| 34>     H       16.0182487   18.7676577   14.0045819
| 35>     H       16.9162606   21.0926040   16.4678990
| 36>     H       18.5385880   18.7910274   19.3452620
| 37>     H       18.8229340   17.2222948   17.5162450
| 38>     H       18.3062429   14.8743537   17.8517493
| 39>     H       17.2254165   13.1693558   19.2999425
| 40>     H       15.4068633   13.8497707   20.8695013
| 41>     H       14.2237288   15.5206639   21.6509173
| 42>     H       15.7664058   17.9272092   19.5543051
| 43> *
| 44>
| 45>                          ****END OF INPUT****

CARTESIAN COORDINATES (ANGSTROEM)
---------------------------------
  C     14.607762   15.336026   16.587977
  C     15.296067   15.739435   15.274667
  O     16.726783   15.634310   15.408521
  C     17.485883   16.763461   15.310905
  O     18.306152   16.910256   14.424296
  C     17.194113   17.807821   16.335370
  C     17.006689   19.078883   15.911238
  C     16.674394   19.496399   14.494599
  N     17.147915   20.162665   16.779323
  C     17.729539   20.078089   18.016515
  S     17.986946   21.414575   18.955765
  N     18.115127   18.825064   18.426172
  C     17.798336   17.563991   17.724988
  C     17.112435   16.520715   18.594994
  C     17.518386   15.174758   18.538485
  C     16.906724   14.208993   19.355157
  C     15.883057   14.592823   20.238202
  C     15.480903   15.933987   20.301631
  O     14.491005   16.306707   21.150971
  C     16.092464   16.894098   19.488836
  H     15.055478   14.424463   17.002799
  H     13.541557   15.144962   16.416950
  H     14.684148   16.138177   17.327725
  H     14.972103   15.049894   14.484136
  H     14.986135   16.750761   14.979893
  H     17.591812   19.564267   13.894527
  H     16.170396   20.469481   14.452955
  H     16.018249   18.767658   14.004582
  H     16.916261   21.092604   16.467899
  H     18.538588   18.791027   19.345262
  H     18.822934   17.222295   17.516245
  H     18.306243   14.874354   17.851749
  H     17.225417   13.169356   19.299943
  H     15.406863   13.849771   20.869501
  H     14.223729   15.520664   21.650917
  H     15.766406   17.927209   19.554305

 Total Charge           Charge          ....    0
 Multiplicity           Mult            ....    1
 Number of Electrons    NEL             ....  154
 Basis Dimension        Dim             ....  828

ORBITAL ENERGIES
----------------

  NO   OCC          E(Eh)            E(eV)
   0   2.0000     -91.890299     -2500.4622
   1   2.0000     -20.600759      -560.5752
   2   2.0000     -20.589886      -560.2793
   3   2.0000     -20.560058      -559.4676
   4   2.0000     -15.627307      -425.2406
   5   2.0000     -15.610610      -424.7863
   6   2.0000     -11.396361      -310.1107
   7   2.0000     -11.385614      -309.8183
   8   2.0000     -11.330024      -308.3056
   9   2.0000     -11.318489      -307.9917
  10   2.0000     -11.315797      -307.9185
  11   2.0000     -11.304617      -307.6143
  12   2.0000     -11.266941      -306.5891
  13   2.0000     -11.259750      -306.3934
  14   2.0000     -11.259455      -306.3854
  15   2.0000     -11.256944      -306.3170
  16   2.0000     -11.248185      -306.0787
  17   2.0000     -11.243400      -305.9485
  18   2.0000     -11.243003      -305.9377
  19   2.0000     -11.223503      -305.4070
  20   2.0000      -8.895362      -242.0551
  21   2.0000      -6.576935      -178.9675
  22   2.0000      -6.574934      -178.9131
  23   2.0000      -6.574345      -178.8970
  24   2.0000      -1.450771       -39.4775
  25   2.0000      -1.420531       -38.6546
  26   2.0000      -1.363446       -37.1013
  27   2.0000      -1.340292       -36.4712
  28   2.0000      -1.239676       -33.7333
  29   2.0000      -1.162403       -31.6306
  30   2.0000      -1.125434       -30.6246
  31   2.0000      -1.048511       -28.5314
  32   2.0000      -1.035675       -28.1821
  33   2.0000      -1.020677       -27.7740
  34   2.0000      -1.003369       -27.3030
  35   2.0000      -0.989507       -26.9259
  36   2.0000      -0.926166       -25.2023
  37   2.0000      -0.885182       -24.0870
  38   2.0000      -0.850901       -23.1542
  39   2.0000      -0.842627       -22.9291
  40   2.0000      -0.838500       -22.8168
  41   2.0000      -0.833128       -22.6706
  42   2.0000      -0.759643       -20.6709
  43   2.0000      -0.737322       -20.0635
  44   2.0000      -0.729583       -19.8530
  45   2.0000      -0.699039       -19.0218
  46   2.0000      -0.692667       -18.8484
  47   2.0000      -0.682897       -18.5826
  48   2.0000      -0.675783       -18.3890
  49   2.0000      -0.664603       -18.0848
  50   2.0000      -0.651117       -17.7178
  51   2.0000      -0.641447       -17.4546
  52   2.0000      -0.630653       -17.1609
  53   2.0000      -0.613608       -16.6971
  54   2.0000      -0.610045       -16.6002
  55   2.0000      -0.604744       -16.4559
  56   2.0000      -0.603356       -16.4181
  57   2.0000      -0.582210       -15.8427
  58   2.0000      -0.578040       -15.7293
  59   2.0000      -0.575244       -15.6532
  60   2.0000      -0.565359       -15.3842
  61   2.0000      -0.556488       -15.1428
  62   2.0000      -0.539324       -14.6758
  63   2.0000      -0.525314       -14.2945
  64   2.0000      -0.520645       -14.1675
  65   2.0000      -0.514622       -14.0036
  66   2.0000      -0.503344       -13.6967
  67   2.0000      -0.498200       -13.5567
  68   2.0000      -0.488843       -13.3021
  69   2.0000      -0.465904       -12.6779
  70   2.0000      -0.458191       -12.4680
  71   2.0000      -0.452233       -12.3059
  72   2.0000      -0.356144        -9.6912
  73   2.0000      -0.349954        -9.5227
  74   2.0000      -0.329490        -8.9659
  75   2.0000      -0.325819        -8.8660
  76   2.0000      -0.320114        -8.7107
  77   0.0000       0.082959         2.2574
  78   0.0000       0.100365         2.7311
  79   0.0000       0.122368         3.3298
  80   0.0000       0.127796         3.4775
  81   0.0000       0.130288         3.5453

MULLIKEN ATOMIC CHARGES
-----------------------
   0 C :   -0.305996
   1 C :    0.031211
   2 O :   -0.339129
   3 C :    0.411325
   4 O :   -0.359607
   5 C :   -0.194939
   6 C :    0.145328
   7 C :   -0.289106
   8 N :   -0.134387
   9 C :    0.214555
  10 S :   -0.439931
  11 N :   -0.230880
  12 C :    0.030513
  13 C :    0.032727
  14 C :   -0.188214
  15 C :   -0.156686
  16 C :   -0.262775
  17 C :    0.318812
  18 O :   -0.355919
  19 C :   -0.250493
  20 H :    0.111003
  21 H :    0.111613
  22 H :    0.105997
  23 H :    0.120040
  24 H :    0.080063
  25 H :    0.145759
  26 H :    0.100410
  27 H :    0.112462
  28 H :    0.197387
  29 H :    0.205462
  30 H :    0.160997
  31 H :    0.152329
  32 H :    0.166664
  33 H :    0.133712
  34 H :    0.241135
  35 H :    0.178558
Sum of atomic charges:   -0.0000000

LOEWDIN ATOMIC CHARGES
----------------------
   0 C :    0.106456
   1 C :   -0.021296
   2 O :    0.297708
   3 C :   -0.424450
   4 O :    0.137780
   5 C :   -0.094897
   6 C :   -0.082404
   7 C :    0.128988
   8 N :    0.405127
   9 C :   -0.455252
  10 S :   -0.035540
  11 N :    0.396429
  12 C :   -0.053166
  13 C :   -0.041970
  14 C :    0.021823
  15 C :    0.044637
  16 C :    0.000879
  17 C :   -0.190716
  18 O :    0.396779
  19 C :    0.030090
  20 H :   -0.023557
  21 H :   -0.027093
  22 H :   -0.031411
  23 H :   -0.024612
  24 H :   -0.035576
  25 H :   -0.003391
  26 H :   -0.019749
  27 H :   -0.014362
  28 H :   -0.058206
  29 H :   -0.063883
  30 H :   -0.009292
  31 H :   -0.026356
  32 H :   -0.019240
  33 H :   -0.034412
  34 H :   -0.152945
  35 H :   -0.022918

  Mayer bond orders larger than 0.100000
B(  0-C ,  1-C ) :   0.9737 B(  0-C , 20-H ) :   0.9710 B(  0-C , 21-H ) :   0.9793
B(  0-C , 22-H ) :   0.9713 B(  1-C ,  2-O ) :   0.8999 B(  1-C , 23-H ) :   0.9840
B(  1-C , 24-H ) :   0.9698 B(  2-O ,  3-C ) :   1.1271 B(  3-C ,  4-O ) :   2.1385
B(  3-C ,  5-C ) :   0.9298 B(  5-C ,  6-C ) :   1.6866 B(  5-C , 12-C ) :   0.9624
B(  6-C ,  7-C ) :   0.9447 B(  6-C ,  8-N ) :   1.1237 B(  7-C , 25-H ) :   0.9577
B(  7-C , 26-H ) :   0.9846 B(  7-C , 27-H ) :   0.9780 B(  8-N ,  9-C ) :   1.1984
B(  8-N , 28-H ) :   0.9497 B(  9-C , 10-S ) :   1.6116 B(  9-C , 11-N ) :   1.2883
B( 11-N , 12-C ) :   0.9729 B( 11-N , 29-H ) :   0.9447 B( 12-C , 13-C ) :   0.9576
B( 12-C , 30-H ) :   1.0003 B( 13-C , 14-C ) :   1.3700 B( 13-C , 19-C ) :   1.3466
B( 14-C , 15-C ) :   1.4016 B( 14-C , 31-H ) :   0.9726 B( 15-C , 16-C ) :   1.3524
B( 15-C , 32-H ) :   0.9697 B( 16-C , 17-C ) :   1.3338 B( 16-C , 33-H ) :   0.9840
B( 17-C , 18-O ) :   1.1087 B( 17-C , 19-C ) :   1.3595 B( 18-O , 34-H ) :   0.9792
B( 19-C , 35-H ) :   0.9571

MP2 TOTAL ENERGY:    -1274.315743554 Eh
FINAL SINGLE POINT ENERGY     -1274.315743553730

DIPOLE MOMENT
-------------
                                X             Y             Z
Electronic contribution:      8.84354       8.82040       6.17580
Nuclear contribution   :    -10.35357     -10.37513      -6.41520
                        -----------------------------------------
Total Dipole Moment    :     -1.51002      -1.55473      -0.23940
                        -----------------------------------------
Magnitude (a.u.)       :      2.18052
Magnitude (Debye)      :      5.54245

Rotational constants in cm-1:     0.012137     0.009108     0.006143
Rotational constants in MHz :   363.843799   273.037709   184.176118

                             ****ORCA TERMINATED NORMALLY****
TOTAL RUN TIME: 0 days 1 hours 45 minutes 37 seconds 681 msec
