                         Program Version 4.2.0 -  RELEASE  -
|  1> ! ri-mp2 cc-pvtz cc-pvtz/c TightSCF NoKeepInts
|  2>
|  3> %scf
|  4>   MaxCore 4096
|  5> end
|  6> *xyz  0  1
|  7>     C       14.0840137   15.0787485   15.5013140
|  8>     C       15.0212014   16.2952921   15.5664782
|  9>     O       16.3524460   15.8165568   15.3005038
| 10>     C       17.4803271   16.5499887   15.5603643
| 11>     O       18.5810003   16.1984644   15.1808307
| 12>     C       17.2993642   17.6989517   16.4885077
| 13>     C       17.0124305   18.9193076   15.9815860
| 14>     C       16.5571855   19.2253078   14.5696409
| 15>     N       17.1697823   20.0698058   16.7557562
| 16>     C       17.8382944   20.1003052   17.9522910
| 17>     S       18.0884506   21.5131622   18.7741436
| 18>     N       18.3083716   18.8978406   18.4240776
| 19>     C       18.0162775   17.5777181   17.8290510
| 20>     C       17.3478658   16.5775426   18.7589099
| 21>     C       17.7835332   15.2407289   18.7872288
| 22>     C       17.1519586   14.3022570   19.6202428
| 23>     C       16.0735700   14.7037127   20.4273352
| 24>     C       15.6329452   16.0339372   20.3945020
| 25>     O       14.5847264   16.4215427   21.1636258
| 26>     C       16.2628653   16.9662526   19.5637325
| 27>     H       14.3739585   14.3292365   16.2487377
| 28>     H       14.1252284   14.6110384   14.5095803
| 29>     H       13.0474605   15.3776626   15.6989156
| 30>     H       14.7214002   17.0468720   14.8254939
| 31>     H       14.9477578   16.7307446   16.5722017
| 32>     H       16.7501314   18.3976241   13.8757666
| 33>     H       17.0889895   20.0963696   14.1654361
| 34>     H       15.4828931   19.4441555   14.5418013
| 35>     H       16.8649364   20.9632958   16.4024335
| 36>     H       18.7946647   18.9483719   19.3106936
| 37>     H       19.0363356   17.2430454   17.5865872
| 38>     H       18.6090600   14.9262842   18.1519631
| 39>     H       17.4960587   13.2693271   19.6339488
| 40>     H       15.5818770   13.9812286   21.0704787
| 41>     H       14.3152302   15.6569541   21.6948402
| 42>     H       15.9044086   17.9903663   19.5489998
| 43> *
| 44>
| 45>                          ****END OF INPUT****

CARTESIAN COORDINATES (ANGSTROEM)
---------------------------------
  C     14.084014   15.078748   15.501314
  C     15.021201   16.295292   15.566478
  O     16.352446   15.816557   15.300504
  C     17.480327   16.549989   15.560364
  O     18.581000   16.198464   15.180831
  C     17.299364   17.698952   16.488508
  C     17.012431   18.919308   15.981586
  C     16.557185   19.225308   14.569641
  N     17.169782   20.069806   16.755756
  C     17.838294   20.100305   17.952291
  S     18.088451   21.513162   18.774144
  N     18.308372   18.897841   18.424078
  C     18.016278   17.577718   17.829051
  C     17.347866   16.577543   18.758910
  C     17.783533   15.240729   18.787229
  C     17.151959   14.302257   19.620243
  C     16.073570   14.703713   20.427335
  C     15.632945   16.033937   20.394502
  O     14.584726   16.421543   21.163626
  C     16.262865   16.966253   19.563733
  H     14.373959   14.329236   16.248738
  H     14.125228   14.611038   14.509580
  H     13.047460   15.377663   15.698916
  H     14.721400   17.046872   14.825494
  H     14.947758   16.730745   16.572202
  H     16.750131   18.397624   13.875767
  H     17.088990   20.096370   14.165436
  H     15.482893   19.444156   14.541801
  H     16.864936   20.963296   16.402434
  H     18.794665   18.948372   19.310694
  H     19.036336   17.243045   17.586587
  H     18.609060   14.926284   18.151963
  H     17.496059   13.269327   19.633949
  H     15.581877   13.981229   21.070479
  H     14.315230   15.656954   21.694840
  H     15.904409   17.990366   19.549000

 Total Charge           Charge          ....    0
 Multiplicity           Mult            ....    1
 Number of Electrons    NEL             ....  154
 Basis Dimension        Dim             ....  828

ORBITAL ENERGIES
----------------

  NO   OCC          E(Eh)            E(eV)
   0   2.0000     -91.888622     -2500.4165
   1   2.0000     -20.605198      -560.6960
   2   2.0000     -20.601341      -560.5910
   3   2.0000     -20.553254      -559.2825
   4   2.0000     -15.624928      -425.1759
   5   2.0000     -15.609757      -424.7631
   6   2.0000     -11.398894      -310.1797
   7   2.0000     -11.384993      -309.8014
   8   2.0000     -11.327321      -308.2321
   9   2.0000     -11.319092      -308.0082
  10   2.0000     -11.313026      -307.8431
  11   2.0000     -11.305931      -307.6500
  12   2.0000     -11.267274      -306.5981
  13   2.0000     -11.267079      -306.5928
  14   2.0000     -11.260758      -306.4208
  15   2.0000     -11.259773      -306.3940
  16   2.0000     -11.248011      -306.0739
  17   2.0000     -11.243978      -305.9642
  18   2.0000     -11.242690      -305.9292
  19   2.0000     -11.234003      -305.6928
  20   2.0000      -8.893740      -242.0110
  21   2.0000      -6.575326      -178.9237
  22   2.0000      -6.573309      -178.8688
  23   2.0000      -6.572732      -178.8531
  24   2.0000      -1.450812       -39.4786
  25   2.0000      -1.421033       -38.6683
  26   2.0000      -1.365034       -37.1445
  27   2.0000      -1.338739       -36.4289
  28   2.0000      -1.238246       -33.6944
  29   2.0000      -1.163355       -31.6565
  30   2.0000      -1.126816       -30.6622
  31   2.0000      -1.049909       -28.5695
  32   2.0000      -1.041941       -28.3526
  33   2.0000      -1.021095       -27.7854
  34   2.0000      -1.006176       -27.3794
  35   2.0000      -0.989310       -26.9205
  36   2.0000      -0.927051       -25.2264
  37   2.0000      -0.882110       -24.0034
  38   2.0000      -0.855271       -23.2731
  39   2.0000      -0.842245       -22.9187
  40   2.0000      -0.839292       -22.8383
  41   2.0000      -0.837988       -22.8028
  42   2.0000      -0.758606       -20.6427
  43   2.0000      -0.739410       -20.1204
  44   2.0000      -0.733023       -19.9466
  45   2.0000      -0.699405       -19.0318
  46   2.0000      -0.691579       -18.8188
  47   2.0000      -0.683601       -18.6017
  48   2.0000      -0.675259       -18.3747
  49   2.0000      -0.661491       -18.0001
  50   2.0000      -0.660100       -17.9622
  51   2.0000      -0.648707       -17.6522
  52   2.0000      -0.638042       -17.3620
  53   2.0000      -0.613652       -16.6983
  54   2.0000      -0.610462       -16.6115
  55   2.0000      -0.604750       -16.4561
  56   2.0000      -0.597852       -16.2684
  57   2.0000      -0.582028       -15.8378
  58   2.0000      -0.579092       -15.7579
  59   2.0000      -0.568160       -15.4604
  60   2.0000      -0.562216       -15.2987
  61   2.0000      -0.556761       -15.1502
  62   2.0000      -0.554208       -15.0808
  63   2.0000      -0.530689       -14.4408
  64   2.0000      -0.521307       -14.1855
  65   2.0000      -0.514875       -14.0105
  66   2.0000      -0.509075       -13.8526
  67   2.0000      -0.502667       -13.6783
  68   2.0000      -0.489664       -13.3244
  69   2.0000      -0.468492       -12.7483
  70   2.0000      -0.457651       -12.4533
  71   2.0000      -0.453009       -12.3270
  72   2.0000      -0.354897        -9.6573
  73   2.0000      -0.353263        -9.6128
  74   2.0000      -0.328524        -8.9396
  75   2.0000      -0.326542        -8.8857
  76   2.0000      -0.318341        -8.6625
  77   0.0000       0.092014         2.5038
  78   0.0000       0.102395         2.7863
  79   0.0000       0.115854         3.1526
  80   0.0000       0.128150         3.4871
  81   0.0000       0.129786         3.5317

MULLIKEN ATOMIC CHARGES
-----------------------
   0 C :   -0.257877
   1 C :    0.029259
   2 O :   -0.301204
   3 C :    0.404749
   4 O :   -0.379374
   5 C :   -0.204442
   6 C :    0.158455
   7 C :   -0.336719
   8 N :   -0.140146
   9 C :    0.212833
  10 S :   -0.444824
  11 N :   -0.224286
  12 C :    0.052372
  13 C :    0.037376
  14 C :   -0.220680
  15 C :   -0.128099
  16 C :   -0.276899
  17 C :    0.317559
  18 O :   -0.355038
  19 C :   -0.261011
  20 H :    0.105786
  21 H :    0.102058
  22 H :    0.087739
  23 H :    0.087027
  24 H :    0.101467
  25 H :    0.126906
  26 H :    0.132000
  27 H :    0.125555
  28 H :    0.196943
  29 H :    0.201985
  30 H :    0.168526
  31 H :    0.168082
  32 H :    0.164725
  33 H :    0.132337
  34 H :    0.241563
  35 H :    0.175293
Sum of atomic charges:   -0.0000000

LOEWDIN ATOMIC CHARGES
----------------------
   0 C :    0.112198
   1 C :   -0.024572
   2 O :    0.311751
   3 C :   -0.417910
   4 O :    0.122576
   5 C :   -0.082037
   6 C :   -0.098691
   7 C :    0.124756
   8 N :    0.401554
   9 C :   -0.454372
  10 S :   -0.039890
  11 N :    0.395750
  12 C :   -0.050903
  13 C :   -0.043464
  14 C :    0.019015
  15 C :    0.046107
  16 C :    0.000594
  17 C :   -0.190706
  18 O :    0.395654
  19 C :    0.028107
  20 H :   -0.022331
  21 H :   -0.025323
  22 H :   -0.025126
  23 H :   -0.036655
  24 H :   -0.033742
  25 H :   -0.008129
  26 H :   -0.010397
  27 H :   -0.017351
  28 H :   -0.057995
  29 H :   -0.064255
  30 H :   -0.003449
  31 H :   -0.022457
  32 H :   -0.018231
  33 H :   -0.034441
  34 H :   -0.152835
  35 H :   -0.022800

  Mayer bond orders larger than 0.100000
B(  0-C ,  1-C ) :   0.9826 B(  0-C , 20-H ) :   0.9780 B(  0-C , 21-H ) :   0.9785
B(  0-C , 22-H ) :   0.9768 B(  1-C ,  2-O ) :   0.9150 B(  1-C , 23-H ) :   0.9733
B(  1-C , 24-H ) :   0.9571 B(  2-O ,  3-C ) :   1.1821 B(  3-C ,  4-O ) :   2.1177
B(  3-C ,  5-C ) :   0.9034 B(  5-C ,  6-C ) :   1.7271 B(  5-C , 12-C ) :   0.9421
B(  6-C ,  7-C ) :   0.9315 B(  6-C ,  8-N ) :   1.1047 B(  7-C , 25-H ) :   0.9784
B(  7-C , 26-H ) :   0.9741 B(  7-C , 27-H ) :   0.9676 B(  8-N ,  9-C ) :   1.2023
B(  8-N , 28-H ) :   0.9520 B(  9-C , 10-S ) :   1.6084 B(  9-C , 11-N ) :   1.2862
B( 11-N , 12-C ) :   0.9839 B( 11-N , 29-H ) :   0.9471 B( 12-C , 13-C ) :   0.9644
B( 12-C , 30-H ) :   0.9904 B( 13-C , 14-C ) :   1.3813 B( 13-C , 19-C ) :   1.3522
B( 14-C , 15-C ) :   1.3954 B( 14-C , 31-H ) :   0.9642 B( 15-C , 16-C ) :   1.3634
B( 15-C , 32-H ) :   0.9693 B( 16-C , 17-C ) :   1.3299 B( 16-C , 33-H ) :   0.9847
B( 17-C , 18-O ) :   1.1107 B( 17-C , 19-C ) :   1.3616 B( 18-O , 34-H ) :   0.9791
B( 19-C , 35-H ) :   0.9563

MP2 TOTAL ENERGY:    -1274.329285959 Eh
FINAL SINGLE POINT ENERGY     -1274.329285958734

DIPOLE MOMENT
-------------
                                X             Y             Z
Electronic contribution:     10.36049       8.73406       7.98389
Nuclear contribution   :    -12.11434     -10.01426      -8.27354
                        -----------------------------------------
Total Dipole Moment    :     -1.75386      -1.28020      -0.28965
                        -----------------------------------------
Magnitude (a.u.)       :      2.19062
Magnitude (Debye)      :      5.56812

Rotational constants in cm-1:     0.011297     0.008929     0.006263
Rotational constants in MHz :   338.669806   267.697558   187.754529

                             ****ORCA TERMINATED NORMALLY****
TOTAL RUN TIME: 0 days 1 hours 39 minutes 9 seconds 894 msec
