                         Program Version 4.2.0 -  RELEASE  -
|  1> ! ri-mp2 cc-pvtz cc-pvtz/c TightSCF NoKeepInts
|  2>
|  3> %scf
|  4>   MaxCore 4096
|  5> end
|  6> *xyz  0  1
|  7>     C       14.5529973   14.5068537   15.2298217
|  8>     C       15.1944551   15.5839487   16.1195209
|  9>     O       16.4023244   16.0094552   15.4627360
| 10>     C       16.5677219   17.3431253   15.2374746
| 11>     O       16.3609117   17.7963050   14.1271321
| 12>     C       16.9369613   18.1609223   16.4487153
| 13>     C       16.9110284   19.5175111   16.3719194
| 14>     C       16.1941872   20.3625809   15.3386989
| 15>     N       17.5678587   20.3103702   17.3150043
| 16>     C       18.4722181   19.8354054   18.2245422
| 17>     S       19.3134136   20.8401319   19.2334107
| 18>     N       18.6646277   18.4777373   18.2372423
| 19>     C       17.8665671   17.4940467   17.4811862
| 20>     C       17.2327046   16.4588611   18.3957333
| 21>     C       17.7373353   15.1463864   18.4499689
| 22>     C       17.1549827   14.1947662   19.3041420
| 23>     C       16.0664318   14.5613458   20.1144999
| 24>     C       15.5712907   15.8720302   20.0710576
| 25>     O       14.5205882   16.2287816   20.8511753
| 26>     C       16.1507478   16.8167305   19.2181366
| 27>     H       13.6225770   14.1387698   15.6787000
| 28>     H       15.2339648   13.6562869   15.1013571
| 29>     H       14.3195650   14.9152306   14.2382244
| 30>     H       14.4937691   16.4201051   16.2507167
| 31>     H       15.4094560   15.1481357   17.1006684
| 32>     H       15.2140026   19.9347008   15.0933079
| 33>     H       16.7742786   20.4054071   14.4075840
| 34>     H       16.0213410   21.3917085   15.6751346
| 35>     H       17.4625652   21.3121319   17.2877582
| 36>     H       19.3229319   18.1539385   18.9348944
| 37>     H       18.6681490   17.0361855   16.8838103
| 38>     H       18.5773528   14.8608249   17.8216736
| 39>     H       17.5478598   13.1796739   19.3369285
| 40>     H       15.6144023   13.8292581   20.7760001
| 41>     H       14.3032000   15.4705306   21.4147042
| 42>     H       15.7622313   17.8298165   19.2044198
| 43> *
| 44>
| 45>                          ****END OF INPUT****

CARTESIAN COORDINATES (ANGSTROEM)
---------------------------------
  C     14.552997   14.506854   15.229822
  C     15.194455   15.583949   16.119521
  O     16.402324   16.009455   15.462736
  C     16.567722   17.343125   15.237475
  O     16.360912   17.796305   14.127132
  C     16.936961   18.160922   16.448715
  C     16.911028   19.517511   16.371919
  C     16.194187   20.362581   15.338699
  N     17.567859   20.310370   17.315004
  C     18.472218   19.835405   18.224542
  S     19.313414   20.840132   19.233411
  N     18.664628   18.477737   18.237242
  C     17.866567   17.494047   17.481186
  C     17.232705   16.458861   18.395733
  C     17.737335   15.146386   18.449969
  C     17.154983   14.194766   19.304142
  C     16.066432   14.561346   20.114500
  C     15.571291   15.872030   20.071058
  O     14.520588   16.228782   20.851175
  C     16.150748   16.816730   19.218137
  H     13.622577   14.138770   15.678700
  H     15.233965   13.656287   15.101357
  H     14.319565   14.915231   14.238224
  H     14.493769   16.420105   16.250717
  H     15.409456   15.148136   17.100668
  H     15.214003   19.934701   15.093308
  H     16.774279   20.405407   14.407584
  H     16.021341   21.391709   15.675135
  H     17.462565   21.312132   17.287758
  H     19.322932   18.153938   18.934894
  H     18.668149   17.036185   16.883810
  H     18.577353   14.860825   17.821674
  H     17.547860   13.179674   19.336928
  H     15.614402   13.829258   20.776000
  H     14.303200   15.470531   21.414704
  H     15.762231   17.829816   19.204420

 Total Charge           Charge          ....    0
 Multiplicity           Mult            ....    1
 Number of Electrons    NEL             ....  154
 Basis Dimension        Dim             ....  828

ORBITAL ENERGIES
----------------

  NO   OCC          E(Eh)            E(eV)
   0   2.0000     -91.891466     -2500.4939
   1   2.0000     -20.603838      -560.6589
   2   2.0000     -20.582368      -560.0747
   3   2.0000     -20.548026      -559.1402
   4   2.0000     -15.631201      -425.3466
   5   2.0000     -15.610009      -424.7699
   6   2.0000     -11.392007      -309.9923
   7   2.0000     -11.385766      -309.8224
   8   2.0000     -11.338892      -308.5469
   9   2.0000     -11.321896      -308.0844
  10   2.0000     -11.313387      -307.8529
  11   2.0000     -11.295174      -307.3573
  12   2.0000     -11.267355      -306.6003
  13   2.0000     -11.263180      -306.4867
  14   2.0000     -11.259415      -306.3843
  15   2.0000     -11.253986      -306.2365
  16   2.0000     -11.252016      -306.1829
  17   2.0000     -11.246136      -306.0229
  18   2.0000     -11.246083      -306.0215
  19   2.0000     -11.222889      -305.3903
  20   2.0000      -8.896514      -242.0865
  21   2.0000      -6.578080      -178.9987
  22   2.0000      -6.576088      -178.9444
  23   2.0000      -6.575490      -178.9282
  24   2.0000      -1.446785       -39.3690
  25   2.0000      -1.423576       -38.7375
  26   2.0000      -1.354317       -36.8528
  27   2.0000      -1.343387       -36.5554
  28   2.0000      -1.241795       -33.7910
  29   2.0000      -1.164892       -31.6983
  30   2.0000      -1.123421       -30.5698
  31   2.0000      -1.048841       -28.5404
  32   2.0000      -1.032404       -28.0931
  33   2.0000      -1.022810       -27.8321
  34   2.0000      -1.000583       -27.2273
  35   2.0000      -0.987900       -26.8821
  36   2.0000      -0.926415       -25.2090
  37   2.0000      -0.875495       -23.8234
  38   2.0000      -0.851248       -23.1636
  39   2.0000      -0.844313       -22.9749
  40   2.0000      -0.841473       -22.8977
  41   2.0000      -0.833943       -22.6927
  42   2.0000      -0.760515       -20.6947
  43   2.0000      -0.739177       -20.1140
  44   2.0000      -0.723807       -19.6958
  45   2.0000      -0.702590       -19.1185
  46   2.0000      -0.691475       -18.8160
  47   2.0000      -0.677704       -18.4413
  48   2.0000      -0.673237       -18.3197
  49   2.0000      -0.661492       -18.0001
  50   2.0000      -0.649040       -17.6613
  51   2.0000      -0.647713       -17.6252
  52   2.0000      -0.639672       -17.4064
  53   2.0000      -0.613840       -16.7034
  54   2.0000      -0.608617       -16.5613
  55   2.0000      -0.604202       -16.4412
  56   2.0000      -0.592502       -16.1228
  57   2.0000      -0.582806       -15.8589
  58   2.0000      -0.573593       -15.6083
  59   2.0000      -0.568921       -15.4811
  60   2.0000      -0.564910       -15.3720
  61   2.0000      -0.545145       -14.8341
  62   2.0000      -0.540739       -14.7142
  63   2.0000      -0.530381       -14.4324
  64   2.0000      -0.518603       -14.1119
  65   2.0000      -0.511587       -13.9210
  66   2.0000      -0.504648       -13.7322
  67   2.0000      -0.496270       -13.5042
  68   2.0000      -0.486946       -13.2505
  69   2.0000      -0.467630       -12.7249
  70   2.0000      -0.453009       -12.3270
  71   2.0000      -0.446610       -12.1529
  72   2.0000      -0.357457        -9.7269
  73   2.0000      -0.355146        -9.6640
  74   2.0000      -0.332025        -9.0349
  75   2.0000      -0.328715        -8.9448
  76   2.0000      -0.321272        -8.7423
  77   0.0000       0.072496         1.9727
  78   0.0000       0.097125         2.6429
  79   0.0000       0.120706         3.2846
  80   0.0000       0.128117         3.4862
  81   0.0000       0.128863         3.5066

MULLIKEN ATOMIC CHARGES
-----------------------
   0 C :   -0.255733
   1 C :    0.022584
   2 O :   -0.362777
   3 C :    0.441334
   4 O :   -0.382287
   5 C :   -0.274734
   6 C :    0.184757
   7 C :   -0.266948
   8 N :   -0.127748
   9 C :    0.209665
  10 S :   -0.438275
  11 N :   -0.211252
  12 C :    0.051816
  13 C :   -0.026009
  14 C :   -0.154053
  15 C :   -0.136907
  16 C :   -0.270775
  17 C :    0.299593
  18 O :   -0.356555
  19 C :   -0.206215
  20 H :    0.085050
  21 H :    0.094988
  22 H :    0.106161
  23 H :    0.088996
  24 H :    0.117329
  25 H :    0.123860
  26 H :    0.137415
  27 H :    0.094212
  28 H :    0.199848
  29 H :    0.200472
  30 H :    0.151639
  31 H :    0.154021
  32 H :    0.164041
  33 H :    0.134694
  34 H :    0.242111
  35 H :    0.165681
Sum of atomic charges:   -0.0000000

LOEWDIN ATOMIC CHARGES
----------------------
   0 C :    0.108133
   1 C :   -0.020825
   2 O :    0.295947
   3 C :   -0.429286
   4 O :    0.123441
   5 C :   -0.104527
   6 C :   -0.056468
   7 C :    0.129905
   8 N :    0.407743
   9 C :   -0.457535
  10 S :   -0.033281
  11 N :    0.395231
  12 C :   -0.054602
  13 C :   -0.042927
  14 C :    0.017823
  15 C :    0.041975
  16 C :    0.000498
  17 C :   -0.191799
  18 O :    0.396631
  19 C :    0.034741
  20 H :   -0.028679
  21 H :   -0.026418
  22 H :   -0.023694
  23 H :   -0.032614
  24 H :   -0.030622
  25 H :   -0.006397
  26 H :   -0.003931
  27 H :   -0.022931
  28 H :   -0.056202
  29 H :   -0.063721
  30 H :   -0.011487
  31 H :   -0.026973
  32 H :   -0.018941
  33 H :   -0.033546
  34 H :   -0.152216
  35 H :   -0.022447

  Mayer bond orders larger than 0.100000
B(  0-C ,  1-C ) :   0.9876 B(  0-C , 20-H ) :   0.9769 B(  0-C , 21-H ) :   0.9793
B(  0-C , 22-H ) :   0.9787 B(  1-C ,  2-O ) :   0.8790 B(  1-C , 23-H ) :   0.9719
B(  1-C , 24-H ) :   0.9691 B(  2-O ,  3-C ) :   1.1181 B(  3-C ,  4-O ) :   2.0735
B(  3-C ,  5-C ) :   1.0346 B(  5-C ,  6-C ) :   1.6275 B(  5-C , 12-C ) :   0.9617
B(  6-C ,  7-C ) :   0.9651 B(  6-C ,  8-N ) :   1.1547 B(  7-C , 25-H ) :   0.9681
B(  7-C , 26-H ) :   0.9540 B(  7-C , 27-H ) :   0.9873 B(  8-N ,  9-C ) :   1.1872
B(  8-N , 28-H ) :   0.9472 B(  9-C , 10-S ) :   1.6104 B(  9-C , 11-N ) :   1.3056
B( 11-N , 12-C ) :   0.9651 B( 11-N , 29-H ) :   0.9485 B( 12-C , 13-C ) :   0.9668
B( 12-C , 30-H ) :   1.0055 B( 13-C , 14-C ) :   1.3534 B( 13-C , 19-C ) :   1.3737
B( 14-C , 15-C ) :   1.3961 B( 14-C , 31-H ) :   0.9717 B( 15-C , 16-C ) :   1.3596
B( 15-C , 32-H ) :   0.9703 B( 16-C , 17-C ) :   1.3292 B( 16-C , 33-H ) :   0.9837
B( 17-C , 18-O ) :   1.1084 B( 17-C , 19-C ) :   1.3696 B( 18-O , 34-H ) :   0.9784
B( 19-C , 35-H ) :   0.9599

MP2 TOTAL ENERGY:    -1274.323540616 Eh
FINAL SINGLE POINT ENERGY     -1274.323540616272

DIPOLE MOMENT
-------------
                                X             Y             Z
Electronic contribution:     10.02617      10.10116       6.91197
Nuclear contribution   :    -11.24518     -11.58773      -6.50984
                        -----------------------------------------
Total Dipole Moment    :     -1.21901      -1.48657       0.40213
                        -----------------------------------------
Magnitude (a.u.)       :      1.96407
Magnitude (Debye)      :      4.99227

Rotational constants in cm-1:     0.012096     0.008683     0.005974
Rotational constants in MHz :   362.622750   260.302057   179.100616

                             ****ORCA TERMINATED NORMALLY****
TOTAL RUN TIME: 0 days 1 hours 45 minutes 53 seconds 922 msec
