                         Program Version 4.2.0 -  RELEASE  -
|  1> ! ri-mp2 cc-pvtz cc-pvtz/c TightSCF NoKeepInts
|  2>
|  3> %scf
|  4>   MaxCore 4096
|  5> end
|  6> *xyz  0  1
|  7>     C       14.4897277   15.6959292   16.3688041
|  8>     C       15.1020424   16.2180610   15.0564871
|  9>     O       16.4866707   15.8220128   14.9964140
| 10>     C       17.5469190   16.5550066   15.4681074
| 11>     O       18.6950373   16.2201589   15.2455156
| 12>     C       17.2298560   17.6576329   16.4192128
| 13>     C       16.9378029   18.8859240   15.9284719
| 14>     C       16.6331756   19.2435737   14.4871526
| 15>     N       16.9973429   20.0180478   16.7427837
| 16>     C       17.6022319   20.0457739   17.9718342
| 17>     S       17.7589243   21.4472752   18.8352714
| 18>     N       18.1017043   18.8527661   18.4338639
| 19>     C       17.8778125   17.5374389   17.8004262
| 20>     C       17.2335594   16.4850226   18.6908643
| 21>     C       17.6272028   15.1390610   18.5814621
| 22>     C       17.0257745   14.1515723   19.3791146
| 23>     C       16.0213974   14.5130092   20.2931959
| 24>     C       15.6252663   15.8529945   20.4026903
| 25>     O       14.6490037   16.2029454   21.2772778
| 26>     C       16.2249084   16.8345549   19.6068497
| 27>     H       14.8540642   16.2670830   17.2285209
| 28>     H       14.7413146   14.6389073   16.5235500
| 29>     H       13.3971234   15.7875670   16.3456735
| 30>     H       14.5721407   15.7407277   14.2218689
| 31>     H       14.9589178   17.2985761   14.9619108
| 32>     H       16.8051110   18.4101232   13.7952726
| 33>     H       17.2782617   20.0641506   14.1467900
| 34>     H       15.5912042   19.5663070   14.3719396
| 35>     H       16.6790150   20.9084924   16.3938751
| 36>     H       18.5495817   18.8992819   19.3406642
| 37>     H       18.9216590   17.2506707   17.6017929
| 38>     H       18.3983344   14.8568601   17.8671389
| 39>     H       17.3373912   13.1126198   19.2844853
| 40>     H       15.5533262   13.7529819   20.9101126
| 41>     H       14.3871870   15.4025697   21.7569475
| 42>     H       15.8960077   17.8643208   19.7016575
| 43> *
| 44>
| 45>                          ****END OF INPUT****

CARTESIAN COORDINATES (ANGSTROEM)
---------------------------------
  C     14.489728   15.695929   16.368804
  C     15.102042   16.218061   15.056487
  O     16.486671   15.822013   14.996414
  C     17.546919   16.555007   15.468107
  O     18.695037   16.220159   15.245516
  C     17.229856   17.657633   16.419213
  C     16.937803   18.885924   15.928472
  C     16.633176   19.243574   14.487153
  N     16.997343   20.018048   16.742784
  C     17.602232   20.045774   17.971834
  S     17.758924   21.447275   18.835271
  N     18.101704   18.852766   18.433864
  C     17.877813   17.537439   17.800426
  C     17.233559   16.485023   18.690864
  C     17.627203   15.139061   18.581462
  C     17.025774   14.151572   19.379115
  C     16.021397   14.513009   20.293196
  C     15.625266   15.852994   20.402690
  O     14.649004   16.202945   21.277278
  C     16.224908   16.834555   19.606850
  H     14.854064   16.267083   17.228521
  H     14.741315   14.638907   16.523550
  H     13.397123   15.787567   16.345674
  H     14.572141   15.740728   14.221869
  H     14.958918   17.298576   14.961911
  H     16.805111   18.410123   13.795273
  H     17.278262   20.064151   14.146790
  H     15.591204   19.566307   14.371940
  H     16.679015   20.908492   16.393875
  H     18.549582   18.899282   19.340664
  H     18.921659   17.250671   17.601793
  H     18.398334   14.856860   17.867139
  H     17.337391   13.112620   19.284485
  H     15.553326   13.752982   20.910113
  H     14.387187   15.402570   21.756947
  H     15.896008   17.864321   19.701657

 Total Charge           Charge          ....    0
 Multiplicity           Mult            ....    1
 Number of Electrons    NEL             ....  154
 Basis Dimension        Dim             ....  828

ORBITAL ENERGIES
----------------

  NO   OCC          E(Eh)            E(eV)
   0   2.0000     -91.889505     -2500.4406
   1   2.0000     -20.603729      -560.6560
   2   2.0000     -20.600183      -560.5595
   3   2.0000     -20.553085      -559.2779
   4   2.0000     -15.626212      -425.2109
   5   2.0000     -15.610181      -424.7746
   6   2.0000     -11.401372      -310.2471
   7   2.0000     -11.385612      -309.8182
   8   2.0000     -11.330964      -308.3312
   9   2.0000     -11.317998      -307.9784
  10   2.0000     -11.313045      -307.8436
  11   2.0000     -11.307421      -307.6906
  12   2.0000     -11.269380      -306.6554
  13   2.0000     -11.266502      -306.5771
  14   2.0000     -11.264573      -306.5246
  15   2.0000     -11.258827      -306.3683
  16   2.0000     -11.246628      -306.0363
  17   2.0000     -11.242367      -305.9203
  18   2.0000     -11.240666      -305.8741
  19   2.0000     -11.227635      -305.5195
  20   2.0000      -8.894612      -242.0347
  21   2.0000      -6.576196      -178.9474
  22   2.0000      -6.574180      -178.8925
  23   2.0000      -6.573601      -178.8768
  24   2.0000      -1.449500       -39.4429
  25   2.0000      -1.419888       -38.6371
  26   2.0000      -1.363921       -37.1142
  27   2.0000      -1.340400       -36.4741
  28   2.0000      -1.239388       -33.7255
  29   2.0000      -1.162236       -31.6260
  30   2.0000      -1.127251       -30.6740
  31   2.0000      -1.049501       -28.5584
  32   2.0000      -1.038427       -28.2570
  33   2.0000      -1.020555       -27.7707
  34   2.0000      -1.007024       -27.4025
  35   2.0000      -0.990469       -26.9520
  36   2.0000      -0.927342       -25.2342
  37   2.0000      -0.892452       -24.2848
  38   2.0000      -0.854344       -23.2479
  39   2.0000      -0.842331       -22.9210
  40   2.0000      -0.837388       -22.7865
  41   2.0000      -0.833839       -22.6899
  42   2.0000      -0.753902       -20.5147
  43   2.0000      -0.740335       -20.1455
  44   2.0000      -0.732631       -19.9359
  45   2.0000      -0.697724       -18.9860
  46   2.0000      -0.691389       -18.8136
  47   2.0000      -0.682903       -18.5827
  48   2.0000      -0.674594       -18.3566
  49   2.0000      -0.665431       -18.1073
  50   2.0000      -0.652630       -17.7590
  51   2.0000      -0.638772       -17.3819
  52   2.0000      -0.637168       -17.3382
  53   2.0000      -0.620935       -16.8965
  54   2.0000      -0.613783       -16.7019
  55   2.0000      -0.608101       -16.5473
  56   2.0000      -0.603442       -16.4205
  57   2.0000      -0.588339       -16.0095
  58   2.0000      -0.578802       -15.7500
  59   2.0000      -0.572261       -15.5720
  60   2.0000      -0.563750       -15.3404
  61   2.0000      -0.558129       -15.1875
  62   2.0000      -0.538491       -14.6531
  63   2.0000      -0.535084       -14.5604
  64   2.0000      -0.520365       -14.1599
  65   2.0000      -0.512504       -13.9459
  66   2.0000      -0.506672       -13.7873
  67   2.0000      -0.502886       -13.6842
  68   2.0000      -0.487453       -13.2643
  69   2.0000      -0.466743       -12.7007
  70   2.0000      -0.454292       -12.3619
  71   2.0000      -0.452785       -12.3209
  72   2.0000      -0.357308        -9.7229
  73   2.0000      -0.350966        -9.5503
  74   2.0000      -0.329150        -8.9566
  75   2.0000      -0.325763        -8.8645
  76   2.0000      -0.319893        -8.7047
  77   0.0000       0.091602         2.4926
  78   0.0000       0.104730         2.8498
  79   0.0000       0.114118         3.1053
  80   0.0000       0.125322         3.4102
  81   0.0000       0.129301         3.5185

MULLIKEN ATOMIC CHARGES
-----------------------
   0 C :   -0.292368
   1 C :    0.023881
   2 O :   -0.315077
   3 C :    0.424251
   4 O :   -0.381926
   5 C :   -0.196727
   6 C :    0.125087
   7 C :   -0.329759
   8 N :   -0.141054
   9 C :    0.212848
  10 S :   -0.444027
  11 N :   -0.236395
  12 C :    0.071302
  13 C :    0.014613
  14 C :   -0.217756
  15 C :   -0.136494
  16 C :   -0.271511
  17 C :    0.321482
  18 O :   -0.355414
  19 C :   -0.253446
  20 H :    0.105885
  21 H :    0.110675
  22 H :    0.102216
  23 H :    0.122560
  24 H :    0.086380
  25 H :    0.124641
  26 H :    0.138734
  27 H :    0.123356
  28 H :    0.196146
  29 H :    0.206486
  30 H :    0.170328
  31 H :    0.173220
  32 H :    0.165536
  33 H :    0.132715
  34 H :    0.241220
  35 H :    0.178392
Sum of atomic charges:   -0.0000000

LOEWDIN ATOMIC CHARGES
----------------------
   0 C :    0.106945
   1 C :   -0.022814
   2 O :    0.308973
   3 C :   -0.417391
   4 O :    0.122030
   5 C :   -0.079863
   6 C :   -0.099785
   7 C :    0.122593
   8 N :    0.402144
   9 C :   -0.456196
  10 S :   -0.038960
  11 N :    0.396770
  12 C :   -0.048710
  13 C :   -0.043291
  14 C :    0.019222
  15 C :    0.046542
  16 C :   -0.000052
  17 C :   -0.190116
  18 O :    0.396507
  19 C :    0.026879
  20 H :   -0.031759
  21 H :   -0.022439
  22 H :   -0.026916
  23 H :   -0.022122
  24 H :   -0.037607
  25 H :   -0.008726
  26 H :   -0.008417
  27 H :   -0.017613
  28 H :   -0.057391
  29 H :   -0.063798
  30 H :   -0.003122
  31 H :   -0.021961
  32 H :   -0.018146
  33 H :   -0.034653
  34 H :   -0.152963
  35 H :   -0.023795

  Mayer bond orders larger than 0.100000
B(  0-C ,  1-C ) :   0.9681 B(  0-C , 20-H ) :   0.9695 B(  0-C , 21-H ) :   0.9739
B(  0-C , 22-H ) :   0.9773 B(  1-C ,  2-O ) :   0.9020 B(  1-C , 23-H ) :   0.9842
B(  1-C , 24-H ) :   0.9675 B(  2-O ,  3-C ) :   1.1694 B(  3-C ,  4-O ) :   2.0990
B(  3-C ,  5-C ) :   0.9082 B(  5-C ,  6-C ) :   1.7307 B(  5-C , 12-C ) :   0.9352
B(  6-C ,  7-C ) :   0.9347 B(  6-C ,  8-N ) :   1.1027 B(  7-C , 25-H ) :   0.9791
B(  7-C , 26-H ) :   0.9710 B(  7-C , 27-H ) :   0.9677 B(  8-N ,  9-C ) :   1.2026
B(  8-N , 28-H ) :   0.9520 B(  9-C , 10-S ) :   1.6069 B(  9-C , 11-N ) :   1.2892
B( 11-N , 12-C ) :   0.9716 B( 11-N , 29-H ) :   0.9454 B( 12-C , 13-C ) :   0.9739
B( 12-C , 30-H ) :   0.9880 B( 13-C , 14-C ) :   1.3841 B( 13-C , 19-C ) :   1.3420
B( 14-C , 15-C ) :   1.4013 B( 14-C , 31-H ) :   0.9611 B( 15-C , 16-C ) :   1.3580
B( 15-C , 32-H ) :   0.9690 B( 16-C , 17-C ) :   1.3331 B( 16-C , 33-H ) :   0.9843
B( 17-C , 18-O ) :   1.1101 B( 17-C , 19-C ) :   1.3602 B( 18-O , 34-H ) :   0.9793
B( 19-C , 35-H ) :   0.9571

MP2 TOTAL ENERGY:    -1274.326513897 Eh
FINAL SINGLE POINT ENERGY     -1274.326513896719

DIPOLE MOMENT
-------------
                                X             Y             Z
Electronic contribution:      8.94325       7.43942       6.84916
Nuclear contribution   :    -10.61406      -8.68224      -7.39009
                        -----------------------------------------
Total Dipole Moment    :     -1.67080      -1.24282      -0.54093
                        -----------------------------------------
Magnitude (a.u.)       :      2.15146
Magnitude (Debye)      :      5.46859

Rotational constants in cm-1:     0.011710     0.009191     0.006362
Rotational constants in MHz :   351.049368   275.537326   190.738943

                             ****ORCA TERMINATED NORMALLY****
TOTAL RUN TIME: 0 days 1 hours 43 minutes 5 seconds 739 msec
