                         Program Version 4.2.0 -  RELEASE  -
|  1> ! ri-mp2 cc-pvtz cc-pvtz/c TightSCF NoKeepInts
|  2>
|  3> %scf
|  4>   MaxCore 4096
|  5> end
|  6> *xyz  0  1
|  7>     C       14.3833567   15.5279814   15.0451646
|  8>     C       15.5044842   15.2770398   16.0739746
|  9>     O       16.7609744   15.7652827   15.5574378
| 10>     C       16.8889490   17.0894877   15.2588906
| 11>     O       16.8439123   17.4659326   14.1018856
| 12>     C       17.0300105   17.9919923   16.4565138
| 13>     C       16.8977671   19.3343438   16.2979036
| 14>     C       16.2411885   20.0554099   15.1386769
| 15>     N       17.3654451   20.2282748   17.2629981
| 16>     C       18.1920562   19.8817719   18.2965335
| 17>     S       18.8151549   21.0061377   19.3368734
| 18>     N       18.4977188   18.5494620   18.4104036
| 19>     C       17.8830242   17.4611466   17.6260208
| 20>     C       17.2403816   16.4070753   18.5150514
| 21>     C       17.7318459   15.0887544   18.5370028
| 22>     C       17.1347031   14.1192483   19.3600481
| 23>     C       16.0440488   14.4733829   20.1728730
| 24>     C       15.5610730   15.7892157   20.1619006
| 25>     O       14.5080227   16.1338705   20.9443452
| 26>     C       16.1552196   16.7514876   19.3392651
| 27>     H       14.1880618   16.6003166   14.9206610
| 28>     H       13.4512135   15.0510144   15.3713111
| 29>     H       14.6569132   15.1111134   14.0674113
| 30>     H       15.2378793   15.7723728   17.0137871
| 31>     H       15.5877506   14.2001953   16.2696610
| 32>     H       15.3521984   19.5136387   14.7920698
| 33>     H       16.9326864   20.1255490   14.2888310
| 34>     H       15.9196581   21.0712890   15.3970338
| 35>     H       17.1788025   21.2136811   17.1655548
| 36>     H       19.0951552   18.3211130   19.1952402
| 37>     H       18.7875605   17.0542001   17.1514499
| 38>     H       18.5721115   14.8123400   17.9047565
| 39>     H       17.5182612   13.1001105   19.3673282
| 40>     H       15.5807269   13.7277675   20.8110134
| 41>     H       14.2761664   15.3609321   21.4813460
| 42>     H       15.7725180   17.7670690   19.3467816
| 43> *
| 44>
| 45>                          ****END OF INPUT****

CARTESIAN COORDINATES (ANGSTROEM)
---------------------------------
  C     14.383357   15.527981   15.045165
  C     15.504484   15.277040   16.073975
  O     16.760974   15.765283   15.557438
  C     16.888949   17.089488   15.258891
  O     16.843912   17.465933   14.101886
  C     17.030010   17.991992   16.456514
  C     16.897767   19.334344   16.297904
  C     16.241188   20.055410   15.138677
  N     17.365445   20.228275   17.262998
  C     18.192056   19.881772   18.296533
  S     18.815155   21.006138   19.336873
  N     18.497719   18.549462   18.410404
  C     17.883024   17.461147   17.626021
  C     17.240382   16.407075   18.515051
  C     17.731846   15.088754   18.537003
  C     17.134703   14.119248   19.360048
  C     16.044049   14.473383   20.172873
  C     15.561073   15.789216   20.161901
  O     14.508023   16.133871   20.944345
  C     16.155220   16.751488   19.339265
  H     14.188062   16.600317   14.920661
  H     13.451213   15.051014   15.371311
  H     14.656913   15.111113   14.067411
  H     15.237879   15.772373   17.013787
  H     15.587751   14.200195   16.269661
  H     15.352198   19.513639   14.792070
  H     16.932686   20.125549   14.288831
  H     15.919658   21.071289   15.397034
  H     17.178802   21.213681   17.165555
  H     19.095155   18.321113   19.195240
  H     18.787560   17.054200   17.151450
  H     18.572111   14.812340   17.904757
  H     17.518261   13.100110   19.367328
  H     15.580727   13.727767   20.811013
  H     14.276166   15.360932   21.481346
  H     15.772518   17.767069   19.346782

 Total Charge           Charge          ....    0
 Multiplicity           Mult            ....    1
 Number of Electrons    NEL             ....  154
 Basis Dimension        Dim             ....  828

ORBITAL ENERGIES
----------------

  NO   OCC          E(Eh)            E(eV)
   0   2.0000     -91.891502     -2500.4949
   1   2.0000     -20.602488      -560.6222
   2   2.0000     -20.582930      -560.0900
   3   2.0000     -20.548983      -559.1663
   4   2.0000     -15.631018      -425.3416
   5   2.0000     -15.610088      -424.7721
   6   2.0000     -11.392557      -310.0072
   7   2.0000     -11.385884      -309.8256
   8   2.0000     -11.338254      -308.5296
   9   2.0000     -11.320408      -308.0440
  10   2.0000     -11.313604      -307.8588
  11   2.0000     -11.297561      -307.4223
  12   2.0000     -11.266542      -306.5782
  13   2.0000     -11.261365      -306.4373
  14   2.0000     -11.259012      -306.3733
  15   2.0000     -11.254491      -306.2503
  16   2.0000     -11.250388      -306.1386
  17   2.0000     -11.245038      -305.9930
  18   2.0000     -11.244389      -305.9754
  19   2.0000     -11.224983      -305.4473
  20   2.0000      -8.896550      -242.0874
  21   2.0000      -6.578115      -178.9996
  22   2.0000      -6.576124      -178.9454
  23   2.0000      -6.575525      -178.9291
  24   2.0000      -1.445530       -39.3349
  25   2.0000      -1.422259       -38.7016
  26   2.0000      -1.354376       -36.8544
  27   2.0000      -1.343111       -36.5479
  28   2.0000      -1.241542       -33.7841
  29   2.0000      -1.163422       -31.6583
  30   2.0000      -1.123148       -30.5624
  31   2.0000      -1.047981       -28.5170
  32   2.0000      -1.031123       -28.0583
  33   2.0000      -1.021407       -27.7939
  34   2.0000      -1.000907       -27.2361
  35   2.0000      -0.988183       -26.8898
  36   2.0000      -0.925926       -25.1957
  37   2.0000      -0.888136       -24.1674
  38   2.0000      -0.850727       -23.1495
  39   2.0000      -0.843516       -22.9532
  40   2.0000      -0.840476       -22.8705
  41   2.0000      -0.829570       -22.5737
  42   2.0000      -0.752613       -20.4796
  43   2.0000      -0.737456       -20.0672
  44   2.0000      -0.717286       -19.5183
  45   2.0000      -0.700582       -19.0638
  46   2.0000      -0.689964       -18.7749
  47   2.0000      -0.679802       -18.4984
  48   2.0000      -0.670662       -18.2496
  49   2.0000      -0.668076       -18.1793
  50   2.0000      -0.650691       -17.7062
  51   2.0000      -0.647054       -17.6072
  52   2.0000      -0.637086       -17.3360
  53   2.0000      -0.613456       -16.6930
  54   2.0000      -0.611621       -16.6430
  55   2.0000      -0.603792       -16.4300
  56   2.0000      -0.602717       -16.4008
  57   2.0000      -0.581336       -15.8189
  58   2.0000      -0.574126       -15.6228
  59   2.0000      -0.568260       -15.4631
  60   2.0000      -0.555716       -15.1218
  61   2.0000      -0.546277       -14.8650
  62   2.0000      -0.540343       -14.7035
  63   2.0000      -0.528474       -14.3805
  64   2.0000      -0.525798       -14.3077
  65   2.0000      -0.516807       -14.0630
  66   2.0000      -0.503786       -13.7087
  67   2.0000      -0.495921       -13.4947
  68   2.0000      -0.479136       -13.0380
  69   2.0000      -0.466935       -12.7060
  70   2.0000      -0.457443       -12.4477
  71   2.0000      -0.446138       -12.1400
  72   2.0000      -0.356557        -9.7024
  73   2.0000      -0.353738        -9.6257
  74   2.0000      -0.330882        -9.0037
  75   2.0000      -0.327707        -8.9173
  76   2.0000      -0.321307        -8.7432
  77   0.0000       0.072550         1.9742
  78   0.0000       0.097579         2.6553
  79   0.0000       0.121975         3.3191
  80   0.0000       0.128070         3.4850
  81   0.0000       0.130394         3.5482

MULLIKEN ATOMIC CHARGES
-----------------------
   0 C :   -0.273035
   1 C :    0.019826
   2 O :   -0.369080
   3 C :    0.445201
   4 O :   -0.381797
   5 C :   -0.246709
   6 C :    0.163427
   7 C :   -0.269219
   8 N :   -0.127711
   9 C :    0.208258
  10 S :   -0.437118
  11 N :   -0.208097
  12 C :    0.043351
  13 C :   -0.016766
  14 C :   -0.141469
  15 C :   -0.144784
  16 C :   -0.271092
  17 C :    0.305476
  18 O :   -0.356094
  19 C :   -0.232126
  20 H :    0.087024
  21 H :    0.098338
  22 H :    0.111373
  23 H :    0.103339
  24 H :    0.116128
  25 H :    0.123288
  26 H :    0.138203
  27 H :    0.095030
  28 H :    0.200022
  29 H :    0.199964
  30 H :    0.152676
  31 H :    0.152877
  32 H :    0.165370
  33 H :    0.134675
  34 H :    0.241466
  35 H :    0.169781
Sum of atomic charges:   -0.0000000

LOEWDIN ATOMIC CHARGES
----------------------
   0 C :    0.106527
   1 C :   -0.022249
   2 O :    0.291508
   3 C :   -0.426558
   4 O :    0.125422
   5 C :   -0.104595
   6 C :   -0.057949
   7 C :    0.129958
   8 N :    0.407578
   9 C :   -0.457990
  10 S :   -0.032913
  11 N :    0.395435
  12 C :   -0.053405
  13 C :   -0.043808
  14 C :    0.022129
  15 C :    0.042451
  16 C :    0.000403
  17 C :   -0.192407
  18 O :    0.396311
  19 C :    0.031375
  20 H :   -0.031048
  21 H :   -0.026876
  22 H :   -0.021650
  23 H :   -0.036493
  24 H :   -0.021700
  25 H :   -0.007392
  26 H :   -0.003912
  27 H :   -0.022630
  28 H :   -0.056299
  29 H :   -0.063364
  30 H :   -0.011333
  31 H :   -0.026418
  32 H :   -0.019370
  33 H :   -0.034001
  34 H :   -0.152616
  35 H :   -0.022120

  Mayer bond orders larger than 0.100000
B(  0-C ,  1-C ) :   0.9826 B(  0-C , 20-H ) :   0.9739 B(  0-C , 21-H ) :   0.9766
B(  0-C , 22-H ) :   0.9766 B(  1-C ,  2-O ) :   0.8862 B(  1-C , 23-H ) :   0.9624
B(  1-C , 24-H ) :   0.9784 B(  2-O ,  3-C ) :   1.1116 B(  3-C ,  4-O ) :   2.0759
B(  3-C ,  5-C ) :   1.0141 B(  5-C ,  6-C ) :   1.6412 B(  5-C , 12-C ) :   0.9572
B(  6-C ,  7-C ) :   0.9648 B(  6-C ,  8-N ) :   1.1507 B(  7-C , 25-H ) :   0.9696
B(  7-C , 26-H ) :   0.9542 B(  7-C , 27-H ) :   0.9863 B(  8-N ,  9-C ) :   1.1869
B(  8-N , 28-H ) :   0.9475 B(  9-C , 10-S ) :   1.6144 B(  9-C , 11-N ) :   1.3003
B( 11-N , 12-C ) :   0.9769 B( 11-N , 29-H ) :   0.9483 B( 12-C , 13-C ) :   0.9650
B( 12-C , 30-H ) :   1.0048 B( 13-C , 14-C ) :   1.3632 B( 13-C , 19-C ) :   1.3644
B( 14-C , 15-C ) :   1.3928 B( 14-C , 31-H ) :   0.9722 B( 15-C , 16-C ) :   1.3603
B( 15-C , 32-H ) :   0.9696 B( 16-C , 17-C ) :   1.3318 B( 16-C , 33-H ) :   0.9833
B( 17-C , 18-O ) :   1.1086 B( 17-C , 19-C ) :   1.3646 B( 18-O , 34-H ) :   0.9789
B( 19-C , 35-H ) :   0.9594

MP2 TOTAL ENERGY:    -1274.323743462 Eh
FINAL SINGLE POINT ENERGY     -1274.323743461639

DIPOLE MOMENT
-------------
                                X             Y             Z
Electronic contribution:      9.96468       8.36031       7.88908
Nuclear contribution   :    -11.19982      -9.95068      -7.65745
                        -----------------------------------------
Total Dipole Moment    :     -1.23514      -1.59037       0.23163
                        -----------------------------------------
Magnitude (a.u.)       :      2.02695
Magnitude (Debye)      :      5.15209

Rotational constants in cm-1:     0.011670     0.009107     0.006087
Rotational constants in MHz :   349.867606   273.025661   182.473721

                             ****ORCA TERMINATED NORMALLY****
TOTAL RUN TIME: 0 days 1 hours 44 minutes 38 seconds 606 msec
