                         Program Version 4.2.0 -  RELEASE  -
|  1> ! ri-mp2 cc-pvtz cc-pvtz/c TightSCF NoKeepInts
|  2>
|  3> %scf
|  4>   MaxCore 4096
|  5> end
|  6> *xyz  0  1
|  7>     C       14.4634440   15.4476800   15.8775002
|  8>     C       15.1607299   15.6951540   14.5219011
|  9>     O       16.0728265   16.8036036   14.6360342
| 10>     C       17.0936710   16.7152267   15.5349303
| 11>     O       17.7844377   15.7144982   15.6285916
| 12>     C       17.1452005   17.8386069   16.5272873
| 13>     C       16.8439922   19.1200847   16.1938969
| 14>     C       16.2198478   19.6183533   14.9057149
| 15>     N       17.1540279   20.1723795   17.0589428
| 16>     C       17.9469945   20.0535755   18.1688447
| 17>     S       18.3565238   21.3630699   19.0923817
| 18>     N       18.4015998   18.7926126   18.4632257
| 19>     C       17.9908374   17.5545076   17.7726202
| 20>     C       17.3542241   16.5263506   18.6979792
| 21>     C       17.8626296   15.2172376   18.7730321
| 22>     C       17.2643686   14.2656663   19.6158913
| 23>     C       16.1480068   14.6265449   20.3897558
| 24>     C       15.6374561   15.9297546   20.3141557
| 25>     O       14.5550966   16.2788042   21.0542618
| 26>     C       16.2349273   16.8745174   19.4738391
| 27>     H       15.1757013   15.0933326   16.6342938
| 28>     H       13.6842828   14.6833585   15.7706521
| 29>     H       13.9917118   16.3664860   16.2474766
| 30>     H       15.6993831   14.7897755   14.2099746
| 31>     H       14.4059560   15.9224050   13.7582188
| 32>     H       15.1854372   19.2643443   14.8141840
| 33>     H       16.7793401   19.2550409   14.0344381
| 34>     H       16.1994148   20.7129387   14.8387385
| 35>     H       16.8464333   21.1072846   16.8437266
| 36>     H       18.9672667   18.7294668   19.3002540
| 37>     H       18.9633331   17.1975552   17.4031413
| 38>     H       18.7147217   14.9328514   18.1599081
| 39>     H       17.6629790   13.2537242   19.6611619
| 40>     H       15.6817569   13.8940972   21.0402511
| 41>     H       14.3121333   15.5106362   21.5926038
| 42>     H       15.8263066   17.8784749   19.4281903
| 43> *
| 44>
| 45>                          ****END OF INPUT****

CARTESIAN COORDINATES (ANGSTROEM)
---------------------------------
  C     14.463444   15.447680   15.877500
  C     15.160730   15.695154   14.521901
  O     16.072827   16.803604   14.636034
  C     17.093671   16.715227   15.534930
  O     17.784438   15.714498   15.628592
  C     17.145201   17.838607   16.527287
  C     16.843992   19.120085   16.193897
  C     16.219848   19.618353   14.905715
  N     17.154028   20.172380   17.058943
  C     17.946994   20.053576   18.168845
  S     18.356524   21.363070   19.092382
  N     18.401600   18.792613   18.463226
  C     17.990837   17.554508   17.772620
  C     17.354224   16.526351   18.697979
  C     17.862630   15.217238   18.773032
  C     17.264369   14.265666   19.615891
  C     16.148007   14.626545   20.389756
  C     15.637456   15.929755   20.314156
  O     14.555097   16.278804   21.054262
  C     16.234927   16.874517   19.473839
  H     15.175701   15.093333   16.634294
  H     13.684283   14.683359   15.770652
  H     13.991712   16.366486   16.247477
  H     15.699383   14.789775   14.209975
  H     14.405956   15.922405   13.758219
  H     15.185437   19.264344   14.814184
  H     16.779340   19.255041   14.034438
  H     16.199415   20.712939   14.838738
  H     16.846433   21.107285   16.843727
  H     18.967267   18.729467   19.300254
  H     18.963333   17.197555   17.403141
  H     18.714722   14.932851   18.159908
  H     17.662979   13.253724   19.661162
  H     15.681757   13.894097   21.040251
  H     14.312133   15.510636   21.592604
  H     15.826307   17.878475   19.428190

 Total Charge           Charge          ....    0
 Multiplicity           Mult            ....    1
 Number of Electrons    NEL             ....  154
 Basis Dimension        Dim             ....  828

ORBITAL ENERGIES
----------------

  NO   OCC          E(Eh)            E(eV)
   0   2.0000     -91.888770     -2500.4205
   1   2.0000     -20.594303      -560.3995
   2   2.0000     -20.592018      -560.3373
   3   2.0000     -20.549064      -559.1685
   4   2.0000     -15.629178      -425.2916
   5   2.0000     -15.606662      -424.6789
   6   2.0000     -11.394438      -310.0584
   7   2.0000     -11.383601      -309.7635
   8   2.0000     -11.337694      -308.5143
   9   2.0000     -11.310583      -307.7766
  10   2.0000     -11.305253      -307.6316
  11   2.0000     -11.301558      -307.5310
  12   2.0000     -11.259460      -306.3855
  13   2.0000     -11.259370      -306.3830
  14   2.0000     -11.257408      -306.3296
  15   2.0000     -11.250716      -306.1475
  16   2.0000     -11.240855      -305.8792
  17   2.0000     -11.236706      -305.7663
  18   2.0000     -11.233587      -305.6814
  19   2.0000     -11.228028      -305.5302
  20   2.0000      -8.893847      -242.0139
  21   2.0000      -6.575422      -178.9263
  22   2.0000      -6.573421      -178.8719
  23   2.0000      -6.572832      -178.8558
  24   2.0000      -1.451879       -39.5076
  25   2.0000      -1.414074       -38.4789
  26   2.0000      -1.356511       -36.9125
  27   2.0000      -1.340279       -36.4708
  28   2.0000      -1.237621       -33.6774
  29   2.0000      -1.155064       -31.4309
  30   2.0000      -1.121929       -30.5292
  31   2.0000      -1.043662       -28.3995
  32   2.0000      -1.032128       -28.0856
  33   2.0000      -1.012444       -27.5500
  34   2.0000      -1.000256       -27.2183
  35   2.0000      -0.985484       -26.8164
  36   2.0000      -0.922407       -25.1000
  37   2.0000      -0.895214       -24.3600
  38   2.0000      -0.848166       -23.0798
  39   2.0000      -0.836954       -22.7747
  40   2.0000      -0.830747       -22.6058
  41   2.0000      -0.816303       -22.2127
  42   2.0000      -0.750671       -20.4268
  43   2.0000      -0.735735       -20.0204
  44   2.0000      -0.727806       -19.8046
  45   2.0000      -0.692499       -18.8439
  46   2.0000      -0.686251       -18.6738
  47   2.0000      -0.678360       -18.4591
  48   2.0000      -0.670546       -18.2465
  49   2.0000      -0.659919       -17.9573
  50   2.0000      -0.653185       -17.7741
  51   2.0000      -0.645875       -17.5752
  52   2.0000      -0.633831       -17.2474
  53   2.0000      -0.612535       -16.6679
  54   2.0000      -0.604018       -16.4362
  55   2.0000      -0.600294       -16.3348
  56   2.0000      -0.597739       -16.2653
  57   2.0000      -0.579712       -15.7748
  58   2.0000      -0.574891       -15.6436
  59   2.0000      -0.562967       -15.3191
  60   2.0000      -0.554009       -15.0753
  61   2.0000      -0.550267       -14.9735
  62   2.0000      -0.537798       -14.6342
  63   2.0000      -0.532746       -14.4968
  64   2.0000      -0.518547       -14.1104
  65   2.0000      -0.510418       -13.8892
  66   2.0000      -0.497666       -13.5422
  67   2.0000      -0.493520       -13.4294
  68   2.0000      -0.481950       -13.1145
  69   2.0000      -0.464124       -12.6295
  70   2.0000      -0.459071       -12.4920
  71   2.0000      -0.449845       -12.2409
  72   2.0000      -0.353532        -9.6201
  73   2.0000      -0.347045        -9.4436
  74   2.0000      -0.327858        -8.9215
  75   2.0000      -0.317989        -8.6529
  76   2.0000      -0.317398        -8.6368
  77   0.0000       0.074839         2.0365
  78   0.0000       0.107714         2.9310
  79   0.0000       0.119479         3.2512
  80   0.0000       0.133708         3.6384
  81   0.0000       0.141121         3.8401

MULLIKEN ATOMIC CHARGES
-----------------------
   0 C :   -0.316772
   1 C :    0.037733
   2 O :   -0.370141
   3 C :    0.424708
   4 O :   -0.407676
   5 C :   -0.168947
   6 C :    0.148546
   7 C :   -0.280440
   8 N :   -0.127896
   9 C :    0.208341
  10 S :   -0.441230
  11 N :   -0.211719
  12 C :    0.052951
  13 C :    0.018525
  14 C :   -0.171769
  15 C :   -0.134415
  16 C :   -0.278383
  17 C :    0.314176
  18 O :   -0.358562
  19 C :   -0.248005
  20 H :    0.124787
  21 H :    0.105341
  22 H :    0.097222
  23 H :    0.109199
  24 H :    0.107200
  25 H :    0.125943
  26 H :    0.127252
  27 H :    0.101660
  28 H :    0.198519
  29 H :    0.199368
  30 H :    0.155969
  31 H :    0.161959
  32 H :    0.161268
  33 H :    0.129939
  34 H :    0.240319
  35 H :    0.165030
Sum of atomic charges:   -0.0000000

LOEWDIN ATOMIC CHARGES
----------------------
   0 C :    0.105645
   1 C :   -0.018754
   2 O :    0.295800
   3 C :   -0.418882
   4 O :    0.113681
   5 C :   -0.093972
   6 C :   -0.066556
   7 C :    0.126343
   8 N :    0.405522
   9 C :   -0.457551
  10 S :   -0.036993
  11 N :    0.396135
  12 C :   -0.048058
  13 C :   -0.042112
  14 C :    0.023740
  15 C :    0.040694
  16 C :   -0.001213
  17 C :   -0.193001
  18 O :    0.393613
  19 C :    0.030206
  20 H :   -0.022321
  21 H :   -0.024996
  22 H :   -0.028887
  23 H :   -0.027361
  24 H :   -0.024715
  25 H :   -0.010072
  26 H :   -0.007933
  27 H :   -0.020816
  28 H :   -0.058488
  29 H :   -0.063529
  30 H :   -0.007495
  31 H :   -0.023376
  32 H :   -0.020481
  33 H :   -0.035712
  34 H :   -0.154448
  35 H :   -0.023657

  Mayer bond orders larger than 0.100000
B(  0-C ,  1-C ) :   0.9573 B(  0-C , 20-H ) :   0.9687 B(  0-C , 21-H ) :   0.9767
B(  0-C , 22-H ) :   0.9751 B(  1-C ,  2-O ) :   0.9014 B(  1-C , 23-H ) :   0.9818
B(  1-C , 24-H ) :   0.9837 B(  2-O ,  3-C ) :   1.0888 B(  3-C ,  4-O ) :   2.0154
B(  3-C ,  5-C ) :   1.0244 B(  5-C ,  6-C ) :   1.6642 B(  5-C , 12-C ) :   0.9480
B(  6-C ,  7-C ) :   0.9558 B(  6-C ,  8-N ) :   1.1380 B(  7-C , 25-H ) :   0.9639
B(  7-C , 26-H ) :   0.9656 B(  7-C , 27-H ) :   0.9899 B(  8-N ,  9-C ) :   1.1851
B(  8-N , 28-H ) :   0.9471 B(  9-C , 10-S ) :   1.6106 B(  9-C , 11-N ) :   1.3034
B( 11-N , 12-C ) :   0.9796 B( 11-N , 29-H ) :   0.9487 B( 12-C , 13-C ) :   0.9656
B( 12-C , 30-H ) :   0.9954 B( 13-C , 14-C ) :   1.3808 B( 13-C , 19-C ) :   1.3661
B( 14-C , 15-C ) :   1.3962 B( 14-C , 31-H ) :   0.9625 B( 15-C , 16-C ) :   1.3594
B( 15-C , 32-H ) :   0.9710 B( 16-C , 17-C ) :   1.3322 B( 16-C , 33-H ) :   0.9854
B( 17-C , 18-O ) :   1.1051 B( 17-C , 19-C ) :   1.3666 B( 18-O , 34-H ) :   0.9803
B( 19-C , 35-H ) :   0.9598

MP2 TOTAL ENERGY:    -1274.334159406 Eh
FINAL SINGLE POINT ENERGY     -1274.334159406269

DIPOLE MOMENT
-------------
                                X             Y             Z
Electronic contribution:      9.36642       9.24020       7.83470
Nuclear contribution   :    -10.75801     -10.55641      -8.73354
                        -----------------------------------------
Total Dipole Moment    :     -1.39160      -1.31621      -0.89884
                        -----------------------------------------
Magnitude (a.u.)       :      2.11586
Magnitude (Debye)      :      5.37809

Rotational constants in cm-1:     0.011084     0.009230     0.006151
Rotational constants in MHz :   332.286830   276.702783   184.389566

                             ****ORCA TERMINATED NORMALLY****
TOTAL RUN TIME: 0 days 1 hours 43 minutes 21 seconds 659 msec
