                         Program Version 4.2.0 -  RELEASE  -
|  1> ! ri-mp2 cc-pvtz cc-pvtz/c TightSCF NoKeepInts
|  2>
|  3> %scf
|  4>   MaxCore 4096
|  5> end
|  6> *xyz  0  1
|  7>     C       13.7564605   15.8858898   14.6830848
|  8>     C       14.8319958   16.3011724   15.6999227
|  9>     O       16.1112451   16.1249143   15.0592794
| 10>     C       17.2778180   16.6593647   15.5439520
| 11>     O       18.3622193   16.2222787   15.2070367
| 12>     C       17.1451246   17.7176373   16.5874529
| 13>     C       16.7027463   18.9509264   16.2420116
| 14>     C       16.0761157   19.3601894   14.9234064
| 15>     N       16.8751527   20.0386807   17.0995126
| 16>     C       17.6947713   20.0265266   18.1977262
| 17>     S       17.9476999   21.3816889   19.1107759
| 18>     N       18.3153317   18.8351996   18.4858312
| 19>     C       18.0435991   17.5499371   17.8109673
| 20>     C       17.5833577   16.4243566   18.7241616
| 21>     C       18.1139665   15.1310432   18.5711681
| 22>     C       17.6775671   14.0788426   19.3933162
| 23>     C       16.6996962   14.3219600   20.3732000
| 24>     C       16.1638568   15.6086280   20.5220193
| 25>     O       15.2118632   15.8436997   21.4595958
| 26>     C       16.5990135   16.6542190   19.7011995
| 27>     H       12.7546254   15.9821394   15.1190568
| 28>     H       13.8985624   14.8415857   14.3771701
| 29>     H       13.8050732   16.5171783   13.7871049
| 30>     H       14.6473193   17.3403253   15.9908597
| 31>     H       14.7708541   15.6733572   16.5993172
| 32>     H       14.9953303   19.5130706   15.0297335
| 33>     H       16.2325469   18.6170537   14.1319411
| 34>     H       16.5128347   20.2973763   14.5548041
| 35>     H       16.4591197   20.9291843   16.8758207
| 36>     H       18.9131663   18.8520298   19.3027992
| 37>     H       19.0450939   17.3251417   17.4139610
| 38>     H       18.8615704   14.9400035   17.8035905
| 39>     H       18.0945768   13.0811159   19.2659943
| 40>     H       16.3590876   13.5114931   21.0092216
| 41>     H       15.0781542   15.0193557   21.9515204
| 42>     H       16.1694839   17.6424344   19.8294846
| 43> *
| 44>
| 45>                          ****END OF INPUT****

CARTESIAN COORDINATES (ANGSTROEM)
---------------------------------
  C     13.756460   15.885890   14.683085
  C     14.831996   16.301172   15.699923
  O     16.111245   16.124914   15.059279
  C     17.277818   16.659365   15.543952
  O     18.362219   16.222279   15.207037
  C     17.145125   17.717637   16.587453
  C     16.702746   18.950926   16.242012
  C     16.076116   19.360189   14.923406
  N     16.875153   20.038681   17.099513
  C     17.694771   20.026527   18.197726
  S     17.947700   21.381689   19.110776
  N     18.315332   18.835200   18.485831
  C     18.043599   17.549937   17.810967
  C     17.583358   16.424357   18.724162
  C     18.113967   15.131043   18.571168
  C     17.677567   14.078843   19.393316
  C     16.699696   14.321960   20.373200
  C     16.163857   15.608628   20.522019
  O     15.211863   15.843700   21.459596
  C     16.599014   16.654219   19.701199
  H     12.754625   15.982139   15.119057
  H     13.898562   14.841586   14.377170
  H     13.805073   16.517178   13.787105
  H     14.647319   17.340325   15.990860
  H     14.770854   15.673357   16.599317
  H     14.995330   19.513071   15.029734
  H     16.232547   18.617054   14.131941
  H     16.512835   20.297376   14.554804
  H     16.459120   20.929184   16.875821
  H     18.913166   18.852030   19.302799
  H     19.045094   17.325142   17.413961
  H     18.861570   14.940003   17.803590
  H     18.094577   13.081116   19.265994
  H     16.359088   13.511493   21.009222
  H     15.078154   15.019356   21.951520
  H     16.169484   17.642434   19.829485

 Total Charge           Charge          ....    0
 Multiplicity           Mult            ....    1
 Number of Electrons    NEL             ....  154
 Basis Dimension        Dim             ....  828

ORBITAL ENERGIES
----------------

  NO   OCC          E(Eh)            E(eV)
   0   2.0000     -91.889564     -2500.4422
   1   2.0000     -20.604775      -560.6844
   2   2.0000     -20.599606      -560.5438
   3   2.0000     -20.551298      -559.2292
   4   2.0000     -15.627349      -425.2418
   5   2.0000     -15.609579      -424.7582
   6   2.0000     -11.399326      -310.1914
   7   2.0000     -11.385643      -309.8191
   8   2.0000     -11.332643      -308.3769
   9   2.0000     -11.316981      -307.9507
  10   2.0000     -11.310496      -307.7742
  11   2.0000     -11.306241      -307.6585
  12   2.0000     -11.268165      -306.6224
  13   2.0000     -11.264865      -306.5326
  14   2.0000     -11.263365      -306.4917
  15   2.0000     -11.257419      -306.3299
  16   2.0000     -11.246054      -306.0207
  17   2.0000     -11.242079      -305.9125
  18   2.0000     -11.239818      -305.8510
  19   2.0000     -11.236782      -305.7684
  20   2.0000      -8.894674      -242.0364
  21   2.0000      -6.576257      -178.9490
  22   2.0000      -6.574243      -178.8942
  23   2.0000      -6.573662      -178.8784
  24   2.0000      -1.449990       -39.4562
  25   2.0000      -1.419299       -38.6211
  26   2.0000      -1.363413       -37.1004
  27   2.0000      -1.340543       -36.4780
  28   2.0000      -1.239090       -33.7174
  29   2.0000      -1.161412       -31.6036
  30   2.0000      -1.126627       -30.6571
  31   2.0000      -1.048736       -28.5376
  32   2.0000      -1.043315       -28.3900
  33   2.0000      -1.019195       -27.7337
  34   2.0000      -1.006072       -27.3766
  35   2.0000      -0.989707       -26.9313
  36   2.0000      -0.926546       -25.2126
  37   2.0000      -0.882924       -24.0256
  38   2.0000      -0.855719       -23.2853
  39   2.0000      -0.842609       -22.9285
  40   2.0000      -0.838034       -22.8041
  41   2.0000      -0.836186       -22.7538
  42   2.0000      -0.759205       -20.6590
  43   2.0000      -0.739956       -20.1352
  44   2.0000      -0.732750       -19.9391
  45   2.0000      -0.697023       -18.9669
  46   2.0000      -0.689547       -18.7635
  47   2.0000      -0.682559       -18.5734
  48   2.0000      -0.674233       -18.3468
  49   2.0000      -0.665886       -18.1197
  50   2.0000      -0.656332       -17.8597
  51   2.0000      -0.648832       -17.6556
  52   2.0000      -0.638705       -17.3801
  53   2.0000      -0.613487       -16.6938
  54   2.0000      -0.607513       -16.5313
  55   2.0000      -0.603140       -16.4123
  56   2.0000      -0.598148       -16.2764
  57   2.0000      -0.585031       -15.9195
  58   2.0000      -0.577807       -15.7229
  59   2.0000      -0.569225       -15.4894
  60   2.0000      -0.561916       -15.2905
  61   2.0000      -0.561013       -15.2660
  62   2.0000      -0.549938       -14.9646
  63   2.0000      -0.530105       -14.4249
  64   2.0000      -0.523369       -14.2416
  65   2.0000      -0.515176       -14.0187
  66   2.0000      -0.506778       -13.7901
  67   2.0000      -0.501635       -13.6502
  68   2.0000      -0.488604       -13.2956
  69   2.0000      -0.468375       -12.7451
  70   2.0000      -0.458674       -12.4811
  71   2.0000      -0.451953       -12.2983
  72   2.0000      -0.356169        -9.6919
  73   2.0000      -0.351741        -9.5713
  74   2.0000      -0.329094        -8.9551
  75   2.0000      -0.324700        -8.8355
  76   2.0000      -0.319456        -8.6928
  77   0.0000       0.086341         2.3495
  78   0.0000       0.104513         2.8439
  79   0.0000       0.113964         3.1011
  80   0.0000       0.127833         3.4785
  81   0.0000       0.129965         3.5365

MULLIKEN ATOMIC CHARGES
-----------------------
   0 C :   -0.258432
   1 C :    0.027422
   2 O :   -0.312148
   3 C :    0.413811
   4 O :   -0.382442
   5 C :   -0.210215
   6 C :    0.144176
   7 C :   -0.329777
   8 N :   -0.138451
   9 C :    0.210046
  10 S :   -0.443136
  11 N :   -0.222292
  12 C :    0.055107
  13 C :    0.029472
  14 C :   -0.225325
  15 C :   -0.127037
  16 C :   -0.277889
  17 C :    0.315202
  18 O :   -0.355820
  19 C :   -0.252181
  20 H :    0.090084
  21 H :    0.107386
  22 H :    0.094422
  23 H :    0.087973
  24 H :    0.117264
  25 H :    0.123075
  26 H :    0.133367
  27 H :    0.134117
  28 H :    0.197345
  29 H :    0.202451
  30 H :    0.167542
  31 H :    0.174765
  32 H :    0.164602
  33 H :    0.131689
  34 H :    0.241313
  35 H :    0.172513
Sum of atomic charges:   -0.0000000

LOEWDIN ATOMIC CHARGES
----------------------
   0 C :    0.110283
   1 C :   -0.022086
   2 O :    0.306854
   3 C :   -0.415494
   4 O :    0.120799
   5 C :   -0.084290
   6 C :   -0.093755
   7 C :    0.125574
   8 N :    0.402362
   9 C :   -0.456002
  10 S :   -0.038463
  11 N :    0.396065
  12 C :   -0.049958
  13 C :   -0.043898
  14 C :    0.018942
  15 C :    0.044799
  16 C :   -0.000136
  17 C :   -0.191205
  18 O :    0.395067
  19 C :    0.027470
  20 H :   -0.024448
  21 H :   -0.022885
  22 H :   -0.027607
  23 H :   -0.038717
  24 H :   -0.027670
  25 H :   -0.017436
  26 H :   -0.007866
  27 H :   -0.010118
  28 H :   -0.057194
  29 H :   -0.063725
  30 H :   -0.004053
  31 H :   -0.021568
  32 H :   -0.018551
  33 H :   -0.034796
  34 H :   -0.153143
  35 H :   -0.023150

  Mayer bond orders larger than 0.100000
B(  0-C ,  1-C ) :   0.9787 B(  0-C , 20-H ) :   0.9761 B(  0-C , 21-H ) :   0.9781
B(  0-C , 22-H ) :   0.9770 B(  1-C ,  2-O ) :   0.9056 B(  1-C , 23-H ) :   0.9643
B(  1-C , 24-H ) :   0.9755 B(  2-O ,  3-C ) :   1.1839 B(  3-C ,  4-O ) :   2.1032
B(  3-C ,  5-C ) :   0.9187 B(  5-C ,  6-C ) :   1.7224 B(  5-C , 12-C ) :   0.9434
B(  6-C ,  7-C ) :   0.9355 B(  6-C ,  8-N ) :   1.1067 B(  7-C , 25-H ) :   0.9661
B(  7-C , 26-H ) :   0.9754 B(  7-C , 27-H ) :   0.9756 B(  8-N ,  9-C ) :   1.1971
B(  8-N , 28-H ) :   0.9511 B(  9-C , 10-S ) :   1.6099 B(  9-C , 11-N ) :   1.2909
B( 11-N , 12-C ) :   0.9835 B( 11-N , 29-H ) :   0.9473 B( 12-C , 13-C ) :   0.9670
B( 12-C , 30-H ) :   0.9893 B( 13-C , 14-C ) :   1.3835 B( 13-C , 19-C ) :   1.3552
B( 14-C , 15-C ) :   1.3941 B( 14-C , 31-H ) :   0.9604 B( 15-C , 16-C ) :   1.3620
B( 15-C , 32-H ) :   0.9696 B( 16-C , 17-C ) :   1.3307 B( 16-C , 33-H ) :   0.9850
B( 17-C , 18-O ) :   1.1089 B( 17-C , 19-C ) :   1.3663 B( 18-O , 34-H ) :   0.9793
B( 19-C , 35-H ) :   0.9564

MP2 TOTAL ENERGY:    -1274.330811348 Eh
FINAL SINGLE POINT ENERGY     -1274.330811348401

DIPOLE MOMENT
-------------
                                X             Y             Z
Electronic contribution:     11.12096       6.98526       9.57117
Nuclear contribution   :    -12.78571      -8.20920      -9.88176
                        -----------------------------------------
Total Dipole Moment    :     -1.66476      -1.22394      -0.31059
                        -----------------------------------------
Magnitude (a.u.)       :      2.08948
Magnitude (Debye)      :      5.31103

Rotational constants in cm-1:     0.010317     0.009195     0.006156
Rotational constants in MHz :   309.301927   275.651403   184.546682

                             ****ORCA TERMINATED NORMALLY****
TOTAL RUN TIME: 0 days 1 hours 38 minutes 15 seconds 900 msec
