                         Program Version 4.2.0 -  RELEASE  -
|  1> ! ri-mp2 cc-pvtz cc-pvtz/c TightSCF NoKeepInts
|  2>
|  3> %scf
|  4>   MaxCore 4096
|  5> end
|  6> *xyz  0  1
|  7>     C       14.9264123   14.6223731   15.1828889
|  8>     C       14.7462539   16.0898628   14.7382178
|  9>     O       15.9857018   16.8350075   14.6871252
| 10>     C       16.9679856   16.6785800   15.6230871
| 11>     O       17.6124206   15.6494814   15.7327298
| 12>     C       17.1184627   17.8329084   16.5712302
| 13>     C       16.9078595   19.1226738   16.1987162
| 14>     C       16.2992919   19.6297582   14.9061080
| 15>     N       17.3128029   20.1767562   17.0216207
| 16>     C       18.1208285   20.0373410   18.1178509
| 17>     S       18.6464512   21.3434344   18.9856683
| 18>     N       18.4883609   18.7570057   18.4463932
| 19>     C       17.9683630   17.5307080   17.8107317
| 20>     C       17.2836089   16.5853857   18.7890670
| 21>     C       17.6781254   15.2383928   18.8790648
| 22>     C       17.0402059   14.3650535   19.7757789
| 23>     C       15.9991970   14.8431767   20.5900210
| 24>     C       15.6022163   16.1844864   20.5003925
| 25>     O       14.5932260   16.6473168   21.2807102
| 26>     C       16.2383046   17.0510332   19.6056999
| 27>     H       15.6732424   14.1150562   14.5588143
| 28>     H       13.9798832   14.0766709   15.0894214
| 29>     H       15.2452743   14.5590154   16.2313500
| 30>     H       14.2749573   16.1140308   13.7472054
| 31>     H       14.0609871   16.5810617   15.4413896
| 32>     H       15.2417437   19.3474809   14.8366783
| 33>     H       16.8207504   19.2076774   14.0375310
| 34>     H       16.3536805   20.7210785   14.8099914
| 35>     H       17.0717311   21.1245033   16.7794772
| 36>     H       19.0692688   18.6797839   19.2717587
| 37>     H       18.9033251   17.0896505   17.4349566
| 38>     H       18.4726659   14.8643223   18.2372830
| 39>     H       17.3506251   13.3232028   19.8322037
| 40>     H       15.5030664   14.1716943   21.2828327
| 41>     H       14.3112565   15.9177471   21.8527104
| 42>     H       15.9184635   18.0862882   19.5512936
| 43> *
| 44>
| 45>                          ****END OF INPUT****

CARTESIAN COORDINATES (ANGSTROEM)
---------------------------------
  C     14.926412   14.622373   15.182889
  C     14.746254   16.089863   14.738218
  O     15.985702   16.835007   14.687125
  C     16.967986   16.678580   15.623087
  O     17.612421   15.649481   15.732730
  C     17.118463   17.832908   16.571230
  C     16.907860   19.122674   16.198716
  C     16.299292   19.629758   14.906108
  N     17.312803   20.176756   17.021621
  C     18.120828   20.037341   18.117851
  S     18.646451   21.343434   18.985668
  N     18.488361   18.757006   18.446393
  C     17.968363   17.530708   17.810732
  C     17.283609   16.585386   18.789067
  C     17.678125   15.238393   18.879065
  C     17.040206   14.365053   19.775779
  C     15.999197   14.843177   20.590021
  C     15.602216   16.184486   20.500393
  O     14.593226   16.647317   21.280710
  C     16.238305   17.051033   19.605700
  H     15.673242   14.115056   14.558814
  H     13.979883   14.076671   15.089421
  H     15.245274   14.559015   16.231350
  H     14.274957   16.114031   13.747205
  H     14.060987   16.581062   15.441390
  H     15.241744   19.347481   14.836678
  H     16.820750   19.207677   14.037531
  H     16.353680   20.721078   14.809991
  H     17.071731   21.124503   16.779477
  H     19.069269   18.679784   19.271759
  H     18.903325   17.089650   17.434957
  H     18.472666   14.864322   18.237283
  H     17.350625   13.323203   19.832204
  H     15.503066   14.171694   21.282833
  H     14.311256   15.917747   21.852710
  H     15.918463   18.086288   19.551294

 Total Charge           Charge          ....    0
 Multiplicity           Mult            ....    1
 Number of Electrons    NEL             ....  154
 Basis Dimension        Dim             ....  828

ORBITAL ENERGIES
----------------

  NO   OCC          E(Eh)            E(eV)
   0   2.0000     -91.888812     -2500.4217
   1   2.0000     -20.594202      -560.3967
   2   2.0000     -20.588434      -560.2398
   3   2.0000     -20.550286      -559.2017
   4   2.0000     -15.629432      -425.2985
   5   2.0000     -15.606487      -424.6741
   6   2.0000     -11.395677      -310.0921
   7   2.0000     -11.383483      -309.7603
   8   2.0000     -11.338617      -308.5395
   9   2.0000     -11.310456      -307.7732
  10   2.0000     -11.307486      -307.6923
  11   2.0000     -11.304599      -307.6138
  12   2.0000     -11.259811      -306.3950
  13   2.0000     -11.259617      -306.3898
  14   2.0000     -11.257505      -306.3323
  15   2.0000     -11.250511      -306.1420
  16   2.0000     -11.240599      -305.8722
  17   2.0000     -11.236676      -305.7655
  18   2.0000     -11.233240      -305.6720
  19   2.0000     -11.225112      -305.4508
  20   2.0000      -8.893893      -242.0151
  21   2.0000      -6.575469      -178.9276
  22   2.0000      -6.573467      -178.8731
  23   2.0000      -6.572877      -178.8571
  24   2.0000      -1.446873       -39.3714
  25   2.0000      -1.413956       -38.4757
  26   2.0000      -1.356892       -36.9229
  27   2.0000      -1.340518       -36.4773
  28   2.0000      -1.237702       -33.6796
  29   2.0000      -1.154719       -31.4215
  30   2.0000      -1.121304       -30.5122
  31   2.0000      -1.043307       -28.3898
  32   2.0000      -1.033059       -28.1110
  33   2.0000      -1.012348       -27.5474
  34   2.0000      -0.999937       -27.2097
  35   2.0000      -0.984758       -26.7966
  36   2.0000      -0.922279       -25.0965
  37   2.0000      -0.893241       -24.3063
  38   2.0000      -0.849490       -23.1158
  39   2.0000      -0.837574       -22.7915
  40   2.0000      -0.830578       -22.6012
  41   2.0000      -0.823217       -22.4009
  42   2.0000      -0.744695       -20.2642
  43   2.0000      -0.728788       -19.8313
  44   2.0000      -0.726632       -19.7727
  45   2.0000      -0.691809       -18.8251
  46   2.0000      -0.684590       -18.6286
  47   2.0000      -0.680012       -18.5041
  48   2.0000      -0.675166       -18.3722
  49   2.0000      -0.666019       -18.1233
  50   2.0000      -0.647571       -17.6213
  51   2.0000      -0.644275       -17.5316
  52   2.0000      -0.634306       -17.2604
  53   2.0000      -0.613964       -16.7068
  54   2.0000      -0.604783       -16.4570
  55   2.0000      -0.600292       -16.3348
  56   2.0000      -0.597592       -16.2613
  57   2.0000      -0.575887       -15.6707
  58   2.0000      -0.573541       -15.6069
  59   2.0000      -0.567406       -15.4399
  60   2.0000      -0.555946       -15.1281
  61   2.0000      -0.549073       -14.9410
  62   2.0000      -0.538271       -14.6471
  63   2.0000      -0.527239       -14.3469
  64   2.0000      -0.517464       -14.0809
  65   2.0000      -0.510999       -13.9050
  66   2.0000      -0.497882       -13.5481
  67   2.0000      -0.493283       -13.4229
  68   2.0000      -0.480173       -13.0662
  69   2.0000      -0.463911       -12.6236
  70   2.0000      -0.456929       -12.4337
  71   2.0000      -0.448504       -12.2044
  72   2.0000      -0.353670        -9.6239
  73   2.0000      -0.346903        -9.4397
  74   2.0000      -0.327910        -8.9229
  75   2.0000      -0.318072        -8.6552
  76   2.0000      -0.317178        -8.6309
  77   0.0000       0.073172         1.9911
  78   0.0000       0.107883         2.9356
  79   0.0000       0.121134         3.2962
  80   0.0000       0.133871         3.6428
  81   0.0000       0.138267         3.7624

MULLIKEN ATOMIC CHARGES
-----------------------
   0 C :   -0.285568
   1 C :    0.039954
   2 O :   -0.380442
   3 C :    0.444732
   4 O :   -0.394828
   5 C :   -0.191226
   6 C :    0.155498
   7 C :   -0.281988
   8 N :   -0.127774
   9 C :    0.207006
  10 S :   -0.441287
  11 N :   -0.212593
  12 C :    0.048004
  13 C :    0.031560
  14 C :   -0.182851
  15 C :   -0.133785
  16 C :   -0.278140
  17 C :    0.314301
  18 O :   -0.358468
  19 C :   -0.254008
  20 H :    0.113589
  21 H :    0.097539
  22 H :    0.109040
  23 H :    0.104121
  24 H :    0.083364
  25 H :    0.122942
  26 H :    0.130224
  27 H :    0.103529
  28 H :    0.198806
  29 H :    0.199828
  30 H :    0.157420
  31 H :    0.164137
  32 H :    0.161885
  33 H :    0.129699
  34 H :    0.240324
  35 H :    0.165455
Sum of atomic charges:   -0.0000000

LOEWDIN ATOMIC CHARGES
----------------------
   0 C :    0.106265
   1 C :   -0.017137
   2 O :    0.287894
   3 C :   -0.416393
   4 O :    0.125520
   5 C :   -0.096764
   6 C :   -0.064886
   7 C :    0.125757
   8 N :    0.405643
   9 C :   -0.458285
  10 S :   -0.036966
  11 N :    0.396199
  12 C :   -0.048781
  13 C :   -0.041805
  14 C :    0.023733
  15 C :    0.040518
  16 C :   -0.001333
  17 C :   -0.192805
  18 O :    0.393316
  19 C :    0.028680
  20 H :   -0.021915
  21 H :   -0.027151
  22 H :   -0.025298
  23 H :   -0.023123
  24 H :   -0.035038
  25 H :   -0.010562
  26 H :   -0.007101
  27 H :   -0.020777
  28 H :   -0.058479
  29 H :   -0.063428
  30 H :   -0.007725
  31 H :   -0.023346
  32 H :   -0.020508
  33 H :   -0.035806
  34 H :   -0.154441
  35 H :   -0.023672

  Mayer bond orders larger than 0.100000
B(  0-C ,  1-C ) :   0.9811 B(  0-C , 20-H ) :   0.9724 B(  0-C , 21-H ) :   0.9730
B(  0-C , 22-H ) :   0.9710 B(  1-C ,  2-O ) :   0.9077 B(  1-C , 23-H ) :   0.9787
B(  1-C , 24-H ) :   0.9746 B(  2-O ,  3-C ) :   1.0671 B(  3-C ,  4-O ) :   2.0326
B(  3-C ,  5-C ) :   1.0213 B(  5-C ,  6-C ) :   1.6615 B(  5-C , 12-C ) :   0.9500
B(  6-C ,  7-C ) :   0.9532 B(  6-C ,  8-N ) :   1.1388 B(  7-C , 25-H ) :   0.9665
B(  7-C , 26-H ) :   0.9644 B(  7-C , 27-H ) :   0.9902 B(  8-N ,  9-C ) :   1.1848
B(  8-N , 28-H ) :   0.9471 B(  9-C , 10-S ) :   1.6100 B(  9-C , 11-N ) :   1.3043
B( 11-N , 12-C ) :   0.9778 B( 11-N , 29-H ) :   0.9486 B( 12-C , 13-C ) :   0.9686
B( 12-C , 30-H ) :   0.9960 B( 13-C , 14-C ) :   1.3771 B( 13-C , 19-C ) :   1.3641
B( 14-C , 15-C ) :   1.3958 B( 14-C , 31-H ) :   0.9621 B( 15-C , 16-C ) :   1.3592
B( 15-C , 32-H ) :   0.9706 B( 16-C , 17-C ) :   1.3325 B( 16-C , 33-H ) :   0.9855
B( 17-C , 18-O ) :   1.1048 B( 17-C , 19-C ) :   1.3669 B( 18-O , 34-H ) :   0.9803
B( 19-C , 35-H ) :   0.9595

MP2 TOTAL ENERGY:    -1274.325558282 Eh
FINAL SINGLE POINT ENERGY     -1274.325558281642

DIPOLE MOMENT
-------------
                                X             Y             Z
Electronic contribution:      9.24968      10.31974       8.98667
Nuclear contribution   :    -10.81440     -11.51758      -9.80432
                        -----------------------------------------
Total Dipole Moment    :     -1.56471      -1.19784      -0.81765
                        -----------------------------------------
Magnitude (a.u.)       :      2.13347
Magnitude (Debye)      :      5.42285

Rotational constants in cm-1:     0.010728     0.009177     0.005912
Rotational constants in MHz :   321.606533   275.104791   177.237062

                             ****ORCA TERMINATED NORMALLY****
TOTAL RUN TIME: 0 days 1 hours 48 minutes 47 seconds 62 msec
