                         Program Version 4.2.0 -  RELEASE  -
|  1> ! ri-mp2 cc-pvtz cc-pvtz/c TightSCF NoKeepInts
|  2>
|  3> %scf
|  4>   MaxCore 4096
|  5> end
|  6> *xyz  0  1
|  7>     C       14.0377299   15.1441345   15.2356151
|  8>     C       15.0200816   16.2475822   15.6599221
|  9>     O       16.3377863   15.8132471   15.2764494
| 10>     C       17.4754563   16.5078926   15.5959907
| 11>     O       18.5803583   16.1215001   15.2655521
| 12>     C       17.2876229   17.6715932   16.5058727
| 13>     C       16.9882794   18.8818932   15.9804490
| 14>     C       16.5433557   19.1698056   14.5611795
| 15>     N       17.1416508   20.0464442   16.7340703
| 16>     C       17.8164960   20.1030380   17.9259131
| 17>     S       18.0621849   21.5320713   18.7206531
| 18>     N       18.2989722   18.9127747   18.4151096
| 19>     C       18.0136174   17.5805860   17.8445415
| 20>     C       17.3610894   16.5906513   18.7963683
| 21>     C       17.8031739   15.2562938   18.8372651
| 22>     C       17.1873154   14.3267634   19.6917728
| 23>     C       16.1182571   14.7347200   20.5079733
| 24>     C       15.6711463   16.0624071   20.4627775
| 25>     O       14.6317773   16.4561273   21.2407089
| 26>     C       16.2852016   16.9857324   19.6103318
| 27>     H       14.2860048   14.1965572   15.7303276
| 28>     H       14.0767740   14.9871202   14.1503767
| 29>     H       13.0104993   15.4149410   15.5082832
| 30>     H       14.7529728   17.1882884   15.1639985
| 31>     H       14.9589711   16.3852704   16.7484314
| 32>     H       16.6232521   18.2949852   13.9042375
| 33>     H       17.1655913   19.9537506   14.1102604
| 34>     H       15.5012371   19.5110385   14.5365196
| 35>     H       16.8308615   20.9317701   16.3655995
| 36>     H       18.7912123   18.9823133   19.2971605
| 37>     H       19.0352329   17.2507039   17.6019755
| 38>     H       18.6219262   14.9368887   18.1955490
| 39>     H       17.5365583   13.2957132   19.7153433
| 40>     H       15.6388415   14.0191446   21.1679253
| 41>     H       14.3736433   15.6982620   21.7870310
| 42>     H       15.9218686   18.0079947   19.5864650
| 43> *
| 44>
| 45>                          ****END OF INPUT****

CARTESIAN COORDINATES (ANGSTROEM)
---------------------------------
  C     14.037730   15.144134   15.235615
  C     15.020082   16.247582   15.659922
  O     16.337786   15.813247   15.276449
  C     17.475456   16.507893   15.595991
  O     18.580358   16.121500   15.265552
  C     17.287623   17.671593   16.505873
  C     16.988279   18.881893   15.980449
  C     16.543356   19.169806   14.561179
  N     17.141651   20.046444   16.734070
  C     17.816496   20.103038   17.925913
  S     18.062185   21.532071   18.720653
  N     18.298972   18.912775   18.415110
  C     18.013617   17.580586   17.844541
  C     17.361089   16.590651   18.796368
  C     17.803174   15.256294   18.837265
  C     17.187315   14.326763   19.691773
  C     16.118257   14.734720   20.507973
  C     15.671146   16.062407   20.462777
  O     14.631777   16.456127   21.240709
  C     16.285202   16.985732   19.610332
  H     14.286005   14.196557   15.730328
  H     14.076774   14.987120   14.150377
  H     13.010499   15.414941   15.508283
  H     14.752973   17.188288   15.163998
  H     14.958971   16.385270   16.748431
  H     16.623252   18.294985   13.904238
  H     17.165591   19.953751   14.110260
  H     15.501237   19.511039   14.536520
  H     16.830862   20.931770   16.365599
  H     18.791212   18.982313   19.297161
  H     19.035233   17.250704   17.601976
  H     18.621926   14.936889   18.195549
  H     17.536558   13.295713   19.715343
  H     15.638841   14.019145   21.167925
  H     14.373643   15.698262   21.787031
  H     15.921869   18.007995   19.586465

 Total Charge           Charge          ....    0
 Multiplicity           Mult            ....    1
 Number of Electrons    NEL             ....  154
 Basis Dimension        Dim             ....  828

ORBITAL ENERGIES
----------------

  NO   OCC          E(Eh)            E(eV)
   0   2.0000     -91.888870     -2500.4233
   1   2.0000     -20.605382      -560.7009
   2   2.0000     -20.601343      -560.5910
   3   2.0000     -20.552473      -559.2612
   4   2.0000     -15.625385      -425.1884
   5   2.0000     -15.609824      -424.7649
   6   2.0000     -11.399058      -310.1841
   7   2.0000     -11.385222      -309.8077
   8   2.0000     -11.328691      -308.2694
   9   2.0000     -11.319106      -308.0085
  10   2.0000     -11.312645      -307.8327
  11   2.0000     -11.305750      -307.6451
  12   2.0000     -11.267686      -306.6093
  13   2.0000     -11.267074      -306.5927
  14   2.0000     -11.261671      -306.4456
  15   2.0000     -11.259766      -306.3938
  16   2.0000     -11.247998      -306.0736
  17   2.0000     -11.243929      -305.9629
  18   2.0000     -11.242564      -305.9257
  19   2.0000     -11.234714      -305.7121
  20   2.0000      -8.893987      -242.0177
  21   2.0000      -6.575573      -178.9304
  22   2.0000      -6.573556      -178.8756
  23   2.0000      -6.572978      -178.8598
  24   2.0000      -1.450663       -39.4745
  25   2.0000      -1.421039       -38.6684
  26   2.0000      -1.364736       -37.1364
  27   2.0000      -1.339223       -36.4421
  28   2.0000      -1.238575       -33.7033
  29   2.0000      -1.163380       -31.6572
  30   2.0000      -1.126915       -30.6649
  31   2.0000      -1.049977       -28.5713
  32   2.0000      -1.041977       -28.3536
  33   2.0000      -1.021141       -27.7867
  34   2.0000      -1.006467       -27.3874
  35   2.0000      -0.989480       -26.9251
  36   2.0000      -0.927158       -25.2293
  37   2.0000      -0.881627       -23.9903
  38   2.0000      -0.855773       -23.2868
  39   2.0000      -0.842457       -22.9244
  40   2.0000      -0.839399       -22.8412
  41   2.0000      -0.838104       -22.8060
  42   2.0000      -0.758450       -20.6385
  43   2.0000      -0.739588       -20.1252
  44   2.0000      -0.733461       -19.9585
  45   2.0000      -0.699169       -19.0254
  46   2.0000      -0.690962       -18.8020
  47   2.0000      -0.682648       -18.5758
  48   2.0000      -0.675377       -18.3779
  49   2.0000      -0.663720       -18.0607
  50   2.0000      -0.660007       -17.9597
  51   2.0000      -0.649613       -17.6769
  52   2.0000      -0.638050       -17.3622
  53   2.0000      -0.613849       -16.7037
  54   2.0000      -0.609521       -16.5859
  55   2.0000      -0.604770       -16.4566
  56   2.0000      -0.595054       -16.1923
  57   2.0000      -0.579510       -15.7693
  58   2.0000      -0.579065       -15.7572
  59   2.0000      -0.572322       -15.5737
  60   2.0000      -0.562926       -15.3180
  61   2.0000      -0.559318       -15.2198
  62   2.0000      -0.554315       -15.0837
  63   2.0000      -0.529107       -14.3977
  64   2.0000      -0.520225       -14.1560
  65   2.0000      -0.515792       -14.0354
  66   2.0000      -0.510683       -13.8964
  67   2.0000      -0.502736       -13.6801
  68   2.0000      -0.489537       -13.3210
  69   2.0000      -0.468166       -12.7394
  70   2.0000      -0.457081       -12.4378
  71   2.0000      -0.452879       -12.3235
  72   2.0000      -0.355554        -9.6751
  73   2.0000      -0.353331        -9.6146
  74   2.0000      -0.328723        -8.9450
  75   2.0000      -0.326672        -8.8892
  76   2.0000      -0.318863        -8.6767
  77   0.0000       0.091471         2.4890
  78   0.0000       0.103162         2.8072
  79   0.0000       0.115189         3.1344
  80   0.0000       0.127853         3.4791
  81   0.0000       0.129169         3.5149

MULLIKEN ATOMIC CHARGES
-----------------------
   0 C :   -0.259227
   1 C :    0.033271
   2 O :   -0.299615
   3 C :    0.405409
   4 O :   -0.381333
   5 C :   -0.194296
   6 C :    0.143700
   7 C :   -0.336163
   8 N :   -0.140695
   9 C :    0.211969
  10 S :   -0.444461
  11 N :   -0.224034
  12 C :    0.055318
  13 C :    0.031256
  14 C :   -0.220919
  15 C :   -0.128272
  16 C :   -0.276342
  17 C :    0.318570
  18 O :   -0.355181
  19 C :   -0.258332
  20 H :    0.105621
  21 H :    0.100750
  22 H :    0.089290
  23 H :    0.080760
  24 H :    0.104696
  25 H :    0.124971
  26 H :    0.137403
  27 H :    0.123779
  28 H :    0.196602
  29 H :    0.202178
  30 H :    0.168472
  31 H :    0.170702
  32 H :    0.164774
  33 H :    0.132500
  34 H :    0.241560
  35 H :    0.175319
Sum of atomic charges:   -0.0000000

LOEWDIN ATOMIC CHARGES
----------------------
   0 C :    0.112256
   1 C :   -0.026587
   2 O :    0.309911
   3 C :   -0.416496
   4 O :    0.121157
   5 C :   -0.081619
   6 C :   -0.098428
   7 C :    0.123686
   8 N :    0.401906
   9 C :   -0.454698
  10 S :   -0.039538
  11 N :    0.395813
  12 C :   -0.050615
  13 C :   -0.044031
  14 C :    0.018525
  15 C :    0.046107
  16 C :    0.000678
  17 C :   -0.191010
  18 O :    0.395718
  19 C :    0.027907
  20 H :   -0.022704
  21 H :   -0.025435
  22 H :   -0.024827
  23 H :   -0.036627
  24 H :   -0.030578
  25 H :   -0.008477
  26 H :   -0.009271
  27 H :   -0.017513
  28 H :   -0.057421
  29 H :   -0.064144
  30 H :   -0.003454
  31 H :   -0.022086
  32 H :   -0.018171
  33 H :   -0.034421
  34 H :   -0.152788
  35 H :   -0.022725

  Mayer bond orders larger than 0.100000
B(  0-C ,  1-C ) :   0.9820 B(  0-C , 20-H ) :   0.9783 B(  0-C , 21-H ) :   0.9778
B(  0-C , 22-H ) :   0.9771 B(  1-C ,  2-O ) :   0.9131 B(  1-C , 23-H ) :   0.9703
B(  1-C , 24-H ) :   0.9624 B(  2-O ,  3-C ) :   1.1898 B(  3-C ,  4-O ) :   2.1119
B(  3-C ,  5-C ) :   0.9047 B(  5-C ,  6-C ) :   1.7260 B(  5-C , 12-C ) :   0.9420
B(  6-C ,  7-C ) :   0.9362 B(  6-C ,  8-N ) :   1.1057 B(  7-C , 25-H ) :   0.9793
B(  7-C , 26-H ) :   0.9704 B(  7-C , 27-H ) :   0.9677 B(  8-N ,  9-C ) :   1.2016
B(  8-N , 28-H ) :   0.9520 B(  9-C , 10-S ) :   1.6088 B(  9-C , 11-N ) :   1.2873
B( 11-N , 12-C ) :   0.9833 B( 11-N , 29-H ) :   0.9471 B( 12-C , 13-C ) :   0.9656
B( 12-C , 30-H ) :   0.9902 B( 13-C , 14-C ) :   1.3817 B( 13-C , 19-C ) :   1.3520
B( 14-C , 15-C ) :   1.3956 B( 14-C , 31-H ) :   0.9627 B( 15-C , 16-C ) :   1.3635
B( 15-C , 32-H ) :   0.9694 B( 16-C , 17-C ) :   1.3304 B( 16-C , 33-H ) :   0.9845
B( 17-C , 18-O ) :   1.1105 B( 17-C , 19-C ) :   1.3609 B( 18-O , 34-H ) :   0.9791
B( 19-C , 35-H ) :   0.9564

MP2 TOTAL ENERGY:    -1274.330848719 Eh
FINAL SINGLE POINT ENERGY     -1274.330848719085

DIPOLE MOMENT
-------------
                                X             Y             Z
Electronic contribution:     10.37911       8.68573       8.38966
Nuclear contribution   :    -12.11137      -9.96137      -8.64377
                        -----------------------------------------
Total Dipole Moment    :     -1.73227      -1.27565      -0.25411
                        -----------------------------------------
Magnitude (a.u.)       :      2.16624
Magnitude (Debye)      :      5.50614

Rotational constants in cm-1:     0.011030     0.008983     0.006227
Rotational constants in MHz :   330.661477   269.309168   186.676101

                             ****ORCA TERMINATED NORMALLY****
TOTAL RUN TIME: 0 days 1 hours 45 minutes 50 seconds 57 msec
