                         Program Version 4.2.0 -  RELEASE  -
|  1> ! ri-mp2 cc-pvtz cc-pvtz/c TightSCF NoKeepInts
|  2>
|  3> %scf
|  4>   MaxCore 4096
|  5> end
|  6> *xyz  0  1
|  7>     C       14.8801874   14.2132406   15.7951945
|  8>     C       15.0708979   15.7290996   15.9667552
|  9>     O       16.3476023   16.0696406   15.3994935
| 10>     C       16.5891637   17.3881487   15.1636874
| 11>     O       16.4486857   17.8415855   14.0430829
| 12>     C       16.9342508   18.1954157   16.3879340
| 13>     C       16.9336418   19.5519305   16.3149490
| 14>     C       16.2581033   20.4099212   15.2649219
| 15>     N       17.5809618   20.3302783   17.2764708
| 16>     C       18.4573674   19.8366651   18.2035893
| 17>     S       19.2910945   20.8235305   19.2359308
| 18>     N       18.6275636   18.4757758   18.2148911
| 19>     C       17.8291450   17.5078718   17.4383688
| 20>     C       17.1621547   16.4724420   18.3307945
| 21>     C       17.5268830   15.1157707   18.2536164
| 22>     C       16.9130603   14.1644111   19.0856077
| 23>     C       15.9323922   14.5743912   20.0052023
| 24>     C       15.5763051   15.9273206   20.0918200
| 25>     O       14.6299315   16.3261726   20.9779679
| 26>     C       16.1880940   16.8721451   19.2618917
| 27>     H       13.9062136   13.9004513   16.1902935
| 28>     H       15.6616949   13.6620987   16.3321136
| 29>     H       14.9274103   13.9359156   14.7346021
| 30>     H       14.2706195   16.2490431   15.4224849
| 31>     H       15.0007556   16.0071163   17.0232640
| 32>     H       15.2830352   19.9922277   14.9843291
| 33>     H       16.8689293   20.4541233   14.3537295
| 34>     H       16.0830881   21.4379770   15.6035305
| 35>     H       17.4928851   21.3337584   17.2510509
| 36>     H       19.2663617   18.1381802   18.9241376
| 37>     H       18.6369353   17.0409600   16.8565904
| 38>     H       18.2805067   14.7963862   17.5380552
| 39>     H       17.1976431   13.1157186   19.0157985
| 40>     H       15.4556882   13.8426290   20.6494006
| 41>     H       14.3712805   15.5509218   21.4991533
| 42>     H       15.9064670   17.9167353   19.3472964
| 43> *
| 44>
| 45>                          ****END OF INPUT****

CARTESIAN COORDINATES (ANGSTROEM)
---------------------------------
  C     14.880187   14.213241   15.795194
  C     15.070898   15.729100   15.966755
  O     16.347602   16.069641   15.399493
  C     16.589164   17.388149   15.163687
  O     16.448686   17.841586   14.043083
  C     16.934251   18.195416   16.387934
  C     16.933642   19.551931   16.314949
  C     16.258103   20.409921   15.264922
  N     17.580962   20.330278   17.276471
  C     18.457367   19.836665   18.203589
  S     19.291094   20.823530   19.235931
  N     18.627564   18.475776   18.214891
  C     17.829145   17.507872   17.438369
  C     17.162155   16.472442   18.330794
  C     17.526883   15.115771   18.253616
  C     16.913060   14.164411   19.085608
  C     15.932392   14.574391   20.005202
  C     15.576305   15.927321   20.091820
  O     14.629931   16.326173   20.977968
  C     16.188094   16.872145   19.261892
  H     13.906214   13.900451   16.190293
  H     15.661695   13.662099   16.332114
  H     14.927410   13.935916   14.734602
  H     14.270619   16.249043   15.422485
  H     15.000756   16.007116   17.023264
  H     15.283035   19.992228   14.984329
  H     16.868929   20.454123   14.353730
  H     16.083088   21.437977   15.603530
  H     17.492885   21.333758   17.251051
  H     19.266362   18.138180   18.924138
  H     18.636935   17.040960   16.856590
  H     18.280507   14.796386   17.538055
  H     17.197643   13.115719   19.015798
  H     15.455688   13.842629   20.649401
  H     14.371280   15.550922   21.499153
  H     15.906467   17.916735   19.347296

 Total Charge           Charge          ....    0
 Multiplicity           Mult            ....    1
 Number of Electrons    NEL             ....  154
 Basis Dimension        Dim             ....  828

ORBITAL ENERGIES
----------------

  NO   OCC          E(Eh)            E(eV)
   0   2.0000     -91.891632     -2500.4984
   1   2.0000     -20.602856      -560.6322
   2   2.0000     -20.583624      -560.1089
   3   2.0000     -20.549354      -559.1764
   4   2.0000     -15.631097      -425.3438
   5   2.0000     -15.610241      -424.7762
   6   2.0000     -11.391525      -309.9792
   7   2.0000     -11.385963      -309.8278
   8   2.0000     -11.338460      -308.5352
   9   2.0000     -11.320901      -308.0574
  10   2.0000     -11.313793      -307.8640
  11   2.0000     -11.295901      -307.3771
  12   2.0000     -11.267134      -306.5943
  13   2.0000     -11.261966      -306.4537
  14   2.0000     -11.259044      -306.3742
  15   2.0000     -11.254009      -306.2372
  16   2.0000     -11.250923      -306.1532
  17   2.0000     -11.245470      -306.0048
  18   2.0000     -11.245090      -305.9945
  19   2.0000     -11.226620      -305.4919
  20   2.0000      -8.896678      -242.0909
  21   2.0000      -6.578243      -179.0031
  22   2.0000      -6.576252      -178.9489
  23   2.0000      -6.575653      -178.9326
  24   2.0000      -1.448297       -39.4102
  25   2.0000      -1.422637       -38.7119
  26   2.0000      -1.355579       -36.8872
  27   2.0000      -1.343283       -36.5526
  28   2.0000      -1.241743       -33.7895
  29   2.0000      -1.164052       -31.6755
  30   2.0000      -1.123316       -30.5670
  31   2.0000      -1.048343       -28.5268
  32   2.0000      -1.034286       -28.1443
  33   2.0000      -1.022198       -27.8154
  34   2.0000      -1.000490       -27.2247
  35   2.0000      -0.988099       -26.8875
  36   2.0000      -0.926166       -25.2023
  37   2.0000      -0.875425       -23.8215
  38   2.0000      -0.850687       -23.1484
  39   2.0000      -0.843568       -22.9546
  40   2.0000      -0.840995       -22.8846
  41   2.0000      -0.834170       -22.6989
  42   2.0000      -0.762658       -20.7530
  43   2.0000      -0.738890       -20.1062
  44   2.0000      -0.725871       -19.7519
  45   2.0000      -0.701400       -19.0861
  46   2.0000      -0.690929       -18.8011
  47   2.0000      -0.680391       -18.5144
  48   2.0000      -0.674324       -18.3493
  49   2.0000      -0.656652       -17.8684
  50   2.0000      -0.649067       -17.6620
  51   2.0000      -0.643547       -17.5118
  52   2.0000      -0.639213       -17.3939
  53   2.0000      -0.616707       -16.7814
  54   2.0000      -0.611711       -16.6455
  55   2.0000      -0.604732       -16.4556
  56   2.0000      -0.601936       -16.3795
  57   2.0000      -0.581978       -15.8364
  58   2.0000      -0.573471       -15.6049
  59   2.0000      -0.566650       -15.4193
  60   2.0000      -0.554415       -15.0864
  61   2.0000      -0.545491       -14.8436
  62   2.0000      -0.537900       -14.6370
  63   2.0000      -0.529195       -14.4001
  64   2.0000      -0.517665       -14.0864
  65   2.0000      -0.516749       -14.0615
  66   2.0000      -0.505591       -13.7578
  67   2.0000      -0.500429       -13.6174
  68   2.0000      -0.483870       -13.1668
  69   2.0000      -0.467100       -12.7104
  70   2.0000      -0.460740       -12.5374
  71   2.0000      -0.447526       -12.1778
  72   2.0000      -0.356824        -9.7097
  73   2.0000      -0.354015        -9.6332
  74   2.0000      -0.331087        -9.0093
  75   2.0000      -0.328136        -8.9290
  76   2.0000      -0.321468        -8.7476
  77   0.0000       0.072453         1.9716
  78   0.0000       0.097634         2.6568
  79   0.0000       0.121919         3.3176
  80   0.0000       0.127963         3.4821
  81   0.0000       0.129150         3.5144

MULLIKEN ATOMIC CHARGES
-----------------------
   0 C :   -0.265831
   1 C :    0.011017
   2 O :   -0.357524
   3 C :    0.445887
   4 O :   -0.379251
   5 C :   -0.265157
   6 C :    0.170360
   7 C :   -0.267609
   8 N :   -0.128195
   9 C :    0.207390
  10 S :   -0.437100
  11 N :   -0.208506
  12 C :    0.045964
  13 C :   -0.018183
  14 C :   -0.147486
  15 C :   -0.152647
  16 C :   -0.263507
  17 C :    0.302334
  18 O :   -0.356270
  19 C :   -0.227912
  20 H :    0.088779
  21 H :    0.093394
  22 H :    0.108673
  23 H :    0.104946
  24 H :    0.115798
  25 H :    0.124338
  26 H :    0.137509
  27 H :    0.094358
  28 H :    0.200157
  29 H :    0.200135
  30 H :    0.152382
  31 H :    0.157298
  32 H :    0.169568
  33 H :    0.134903
  34 H :    0.241509
  35 H :    0.168482
Sum of atomic charges:   -0.0000000

LOEWDIN ATOMIC CHARGES
----------------------
   0 C :    0.111257
   1 C :   -0.022482
   2 O :    0.297336
   3 C :   -0.428047
   4 O :    0.125306
   5 C :   -0.104439
   6 C :   -0.057279
   7 C :    0.129994
   8 N :    0.407625
   9 C :   -0.458085
  10 S :   -0.032752
  11 N :    0.395385
  12 C :   -0.053872
  13 C :   -0.043863
  14 C :    0.021172
  15 C :    0.044082
  16 C :    0.000927
  17 C :   -0.192349
  18 O :    0.396536
  19 C :    0.031958
  20 H :   -0.025777
  21 H :   -0.030333
  22 H :   -0.024170
  23 H :   -0.031714
  24 H :   -0.037163
  25 H :   -0.006305
  26 H :   -0.004049
  27 H :   -0.022800
  28 H :   -0.056255
  29 H :   -0.063387
  30 H :   -0.011602
  31 H :   -0.026891
  32 H :   -0.019628
  33 H :   -0.033812
  34 H :   -0.152568
  35 H :   -0.021958

  Mayer bond orders larger than 0.100000
B(  0-C ,  1-C ) :   0.9822 B(  0-C , 20-H ) :   0.9759 B(  0-C , 21-H ) :   0.9768
B(  0-C , 22-H ) :   0.9782 B(  1-C ,  2-O ) :   0.8829 B(  1-C , 23-H ) :   0.9793
B(  1-C , 24-H ) :   0.9612 B(  2-O ,  3-C ) :   1.1273 B(  3-C ,  4-O ) :   2.0869
B(  3-C ,  5-C ) :   1.0140 B(  5-C ,  6-C ) :   1.6407 B(  5-C , 12-C ) :   0.9590
B(  6-C ,  7-C ) :   0.9639 B(  6-C ,  8-N ) :   1.1504 B(  7-C , 25-H ) :   0.9688
B(  7-C , 26-H ) :   0.9541 B(  7-C , 27-H ) :   0.9871 B(  8-N ,  9-C ) :   1.1875
B(  8-N , 28-H ) :   0.9474 B(  9-C , 10-S ) :   1.6142 B(  9-C , 11-N ) :   1.3011
B( 11-N , 12-C ) :   0.9743 B( 11-N , 29-H ) :   0.9483 B( 12-C , 13-C ) :   0.9637
B( 12-C , 30-H ) :   1.0054 B( 13-C , 14-C ) :   1.3610 B( 13-C , 19-C ) :   1.3654
B( 14-C , 15-C ) :   1.3866 B( 14-C , 31-H ) :   0.9696 B( 15-C , 16-C ) :   1.3604
B( 15-C , 32-H ) :   0.9680 B( 16-C , 17-C ) :   1.3308 B( 16-C , 33-H ) :   0.9830
B( 17-C , 18-O ) :   1.1084 B( 17-C , 19-C ) :   1.3676 B( 18-O , 34-H ) :   0.9788
B( 19-C , 35-H ) :   0.9598

MP2 TOTAL ENERGY:    -1274.325303883 Eh
FINAL SINGLE POINT ENERGY     -1274.325303882935

DIPOLE MOMENT
-------------
                                X             Y             Z
Electronic contribution:      9.54734      10.59132       6.01629
Nuclear contribution   :    -10.85241     -12.07444      -5.72063
                        -----------------------------------------
Total Dipole Moment    :     -1.30507      -1.48313       0.29565
                        -----------------------------------------
Magnitude (a.u.)       :      1.99757
Magnitude (Debye)      :      5.07742

Rotational constants in cm-1:     0.012473     0.008679     0.005985
Rotational constants in MHz :   373.931781   260.201504   179.419192

                             ****ORCA TERMINATED NORMALLY****
TOTAL RUN TIME: 0 days 1 hours 43 minutes 47 seconds 701 msec
