                         Program Version 4.2.0 -  RELEASE  -
|  1> ! ri-mp2 cc-pvtz cc-pvtz/c TightSCF NoKeepInts
|  2>
|  3> %scf
|  4>   MaxCore 4096
|  5> end
|  6> *xyz  0  1
|  7>     C       14.4236275   15.0515798   15.0221951
|  8>     C       15.4384566   15.4161608   16.1200071
|  9>     O       16.6170406   15.9375921   15.4790152
| 10>     C       16.6814995   17.2804501   15.2558670
| 11>     O       16.4731599   17.7220480   14.1409661
| 12>     C       16.9626204   18.1138673   16.4808823
| 13>     C       16.8735190   19.4676798   16.4054150
| 14>     C       16.1643515   20.2807302   15.3417749
| 15>     N       17.4483642   20.2874860   17.3785859
| 16>     C       18.3310803   19.8529763   18.3288540
| 17>     S       19.0746303   20.8932061   19.3776027
| 18>     N       18.5874004   18.5059389   18.3495514
| 19>     C       17.8749210   17.4876915   17.5547554
| 20>     C       17.2497194   16.4162368   18.4352490
| 21>     C       17.7826483   15.1143635   18.4677284
| 22>     C       17.2052622   14.1285737   19.2856445
| 23>     C       16.0924727   14.4500173   20.0819214
| 24>     C       15.5692644   15.7502458   20.0614799
| 25>     O       14.4955630   16.0639056   20.8286668
| 26>     C       16.1446875   16.7290245   19.2451260
| 27>     H       14.1267259   15.9424321   14.4541655
| 28>     H       13.5219309   14.6086423   15.4619562
| 29>     H       14.8569031   14.3266049   14.3217653
| 30>     H       14.9988084   16.1412520   16.8171488
| 31>     H       15.6949168   14.5075235   16.6796733
| 32>     H       15.2118322   19.8134406   15.0615892
| 33>     H       16.7773166   20.3432984   14.4331352
| 34>     H       15.9385104   21.3034132   15.6661909
| 35>     H       17.2961147   21.2831071   17.3482682
| 36>     H       19.2275184   18.2117888   19.0766638
| 37>     H       18.7248122   17.0719579   16.9945063
| 38>     H       18.6409616   14.8634515   17.8493368
| 39>     H       17.6207736   13.1220933   19.3016196
| 40>     H       15.6438959   13.6916092   20.7155630
| 41>     H       14.2825166   15.2864245   21.3670520
| 42>     H       15.7331738   17.7331862   19.2480776
| 43> *
| 44>
| 45>                          ****END OF INPUT****

CARTESIAN COORDINATES (ANGSTROEM)
---------------------------------
  C     14.423628   15.051580   15.022195
  C     15.438457   15.416161   16.120007
  O     16.617041   15.937592   15.479015
  C     16.681500   17.280450   15.255867
  O     16.473160   17.722048   14.140966
  C     16.962620   18.113867   16.480882
  C     16.873519   19.467680   16.405415
  C     16.164351   20.280730   15.341775
  N     17.448364   20.287486   17.378586
  C     18.331080   19.852976   18.328854
  S     19.074630   20.893206   19.377603
  N     18.587400   18.505939   18.349551
  C     17.874921   17.487692   17.554755
  C     17.249719   16.416237   18.435249
  C     17.782648   15.114363   18.467728
  C     17.205262   14.128574   19.285645
  C     16.092473   14.450017   20.081921
  C     15.569264   15.750246   20.061480
  O     14.495563   16.063906   20.828667
  C     16.144687   16.729025   19.245126
  H     14.126726   15.942432   14.454166
  H     13.521931   14.608642   15.461956
  H     14.856903   14.326605   14.321765
  H     14.998808   16.141252   16.817149
  H     15.694917   14.507523   16.679673
  H     15.211832   19.813441   15.061589
  H     16.777317   20.343298   14.433135
  H     15.938510   21.303413   15.666191
  H     17.296115   21.283107   17.348268
  H     19.227518   18.211789   19.076664
  H     18.724812   17.071958   16.994506
  H     18.640962   14.863451   17.849337
  H     17.620774   13.122093   19.301620
  H     15.643896   13.691609   20.715563
  H     14.282517   15.286424   21.367052
  H     15.733174   17.733186   19.248078

 Total Charge           Charge          ....    0
 Multiplicity           Mult            ....    1
 Number of Electrons    NEL             ....  154
 Basis Dimension        Dim             ....  828

ORBITAL ENERGIES
----------------

  NO   OCC          E(Eh)            E(eV)
   0   2.0000     -91.891642     -2500.4987
   1   2.0000     -20.603523      -560.6504
   2   2.0000     -20.583136      -560.0956
   3   2.0000     -20.548124      -559.1429
   4   2.0000     -15.631465      -425.3538
   5   2.0000     -15.610166      -424.7742
   6   2.0000     -11.392510      -310.0060
   7   2.0000     -11.385978      -309.8282
   8   2.0000     -11.339288      -308.5577
   9   2.0000     -11.321399      -308.0709
  10   2.0000     -11.313535      -307.8569
  11   2.0000     -11.295718      -307.3721
  12   2.0000     -11.267251      -306.5975
  13   2.0000     -11.262352      -306.4642
  14   2.0000     -11.259903      -306.3975
  15   2.0000     -11.254153      -306.2411
  16   2.0000     -11.251525      -306.1696
  17   2.0000     -11.245882      -306.0160
  18   2.0000     -11.245726      -306.0118
  19   2.0000     -11.220755      -305.3323
  20   2.0000      -8.896690      -242.0912
  21   2.0000      -6.578255      -179.0034
  22   2.0000      -6.576263      -178.9492
  23   2.0000      -6.575665      -178.9329
  24   2.0000      -1.447010       -39.3751
  25   2.0000      -1.423278       -38.7294
  26   2.0000      -1.354894       -36.8685
  27   2.0000      -1.343546       -36.5598
  28   2.0000      -1.241903       -33.7939
  29   2.0000      -1.164419       -31.6854
  30   2.0000      -1.123398       -30.5692
  31   2.0000      -1.048614       -28.5342
  32   2.0000      -1.030564       -28.0431
  33   2.0000      -1.022492       -27.8234
  34   2.0000      -1.000532       -27.2259
  35   2.0000      -0.988114       -26.8879
  36   2.0000      -0.926342       -25.2071
  37   2.0000      -0.880823       -23.9684
  38   2.0000      -0.851416       -23.1682
  39   2.0000      -0.844243       -22.9730
  40   2.0000      -0.841359       -22.8945
  41   2.0000      -0.832633       -22.6571
  42   2.0000      -0.756942       -20.5974
  43   2.0000      -0.738463       -20.0946
  44   2.0000      -0.719788       -19.5864
  45   2.0000      -0.702055       -19.1039
  46   2.0000      -0.691312       -18.8116
  47   2.0000      -0.678473       -18.4622
  48   2.0000      -0.671200       -18.2643
  49   2.0000      -0.667145       -18.1539
  50   2.0000      -0.649286       -17.6680
  51   2.0000      -0.647877       -17.6296
  52   2.0000      -0.638702       -17.3800
  53   2.0000      -0.613484       -16.6938
  54   2.0000      -0.607851       -16.5405
  55   2.0000      -0.603616       -16.4252
  56   2.0000      -0.591474       -16.0948
  57   2.0000      -0.582046       -15.8383
  58   2.0000      -0.574702       -15.6384
  59   2.0000      -0.572822       -15.5873
  60   2.0000      -0.563967       -15.3463
  61   2.0000      -0.545707       -14.8494
  62   2.0000      -0.540177       -14.6990
  63   2.0000      -0.529672       -14.4131
  64   2.0000      -0.518897       -14.1199
  65   2.0000      -0.515063       -14.0156
  66   2.0000      -0.504355       -13.7242
  67   2.0000      -0.496276       -13.5043
  68   2.0000      -0.485280       -13.2051
  69   2.0000      -0.466565       -12.6959
  70   2.0000      -0.455845       -12.4042
  71   2.0000      -0.444650       -12.0995
  72   2.0000      -0.357126        -9.7179
  73   2.0000      -0.354551        -9.6478
  74   2.0000      -0.331541        -9.0217
  75   2.0000      -0.328416        -8.9366
  76   2.0000      -0.321554        -8.7499
  77   0.0000       0.072487         1.9725
  78   0.0000       0.095565         2.6005
  79   0.0000       0.121123         3.2959
  80   0.0000       0.128212         3.4888
  81   0.0000       0.129282         3.5179

MULLIKEN ATOMIC CHARGES
-----------------------
   0 C :   -0.257575
   1 C :    0.008314
   2 O :   -0.366413
   3 C :    0.470170
   4 O :   -0.388399
   5 C :   -0.286319
   6 C :    0.178530
   7 C :   -0.267463
   8 N :   -0.128072
   9 C :    0.209216
  10 S :   -0.437777
  11 N :   -0.210070
  12 C :    0.050729
  13 C :    0.018972
  14 C :   -0.174526
  15 C :   -0.141645
  16 C :   -0.269872
  17 C :    0.313278
  18 O :   -0.356046
  19 C :   -0.244136
  20 H :    0.098321
  21 H :    0.087672
  22 H :    0.099892
  23 H :    0.101001
  24 H :    0.116064
  25 H :    0.125005
  26 H :    0.137152
  27 H :    0.094292
  28 H :    0.199913
  29 H :    0.200655
  30 H :    0.152520
  31 H :    0.152374
  32 H :    0.166866
  33 H :    0.134814
  34 H :    0.242002
  35 H :    0.170562
Sum of atomic charges:   -0.0000000

LOEWDIN ATOMIC CHARGES
----------------------
   0 C :    0.106375
   1 C :   -0.027294
   2 O :    0.296353
   3 C :   -0.426045
   4 O :    0.123193
   5 C :   -0.105448
   6 C :   -0.056614
   7 C :    0.130116
   8 N :    0.407685
   9 C :   -0.457732
  10 S :   -0.033029
  11 N :    0.395118
  12 C :   -0.053972
  13 C :   -0.041255
  14 C :    0.020315
  15 C :    0.041546
  16 C :    0.000689
  17 C :   -0.191796
  18 O :    0.396302
  19 C :    0.034349
  20 H :   -0.026993
  21 H :   -0.029586
  22 H :   -0.024603
  23 H :   -0.035200
  24 H :   -0.023417
  25 H :   -0.006182
  26 H :   -0.003872
  27 H :   -0.022944
  28 H :   -0.056233
  29 H :   -0.063552
  30 H :   -0.011476
  31 H :   -0.026766
  32 H :   -0.019407
  33 H :   -0.033732
  34 H :   -0.152304
  35 H :   -0.022588

  Mayer bond orders larger than 0.100000
B(  0-C ,  1-C ) :   0.9824 B(  0-C , 20-H ) :   0.9757 B(  0-C , 21-H ) :   0.9772
B(  0-C , 22-H ) :   0.9796 B(  1-C ,  2-O ) :   0.8800 B(  1-C , 23-H ) :   0.9646
B(  1-C , 24-H ) :   0.9763 B(  2-O ,  3-C ) :   1.1126 B(  3-C ,  4-O ) :   2.0582
B(  3-C ,  5-C ) :   1.0322 B(  5-C ,  6-C ) :   1.6386 B(  5-C , 12-C ) :   0.9598
B(  6-C ,  7-C ) :   0.9644 B(  6-C ,  8-N ) :   1.1544 B(  7-C , 25-H ) :   0.9679
B(  7-C , 26-H ) :   0.9541 B(  7-C , 27-H ) :   0.9875 B(  8-N ,  9-C ) :   1.1867
B(  8-N , 28-H ) :   0.9471 B(  9-C , 10-S ) :   1.6116 B(  9-C , 11-N ) :   1.3047
B( 11-N , 12-C ) :   0.9688 B( 11-N , 29-H ) :   0.9483 B( 12-C , 13-C ) :   0.9678
B( 12-C , 30-H ) :   1.0043 B( 13-C , 14-C ) :   1.3499 B( 13-C , 19-C ) :   1.3605
B( 14-C , 15-C ) :   1.3934 B( 14-C , 31-H ) :   0.9752 B( 15-C , 16-C ) :   1.3598
B( 15-C , 32-H ) :   0.9691 B( 16-C , 17-C ) :   1.3304 B( 16-C , 33-H ) :   0.9833
B( 17-C , 18-O ) :   1.1080 B( 17-C , 19-C ) :   1.3626 B( 18-O , 34-H ) :   0.9786
B( 19-C , 35-H ) :   0.9597

MP2 TOTAL ENERGY:    -1274.324986987 Eh
FINAL SINGLE POINT ENERGY     -1274.324986986844

DIPOLE MOMENT
-------------
                                X             Y             Z
Electronic contribution:      9.96054       9.18554       7.62361
Nuclear contribution   :    -11.10700     -10.73170      -7.29669
                        -----------------------------------------
Total Dipole Moment    :     -1.14645      -1.54616       0.32692
                        -----------------------------------------
Magnitude (a.u.)       :      1.95240
Magnitude (Debye)      :      4.96260

Rotational constants in cm-1:     0.011895     0.008883     0.006033
Rotational constants in MHz :   356.591124   266.300676   180.858612

                             ****ORCA TERMINATED NORMALLY****
TOTAL RUN TIME: 0 days 2 hours 0 minutes 6 seconds 62 msec
