                         Program Version 4.2.0 -  RELEASE  -
|  1> ! ri-mp2 cc-pvtz cc-pvtz/c TightSCF NoKeepInts
|  2>
|  3> %scf
|  4>   MaxCore 4096
|  5> end
|  6> *xyz  0  1
|  7>     C       15.3922303   13.9981388   15.7791049
|  8>     C       15.5643101   15.1783479   14.8082975
|  9>     O       16.5912051   16.0311811   15.3406083
| 10>     C       16.4376168   17.3820040   15.2145131
| 11>     O       15.9333616   17.8713329   14.2181166
| 12>     C       16.8048506   18.1164475   16.4777995
| 13>     C       16.8428541   19.4765522   16.4291387
| 14>     C       16.1439008   20.4001666   15.4519438
| 15>     N       17.5869700   20.1901766   17.3726513
| 16>     C       18.5548917   19.6459178   18.1706104
| 17>     S       19.5221410   20.5763499   19.1372106
| 18>     N       18.7017049   18.2855864   18.1001836
| 19>     C       17.7765609   17.3674251   17.4098959
| 20>     C       17.0169356   16.5713042   18.4644228
| 21>     C       17.2391496   15.1884958   18.5998104
| 22>     C       16.5432599   14.4433969   19.5666138
| 23>     C       15.6186705   15.0869085   20.4068099
| 24>     C       15.3977280   16.4650461   20.2774993
| 25>     O       14.5059244   17.0891061   21.0875972
| 26>     C       16.0916199   17.2037396   19.3141217
| 27>     H       16.3348932   13.4489576   15.8930047
| 28>     H       14.6310912   13.3019104   15.4066847
| 29>     H       15.0755566   14.3546522   16.7674143
| 30>     H       15.8446049   14.8246618   13.8074604
| 31>     H       14.6082331   15.7150954   14.7323578
| 32>     H       15.1095379   20.0753744   15.2815619
| 33>     H       16.6552253   20.3946160   14.4807408
| 34>     H       16.1018163   21.4383156   15.8018471
| 35>     H       17.5154301   21.1945920   17.4060830
| 36>     H       19.4097409   17.9079460   18.7166937
| 37>     H       18.4100507   16.6995794   16.8090895
| 38>     H       17.9497825   14.6882242   17.9472109
| 39>     H       16.7211157   13.3736732   19.6622519
| 40>     H       15.0788661   14.5160880   21.1551962
| 41>     H       14.1633862   16.4282241   21.7078645
| 42>     H       15.9117833   18.2704657   19.2355894
| 43> *
| 44>
| 45>                          ****END OF INPUT****

CARTESIAN COORDINATES (ANGSTROEM)
---------------------------------
  C     15.392230   13.998139   15.779105
  C     15.564310   15.178348   14.808298
  O     16.591205   16.031181   15.340608
  C     16.437617   17.382004   15.214513
  O     15.933362   17.871333   14.218117
  C     16.804851   18.116447   16.477799
  C     16.842854   19.476552   16.429139
  C     16.143901   20.400167   15.451944
  N     17.586970   20.190177   17.372651
  C     18.554892   19.645918   18.170610
  S     19.522141   20.576350   19.137211
  N     18.701705   18.285586   18.100184
  C     17.776561   17.367425   17.409896
  C     17.016936   16.571304   18.464423
  C     17.239150   15.188496   18.599810
  C     16.543260   14.443397   19.566614
  C     15.618671   15.086908   20.406810
  C     15.397728   16.465046   20.277499
  O     14.505924   17.089106   21.087597
  C     16.091620   17.203740   19.314122
  H     16.334893   13.448958   15.893005
  H     14.631091   13.301910   15.406685
  H     15.075557   14.354652   16.767414
  H     15.844605   14.824662   13.807460
  H     14.608233   15.715095   14.732358
  H     15.109538   20.075374   15.281562
  H     16.655225   20.394616   14.480741
  H     16.101816   21.438316   15.801847
  H     17.515430   21.194592   17.406083
  H     19.409741   17.907946   18.716694
  H     18.410051   16.699579   16.809089
  H     17.949783   14.688224   17.947211
  H     16.721116   13.373673   19.662252
  H     15.078866   14.516088   21.155196
  H     14.163386   16.428224   21.707864
  H     15.911783   18.270466   19.235589

 Total Charge           Charge          ....    0
 Multiplicity           Mult            ....    1
 Number of Electrons    NEL             ....  154
 Basis Dimension        Dim             ....  828

ORBITAL ENERGIES
----------------

  NO   OCC          E(Eh)            E(eV)
   0   2.0000     -91.890399     -2500.4649
   1   2.0000     -20.596543      -560.4604
   2   2.0000     -20.594034      -560.3922
   3   2.0000     -20.542810      -558.9983
   4   2.0000     -15.631300      -425.3493
   5   2.0000     -15.607808      -424.7101
   6   2.0000     -11.392656      -310.0099
   7   2.0000     -11.384480      -309.7874
   8   2.0000     -11.341225      -308.6104
   9   2.0000     -11.313769      -307.8633
  10   2.0000     -11.309694      -307.7524
  11   2.0000     -11.296383      -307.3902
  12   2.0000     -11.259133      -306.3766
  13   2.0000     -11.257837      -306.3413
  14   2.0000     -11.254742      -306.2571
  15   2.0000     -11.253960      -306.2358
  16   2.0000     -11.243052      -305.9390
  17   2.0000     -11.238295      -305.8096
  18   2.0000     -11.237281      -305.7820
  19   2.0000     -11.227031      -305.5031
  20   2.0000      -8.895429      -242.0569
  21   2.0000      -6.576995      -178.9691
  22   2.0000      -6.575000      -178.9149
  23   2.0000      -6.574404      -178.8986
  24   2.0000      -1.451065       -39.4855
  25   2.0000      -1.416183       -38.5363
  26   2.0000      -1.353654       -36.8348
  27   2.0000      -1.343232       -36.5512
  28   2.0000      -1.240469       -33.7549
  29   2.0000      -1.157507       -31.4974
  30   2.0000      -1.122170       -30.5358
  31   2.0000      -1.042964       -28.3805
  32   2.0000      -1.038181       -28.2503
  33   2.0000      -1.015070       -27.6215
  34   2.0000      -0.997639       -27.1472
  35   2.0000      -0.985542       -26.8180
  36   2.0000      -0.923588       -25.1321
  37   2.0000      -0.886016       -24.1097
  38   2.0000      -0.848480       -23.0883
  39   2.0000      -0.837506       -22.7897
  40   2.0000      -0.833758       -22.6877
  41   2.0000      -0.817827       -22.2542
  42   2.0000      -0.764744       -20.8097
  43   2.0000      -0.731445       -19.9036
  44   2.0000      -0.720321       -19.6009
  45   2.0000      -0.696969       -18.9655
  46   2.0000      -0.688576       -18.7371
  47   2.0000      -0.679072       -18.4785
  48   2.0000      -0.676281       -18.4025
  49   2.0000      -0.663632       -18.0583
  50   2.0000      -0.647722       -17.6254
  51   2.0000      -0.644000       -17.5241
  52   2.0000      -0.634532       -17.2665
  53   2.0000      -0.606930       -16.5154
  54   2.0000      -0.602050       -16.3826
  55   2.0000      -0.599527       -16.3140
  56   2.0000      -0.591838       -16.1047
  57   2.0000      -0.577420       -15.7124
  58   2.0000      -0.571546       -15.5526
  59   2.0000      -0.564617       -15.3640
  60   2.0000      -0.558976       -15.2105
  61   2.0000      -0.553352       -15.0575
  62   2.0000      -0.542988       -14.7755
  63   2.0000      -0.523836       -14.2543
  64   2.0000      -0.518419       -14.1069
  65   2.0000      -0.514198       -13.9920
  66   2.0000      -0.502890       -13.6843
  67   2.0000      -0.497958       -13.5501
  68   2.0000      -0.484979       -13.1970
  69   2.0000      -0.462858       -12.5950
  70   2.0000      -0.457221       -12.4416
  71   2.0000      -0.445549       -12.1240
  72   2.0000      -0.358128        -9.7452
  73   2.0000      -0.349247        -9.5035
  74   2.0000      -0.329392        -8.9632
  75   2.0000      -0.321596        -8.7511
  76   2.0000      -0.317708        -8.6453
  77   0.0000       0.071574         1.9476
  78   0.0000       0.106248         2.8912
  79   0.0000       0.124824         3.3966
  80   0.0000       0.132304         3.6002
  81   0.0000       0.137977         3.7545

MULLIKEN ATOMIC CHARGES
-----------------------
   0 C :   -0.287111
   1 C :    0.045848
   2 O :   -0.357683
   3 C :    0.432972
   4 O :   -0.419595
   5 C :   -0.213426
   6 C :    0.161269
   7 C :   -0.264776
   8 N :   -0.124752
   9 C :    0.200999
  10 S :   -0.436349
  11 N :   -0.203770
  12 C :    0.043527
  13 C :    0.086365
  14 C :   -0.212001
  15 C :   -0.121844
  16 C :   -0.281169
  17 C :    0.312593
  18 O :   -0.356690
  19 C :   -0.264101
  20 H :    0.091250
  21 H :    0.106752
  22 H :    0.111084
  23 H :    0.102177
  24 H :    0.088128
  25 H :    0.131176
  26 H :    0.133502
  27 H :    0.094740
  28 H :    0.200869
  29 H :    0.194532
  30 H :    0.156357
  31 H :    0.154815
  32 H :    0.160913
  33 H :    0.130818
  34 H :    0.240657
  35 H :    0.161927
Sum of atomic charges:   -0.0000000

LOEWDIN ATOMIC CHARGES
----------------------
   0 C :    0.104951
   1 C :   -0.016380
   2 O :    0.299394
   3 C :   -0.419965
   4 O :    0.101072
   5 C :   -0.099874
   6 C :   -0.048123
   7 C :    0.131485
   8 N :    0.408763
   9 C :   -0.460378
  10 S :   -0.032282
  11 N :    0.396254
  12 C :   -0.051572
  13 C :   -0.039966
  14 C :    0.015207
  15 C :    0.040392
  16 C :   -0.002410
  17 C :   -0.189586
  18 O :    0.395241
  19 C :    0.032302
  20 H :   -0.029807
  21 H :   -0.025625
  22 H :   -0.024439
  23 H :   -0.029710
  24 H :   -0.027795
  25 H :   -0.004331
  26 H :   -0.003720
  27 H :   -0.022849
  28 H :   -0.056975
  29 H :   -0.064351
  30 H :   -0.009451
  31 H :   -0.030562
  32 H :   -0.021517
  33 H :   -0.035510
  34 H :   -0.153957
  35 H :   -0.023929

  Mayer bond orders larger than 0.100000
B(  0-C ,  1-C ) :   0.9737 B(  0-C , 20-H ) :   0.9772 B(  0-C , 21-H ) :   0.9789
B(  0-C , 22-H ) :   0.9728 B(  1-C ,  2-O ) :   0.9043 B(  1-C , 23-H ) :   0.9853
B(  1-C , 24-H ) :   0.9720 B(  2-O ,  3-C ) :   1.1262 B(  3-C ,  4-O ) :   2.0025
B(  3-C ,  5-C ) :   1.0693 B(  5-C ,  6-C ) :   1.6137 B(  5-C , 12-C ) :   0.9674
B(  6-C ,  7-C ) :   0.9714 B(  6-C ,  8-N ) :   1.1387 B(  7-C , 25-H ) :   0.9640
B(  7-C , 26-H ) :   0.9544 B(  7-C , 27-H ) :   0.9885 B(  8-N ,  9-C ) :   1.1833
B(  8-N , 28-H ) :   0.9473 B(  9-C , 10-S ) :   1.6155 B(  9-C , 11-N ) :   1.3057
B( 11-N , 12-C ) :   0.9722 B( 11-N , 29-H ) :   0.9528 B( 12-C , 13-C ) :   0.9524
B( 12-C , 30-H ) :   0.9988 B( 13-C , 14-C ) :   1.3523 B( 13-C , 19-C ) :   1.3766
B( 14-C , 15-C ) :   1.3792 B( 14-C , 31-H ) :   0.9713 B( 15-C , 16-C ) :   1.3675
B( 15-C , 32-H ) :   0.9708 B( 16-C , 17-C ) :   1.3264 B( 16-C , 33-H ) :   0.9850
B( 17-C , 18-O ) :   1.1079 B( 17-C , 19-C ) :   1.3766 B( 18-O , 34-H ) :   0.9799
B( 19-C , 35-H ) :   0.9587

MP2 TOTAL ENERGY:    -1274.336657234 Eh
FINAL SINGLE POINT ENERGY     -1274.336657233770

DIPOLE MOMENT
-------------
                                X             Y             Z
Electronic contribution:      8.47197      11.47498       6.85159
Nuclear contribution   :     -9.65867     -13.03971      -7.03308
                        -----------------------------------------
Total Dipole Moment    :     -1.18671      -1.56473      -0.18149
                        -----------------------------------------
Magnitude (a.u.)       :      1.97220
Magnitude (Debye)      :      5.01294

Rotational constants in cm-1:     0.011205     0.009102     0.006088
Rotational constants in MHz :   335.911163   272.870938   182.500633

                             ****ORCA TERMINATED NORMALLY****
TOTAL RUN TIME: 0 days 1 hours 40 minutes 22 seconds 578 msec
