                         Program Version 4.2.0 -  RELEASE  -
|  1> ! ri-mp2 cc-pvtz cc-pvtz/c TightSCF NoKeepInts
|  2>
|  3> %scf
|  4>   MaxCore 4096
|  5> end
|  6> *xyz  0  1
|  7>     C       14.8438797   14.5390882   16.5242980
|  8>     C       15.0922113   15.8510079   15.7611288
|  9>     O       16.4376849   15.8230649   15.2487933
| 10>     C       17.1729007   16.9681857   15.1152056
| 11>     O       17.8154758   17.1738300   14.1022534
| 12>     C       17.1431918   17.9346225   16.2595116
| 13>     C       17.0957405   19.2557920   15.9623895
| 14>     C       16.6554455   19.8550874   14.6433563
| 15>     N       17.4681849   20.2264601   16.8930113
| 16>     C       18.1448197   19.9532768   18.0508791
| 17>     S       18.6763133   21.1514598   19.0592544
| 18>     N       18.3845515   18.6282780   18.3178428
| 19>     C       17.8303399   17.4890088   17.5602631
| 20>     C       17.0753716   16.5175213   18.4519891
| 21>     C       17.6515081   15.2845981   18.8100318
| 22>     C       16.9847633   14.4152881   19.6904444
| 23>     C       15.7341481   14.7832332   20.2165368
| 24>     C       15.1648728   16.0164066   19.8699064
| 25>     O       13.9595507   16.3762450   20.3774452
| 26>     C       15.8344801   16.8834156   19.0006254
| 27>     H       15.6372297   14.3440413   17.2504548
| 28>     H       14.8131271   13.6932684   15.8265208
| 29>     H       13.8873334   14.5777411   17.0592885
| 30>     H       14.3740818   15.9568187   14.9374832
| 31>     H       14.9403079   16.6892901   16.4510665
| 32>     H       15.8724936   19.2489007   14.1713279
| 33>     H       17.5006924   19.8971255   13.9434317
| 34>     H       16.2573838   20.8705984   14.7562442
| 35>     H       17.3416144   21.2033577   16.6804119
| 36>     H       18.8725667   18.4565745   19.1881176
| 37>     H       18.7706221   17.0269994   17.2255621
| 38>     H       18.6204224   14.9996871   18.4076242
| 39>     H       17.4362926   13.4619336   19.9605989
| 40>     H       15.2143405   14.1131912   20.8936839
| 41>     H       13.6905757   15.6888305   21.0059438
| 42>     H       15.3924815   17.8457716   18.7650738
| 43> *
| 44>
| 45>                          ****END OF INPUT****

CARTESIAN COORDINATES (ANGSTROEM)
---------------------------------
  C     14.843880   14.539088   16.524298
  C     15.092211   15.851008   15.761129
  O     16.437685   15.823065   15.248793
  C     17.172901   16.968186   15.115206
  O     17.815476   17.173830   14.102253
  C     17.143192   17.934622   16.259512
  C     17.095741   19.255792   15.962390
  C     16.655445   19.855087   14.643356
  N     17.468185   20.226460   16.893011
  C     18.144820   19.953277   18.050879
  S     18.676313   21.151460   19.059254
  N     18.384552   18.628278   18.317843
  C     17.830340   17.489009   17.560263
  C     17.075372   16.517521   18.451989
  C     17.651508   15.284598   18.810032
  C     16.984763   14.415288   19.690444
  C     15.734148   14.783233   20.216537
  C     15.164873   16.016407   19.869906
  O     13.959551   16.376245   20.377445
  C     15.834480   16.883416   19.000625
  H     15.637230   14.344041   17.250455
  H     14.813127   13.693268   15.826521
  H     13.887333   14.577741   17.059288
  H     14.374082   15.956819   14.937483
  H     14.940308   16.689290   16.451066
  H     15.872494   19.248901   14.171328
  H     17.500692   19.897126   13.943432
  H     16.257384   20.870598   14.756244
  H     17.341614   21.203358   16.680412
  H     18.872567   18.456574   19.188118
  H     18.770622   17.026999   17.225562
  H     18.620422   14.999687   18.407624
  H     17.436293   13.461934   19.960599
  H     15.214340   14.113191   20.893684
  H     13.690576   15.688830   21.005944
  H     15.392482   17.845772   18.765074

 Total Charge           Charge          ....    0
 Multiplicity           Mult            ....    1
 Number of Electrons    NEL             ....  154
 Basis Dimension        Dim             ....  828

ORBITAL ENERGIES
----------------

  NO   OCC          E(Eh)            E(eV)
   0   2.0000     -91.890074     -2500.4560
   1   2.0000     -20.606112      -560.7208
   2   2.0000     -20.593598      -560.3803
   3   2.0000     -20.550839      -559.2168
   4   2.0000     -15.627676      -425.2507
   5   2.0000     -15.610259      -424.7767
   6   2.0000     -11.393978      -310.0459
   7   2.0000     -11.385121      -309.8049
   8   2.0000     -11.331237      -308.3386
   9   2.0000     -11.323859      -308.1379
  10   2.0000     -11.316590      -307.9401
  11   2.0000     -11.298771      -307.4552
  12   2.0000     -11.270400      -306.6832
  13   2.0000     -11.264591      -306.5251
  14   2.0000     -11.257412      -306.3297
  15   2.0000     -11.256318      -306.3000
  16   2.0000     -11.253708      -306.2290
  17   2.0000     -11.249216      -306.1067
  18   2.0000     -11.248767      -306.0945
  19   2.0000     -11.223329      -305.4023
  20   2.0000      -8.895144      -242.0492
  21   2.0000      -6.576716      -178.9615
  22   2.0000      -6.574716      -178.9071
  23   2.0000      -6.574127      -178.8911
  24   2.0000      -1.446572       -39.3632
  25   2.0000      -1.425793       -38.7978
  26   2.0000      -1.358608       -36.9696
  27   2.0000      -1.340989       -36.4902
  28   2.0000      -1.240520       -33.7563
  29   2.0000      -1.166963       -31.7547
  30   2.0000      -1.124924       -30.6107
  31   2.0000      -1.051250       -28.6060
  32   2.0000      -1.033764       -28.1302
  33   2.0000      -1.025129       -27.8952
  34   2.0000      -1.003304       -27.3013
  35   2.0000      -0.988782       -26.9061
  36   2.0000      -0.927361       -25.2348
  37   2.0000      -0.877853       -23.8876
  38   2.0000      -0.852449       -23.1963
  39   2.0000      -0.845690       -23.0124
  40   2.0000      -0.843182       -22.9442
  41   2.0000      -0.836065       -22.7505
  42   2.0000      -0.760759       -20.7013
  43   2.0000      -0.740284       -20.1441
  44   2.0000      -0.727916       -19.8076
  45   2.0000      -0.705012       -19.1843
  46   2.0000      -0.693030       -18.8583
  47   2.0000      -0.681249       -18.5377
  48   2.0000      -0.675658       -18.3856
  49   2.0000      -0.660463       -17.9721
  50   2.0000      -0.650505       -17.7012
  51   2.0000      -0.641255       -17.4494
  52   2.0000      -0.636347       -17.3159
  53   2.0000      -0.617617       -16.8062
  54   2.0000      -0.615639       -16.7524
  55   2.0000      -0.606741       -16.5103
  56   2.0000      -0.603554       -16.4235
  57   2.0000      -0.584657       -15.9093
  58   2.0000      -0.576592       -15.6899
  59   2.0000      -0.567615       -15.4456
  60   2.0000      -0.558890       -15.2082
  61   2.0000      -0.546516       -14.8715
  62   2.0000      -0.537242       -14.6191
  63   2.0000      -0.532053       -14.4779
  64   2.0000      -0.527432       -14.3522
  65   2.0000      -0.516072       -14.0430
  66   2.0000      -0.505111       -13.7448
  67   2.0000      -0.495972       -13.4961
  68   2.0000      -0.491106       -13.3637
  69   2.0000      -0.464835       -12.6488
  70   2.0000      -0.456305       -12.4167
  71   2.0000      -0.450825       -12.2676
  72   2.0000      -0.359680        -9.7874
  73   2.0000      -0.352937        -9.6039
  74   2.0000      -0.333386        -9.0719
  75   2.0000      -0.328338        -8.9345
  76   2.0000      -0.319995        -8.7075
  77   0.0000       0.081152         2.2082
  78   0.0000       0.094723         2.5776
  79   0.0000       0.118605         3.2274
  80   0.0000       0.125671         3.4197
  81   0.0000       0.128188         3.4882

MULLIKEN ATOMIC CHARGES
-----------------------
   0 C :   -0.293649
   1 C :    0.023836
   2 O :   -0.322132
   3 C :    0.407518
   4 O :   -0.368615
   5 C :   -0.261565
   6 C :    0.166194
   7 C :   -0.278327
   8 N :   -0.131715
   9 C :    0.212194
  10 S :   -0.441490
  11 N :   -0.212580
  12 C :    0.045678
  13 C :    0.011787
  14 C :   -0.179114
  15 C :   -0.134012
  16 C :   -0.264990
  17 C :    0.314562
  18 O :   -0.359907
  19 C :   -0.244364
  20 H :    0.113097
  21 H :    0.112740
  22 H :    0.092841
  23 H :    0.111898
  24 H :    0.094183
  25 H :    0.115028
  26 H :    0.143420
  27 H :    0.097856
  28 H :    0.198502
  29 H :    0.201172
  30 H :    0.156714
  31 H :    0.155720
  32 H :    0.165573
  33 H :    0.134871
  34 H :    0.242878
  35 H :    0.174198
Sum of atomic charges:   -0.0000000

LOEWDIN ATOMIC CHARGES
----------------------
   0 C :    0.109091
   1 C :   -0.022082
   2 O :    0.304420
   3 C :   -0.421763
   4 O :    0.129057
   5 C :   -0.100132
   6 C :   -0.076764
   7 C :    0.129016
   8 N :    0.405691
   9 C :   -0.454950
  10 S :   -0.035874
  11 N :    0.395315
  12 C :   -0.054860
  13 C :   -0.042211
  14 C :    0.016427
  15 C :    0.044664
  16 C :    0.004627
  17 C :   -0.189405
  18 O :    0.396802
  19 C :    0.036577
  20 H :   -0.027060
  21 H :   -0.027808
  22 H :   -0.025929
  23 H :   -0.031698
  24 H :   -0.042350
  25 H :   -0.009698
  26 H :   -0.003668
  27 H :   -0.021011
  28 H :   -0.057088
  29 H :   -0.063956
  30 H :   -0.010210
  31 H :   -0.027007
  32 H :   -0.018753
  33 H :   -0.033261
  34 H :   -0.151646
  35 H :   -0.022501

  Mayer bond orders larger than 0.100000
B(  0-C ,  1-C ) :   0.9749 B(  0-C , 20-H ) :   0.9706 B(  0-C , 21-H ) :   0.9815
B(  0-C , 22-H ) :   0.9750 B(  1-C ,  2-O ) :   0.9024 B(  1-C , 23-H ) :   0.9787
B(  1-C , 24-H ) :   0.9588 B(  2-O ,  3-C ) :   1.1719 B(  3-C ,  4-O ) :   2.1236
B(  3-C ,  5-C ) :   0.9505 B(  5-C ,  6-C ) :   1.6728 B(  5-C , 12-C ) :   0.9693
B(  6-C ,  7-C ) :   0.9494 B(  6-C ,  8-N ) :   1.1381 B(  7-C , 25-H ) :   0.9764
B(  7-C , 26-H ) :   0.9559 B(  7-C , 27-H ) :   0.9845 B(  8-N ,  9-C ) :   1.1956
B(  8-N , 28-H ) :   0.9491 B(  9-C , 10-S ) :   1.6085 B(  9-C , 11-N ) :   1.2974
B( 11-N , 12-C ) :   0.9649 B( 11-N , 29-H ) :   0.9475 B( 12-C , 13-C ) :   0.9643
B( 12-C , 30-H ) :   1.0072 B( 13-C , 14-C ) :   1.3597 B( 13-C , 19-C ) :   1.3540
B( 14-C , 15-C ) :   1.3856 B( 14-C , 31-H ) :   0.9723 B( 15-C , 16-C ) :   1.3687
B( 15-C , 32-H ) :   0.9701 B( 16-C , 17-C ) :   1.3269 B( 16-C , 33-H ) :   0.9836
B( 17-C , 18-O ) :   1.1047 B( 17-C , 19-C ) :   1.3627 B( 18-O , 34-H ) :   0.9779
B( 19-C , 35-H ) :   0.9584

MP2 TOTAL ENERGY:    -1274.324996074 Eh
FINAL SINGLE POINT ENERGY     -1274.324996074300

DIPOLE MOMENT
-------------
                                X             Y             Z
Electronic contribution:      8.73125       9.79846       4.58072
Nuclear contribution   :    -10.29764     -11.20962      -4.17556
                        -----------------------------------------
Total Dipole Moment    :     -1.56639      -1.41116       0.40516
                        -----------------------------------------
Magnitude (a.u.)       :      2.14689
Magnitude (Debye)      :      5.45695

Rotational constants in cm-1:     0.012659     0.008719     0.006188
Rotational constants in MHz :   379.493582   261.400458   185.507675

                             ****ORCA TERMINATED NORMALLY****
TOTAL RUN TIME: 0 days 1 hours 45 minutes 41 seconds 897 msec
