                         Program Version 4.2.0 -  RELEASE  -
|  1> ! ri-mp2 cc-pvtz cc-pvtz/c TightSCF NoKeepInts
|  2>
|  3> %scf
|  4>   MaxCore 4096
|  5> end
|  6> *xyz  0  1
|  7>     C       14.9336698   14.5890717   16.3498123
|  8>     C       15.7791971   14.9692665   15.1224252
|  9>     O       16.7701191   15.9323490   15.5304485
| 10>     C       16.5530171   17.2548198   15.2650763
| 11>     O       16.0062389   17.6184772   14.2379057
| 12>     C       16.9383527   18.1577802   16.4074930
| 13>     C       16.9196245   19.5080132   16.2553508
| 14>     C       16.2741330   20.2983526   15.1354026
| 15>     N       17.5428645   20.3471405   17.1817219
| 16>     C       18.3819266   19.9169787   18.1729789
| 17>     S       19.1753920   20.9719871   19.1695996
| 18>     N       18.5519977   18.5604691   18.2806718
| 19>     C       17.8017922   17.5414023   17.5230581
| 20>     C       17.0803551   16.5621782   18.4389308
| 21>     C       17.6602437   15.3177453   18.7472979
| 22>     C       17.0111720   14.4235664   19.6155467
| 23>     C       15.7728617   14.7773505   20.1786193
| 24>     C       15.1966532   16.0192420   19.8771520
| 25>     O       14.0023152   16.3640042   20.4206025
| 26>     C       15.8473294   16.9092998   19.0170063
| 27>     H       15.5607970   14.1393441   17.1279533
| 28>     H       14.1608860   13.8619997   16.0730687
| 29>     H       14.4370267   15.4727248   16.7693186
| 30>     H       16.2834076   14.0689421   14.7486907
| 31>     H       15.1365776   15.3518921   14.3177718
| 32>     H       15.2339295   19.9810585   14.9874614
| 33>     H       16.8053454   20.1327825   14.1893549
| 34>     H       16.2600118   21.3783638   15.3235151
| 35>     H       17.4469108   21.3463407   17.0959553
| 36>     H       19.1521921   18.2716577   19.0426851
| 37>     H       18.6317984   17.0409844   17.0042302
| 38>     H       18.6166770   15.0427513   18.3106763
| 39>     H       17.4666310   13.4625005   19.8482341
| 40>     H       15.2669018   14.0896445   20.8482560
| 41>     H       13.7356282   15.6479041   21.0165502
| 42>     H       15.3930234   17.8716147   18.8071780
| 43> *
| 44>
| 45>                          ****END OF INPUT****

CARTESIAN COORDINATES (ANGSTROEM)
---------------------------------
  C     14.933670   14.589072   16.349812
  C     15.779197   14.969266   15.122425
  O     16.770119   15.932349   15.530449
  C     16.553017   17.254820   15.265076
  O     16.006239   17.618477   14.237906
  C     16.938353   18.157780   16.407493
  C     16.919625   19.508013   16.255351
  C     16.274133   20.298353   15.135403
  N     17.542864   20.347140   17.181722
  C     18.381927   19.916979   18.172979
  S     19.175392   20.971987   19.169600
  N     18.551998   18.560469   18.280672
  C     17.801792   17.541402   17.523058
  C     17.080355   16.562178   18.438931
  C     17.660244   15.317745   18.747298
  C     17.011172   14.423566   19.615547
  C     15.772862   14.777351   20.178619
  C     15.196653   16.019242   19.877152
  O     14.002315   16.364004   20.420603
  C     15.847329   16.909300   19.017006
  H     15.560797   14.139344   17.127953
  H     14.160886   13.862000   16.073069
  H     14.437027   15.472725   16.769319
  H     16.283408   14.068942   14.748691
  H     15.136578   15.351892   14.317772
  H     15.233929   19.981058   14.987461
  H     16.805345   20.132783   14.189355
  H     16.260012   21.378364   15.323515
  H     17.446911   21.346341   17.095955
  H     19.152192   18.271658   19.042685
  H     18.631798   17.040984   17.004230
  H     18.616677   15.042751   18.310676
  H     17.466631   13.462501   19.848234
  H     15.266902   14.089645   20.848256
  H     13.735628   15.647904   21.016550
  H     15.393023   17.871615   18.807178

 Total Charge           Charge          ....    0
 Multiplicity           Mult            ....    1
 Number of Electrons    NEL             ....  154
 Basis Dimension        Dim             ....  828

ORBITAL ENERGIES
----------------

  NO   OCC          E(Eh)            E(eV)
   0   2.0000     -91.889646     -2500.4444
   1   2.0000     -20.599563      -560.5426
   2   2.0000     -20.593524      -560.3783
   3   2.0000     -20.541872      -558.9728
   4   2.0000     -15.630212      -425.3197
   5   2.0000     -15.607617      -424.7049
   6   2.0000     -11.393755      -310.0398
   7   2.0000     -11.384112      -309.7774
   8   2.0000     -11.338903      -308.5473
   9   2.0000     -11.316612      -307.9407
  10   2.0000     -11.308836      -307.7291
  11   2.0000     -11.293042      -307.2993
  12   2.0000     -11.263425      -306.4934
  13   2.0000     -11.259459      -306.3855
  14   2.0000     -11.258025      -306.3464
  15   2.0000     -11.252287      -306.1903
  16   2.0000     -11.246193      -306.0245
  17   2.0000     -11.241034      -305.8841
  18   2.0000     -11.240729      -305.8758
  19   2.0000     -11.220543      -305.3265
  20   2.0000      -8.894704      -242.0372
  21   2.0000      -6.576274      -178.9495
  22   2.0000      -6.574279      -178.8952
  23   2.0000      -6.573686      -178.8791
  24   2.0000      -1.448670       -39.4203
  25   2.0000      -1.419207       -38.6186
  26   2.0000      -1.352482       -36.8029
  27   2.0000      -1.341523       -36.5047
  28   2.0000      -1.239422       -33.7264
  29   2.0000      -1.159917       -31.5630
  30   2.0000      -1.121885       -30.5281
  31   2.0000      -1.044512       -28.4226
  32   2.0000      -1.034066       -28.1384
  33   2.0000      -1.017779       -27.6952
  34   2.0000      -0.997464       -27.1424
  35   2.0000      -0.985533       -26.8177
  36   2.0000      -0.923228       -25.1223
  37   2.0000      -0.888776       -24.1848
  38   2.0000      -0.847601       -23.0644
  39   2.0000      -0.840256       -22.8645
  40   2.0000      -0.836319       -22.7574
  41   2.0000      -0.814875       -22.1739
  42   2.0000      -0.759857       -20.6768
  43   2.0000      -0.735500       -20.0140
  44   2.0000      -0.721848       -19.6425
  45   2.0000      -0.698112       -18.9966
  46   2.0000      -0.688799       -18.7432
  47   2.0000      -0.676872       -18.4186
  48   2.0000      -0.670231       -18.2379
  49   2.0000      -0.667436       -18.1619
  50   2.0000      -0.647035       -17.6067
  51   2.0000      -0.642508       -17.4835
  52   2.0000      -0.636569       -17.3219
  53   2.0000      -0.609827       -16.5942
  54   2.0000      -0.603608       -16.4250
  55   2.0000      -0.601324       -16.3629
  56   2.0000      -0.589774       -16.0486
  57   2.0000      -0.579283       -15.7631
  58   2.0000      -0.569997       -15.5104
  59   2.0000      -0.566801       -15.4234
  60   2.0000      -0.562237       -15.2993
  61   2.0000      -0.548906       -14.9365
  62   2.0000      -0.539118       -14.6701
  63   2.0000      -0.526691       -14.3320
  64   2.0000      -0.523274       -14.2390
  65   2.0000      -0.513323       -13.9682
  66   2.0000      -0.502432       -13.6719
  67   2.0000      -0.497708       -13.5433
  68   2.0000      -0.480394       -13.0722
  69   2.0000      -0.463257       -12.6059
  70   2.0000      -0.450615       -12.2619
  71   2.0000      -0.447328       -12.1724
  72   2.0000      -0.353977        -9.6322
  73   2.0000      -0.352178        -9.5832
  74   2.0000      -0.329068        -8.9544
  75   2.0000      -0.324124        -8.8199
  76   2.0000      -0.319358        -8.6902
  77   0.0000       0.074711         2.0330
  78   0.0000       0.101450         2.7606
  79   0.0000       0.123215         3.3528
  80   0.0000       0.131454         3.5770
  81   0.0000       0.133296         3.6272

MULLIKEN ATOMIC CHARGES
-----------------------
   0 C :   -0.305126
   1 C :    0.024672
   2 O :   -0.361851
   3 C :    0.454746
   4 O :   -0.427361
   5 C :   -0.261657
   6 C :    0.182765
   7 C :   -0.265325
   8 N :   -0.126820
   9 C :    0.213865
  10 S :   -0.441585
  11 N :   -0.219861
  12 C :    0.069266
  13 C :    0.059803
  14 C :   -0.185963
  15 C :   -0.140482
  16 C :   -0.272469
  17 C :    0.324725
  18 O :   -0.359234
  19 C :   -0.263137
  20 H :    0.104469
  21 H :    0.110639
  22 H :    0.103524
  23 H :    0.101771
  24 H :    0.116107
  25 H :    0.131239
  26 H :    0.131434
  27 H :    0.094385
  28 H :    0.199706
  29 H :    0.201516
  30 H :    0.151216
  31 H :    0.150529
  32 H :    0.164069
  33 H :    0.132120
  34 H :    0.241551
  35 H :    0.166755
Sum of atomic charges:   -0.0000000

LOEWDIN ATOMIC CHARGES
----------------------
   0 C :    0.103018
   1 C :   -0.015007
   2 O :    0.301724
   3 C :   -0.417499
   4 O :    0.100718
   5 C :   -0.098694
   6 C :   -0.054039
   7 C :    0.131088
   8 N :    0.407850
   9 C :   -0.456000
  10 S :   -0.035714
  11 N :    0.394566
  12 C :   -0.054124
  13 C :   -0.036880
  14 C :    0.014902
  15 C :    0.041031
  16 C :   -0.000444
  17 C :   -0.188924
  18 O :    0.396023
  19 C :    0.034549
  20 H :   -0.026735
  21 H :   -0.027379
  22 H :   -0.028373
  23 H :   -0.027655
  24 H :   -0.028500
  25 H :   -0.004725
  26 H :   -0.004366
  27 H :   -0.023615
  28 H :   -0.056903
  29 H :   -0.064722
  30 H :   -0.012813
  31 H :   -0.029106
  32 H :   -0.020664
  33 H :   -0.035057
  34 H :   -0.153185
  35 H :   -0.024346

  Mayer bond orders larger than 0.100000
B(  0-C ,  1-C ) :   0.9665 B(  0-C , 20-H ) :   0.9725 B(  0-C , 21-H ) :   0.9784
B(  0-C , 22-H ) :   0.9746 B(  1-C ,  2-O ) :   0.8888 B(  1-C , 23-H ) :   0.9865
B(  1-C , 24-H ) :   0.9750 B(  2-O ,  3-C ) :   1.1419 B(  3-C ,  4-O ) :   1.9858
B(  3-C ,  5-C ) :   1.0668 B(  5-C ,  6-C ) :   1.6238 B(  5-C , 12-C ) :   0.9569
B(  6-C ,  7-C ) :   0.9658 B(  6-C ,  8-N ) :   1.1590 B(  7-C , 25-H ) :   0.9622
B(  7-C , 26-H ) :   0.9571 B(  7-C , 27-H ) :   0.9902 B(  8-N ,  9-C ) :   1.1859
B(  8-N , 28-H ) :   0.9466 B(  9-C , 10-S ) :   1.6029 B(  9-C , 11-N ) :   1.3126
B( 11-N , 12-C ) :   0.9568 B( 11-N , 29-H ) :   0.9481 B( 12-C , 13-C ) :   0.9657
B( 12-C , 30-H ) :   1.0024 B( 13-C , 14-C ) :   1.3508 B( 13-C , 19-C ) :   1.3629
B( 14-C , 15-C ) :   1.3922 B( 14-C , 31-H ) :   0.9736 B( 15-C , 16-C ) :   1.3561
B( 15-C , 32-H ) :   0.9707 B( 16-C , 17-C ) :   1.3343 B( 16-C , 33-H ) :   0.9847
B( 17-C , 18-O ) :   1.1035 B( 17-C , 19-C ) :   1.3591 B( 18-O , 34-H ) :   0.9792
B( 19-C , 35-H ) :   0.9605

MP2 TOTAL ENERGY:    -1274.338936739 Eh
FINAL SINGLE POINT ENERGY     -1274.338936739126

DIPOLE MOMENT
-------------
                                X             Y             Z
Electronic contribution:      8.20253      10.79723       5.80191
Nuclear contribution   :     -9.12408     -12.50179      -5.92670
                        -----------------------------------------
Total Dipole Moment    :     -0.92155      -1.70456      -0.12479
                        -----------------------------------------
Magnitude (a.u.)       :      1.94173
Magnitude (Debye)      :      4.93549

Rotational constants in cm-1:     0.012512     0.008553     0.006118
Rotational constants in MHz :   375.104939   256.421985   183.401974

                             ****ORCA TERMINATED NORMALLY****
TOTAL RUN TIME: 0 days 1 hours 43 minutes 10 seconds 454 msec
