                         Program Version 4.2.0 -  RELEASE  -
|  1> ! ri-mp2 cc-pvtz cc-pvtz/c TightSCF NoKeepInts
|  2>
|  3> %scf
|  4>   MaxCore 4096
|  5> end
|  6> *xyz  0  1
|  7>     C       14.0498008   15.0764459   15.5203401
|  8>     C       15.0066517   16.1724515   16.0159080
|  9>     O       16.2015402   16.0871074   15.2178602
| 10>     C       17.2239380   16.9922376   15.3227457
| 11>     O       18.1630620   17.0014062   14.5501756
| 12>     C       17.1345814   17.9388093   16.4679918
| 13>     C       16.8542681   19.2308521   16.1937327
| 14>     C       16.2864420   19.7368326   14.8856805
| 15>     N       17.1348595   20.2417321   17.1144136
| 16>     C       17.9153471   20.0629204   18.2271936
| 17>     S       18.3075679   21.3184070   19.2292856
| 18>     N       18.3756692   18.7879447   18.4565182
| 19>     C       17.9722927   17.5870970   17.6964801
| 20>     C       17.3969285   16.4547218   18.5318519
| 21>     C       17.7836367   15.1257619   18.2814564
| 22>     C       17.2324191   14.0703094   19.0268058
| 23>     C       16.2864494   14.3465622   20.0288792
| 24>     C       15.8974169   15.6698553   20.2779645
| 25>     O       14.9763496   15.9385109   21.2368341
| 26>     C       16.4454638   16.7188288   19.5326060
| 27>     H       13.1135760   15.0941152   16.0913365
| 28>     H       14.5057785   14.0854235   15.6388210
| 29>     H       13.8101150   15.2217609   14.4595282
| 30>     H       14.5299927   17.1545629   15.8993975
| 31>     H       15.2280304   16.0077922   17.0770681
| 32>     H       15.4614872   19.1031865   14.5378910
| 33>     H       17.0607830   19.7273758   14.1065026
| 34>     H       15.9031140   20.7615012   14.9629643
| 35>     H       16.8448603   21.1893244   16.9309851
| 36>     H       18.9482157   18.6856145   19.2853461
| 37>     H       18.9509126   17.2850247   17.2937027
| 38>     H       18.5075546   14.9092712   17.4988008
| 39>     H       17.5371928   13.0445553   18.8248373
| 40>     H       15.8578389   13.5337392   20.6062133
| 41>     H       14.7563008   15.1017364   21.6738664
| 42>     H       16.1265632   17.7362221   19.7360159
| 43> *
| 44>
| 45>                          ****END OF INPUT****

CARTESIAN COORDINATES (ANGSTROEM)
---------------------------------
  C     14.049801   15.076446   15.520340
  C     15.006652   16.172452   16.015908
  O     16.201540   16.087107   15.217860
  C     17.223938   16.992238   15.322746
  O     18.163062   17.001406   14.550176
  C     17.134581   17.938809   16.467992
  C     16.854268   19.230852   16.193733
  C     16.286442   19.736833   14.885680
  N     17.134860   20.241732   17.114414
  C     17.915347   20.062920   18.227194
  S     18.307568   21.318407   19.229286
  N     18.375669   18.787945   18.456518
  C     17.972293   17.587097   17.696480
  C     17.396929   16.454722   18.531852
  C     17.783637   15.125762   18.281456
  C     17.232419   14.070309   19.026806
  C     16.286449   14.346562   20.028879
  C     15.897417   15.669855   20.277964
  O     14.976350   15.938511   21.236834
  C     16.445464   16.718829   19.532606
  H     13.113576   15.094115   16.091337
  H     14.505778   14.085423   15.638821
  H     13.810115   15.221761   14.459528
  H     14.529993   17.154563   15.899397
  H     15.228030   16.007792   17.077068
  H     15.461487   19.103186   14.537891
  H     17.060783   19.727376   14.106503
  H     15.903114   20.761501   14.962964
  H     16.844860   21.189324   16.930985
  H     18.948216   18.685614   19.285346
  H     18.950913   17.285025   17.293703
  H     18.507555   14.909271   17.498801
  H     17.537193   13.044555   18.824837
  H     15.857839   13.533739   20.606213
  H     14.756301   15.101736   21.673866
  H     16.126563   17.736222   19.736016

 Total Charge           Charge          ....    0
 Multiplicity           Mult            ....    1
 Number of Electrons    NEL             ....  154
 Basis Dimension        Dim             ....  828

ORBITAL ENERGIES
----------------

  NO   OCC          E(Eh)            E(eV)
   0   2.0000     -91.889306     -2500.4351
   1   2.0000     -20.604278      -560.6709
   2   2.0000     -20.603091      -560.6386
   3   2.0000     -20.553464      -559.2882
   4   2.0000     -15.625512      -425.1918
   5   2.0000     -15.610720      -424.7893
   6   2.0000     -11.397548      -310.1431
   7   2.0000     -11.385227      -309.8078
   8   2.0000     -11.325802      -308.1907
   9   2.0000     -11.322788      -308.1087
  10   2.0000     -11.315792      -307.9184
  11   2.0000     -11.301390      -307.5265
  12   2.0000     -11.270396      -306.6831
  13   2.0000     -11.264081      -306.5112
  14   2.0000     -11.261748      -306.4478
  15   2.0000     -11.256124      -306.2947
  16   2.0000     -11.251902      -306.1798
  17   2.0000     -11.247046      -306.0477
  18   2.0000     -11.246923      -306.0443
  19   2.0000     -11.232799      -305.6600
  20   2.0000      -8.894398      -242.0289
  21   2.0000      -6.575979      -178.9415
  22   2.0000      -6.573970      -178.8868
  23   2.0000      -6.573387      -178.8710
  24   2.0000      -1.449765       -39.4501
  25   2.0000      -1.424002       -38.7491
  26   2.0000      -1.364331       -37.1253
  27   2.0000      -1.338615       -36.4256
  28   2.0000      -1.238647       -33.7053
  29   2.0000      -1.166569       -31.7440
  30   2.0000      -1.127178       -30.6721
  31   2.0000      -1.051988       -28.6261
  32   2.0000      -1.039236       -28.2791
  33   2.0000      -1.024470       -27.8772
  34   2.0000      -1.004654       -27.3380
  35   2.0000      -0.989824       -26.9345
  36   2.0000      -0.927545       -25.2398
  37   2.0000      -0.879426       -23.9304
  38   2.0000      -0.854261       -23.2456
  39   2.0000      -0.844231       -22.9727
  40   2.0000      -0.842174       -22.9167
  41   2.0000      -0.839300       -22.8385
  42   2.0000      -0.759476       -20.6664
  43   2.0000      -0.739083       -20.1115
  44   2.0000      -0.732537       -19.9333
  45   2.0000      -0.702455       -19.1148
  46   2.0000      -0.692730       -18.8501
  47   2.0000      -0.680539       -18.5184
  48   2.0000      -0.676755       -18.4154
  49   2.0000      -0.666931       -18.1481
  50   2.0000      -0.655955       -17.8494
  51   2.0000      -0.651556       -17.7297
  52   2.0000      -0.636266       -17.3137
  53   2.0000      -0.614307       -16.7161
  54   2.0000      -0.608459       -16.5570
  55   2.0000      -0.606646       -16.5077
  56   2.0000      -0.591079       -16.0841
  57   2.0000      -0.580923       -15.8077
  58   2.0000      -0.578697       -15.7472
  59   2.0000      -0.570114       -15.5136
  60   2.0000      -0.564137       -15.3509
  61   2.0000      -0.559517       -15.2252
  62   2.0000      -0.553313       -15.0564
  63   2.0000      -0.530093       -14.4246
  64   2.0000      -0.522581       -14.2202
  65   2.0000      -0.517524       -14.0825
  66   2.0000      -0.511015       -13.9054
  67   2.0000      -0.504536       -13.7291
  68   2.0000      -0.489321       -13.3151
  69   2.0000      -0.467321       -12.7165
  70   2.0000      -0.454564       -12.3693
  71   2.0000      -0.453531       -12.3412
  72   2.0000      -0.356925        -9.7124
  73   2.0000      -0.352577        -9.5941
  74   2.0000      -0.331311        -9.0154
  75   2.0000      -0.328404        -8.9363
  76   2.0000      -0.318542        -8.6680
  77   0.0000       0.089575         2.4375
  78   0.0000       0.099880         2.7179
  79   0.0000       0.118483         3.2241
  80   0.0000       0.126830         3.4512
  81   0.0000       0.129131         3.5138

MULLIKEN ATOMIC CHARGES
-----------------------
   0 C :   -0.262663
   1 C :    0.029626
   2 O :   -0.298361
   3 C :    0.413476
   4 O :   -0.382693
   5 C :   -0.198775
   6 C :    0.136771
   7 C :   -0.304769
   8 N :   -0.136794
   9 C :    0.216101
  10 S :   -0.442433
  11 N :   -0.228443
  12 C :    0.040878
  13 C :    0.007895
  14 C :   -0.208802
  15 C :   -0.134892
  16 C :   -0.272092
  17 C :    0.312438
  18 O :   -0.353865
  19 C :   -0.234436
  20 H :    0.089832
  21 H :    0.101556
  22 H :    0.101650
  23 H :    0.086578
  24 H :    0.111313
  25 H :    0.116617
  26 H :    0.145413
  27 H :    0.100945
  28 H :    0.196233
  29 H :    0.202721
  30 H :    0.166830
  31 H :    0.163975
  32 H :    0.165683
  33 H :    0.134754
  34 H :    0.241766
  35 H :    0.175967
Sum of atomic charges:    0.0000000

LOEWDIN ATOMIC CHARGES
----------------------
   0 C :    0.111929
   1 C :   -0.026774
   2 O :    0.310016
   3 C :   -0.415348
   4 O :    0.124180
   5 C :   -0.088789
   6 C :   -0.093874
   7 C :    0.129144
   8 N :    0.403097
   9 C :   -0.453503
  10 S :   -0.037986
  11 N :    0.395724
  12 C :   -0.053199
  13 C :   -0.045386
  14 C :    0.016649
  15 C :    0.045528
  16 C :    0.001005
  17 C :   -0.191052
  18 O :    0.397225
  19 C :    0.029260
  20 H :   -0.024825
  21 H :   -0.024339
  22 H :   -0.025627
  23 H :   -0.037466
  24 H :   -0.031666
  25 H :   -0.013101
  26 H :   -0.003197
  27 H :   -0.018323
  28 H :   -0.059535
  29 H :   -0.064579
  30 H :   -0.005984
  31 H :   -0.024088
  32 H :   -0.017707
  33 H :   -0.033628
  34 H :   -0.152211
  35 H :   -0.021572

  Mayer bond orders larger than 0.100000
B(  0-C ,  1-C ) :   0.9819 B(  0-C , 20-H ) :   0.9774 B(  0-C , 21-H ) :   0.9779
B(  0-C , 22-H ) :   0.9786 B(  1-C ,  2-O ) :   0.9076 B(  1-C , 23-H ) :   0.9711
B(  1-C , 24-H ) :   0.9622 B(  2-O ,  3-C ) :   1.2028 B(  3-C ,  4-O ) :   2.1200
B(  3-C ,  5-C ) :   0.9044 B(  5-C ,  6-C ) :   1.7322 B(  5-C , 12-C ) :   0.9514
B(  6-C ,  7-C ) :   0.9339 B(  6-C ,  8-N ) :   1.1097 B(  7-C , 25-H ) :   0.9783
B(  7-C , 26-H ) :   0.9615 B(  7-C , 27-H ) :   0.9864 B(  8-N ,  9-C ) :   1.2020
B(  8-N , 28-H ) :   0.9493 B(  9-C , 10-S ) :   1.6101 B(  9-C , 11-N ) :   1.2844
B( 11-N , 12-C ) :   0.9760 B( 11-N , 29-H ) :   0.9462 B( 12-C , 13-C ) :   0.9602
B( 12-C , 30-H ) :   0.9970 B( 13-C , 14-C ) :   1.3803 B( 13-C , 19-C ) :   1.3548
B( 14-C , 15-C ) :   1.3970 B( 14-C , 31-H ) :   0.9675 B( 15-C , 16-C ) :   1.3629
B( 15-C , 32-H ) :   0.9692 B( 16-C , 17-C ) :   1.3301 B( 16-C , 33-H ) :   0.9836
B( 17-C , 18-O ) :   1.1124 B( 17-C , 19-C ) :   1.3613 B( 18-O , 34-H ) :   0.9786
B( 19-C , 35-H ) :   0.9566

MP2 TOTAL ENERGY:    -1274.327728629 Eh
FINAL SINGLE POINT ENERGY     -1274.327728628592

DIPOLE MOMENT
-------------
                                X             Y             Z
Electronic contribution:     10.63108       8.93642       7.52634
Nuclear contribution   :    -12.31317     -10.48479      -7.49091
                        -----------------------------------------
Total Dipole Moment    :     -1.68209      -1.54837       0.03543
                        -----------------------------------------
Magnitude (a.u.)       :      2.28651
Magnitude (Debye)      :      5.81185

Rotational constants in cm-1:     0.011721     0.008890     0.006125
Rotational constants in MHz :   351.398394   266.501084   183.632874

                             ****ORCA TERMINATED NORMALLY****
TOTAL RUN TIME: 0 days 1 hours 40 minutes 16 seconds 402 msec
