                         Program Version 4.2.0 -  RELEASE  -
|  1> ! ri-mp2 cc-pvtz cc-pvtz/c TightSCF NoKeepInts
|  2>
|  3> %scf
|  4>   MaxCore 4096
|  5> end
|  6> *xyz  0  1
|  7>     C       14.6190280   15.5272135   16.2284088
|  8>     C       15.7910189   14.9045947   15.4407879
|  9>     O       17.0082583   15.6695465   15.5720908
| 10>     C       17.0004046   16.9765820   15.1887304
| 11>     O       16.7953703   17.2729641   14.0252012
| 12>     C       17.0719303   17.9493419   16.3377674
| 13>     C       16.9551174   19.2827438   16.1023625
| 14>     C       16.3947772   19.9518704   14.8638310
| 15>     N       17.3581059   20.2230654   17.0528785
| 16>     C       18.1116469   19.9295875   18.1560476
| 17>     S       18.6677506   21.1055473   19.1772825
| 18>     N       18.4040171   18.6049769   18.3570611
| 19>     C       17.8357070   17.4785645   17.5912327
| 20>     C       17.1121638   16.4843844   18.4892386
| 21>     C       17.5344252   15.1444071   18.5693226
| 22>     C       16.8781514   14.2388248   19.4198382
| 23>     C       15.7988629   14.6796319   20.2049616
| 24>     C       15.3852478   16.0173319   20.1377022
| 25>     O       14.3442937   16.4457594   20.8947994
| 26>     C       16.0378390   16.9154317   19.2871194
| 27>     H       14.8104193   15.4959648   17.3046908
| 28>     H       13.7001921   14.9580100   16.0429948
| 29>     H       14.4313448   16.5655885   15.9296116
| 30>     H       15.9643774   13.8819077   15.7995198
| 31>     H       15.5162637   14.8428845   14.3789197
| 32>     H       17.1149231   19.8978470   14.0371428
| 33>     H       16.1463063   21.0077944   15.0230099
| 34>     H       15.4765989   19.4508077   14.5320152
| 35>     H       17.1779529   21.2019371   16.8964854
| 36>     H       18.9431464   18.4154531   19.1926953
| 37>     H       18.7684728   17.0395124   17.2094718
| 38>     H       18.3688019   14.8026249   17.9621205
| 39>     H       17.2082978   13.2026321   19.4706892
| 40>     H       15.2902215   13.9841519   20.8645564
| 41>     H       14.0572621   15.7017457   21.4453835
| 42>     H       15.7083028   17.9487684   19.2520290
| 43> *
| 44>
| 45>                          ****END OF INPUT****

CARTESIAN COORDINATES (ANGSTROEM)
---------------------------------
  C     14.619028   15.527214   16.228409
  C     15.791019   14.904595   15.440788
  O     17.008258   15.669546   15.572091
  C     17.000405   16.976582   15.188730
  O     16.795370   17.272964   14.025201
  C     17.071930   17.949342   16.337767
  C     16.955117   19.282744   16.102363
  C     16.394777   19.951870   14.863831
  N     17.358106   20.223065   17.052878
  C     18.111647   19.929588   18.156048
  S     18.667751   21.105547   19.177283
  N     18.404017   18.604977   18.357061
  C     17.835707   17.478565   17.591233
  C     17.112164   16.484384   18.489239
  C     17.534425   15.144407   18.569323
  C     16.878151   14.238825   19.419838
  C     15.798863   14.679632   20.204962
  C     15.385248   16.017332   20.137702
  O     14.344294   16.445759   20.894799
  C     16.037839   16.915432   19.287119
  H     14.810419   15.495965   17.304691
  H     13.700192   14.958010   16.042995
  H     14.431345   16.565589   15.929612
  H     15.964377   13.881908   15.799520
  H     15.516264   14.842884   14.378920
  H     17.114923   19.897847   14.037143
  H     16.146306   21.007794   15.023010
  H     15.476599   19.450808   14.532015
  H     17.177953   21.201937   16.896485
  H     18.943146   18.415453   19.192695
  H     18.768473   17.039512   17.209472
  H     18.368802   14.802625   17.962121
  H     17.208298   13.202632   19.470689
  H     15.290221   13.984152   20.864556
  H     14.057262   15.701746   21.445383
  H     15.708303   17.948768   19.252029

 Total Charge           Charge          ....    0
 Multiplicity           Mult            ....    1
 Number of Electrons    NEL             ....  154
 Basis Dimension        Dim             ....  828

ORBITAL ENERGIES
----------------

  NO   OCC          E(Eh)            E(eV)
   0   2.0000     -91.891114     -2500.4843
   1   2.0000     -20.599355      -560.5369
   2   2.0000     -20.582841      -560.0876
   3   2.0000     -20.547252      -559.1192
   4   2.0000     -15.631101      -425.3439
   5   2.0000     -15.608963      -424.7415
   6   2.0000     -11.392968      -310.0184
   7   2.0000     -11.385209      -309.8073
   8   2.0000     -11.339319      -308.5586
   9   2.0000     -11.316766      -307.9449
  10   2.0000     -11.311379      -307.7983
  11   2.0000     -11.299154      -307.4656
  12   2.0000     -11.263690      -306.5006
  13   2.0000     -11.259705      -306.3921
  14   2.0000     -11.258268      -306.3531
  15   2.0000     -11.253666      -306.2278
  16   2.0000     -11.247266      -306.0537
  17   2.0000     -11.241934      -305.9086
  18   2.0000     -11.241281      -305.8908
  19   2.0000     -11.224631      -305.4377
  20   2.0000      -8.896155      -242.0767
  21   2.0000      -6.577720      -178.9889
  22   2.0000      -6.575730      -178.9347
  23   2.0000      -6.575130      -178.9184
  24   2.0000      -1.447707       -39.3941
  25   2.0000      -1.419159       -38.6173
  26   2.0000      -1.352202       -36.7953
  27   2.0000      -1.342883       -36.5417
  28   2.0000      -1.240817       -33.7644
  29   2.0000      -1.160327       -31.5741
  30   2.0000      -1.122427       -30.5428
  31   2.0000      -1.045277       -28.4434
  32   2.0000      -1.032108       -28.0851
  33   2.0000      -1.018151       -27.7053
  34   2.0000      -1.000171       -27.2160
  35   2.0000      -0.987547       -26.8725
  36   2.0000      -0.924360       -25.1531
  37   2.0000      -0.894811       -24.3490
  38   2.0000      -0.848695       -23.0942
  39   2.0000      -0.841359       -22.8945
  40   2.0000      -0.837316       -22.7845
  41   2.0000      -0.817236       -22.2381
  42   2.0000      -0.751432       -20.4475
  43   2.0000      -0.736131       -20.0311
  44   2.0000      -0.723693       -19.6927
  45   2.0000      -0.697718       -18.9859
  46   2.0000      -0.690342       -18.7851
  47   2.0000      -0.674924       -18.3656
  48   2.0000      -0.671474       -18.2717
  49   2.0000      -0.666204       -18.1283
  50   2.0000      -0.648305       -17.6413
  51   2.0000      -0.644852       -17.5473
  52   2.0000      -0.637049       -17.3350
  53   2.0000      -0.613078       -16.6827
  54   2.0000      -0.609250       -16.5785
  55   2.0000      -0.601728       -16.3738
  56   2.0000      -0.601066       -16.3558
  57   2.0000      -0.579154       -15.7596
  58   2.0000      -0.571549       -15.5527
  59   2.0000      -0.566419       -15.4130
  60   2.0000      -0.555225       -15.1084
  61   2.0000      -0.546068       -14.8593
  62   2.0000      -0.542409       -14.7597
  63   2.0000      -0.526626       -14.3302
  64   2.0000      -0.525488       -14.2993
  65   2.0000      -0.514829       -14.0092
  66   2.0000      -0.502252       -13.6670
  67   2.0000      -0.501369       -13.6429
  68   2.0000      -0.477821       -13.0022
  69   2.0000      -0.464940       -12.6517
  70   2.0000      -0.452727       -12.3193
  71   2.0000      -0.446660       -12.1542
  72   2.0000      -0.355527        -9.6744
  73   2.0000      -0.351414        -9.5624
  74   2.0000      -0.330068        -8.9816
  75   2.0000      -0.324702        -8.8356
  76   2.0000      -0.320651        -8.7253
  77   0.0000       0.070867         1.9284
  78   0.0000       0.102134         2.7792
  79   0.0000       0.121636         3.3099
  80   0.0000       0.129549         3.5252
  81   0.0000       0.132914         3.6168

MULLIKEN ATOMIC CHARGES
-----------------------
   0 C :   -0.322845
   1 C :    0.031711
   2 O :   -0.380287
   3 C :    0.452549
   4 O :   -0.402543
   5 C :   -0.226080
   6 C :    0.162568
   7 C :   -0.266992
   8 N :   -0.125045
   9 C :    0.205588
  10 S :   -0.436836
  11 N :   -0.210510
  12 C :    0.040026
  13 C :    0.003731
  14 C :   -0.171786
  15 C :   -0.141271
  16 C :   -0.268658
  17 C :    0.300453
  18 O :   -0.359338
  19 C :   -0.220732
  20 H :    0.116589
  21 H :    0.114623
  22 H :    0.100224
  23 H :    0.112821
  24 H :    0.119254
  25 H :    0.135383
  26 H :    0.094257
  27 H :    0.126198
  28 H :    0.200144
  29 H :    0.199512
  30 H :    0.153164
  31 H :    0.160423
  32 H :    0.163735
  33 H :    0.132962
  34 H :    0.240718
  35 H :    0.166289
Sum of atomic charges:   -0.0000000

LOEWDIN ATOMIC CHARGES
----------------------
   0 C :    0.107628
   1 C :   -0.017637
   2 O :    0.290189
   3 C :   -0.424562
   4 O :    0.115398
   5 C :   -0.101360
   6 C :   -0.054849
   7 C :    0.130548
   8 N :    0.408082
   9 C :   -0.459181
  10 S :   -0.032946
  11 N :    0.395849
  12 C :   -0.052931
  13 C :   -0.042793
  14 C :    0.020815
  15 C :    0.038786
  16 C :   -0.001347
  17 C :   -0.193273
  18 O :    0.396178
  19 C :    0.032952
  20 H :   -0.027856
  21 H :   -0.023997
  22 H :   -0.029779
  23 H :   -0.022934
  24 H :   -0.028211
  25 H :   -0.004115
  26 H :   -0.023161
  27 H :   -0.006334
  28 H :   -0.056632
  29 H :   -0.063362
  30 H :   -0.011664
  31 H :   -0.026698
  32 H :   -0.020378
  33 H :   -0.034734
  34 H :   -0.153403
  35 H :   -0.022286

  Mayer bond orders larger than 0.100000
B(  0-C ,  1-C ) :   0.9561 B(  0-C , 20-H ) :   0.9691 B(  0-C , 21-H ) :   0.9778
B(  0-C , 22-H ) :   0.9735 B(  1-C ,  2-O ) :   0.8900 B(  1-C , 23-H ) :   0.9821
B(  1-C , 24-H ) :   0.9850 B(  2-O ,  3-C ) :   1.1067 B(  3-C ,  4-O ) :   2.0331
B(  3-C ,  5-C ) :   1.0536 B(  5-C ,  6-C ) :   1.6302 B(  5-C , 12-C ) :   0.9639
B(  6-C ,  7-C ) :   0.9673 B(  6-C ,  8-N ) :   1.1493 B(  7-C , 25-H ) :   0.9554
B(  7-C , 26-H ) :   0.9884 B(  7-C , 27-H ) :   0.9660 B(  8-N ,  9-C ) :   1.1851
B(  8-N , 28-H ) :   0.9470 B(  9-C , 10-S ) :   1.6155 B(  9-C , 11-N ) :   1.3019
B( 11-N , 12-C ) :   0.9759 B( 11-N , 29-H ) :   0.9485 B( 12-C , 13-C ) :   0.9534
B( 12-C , 30-H ) :   1.0036 B( 13-C , 14-C ) :   1.3676 B( 13-C , 19-C ) :   1.3706
B( 14-C , 15-C ) :   1.3916 B( 14-C , 31-H ) :   0.9668 B( 15-C , 16-C ) :   1.3567
B( 15-C , 32-H ) :   0.9702 B( 16-C , 17-C ) :   1.3346 B( 16-C , 33-H ) :   0.9842
B( 17-C , 18-O ) :   1.1071 B( 17-C , 19-C ) :   1.3650 B( 18-O , 34-H ) :   0.9796
B( 19-C , 35-H ) :   0.9603

MP2 TOTAL ENERGY:    -1274.326156265 Eh
FINAL SINGLE POINT ENERGY     -1274.326156265040

DIPOLE MOMENT
-------------
                                X             Y             Z
Electronic contribution:      9.07134       9.01380       6.21169
Nuclear contribution   :    -10.17520     -10.67465      -6.24249
                        -----------------------------------------
Total Dipole Moment    :     -1.10386      -1.66086      -0.03080
                        -----------------------------------------
Magnitude (a.u.)       :      1.99447
Magnitude (Debye)      :      5.06953

Rotational constants in cm-1:     0.012066     0.009169     0.006182
Rotational constants in MHz :   361.740930   274.883475   185.319066

                             ****ORCA TERMINATED NORMALLY****
TOTAL RUN TIME: 0 days 2 hours 7 minutes 3 seconds 823 msec
