                         Program Version 4.2.0 -  RELEASE  -
|  1> ! ri-mp2 cc-pvtz cc-pvtz/c TightSCF NoKeepInts
|  2>
|  3> %scf
|  4>   MaxCore 4096
|  5> end
|  6> *xyz  0  1
|  7>     C       14.6380353   14.7104142   14.1248837
|  8>     C       14.6018214   15.8588006   15.1486783
|  9>     O       15.7483194   16.6939607   14.9197898
| 10>     C       16.8042826   16.5526706   15.7681419
| 11>     O       17.3557211   15.4778931   15.9311442
| 12>     C       17.0741569   17.7466231   16.6369650
| 13>     C       16.9025542   19.0203827   16.1961140
| 14>     C       16.2296631   19.4766970   14.9165690
| 15>     N       17.4178260   20.0999438   16.9179482
| 16>     C       18.2991064   19.9846746   17.9591577
| 17>     S       18.9543129   21.3110452   18.6985269
| 18>     N       18.6272930   18.7088196   18.3424803
| 19>     C       17.9976749   17.4759720   17.8305497
| 20>     C       17.3461049   16.6335167   18.9191877
| 21>     C       17.6916955   15.2799016   19.0816754
| 22>     C       17.0879916   14.5035782   20.0850520
| 23>     C       16.1311704   15.0863098   20.9337434
| 24>     C       15.7831351   16.4344754   20.7723122
| 25>     O       14.8556390   16.9982887   21.5865901
| 26>     C       16.3849958   17.2042908   19.7717370
| 27>     H       15.5351992   14.0942946   14.2673210
| 28>     H       14.6480147   15.1033690   13.1007328
| 29>     H       13.7589377   14.0646996   14.2382250
| 30>     H       13.6858323   16.4442231   14.9975451
| 31>     H       14.5926807   15.4619058   16.1738515
| 32>     H       16.6656356   18.9726226   14.0446431
| 33>     H       16.3303665   20.5552656   14.7442821
| 34>     H       15.1571595   19.2473460   14.9382017
| 35>     H       17.2054266   21.0425529   16.6326254
| 36>     H       19.2643474   18.6513860   19.1270561
| 37>     H       18.8783333   16.9621601   17.4179761
| 38>     H       18.4205031   14.8247359   18.4148730
| 39>     H       17.3593181   13.4553572   20.1972783
| 40>     H       15.6616923   14.4899164   21.7089387
| 41>     H       14.5868828   16.3250032   22.2295584
| 42>     H       16.1051709   18.2469036   19.6636449
| 43> *
| 44>
| 45>                          ****END OF INPUT****

CARTESIAN COORDINATES (ANGSTROEM)
---------------------------------
  C     14.638035   14.710414   14.124884
  C     14.601821   15.858801   15.148678
  O     15.748319   16.693961   14.919790
  C     16.804283   16.552671   15.768142
  O     17.355721   15.477893   15.931144
  C     17.074157   17.746623   16.636965
  C     16.902554   19.020383   16.196114
  C     16.229663   19.476697   14.916569
  N     17.417826   20.099944   16.917948
  C     18.299106   19.984675   17.959158
  S     18.954313   21.311045   18.698527
  N     18.627293   18.708820   18.342480
  C     17.997675   17.475972   17.830550
  C     17.346105   16.633517   18.919188
  C     17.691696   15.279902   19.081675
  C     17.087992   14.503578   20.085052
  C     16.131170   15.086310   20.933743
  C     15.783135   16.434475   20.772312
  O     14.855639   16.998289   21.586590
  C     16.384996   17.204291   19.771737
  H     15.535199   14.094295   14.267321
  H     14.648015   15.103369   13.100733
  H     13.758938   14.064700   14.238225
  H     13.685832   16.444223   14.997545
  H     14.592681   15.461906   16.173852
  H     16.665636   18.972623   14.044643
  H     16.330367   20.555266   14.744282
  H     15.157159   19.247346   14.938202
  H     17.205427   21.042553   16.632625
  H     19.264347   18.651386   19.127056
  H     18.878333   16.962160   17.417976
  H     18.420503   14.824736   18.414873
  H     17.359318   13.455357   20.197278
  H     15.661692   14.489916   21.708939
  H     14.586883   16.325003   22.229558
  H     16.105171   18.246904   19.663645

 Total Charge           Charge          ....    0
 Multiplicity           Mult            ....    1
 Number of Electrons    NEL             ....  154
 Basis Dimension        Dim             ....  828

ORBITAL ENERGIES
----------------

  NO   OCC          E(Eh)            E(eV)
   0   2.0000     -91.889230     -2500.4331
   1   2.0000     -20.593660      -560.3820
   2   2.0000     -20.589935      -560.2806
   3   2.0000     -20.551511      -559.2350
   4   2.0000     -15.630096      -425.3165
   5   2.0000     -15.606819      -424.6831
   6   2.0000     -11.395181      -310.0786
   7   2.0000     -11.383901      -309.7717
   8   2.0000     -11.339416      -308.5612
   9   2.0000     -11.309831      -307.7561
  10   2.0000     -11.305153      -307.6288
  11   2.0000     -11.303380      -307.5806
  12   2.0000     -11.260414      -306.4114
  13   2.0000     -11.260222      -306.4062
  14   2.0000     -11.257045      -306.3198
  15   2.0000     -11.249848      -306.1239
  16   2.0000     -11.240000      -305.8560
  17   2.0000     -11.236162      -305.7515
  18   2.0000     -11.232806      -305.6602
  19   2.0000     -11.223502      -305.4070
  20   2.0000      -8.894305      -242.0263
  21   2.0000      -6.575878      -178.9388
  22   2.0000      -6.573878      -178.8843
  23   2.0000      -6.573287      -178.8682
  24   2.0000      -1.453623       -39.5551
  25   2.0000      -1.413411       -38.4609
  26   2.0000      -1.358713       -36.9725
  27   2.0000      -1.341082       -36.4927
  28   2.0000      -1.238135       -33.6914
  29   2.0000      -1.154328       -31.4109
  30   2.0000      -1.122060       -30.5328
  31   2.0000      -1.043591       -28.3976
  32   2.0000      -1.033581       -28.1252
  33   2.0000      -1.011850       -27.5338
  34   2.0000      -0.999841       -27.2071
  35   2.0000      -0.984760       -26.7967
  36   2.0000      -0.922089       -25.0913
  37   2.0000      -0.884479       -24.0679
  38   2.0000      -0.849546       -23.1173
  39   2.0000      -0.837760       -22.7966
  40   2.0000      -0.830071       -22.5874
  41   2.0000      -0.826278       -22.4842
  42   2.0000      -0.756248       -20.5786
  43   2.0000      -0.735215       -20.0062
  44   2.0000      -0.727872       -19.8064
  45   2.0000      -0.692210       -18.8360
  46   2.0000      -0.687096       -18.6968
  47   2.0000      -0.680237       -18.5102
  48   2.0000      -0.670772       -18.2526
  49   2.0000      -0.661897       -18.0111
  50   2.0000      -0.646444       -17.5906
  51   2.0000      -0.643096       -17.4995
  52   2.0000      -0.633946       -17.2505
  53   2.0000      -0.606624       -16.5071
  54   2.0000      -0.600356       -16.3365
  55   2.0000      -0.598727       -16.2922
  56   2.0000      -0.596119       -16.2212
  57   2.0000      -0.587407       -15.9842
  58   2.0000      -0.574818       -15.6416
  59   2.0000      -0.567721       -15.4485
  60   2.0000      -0.561778       -15.2868
  61   2.0000      -0.550056       -14.9678
  62   2.0000      -0.536770       -14.6063
  63   2.0000      -0.518428       -14.1071
  64   2.0000      -0.515638       -14.0312
  65   2.0000      -0.511268       -13.9123
  66   2.0000      -0.504311       -13.7230
  67   2.0000      -0.495700       -13.4887
  68   2.0000      -0.481075       -13.0907
  69   2.0000      -0.463090       -12.6013
  70   2.0000      -0.455947       -12.4069
  71   2.0000      -0.453069       -12.3286
  72   2.0000      -0.354283        -9.6405
  73   2.0000      -0.346427        -9.4268
  74   2.0000      -0.328256        -8.9323
  75   2.0000      -0.318440        -8.6652
  76   2.0000      -0.316578        -8.6145
  77   0.0000       0.072909         1.9839
  78   0.0000       0.109067         2.9679
  79   0.0000       0.120886         3.2895
  80   0.0000       0.134478         3.6593
  81   0.0000       0.139205         3.7880

MULLIKEN ATOMIC CHARGES
-----------------------
   0 C :   -0.266782
   1 C :    0.040855
   2 O :   -0.368704
   3 C :    0.428467
   4 O :   -0.402331
   5 C :   -0.175047
   6 C :    0.150871
   7 C :   -0.278645
   8 N :   -0.127423
   9 C :    0.207156
  10 S :   -0.440484
  11 N :   -0.211108
  12 C :    0.042124
  13 C :    0.032819
  14 C :   -0.174446
  15 C :   -0.133907
  16 C :   -0.277791
  17 C :    0.313936
  18 O :   -0.358654
  19 C :   -0.253342
  20 H :    0.114768
  21 H :    0.091005
  22 H :    0.087233
  23 H :    0.097047
  24 H :    0.094980
  25 H :    0.127642
  26 H :    0.102413
  27 H :    0.125563
  28 H :    0.198921
  29 H :    0.199862
  30 H :    0.156449
  31 H :    0.161522
  32 H :    0.161050
  33 H :    0.129127
  34 H :    0.240246
  35 H :    0.164609
Sum of atomic charges:   -0.0000000

LOEWDIN ATOMIC CHARGES
----------------------
   0 C :    0.105979
   1 C :   -0.017525
   2 O :    0.298236
   3 C :   -0.421334
   4 O :    0.119535
   5 C :   -0.095632
   6 C :   -0.064196
   7 C :    0.126147
   8 N :    0.405857
   9 C :   -0.458292
  10 S :   -0.036263
  11 N :    0.396162
  12 C :   -0.048545
  13 C :   -0.041403
  14 C :    0.024104
  15 C :    0.041051
  16 C :   -0.001225
  17 C :   -0.192919
  18 O :    0.393200
  19 C :    0.028763
  20 H :   -0.022595
  21 H :   -0.028544
  22 H :   -0.029457
  23 H :   -0.028882
  24 H :   -0.026427
  25 H :   -0.007775
  26 H :   -0.020651
  27 H :   -0.009659
  28 H :   -0.058311
  29 H :   -0.063270
  30 H :   -0.007721
  31 H :   -0.023570
  32 H :   -0.020637
  33 H :   -0.035901
  34 H :   -0.154520
  35 H :   -0.023781

  Mayer bond orders larger than 0.100000
B(  0-C ,  1-C ) :   0.9803 B(  0-C , 20-H ) :   0.9739 B(  0-C , 21-H ) :   0.9775
B(  0-C , 22-H ) :   0.9762 B(  1-C ,  2-O ) :   0.8924 B(  1-C , 23-H ) :   0.9818
B(  1-C , 24-H ) :   0.9714 B(  2-O ,  3-C ) :   1.0682 B(  3-C ,  4-O ) :   2.0131
B(  3-C ,  5-C ) :   1.0432 B(  5-C ,  6-C ) :   1.6565 B(  5-C , 12-C ) :   0.9471
B(  6-C ,  7-C ) :   0.9544 B(  6-C ,  8-N ) :   1.1377 B(  7-C , 25-H ) :   0.9655
B(  7-C , 26-H ) :   0.9901 B(  7-C , 27-H ) :   0.9644 B(  8-N ,  9-C ) :   1.1842
B(  8-N , 28-H ) :   0.9469 B(  9-C , 10-S ) :   1.6107 B(  9-C , 11-N ) :   1.3046
B( 11-N , 12-C ) :   0.9775 B( 11-N , 29-H ) :   0.9484 B( 12-C , 13-C ) :   0.9711
B( 12-C , 30-H ) :   0.9960 B( 13-C , 14-C ) :   1.3782 B( 13-C , 19-C ) :   1.3636
B( 14-C , 15-C ) :   1.3971 B( 14-C , 31-H ) :   0.9628 B( 15-C , 16-C ) :   1.3591
B( 15-C , 32-H ) :   0.9709 B( 16-C , 17-C ) :   1.3329 B( 16-C , 33-H ) :   0.9857
B( 17-C , 18-O ) :   1.1044 B( 17-C , 19-C ) :   1.3671 B( 18-O , 34-H ) :   0.9803
B( 19-C , 35-H ) :   0.9599

MP2 TOTAL ENERGY:    -1274.328199800 Eh
FINAL SINGLE POINT ENERGY     -1274.328199799846

DIPOLE MOMENT
-------------
                                X             Y             Z
Electronic contribution:     10.14618      10.40232      10.60462
Nuclear contribution   :    -11.71515     -11.53484     -11.27174
                        -----------------------------------------
Total Dipole Moment    :     -1.56897      -1.13251      -0.66712
                        -----------------------------------------
Magnitude (a.u.)       :      2.04678
Magnitude (Debye)      :      5.20249

Rotational constants in cm-1:     0.010055     0.009160     0.005665
Rotational constants in MHz :   301.432651   274.595978   169.824577

                             ****ORCA TERMINATED NORMALLY****
TOTAL RUN TIME: 0 days 1 hours 33 minutes 58 seconds 680 msec
