                         Program Version 4.2.0 -  RELEASE  -
|  1> ! ri-mp2 cc-pvtz cc-pvtz/c TightSCF NoKeepInts
|  2>
|  3> %scf
|  4>   MaxCore 4096
|  5> end
|  6> *xyz  0  1
|  7>     C       14.8418615   14.5913332   15.0005349
|  8>     C       14.6518436   16.1122826   14.8216434
|  9>     O       15.9050120   16.8265688   14.7298116
| 10>     C       16.9002978   16.6436248   15.6469228
| 11>     O       17.4995364   15.5887548   15.7655165
| 12>     C       17.1157959   17.8044255   16.5749040
| 13>     C       16.9463418   19.0960493   16.1875671
| 14>     C       16.3273545   19.6083199   14.9019077
| 15>     N       17.4108137   20.1455142   16.9845354
| 16>     C       18.2399850   19.9911240   18.0627470
| 17>     S       18.8367190   21.2884784   18.8970393
| 18>     N       18.5665454   18.7025228   18.4018045
| 19>     C       17.9834929   17.4881831   17.7987918
| 20>     C       17.2887749   16.5852389   18.8095806
| 21>     C       17.6376618   15.2268768   18.9157528
| 22>     C       16.9920074   14.3934850   19.8444060
| 23>     C       15.9892971   14.9233760   20.6745311
| 24>     C       15.6377942   16.2761642   20.5688968
| 25>     O       14.6658766   16.7890791   21.3648139
| 26>     C       16.2815183   17.1029071   19.6425530
| 27>     H       15.5423043   14.1960352   14.2538608
| 28>     H       13.8847416   14.0699695   14.8799696
| 29>     H       15.2264559   14.3530924   16.0003979
| 30>     H       14.0725271   16.2963339   13.9077105
| 31>     H       14.0691367   16.4987168   15.6682641
| 32>     H       16.8131490   19.1561492   14.0278165
| 33>     H       16.4190598   20.6955753   14.7894672
| 34>     H       15.2588942   19.3641774   14.8599944
| 35>     H       17.2001000   21.0982233   16.7336973
| 36>     H       19.1643930   18.6149352   19.2139360
| 37>     H       18.8913211   17.0058006   17.4076060
| 38>     H       18.4023297   14.8130314   18.2622362
| 39>     H       17.2667583   13.3424131   19.9132469
| 40>     H       15.4873102   14.2828701   21.3920090
| 41>     H       14.3723599   16.0804498   21.9569725
| 42>     H       15.9976291   18.1479186   19.5765547
| 43> *
| 44>
| 45>                          ****END OF INPUT****

CARTESIAN COORDINATES (ANGSTROEM)
---------------------------------
  C     14.841862   14.591333   15.000535
  C     14.651844   16.112283   14.821643
  O     15.905012   16.826569   14.729812
  C     16.900298   16.643625   15.646923
  O     17.499536   15.588755   15.765516
  C     17.115796   17.804426   16.574904
  C     16.946342   19.096049   16.187567
  C     16.327354   19.608320   14.901908
  N     17.410814   20.145514   16.984535
  C     18.239985   19.991124   18.062747
  S     18.836719   21.288478   18.897039
  N     18.566545   18.702523   18.401805
  C     17.983493   17.488183   17.798792
  C     17.288775   16.585239   18.809581
  C     17.637662   15.226877   18.915753
  C     16.992007   14.393485   19.844406
  C     15.989297   14.923376   20.674531
  C     15.637794   16.276164   20.568897
  O     14.665877   16.789079   21.364814
  C     16.281518   17.102907   19.642553
  H     15.542304   14.196035   14.253861
  H     13.884742   14.069969   14.879970
  H     15.226456   14.353092   16.000398
  H     14.072527   16.296334   13.907711
  H     14.069137   16.498717   15.668264
  H     16.813149   19.156149   14.027817
  H     16.419060   20.695575   14.789467
  H     15.258894   19.364177   14.859994
  H     17.200100   21.098223   16.733697
  H     19.164393   18.614935   19.213936
  H     18.891321   17.005801   17.407606
  H     18.402330   14.813031   18.262236
  H     17.266758   13.342413   19.913247
  H     15.487310   14.282870   21.392009
  H     14.372360   16.080450   21.956972
  H     15.997629   18.147919   19.576555

 Total Charge           Charge          ....    0
 Multiplicity           Mult            ....    1
 Number of Electrons    NEL             ....  154
 Basis Dimension        Dim             ....  828

ORBITAL ENERGIES
----------------

  NO   OCC          E(Eh)            E(eV)
   0   2.0000     -91.888839     -2500.4224
   1   2.0000     -20.594016      -560.3917
   2   2.0000     -20.588933      -560.2534
   3   2.0000     -20.550691      -559.2127
   4   2.0000     -15.629511      -425.3006
   5   2.0000     -15.606477      -424.6738
   6   2.0000     -11.395785      -310.0951
   7   2.0000     -11.383481      -309.7603
   8   2.0000     -11.338801      -308.5445
   9   2.0000     -11.310233      -307.7671
  10   2.0000     -11.307050      -307.6805
  11   2.0000     -11.304592      -307.6136
  12   2.0000     -11.259854      -306.3962
  13   2.0000     -11.259737      -306.3930
  14   2.0000     -11.257327      -306.3274
  15   2.0000     -11.250309      -306.1365
  16   2.0000     -11.240362      -305.8658
  17   2.0000     -11.236481      -305.7602
  18   2.0000     -11.233098      -305.6681
  19   2.0000     -11.223610      -305.4100
  20   2.0000      -8.893919      -242.0158
  21   2.0000      -6.575495      -178.9283
  22   2.0000      -6.573493      -178.8738
  23   2.0000      -6.572903      -178.8578
  24   2.0000      -1.447815       -39.3971
  25   2.0000      -1.413767       -38.4706
  26   2.0000      -1.357657       -36.9437
  27   2.0000      -1.340602       -36.4796
  28   2.0000      -1.237746       -33.6808
  29   2.0000      -1.154517       -31.4160
  30   2.0000      -1.121297       -30.5121
  31   2.0000      -1.043194       -28.3867
  32   2.0000      -1.032885       -28.1062
  33   2.0000      -1.012149       -27.5420
  34   2.0000      -0.999787       -27.2056
  35   2.0000      -0.984579       -26.7918
  36   2.0000      -0.922152       -25.0930
  37   2.0000      -0.891579       -24.2611
  38   2.0000      -0.849558       -23.1176
  39   2.0000      -0.837570       -22.7914
  40   2.0000      -0.830394       -22.5962
  41   2.0000      -0.823903       -22.4195
  42   2.0000      -0.745816       -20.2947
  43   2.0000      -0.729359       -19.8469
  44   2.0000      -0.727355       -19.7923
  45   2.0000      -0.691926       -18.8283
  46   2.0000      -0.684891       -18.6368
  47   2.0000      -0.680358       -18.5135
  48   2.0000      -0.673909       -18.3380
  49   2.0000      -0.666445       -18.1349
  50   2.0000      -0.647158       -17.6101
  51   2.0000      -0.644042       -17.5253
  52   2.0000      -0.634496       -17.2655
  53   2.0000      -0.609648       -16.5894
  54   2.0000      -0.604373       -16.4458
  55   2.0000      -0.600181       -16.3317
  56   2.0000      -0.597409       -16.2563
  57   2.0000      -0.575716       -15.6660
  58   2.0000      -0.573052       -15.5935
  59   2.0000      -0.570187       -15.5156
  60   2.0000      -0.558031       -15.1848
  61   2.0000      -0.549269       -14.9464
  62   2.0000      -0.537901       -14.6370
  63   2.0000      -0.525929       -14.3112
  64   2.0000      -0.517591       -14.0844
  65   2.0000      -0.511020       -13.9056
  66   2.0000      -0.497786       -13.5454
  67   2.0000      -0.493326       -13.4241
  68   2.0000      -0.479649       -13.0519
  69   2.0000      -0.463739       -12.6190
  70   2.0000      -0.457895       -12.4600
  71   2.0000      -0.448026       -12.1914
  72   2.0000      -0.353746        -9.6259
  73   2.0000      -0.346694        -9.4340
  74   2.0000      -0.327925        -8.9233
  75   2.0000      -0.318079        -8.6554
  76   2.0000      -0.316967        -8.6251
  77   0.0000       0.072969         1.9856
  78   0.0000       0.107972         2.9381
  79   0.0000       0.121026         3.2933
  80   0.0000       0.134111         3.6493
  81   0.0000       0.138320         3.7639

MULLIKEN ATOMIC CHARGES
-----------------------
   0 C :   -0.278590
   1 C :    0.036082
   2 O :   -0.380383
   3 C :    0.452312
   4 O :   -0.396924
   5 C :   -0.194614
   6 C :    0.157422
   7 C :   -0.281813
   8 N :   -0.128059
   9 C :    0.206684
  10 S :   -0.441276
  11 N :   -0.212068
  12 C :    0.045411
  13 C :    0.032636
  14 C :   -0.180711
  15 C :   -0.133953
  16 C :   -0.277820
  17 C :    0.314126
  18 O :   -0.358594
  19 C :   -0.254426
  20 H :    0.109448
  21 H :    0.094598
  22 H :    0.108735
  23 H :    0.103600
  24 H :    0.085104
  25 H :    0.130034
  26 H :    0.103646
  27 H :    0.122900
  28 H :    0.198903
  29 H :    0.199843
  30 H :    0.157281
  31 H :    0.163840
  32 H :    0.161720
  33 H :    0.129399
  34 H :    0.240320
  35 H :    0.165186
Sum of atomic charges:   -0.0000000

LOEWDIN ATOMIC CHARGES
----------------------
   0 C :    0.106044
   1 C :   -0.018762
   2 O :    0.288869
   3 C :   -0.415205
   4 O :    0.126103
   5 C :   -0.096715
   6 C :   -0.064594
   7 C :    0.125650
   8 N :    0.405685
   9 C :   -0.458396
  10 S :   -0.036901
  11 N :    0.396215
  12 C :   -0.048790
  13 C :   -0.041546
  14 C :    0.023685
  15 C :    0.040580
  16 C :   -0.001234
  17 C :   -0.192814
  18 O :    0.393250
  19 C :    0.028701
  20 H :   -0.022019
  21 H :   -0.028322
  22 H :   -0.026029
  23 H :   -0.023006
  24 H :   -0.034315
  25 H :   -0.007205
  26 H :   -0.020808
  27 H :   -0.010461
  28 H :   -0.058461
  29 H :   -0.063379
  30 H :   -0.007797
  31 H :   -0.023414
  32 H :   -0.020558
  33 H :   -0.035856
  34 H :   -0.154466
  35 H :   -0.023732

  Mayer bond orders larger than 0.100000
B(  0-C ,  1-C ) :   0.9818 B(  0-C , 20-H ) :   0.9733 B(  0-C , 21-H ) :   0.9735
B(  0-C , 22-H ) :   0.9719 B(  1-C ,  2-O ) :   0.9081 B(  1-C , 23-H ) :   0.9797
B(  1-C , 24-H ) :   0.9741 B(  2-O ,  3-C ) :   1.0610 B(  3-C ,  4-O ) :   2.0279
B(  3-C ,  5-C ) :   1.0273 B(  5-C ,  6-C ) :   1.6627 B(  5-C , 12-C ) :   0.9514
B(  6-C ,  7-C ) :   0.9528 B(  6-C ,  8-N ) :   1.1378 B(  7-C , 25-H ) :   0.9645
B(  7-C , 26-H ) :   0.9903 B(  7-C , 27-H ) :   0.9663 B(  8-N ,  9-C ) :   1.1849
B(  8-N , 28-H ) :   0.9470 B(  9-C , 10-S ) :   1.6099 B(  9-C , 11-N ) :   1.3047
B( 11-N , 12-C ) :   0.9773 B( 11-N , 29-H ) :   0.9486 B( 12-C , 13-C ) :   0.9693
B( 12-C , 30-H ) :   0.9959 B( 13-C , 14-C ) :   1.3770 B( 13-C , 19-C ) :   1.3640
B( 14-C , 15-C ) :   1.3959 B( 14-C , 31-H ) :   0.9622 B( 15-C , 16-C ) :   1.3593
B( 15-C , 32-H ) :   0.9706 B( 16-C , 17-C ) :   1.3328 B( 16-C , 33-H ) :   0.9856
B( 17-C , 18-O ) :   1.1046 B( 17-C , 19-C ) :   1.3668 B( 18-O , 34-H ) :   0.9803
B( 19-C , 35-H ) :   0.9597

MP2 TOTAL ENERGY:    -1274.325857783 Eh
FINAL SINGLE POINT ENERGY     -1274.325857782555

DIPOLE MOMENT
-------------
                                X             Y             Z
Electronic contribution:      9.67634      10.27131       9.17946
Nuclear contribution   :    -11.28464     -11.41002      -9.96016
                        -----------------------------------------
Total Dipole Moment    :     -1.60830      -1.13871      -0.78070
                        -----------------------------------------
Magnitude (a.u.)       :      2.11962
Magnitude (Debye)      :      5.38763

Rotational constants in cm-1:     0.010579     0.009172     0.005856
Rotational constants in MHz :   317.157125   274.974716   175.553833

                             ****ORCA TERMINATED NORMALLY****
TOTAL RUN TIME: 0 days 2 hours 1 minutes 55 seconds 244 msec
