                         Program Version 4.2.0 -  RELEASE  -
|  1> ! ri-mp2 cc-pvtz cc-pvtz/c TightSCF NoKeepInts
|  2>
|  3> %scf
|  4>   MaxCore 4096
|  5> end
|  6> *xyz  0  1
|  7>     C       14.6604695   15.4196197   16.1730430
|  8>     C       14.9014833   16.3842463   14.9932497
|  9>     O       16.2857584   16.3431922   14.5808157
| 10>     C       17.3134390   16.4988028   15.4717198
| 11>     O       18.2379677   15.7077669   15.5107646
| 12>     C       17.1988965   17.6531641   16.4212445
| 13>     C       16.9242343   18.9038750   15.9691199
| 14>     C       16.5218012   19.3144592   14.5649089
| 15>     N       17.1097199   20.0170914   16.7919451
| 16>     C       17.8096198   19.9972444   17.9686556
| 17>     S       18.1026374   21.3765992   18.8322433
| 18>     N       18.2795986   18.7745370   18.3778263
| 19>     C       17.9396079   17.4813068   17.7522383
| 20>     C       17.2747411   16.4872829   18.6934669
| 21>     C       17.6906502   15.1439787   18.7163377
| 22>     C       17.0656432   14.2168642   19.5667231
| 23>     C       16.0152880   14.6365801   20.4008270
| 24>     C       15.5968879   15.9740625   20.3781466
| 25>     O       14.5766783   16.3799530   21.1750246
| 26>     C       16.2199162   16.8947889   19.5294638
| 27>     H       15.1185039   15.7881735   17.0964917
| 28>     H       15.0728413   14.4263265   15.9536825
| 29>     H       13.5856271   15.3069926   16.3596057
| 30>     H       14.2691579   16.0871013   14.1464932
| 31>     H       14.6052227   17.3957287   15.2939408
| 32>     H       16.9666488   18.6604207   13.8046621
| 33>     H       16.8647996   20.3290276   14.3250703
| 34>     H       15.4337374   19.2976698   14.4373199
| 35>     H       16.8029702   20.9267894   16.4852830
| 36>     H       18.7896758   18.7845315   19.2523269
| 37>     H       18.9476093   17.1296158   17.4860078
| 38>     H       18.4947953   14.8152986   18.0609604
| 39>     H       17.3940776   13.1788562   19.5729375
| 40>     H       15.5289433   13.9230268   21.0577644
| 41>     H       14.3090102   15.6203255   21.7140843
| 42>     H       15.8783413   17.9247003   19.5236047
| 43> *
| 44>
| 45>                          ****END OF INPUT****

CARTESIAN COORDINATES (ANGSTROEM)
---------------------------------
  C     14.660469   15.419620   16.173043
  C     14.901483   16.384246   14.993250
  O     16.285758   16.343192   14.580816
  C     17.313439   16.498803   15.471720
  O     18.237968   15.707767   15.510765
  C     17.198896   17.653164   16.421245
  C     16.924234   18.903875   15.969120
  C     16.521801   19.314459   14.564909
  N     17.109720   20.017091   16.791945
  C     17.809620   19.997244   17.968656
  S     18.102637   21.376599   18.832243
  N     18.279599   18.774537   18.377826
  C     17.939608   17.481307   17.752238
  C     17.274741   16.487283   18.693467
  C     17.690650   15.143979   18.716338
  C     17.065643   14.216864   19.566723
  C     16.015288   14.636580   20.400827
  C     15.596888   15.974062   20.378147
  O     14.576678   16.379953   21.175025
  C     16.219916   16.894789   19.529464
  H     15.118504   15.788173   17.096492
  H     15.072841   14.426327   15.953682
  H     13.585627   15.306993   16.359606
  H     14.269158   16.087101   14.146493
  H     14.605223   17.395729   15.293941
  H     16.966649   18.660421   13.804662
  H     16.864800   20.329028   14.325070
  H     15.433737   19.297670   14.437320
  H     16.802970   20.926789   16.485283
  H     18.789676   18.784531   19.252327
  H     18.947609   17.129616   17.486008
  H     18.494795   14.815299   18.060960
  H     17.394078   13.178856   19.572937
  H     15.528943   13.923027   21.057764
  H     14.309010   15.620325   21.714084
  H     15.878341   17.924700   19.523605

 Total Charge           Charge          ....    0
 Multiplicity           Mult            ....    1
 Number of Electrons    NEL             ....  154
 Basis Dimension        Dim             ....  828

ORBITAL ENERGIES
----------------

  NO   OCC          E(Eh)            E(eV)
   0   2.0000     -91.890379     -2500.4643
   1   2.0000     -20.598113      -560.5032
   2   2.0000     -20.595648      -560.4361
   3   2.0000     -20.552221      -559.2544
   4   2.0000     -15.629612      -425.3034
   5   2.0000     -15.608963      -424.7415
   6   2.0000     -11.397815      -310.1503
   7   2.0000     -11.385618      -309.8184
   8   2.0000     -11.338497      -308.5362
   9   2.0000     -11.315209      -307.9025
  10   2.0000     -11.308689      -307.7251
  11   2.0000     -11.308504      -307.7200
  12   2.0000     -11.264928      -306.5343
  13   2.0000     -11.264132      -306.5126
  14   2.0000     -11.262291      -306.4625
  15   2.0000     -11.255218      -306.2700
  16   2.0000     -11.244688      -305.9835
  17   2.0000     -11.240531      -305.8704
  18   2.0000     -11.236893      -305.7714
  19   2.0000     -11.229455      -305.5690
  20   2.0000      -8.895472      -242.0581
  21   2.0000      -6.577049      -178.9706
  22   2.0000      -6.575042      -178.9160
  23   2.0000      -6.574454      -178.9000
  24   2.0000      -1.448271       -39.4094
  25   2.0000      -1.417884       -38.5826
  26   2.0000      -1.360726       -37.0272
  27   2.0000      -1.342223       -36.5238
  28   2.0000      -1.239817       -33.7371
  29   2.0000      -1.159313       -31.5465
  30   2.0000      -1.124833       -30.6082
  31   2.0000      -1.046851       -28.4863
  32   2.0000      -1.035423       -28.1753
  33   2.0000      -1.017304       -27.6822
  34   2.0000      -1.005177       -27.3523
  35   2.0000      -0.989301       -26.9203
  36   2.0000      -0.925927       -25.1958
  37   2.0000      -0.895564       -24.3695
  38   2.0000      -0.853538       -23.2259
  39   2.0000      -0.841222       -22.8908
  40   2.0000      -0.834808       -22.7163
  41   2.0000      -0.830066       -22.5872
  42   2.0000      -0.745613       -20.2892
  43   2.0000      -0.735906       -20.0250
  44   2.0000      -0.731180       -19.8964
  45   2.0000      -0.695433       -18.9237
  46   2.0000      -0.686834       -18.6897
  47   2.0000      -0.682884       -18.5822
  48   2.0000      -0.676516       -18.4089
  49   2.0000      -0.661927       -18.0119
  50   2.0000      -0.656498       -17.8642
  51   2.0000      -0.647153       -17.6099
  52   2.0000      -0.637721       -17.3533
  53   2.0000      -0.622568       -16.9409
  54   2.0000      -0.609517       -16.5858
  55   2.0000      -0.604939       -16.4612
  56   2.0000      -0.601504       -16.3678
  57   2.0000      -0.583567       -15.8797
  58   2.0000      -0.575346       -15.6559
  59   2.0000      -0.565133       -15.3780
  60   2.0000      -0.561708       -15.2848
  61   2.0000      -0.548017       -14.9123
  62   2.0000      -0.544603       -14.8194
  63   2.0000      -0.535511       -14.5720
  64   2.0000      -0.520692       -14.1688
  65   2.0000      -0.512000       -13.9322
  66   2.0000      -0.500476       -13.6187
  67   2.0000      -0.497410       -13.5352
  68   2.0000      -0.485242       -13.2041
  69   2.0000      -0.469417       -12.7735
  70   2.0000      -0.458890       -12.4870
  71   2.0000      -0.449446       -12.2300
  72   2.0000      -0.357511        -9.7284
  73   2.0000      -0.350169        -9.5286
  74   2.0000      -0.329713        -8.9719
  75   2.0000      -0.322729        -8.7819
  76   2.0000      -0.320389        -8.7182
  77   0.0000       0.077899         2.1197
  78   0.0000       0.104712         2.8494
  79   0.0000       0.118389         3.2215
  80   0.0000       0.130749         3.5579
  81   0.0000       0.132455         3.6043

MULLIKEN ATOMIC CHARGES
-----------------------
   0 C :   -0.310918
   1 C :    0.032533
   2 O :   -0.351596
   3 C :    0.459659
   4 O :   -0.381568
   5 C :   -0.240211
   6 C :    0.145314
   7 C :   -0.314926
   8 N :   -0.134948
   9 C :    0.205822
  10 S :   -0.440968
  11 N :   -0.220450
  12 C :    0.067842
  13 C :   -0.016571
  14 C :   -0.187083
  15 C :   -0.139148
  16 C :   -0.268214
  17 C :    0.308365
  18 O :   -0.357585
  19 C :   -0.227807
  20 H :    0.119592
  21 H :    0.114408
  22 H :    0.103412
  23 H :    0.122574
  24 H :    0.079211
  25 H :    0.141743
  26 H :    0.119347
  27 H :    0.122330
  28 H :    0.198120
  29 H :    0.202531
  30 H :    0.164035
  31 H :    0.176841
  32 H :    0.163621
  33 H :    0.132235
  34 H :    0.240900
  35 H :    0.171560
Sum of atomic charges:   -0.0000000

LOEWDIN ATOMIC CHARGES
----------------------
   0 C :    0.109495
   1 C :   -0.021426
   2 O :    0.295681
   3 C :   -0.418895
   4 O :    0.124757
   5 C :   -0.091226
   6 C :   -0.078008
   7 C :    0.127484
   8 N :    0.404035
   9 C :   -0.458862
  10 S :   -0.036661
  11 N :    0.396325
  12 C :   -0.048531
  13 C :   -0.045468
  14 C :    0.022387
  15 C :    0.043972
  16 C :   -0.000150
  17 C :   -0.192519
  18 O :    0.395016
  19 C :    0.026541
  20 H :   -0.029047
  21 H :   -0.021199
  22 H :   -0.024486
  23 H :   -0.020975
  24 H :   -0.040563
  25 H :   -0.006943
  26 H :   -0.014598
  27 H :   -0.017692
  28 H :   -0.057484
  29 H :   -0.063148
  30 H :   -0.005166
  31 H :   -0.021642
  32 H :   -0.018952
  33 H :   -0.034917
  34 H :   -0.153480
  35 H :   -0.023655

  Mayer bond orders larger than 0.100000
B(  0-C ,  1-C ) :   0.9685 B(  0-C , 20-H ) :   0.9649 B(  0-C , 21-H ) :   0.9743
B(  0-C , 22-H ) :   0.9770 B(  1-C ,  2-O ) :   0.8999 B(  1-C , 23-H ) :   0.9797
B(  1-C , 24-H ) :   0.9710 B(  2-O ,  3-C ) :   1.1251 B(  3-C ,  4-O ) :   2.0761
B(  3-C ,  5-C ) :   0.9528 B(  5-C ,  6-C ) :   1.7075 B(  5-C , 12-C ) :   0.9371
B(  6-C ,  7-C ) :   0.9365 B(  6-C ,  8-N ) :   1.1207 B(  7-C , 25-H ) :   0.9678
B(  7-C , 26-H ) :   0.9847 B(  7-C , 27-H ) :   0.9664 B(  8-N ,  9-C ) :   1.1914
B(  8-N , 28-H ) :   0.9495 B(  9-C , 10-S ) :   1.6114 B(  9-C , 11-N ) :   1.2956
B( 11-N , 12-C ) :   0.9816 B( 11-N , 29-H ) :   0.9479 B( 12-C , 13-C ) :   0.9716
B( 12-C , 30-H ) :   0.9917 B( 13-C , 14-C ) :   1.3924 B( 13-C , 19-C ) :   1.3528
B( 14-C , 15-C ) :   1.3957 B( 14-C , 31-H ) :   0.9567 B( 15-C , 16-C ) :   1.3601
B( 15-C , 32-H ) :   0.9704 B( 16-C , 17-C ) :   1.3325 B( 16-C , 33-H ) :   0.9842
B( 17-C , 18-O ) :   1.1088 B( 17-C , 19-C ) :   1.3639 B( 18-O , 34-H ) :   0.9797
B( 19-C , 35-H ) :   0.9587

MP2 TOTAL ENERGY:    -1274.329787668 Eh
FINAL SINGLE POINT ENERGY     -1274.329787667619

DIPOLE MOMENT
-------------
                                X             Y             Z
Electronic contribution:      9.03629       7.92437       6.66263
Nuclear contribution   :    -10.65509      -8.97590      -7.16059
                        -----------------------------------------
Total Dipole Moment    :     -1.61880      -1.05152      -0.49796
                        -----------------------------------------
Magnitude (a.u.)       :      1.99353
Magnitude (Debye)      :      5.06716

Rotational constants in cm-1:     0.011446     0.009310     0.006344
Rotational constants in MHz :   343.128620   279.103995   190.185400

                             ****ORCA TERMINATED NORMALLY****
TOTAL RUN TIME: 0 days 2 hours 13 minutes 9 seconds 690 msec
