                         Program Version 4.2.0 -  RELEASE  -
|  1> ! ri-mp2 cc-pvtz cc-pvtz/c TightSCF NoKeepInts
|  2>
|  3> %scf
|  4>   MaxCore 4096
|  5> end
|  6> *xyz  0  1
|  7>     C       15.0115771   15.0079158   13.4395299
|  8>     C       14.6189625   15.6056820   14.8020755
|  9>     O       15.5202815   16.6907533   15.0845962
| 10>     C       16.5542759   16.4877427   15.9522334
| 11>     O       17.0395176   15.3836964   16.1373867
| 12>     C       16.9420417   17.6900535   16.7662914
| 13>     C       16.8238997   18.9622704   16.3012372
| 14>     C       16.1041699   19.4369344   15.0539580
| 15>     N       17.4444039   20.0242680   16.9643231
| 16>     C       18.3743753   19.8803683   17.9581625
| 17>     S       19.1513449   21.1810234   18.6215993
| 18>     N       18.6446440   18.5966614   18.3586808
| 19>     C       17.9126550   17.3937538   17.9170406
| 20>     C       17.2772040   16.6224691   19.0664430
| 21>     C       17.5655034   15.2597774   19.2620801
| 22>     C       16.9801602   14.5507111   20.3244275
| 23>     C       16.1001578   15.2105490   21.1994094
| 24>     C       15.8097191   16.5680937   21.0055258
| 25>     O       14.9573182   17.2065729   21.8464148
| 26>     C       16.3933975   17.2709195   19.9466053
| 27>     H       14.9818344   15.7742186   12.6551822
| 28>     H       14.3228302   14.2014246   13.1603261
| 29>     H       16.0262537   14.5915304   13.4802651
| 30>     H       13.5937005   15.9921223   14.7382685
| 31>     H       14.6453378   14.8379407   15.5881448
| 32>     H       15.0274831   19.2397773   15.1288415
| 33>     H       16.4826183   18.9186471   14.1639073
| 34>     H       16.2263463   20.5119928   14.8741759
| 35>     H       17.2731423   20.9710692   16.6658514
| 36>     H       19.3184517   18.5189105   19.1100173
| 37>     H       18.7363714   16.8164179   17.4723688
| 38>     H       18.2343119   14.7454210   18.5759216
| 39>     H       17.2057171   13.4947460   20.4618817
| 40>     H       15.6448774   14.6663814   22.0200935
| 41>     H       14.6827326   16.5672619   22.5206879
| 42>     H       16.1593822   18.3219226   19.8140459
| 43> *
| 44>
| 45>                          ****END OF INPUT****

CARTESIAN COORDINATES (ANGSTROEM)
---------------------------------
  C     15.011577   15.007916   13.439530
  C     14.618962   15.605682   14.802076
  O     15.520281   16.690753   15.084596
  C     16.554276   16.487743   15.952233
  O     17.039518   15.383696   16.137387
  C     16.942042   17.690053   16.766291
  C     16.823900   18.962270   16.301237
  C     16.104170   19.436934   15.053958
  N     17.444404   20.024268   16.964323
  C     18.374375   19.880368   17.958163
  S     19.151345   21.181023   18.621599
  N     18.644644   18.596661   18.358681
  C     17.912655   17.393754   17.917041
  C     17.277204   16.622469   19.066443
  C     17.565503   15.259777   19.262080
  C     16.980160   14.550711   20.324427
  C     16.100158   15.210549   21.199409
  C     15.809719   16.568094   21.005526
  O     14.957318   17.206573   21.846415
  C     16.393397   17.270920   19.946605
  H     14.981834   15.774219   12.655182
  H     14.322830   14.201425   13.160326
  H     16.026254   14.591530   13.480265
  H     13.593701   15.992122   14.738268
  H     14.645338   14.837941   15.588145
  H     15.027483   19.239777   15.128842
  H     16.482618   18.918647   14.163907
  H     16.226346   20.511993   14.874176
  H     17.273142   20.971069   16.665851
  H     19.318452   18.518911   19.110017
  H     18.736371   16.816418   17.472369
  H     18.234312   14.745421   18.575922
  H     17.205717   13.494746   20.461882
  H     15.644877   14.666381   22.020094
  H     14.682733   16.567262   22.520688
  H     16.159382   18.321923   19.814046

 Total Charge           Charge          ....    0
 Multiplicity           Mult            ....    1
 Number of Electrons    NEL             ....  154
 Basis Dimension        Dim             ....  828

ORBITAL ENERGIES
----------------

  NO   OCC          E(Eh)            E(eV)
   0   2.0000     -91.888071     -2500.4015
   1   2.0000     -20.600467      -560.5672
   2   2.0000     -20.591795      -560.3312
   3   2.0000     -20.547117      -559.1155
   4   2.0000     -15.628637      -425.2768
   5   2.0000     -15.605740      -424.6538
   6   2.0000     -11.396375      -310.1111
   7   2.0000     -11.382622      -309.7369
   8   2.0000     -11.338189      -308.5278
   9   2.0000     -11.307823      -307.7015
  10   2.0000     -11.304316      -307.6061
  11   2.0000     -11.300584      -307.5045
  12   2.0000     -11.260806      -306.4221
  13   2.0000     -11.259091      -306.3754
  14   2.0000     -11.255107      -306.2670
  15   2.0000     -11.247925      -306.0716
  16   2.0000     -11.238112      -305.8046
  17   2.0000     -11.234215      -305.6985
  18   2.0000     -11.231000      -305.6110
  19   2.0000     -11.226713      -305.4944
  20   2.0000      -8.893153      -241.9950
  21   2.0000      -6.574731      -178.9075
  22   2.0000      -6.572728      -178.8530
  23   2.0000      -6.572140      -178.8370
  24   2.0000      -1.454417       -39.5767
  25   2.0000      -1.411541       -38.4100
  26   2.0000      -1.357794       -36.9474
  27   2.0000      -1.339932       -36.4614
  28   2.0000      -1.237073       -33.6625
  29   2.0000      -1.152475       -31.3604
  30   2.0000      -1.120927       -30.5020
  31   2.0000      -1.043102       -28.3842
  32   2.0000      -1.034874       -28.1604
  33   2.0000      -1.009965       -27.4825
  34   2.0000      -0.998480       -27.1700
  35   2.0000      -0.983439       -26.7607
  36   2.0000      -0.920795       -25.0561
  37   2.0000      -0.889292       -24.1989
  38   2.0000      -0.847695       -23.0669
  39   2.0000      -0.835295       -22.7295
  40   2.0000      -0.828123       -22.5344
  41   2.0000      -0.820194       -22.3186
  42   2.0000      -0.758027       -20.6270
  43   2.0000      -0.735481       -20.0135
  44   2.0000      -0.726286       -19.7632
  45   2.0000      -0.690569       -18.7913
  46   2.0000      -0.686068       -18.6689
  47   2.0000      -0.680152       -18.5079
  48   2.0000      -0.670829       -18.2542
  49   2.0000      -0.657493       -17.8913
  50   2.0000      -0.646607       -17.5951
  51   2.0000      -0.639709       -17.4074
  52   2.0000      -0.629329       -17.1249
  53   2.0000      -0.612640       -16.6708
  54   2.0000      -0.602565       -16.3966
  55   2.0000      -0.598393       -16.2831
  56   2.0000      -0.594992       -16.1906
  57   2.0000      -0.584888       -15.9156
  58   2.0000      -0.573030       -15.5929
  59   2.0000      -0.565379       -15.3847
  60   2.0000      -0.561045       -15.2668
  61   2.0000      -0.547516       -14.8987
  62   2.0000      -0.535132       -14.5617
  63   2.0000      -0.525628       -14.3031
  64   2.0000      -0.515848       -14.0369
  65   2.0000      -0.509339       -13.8598
  66   2.0000      -0.501777       -13.6541
  67   2.0000      -0.494220       -13.4484
  68   2.0000      -0.480480       -13.0745
  69   2.0000      -0.463493       -12.6123
  70   2.0000      -0.456494       -12.4218
  71   2.0000      -0.454178       -12.3588
  72   2.0000      -0.353138        -9.6094
  73   2.0000      -0.344593        -9.3768
  74   2.0000      -0.327140        -8.9019
  75   2.0000      -0.317251        -8.6328
  76   2.0000      -0.314487        -8.5576
  77   0.0000       0.076578         2.0838
  78   0.0000       0.111488         3.0337
  79   0.0000       0.121717         3.3121
  80   0.0000       0.135750         3.6939
  81   0.0000       0.140221         3.8156

MULLIKEN ATOMIC CHARGES
-----------------------
   0 C :   -0.277403
   1 C :    0.033021
   2 O :   -0.349208
   3 C :    0.418505
   4 O :   -0.422081
   5 C :   -0.164787
   6 C :    0.159077
   7 C :   -0.280596
   8 N :   -0.129094
   9 C :    0.207398
  10 S :   -0.442334
  11 N :   -0.210970
  12 C :    0.041555
  13 C :    0.031252
  14 C :   -0.168792
  15 C :   -0.134501
  16 C :   -0.277131
  17 C :    0.314183
  18 O :   -0.358970
  19 C :   -0.250742
  20 H :    0.090190
  21 H :    0.092235
  22 H :    0.110459
  23 H :    0.102640
  24 H :    0.104361
  25 H :    0.129173
  26 H :    0.125627
  27 H :    0.101651
  28 H :    0.198899
  29 H :    0.200031
  30 H :    0.155488
  31 H :    0.159206
  32 H :    0.160036
  33 H :    0.128253
  34 H :    0.239909
  35 H :    0.163462
Sum of atomic charges:   -0.0000000

LOEWDIN ATOMIC CHARGES
----------------------
   0 C :    0.104294
   1 C :   -0.015718
   2 O :    0.305415
   3 C :   -0.415683
   4 O :    0.105767
   5 C :   -0.091798
   6 C :   -0.064291
   7 C :    0.125270
   8 N :    0.405487
   9 C :   -0.458603
  10 S :   -0.037577
  11 N :    0.396403
  12 C :   -0.048208
  13 C :   -0.040639
  14 C :    0.024633
  15 C :    0.040770
  16 C :   -0.001180
  17 C :   -0.192491
  18 O :    0.393118
  19 C :    0.029737
  20 H :   -0.029964
  21 H :   -0.027468
  22 H :   -0.023441
  23 H :   -0.028167
  24 H :   -0.025900
  25 H :   -0.009210
  26 H :   -0.009404
  27 H :   -0.021142
  28 H :   -0.058693
  29 H :   -0.063139
  30 H :   -0.008246
  31 H :   -0.024007
  32 H :   -0.021070
  33 H :   -0.036165
  34 H :   -0.154865
  35 H :   -0.023826

  Mayer bond orders larger than 0.100000
B(  0-C ,  1-C ) :   0.9698 B(  0-C , 20-H ) :   0.9782 B(  0-C , 21-H ) :   0.9762
B(  0-C , 22-H ) :   0.9760 B(  1-C ,  2-O ) :   0.8961 B(  1-C , 23-H ) :   0.9836
B(  1-C , 24-H ) :   0.9733 B(  2-O ,  3-C ) :   1.1244 B(  3-C ,  4-O ) :   1.9759
B(  3-C ,  5-C ) :   1.0510 B(  5-C ,  6-C ) :   1.6563 B(  5-C , 12-C ) :   0.9468
B(  6-C ,  7-C ) :   0.9545 B(  6-C ,  8-N ) :   1.1338 B(  7-C , 25-H ) :   0.9634
B(  7-C , 26-H ) :   0.9655 B(  7-C , 27-H ) :   0.9909 B(  8-N ,  9-C ) :   1.1856
B(  8-N , 28-H ) :   0.9468 B(  9-C , 10-S ) :   1.6083 B(  9-C , 11-N ) :   1.3062
B( 11-N , 12-C ) :   0.9755 B( 11-N , 29-H ) :   0.9484 B( 12-C , 13-C ) :   0.9734
B( 12-C , 30-H ) :   0.9971 B( 13-C , 14-C ) :   1.3759 B( 13-C , 19-C ) :   1.3662
B( 14-C , 15-C ) :   1.3972 B( 14-C , 31-H ) :   0.9638 B( 15-C , 16-C ) :   1.3587
B( 15-C , 32-H ) :   0.9712 B( 16-C , 17-C ) :   1.3333 B( 16-C , 33-H ) :   0.9860
B( 17-C , 18-O ) :   1.1035 B( 17-C , 19-C ) :   1.3673 B( 18-O , 34-H ) :   0.9807
B( 19-C , 35-H ) :   0.9602

MP2 TOTAL ENERGY:    -1274.337746153 Eh
FINAL SINGLE POINT ENERGY     -1274.337746153367

DIPOLE MOMENT
-------------
                                X             Y             Z
Electronic contribution:      9.19427       9.85133      12.63296
Nuclear contribution   :    -10.78233     -11.05684     -13.52254
                        -----------------------------------------
Total Dipole Moment    :     -1.58806      -1.20551      -0.88959
                        -----------------------------------------
Magnitude (a.u.)       :      2.18324
Magnitude (Debye)      :      5.54937

Rotational constants in cm-1:     0.009927     0.008879     0.005457
Rotational constants in MHz :   297.598017   266.171308   163.592015

                             ****ORCA TERMINATED NORMALLY****
TOTAL RUN TIME: 0 days 1 hours 32 minutes 8 seconds 139 msec
