                         Program Version 4.2.0 -  RELEASE  -
|  1> ! ri-mp2 cc-pvtz cc-pvtz/c TightSCF NoKeepInts
|  2>
|  3> %scf
|  4>   MaxCore 4096
|  5> end
|  6> *xyz  0  1
|  7>     C       13.7437282   16.1921349   14.9327935
|  8>     C       15.1393646   15.5508958   14.8517510
|  9>     O       16.0987753   16.6137838   14.7391336
| 10>     C       17.1424011   16.5989326   15.6120928
| 11>     O       17.8868607   15.6377666   15.6997831
| 12>     C       17.1504190   17.7320920   16.5954680
| 13>     C       16.7589948   18.9884948   16.2581805
| 14>     C       16.0664178   19.4332965   14.9852231
| 15>     N       17.0319912   20.0697939   17.0996463
| 16>     C       17.8764507   20.0185476   18.1759978
| 17>     S       18.2388408   21.3649839   19.0653902
| 18>     N       18.4241506   18.7939869   18.4645236
| 19>     C       18.0604696   17.5216750   17.8107190
| 20>     C       17.5352224   16.4715727   18.7804223
| 21>     C       18.1245235   15.1961579   18.8442913
| 22>     C       17.6360372   14.2271461   19.7366590
| 23>     C       16.5492177   14.5366057   20.5724035
| 24>     C       15.9582608   15.8060421   20.5085343
| 25>     O       14.9050609   16.1056527   21.3098989
| 26>     C       16.4462470   16.7681645   19.6185245
| 27>     H       13.6642107   16.8362248   15.8174531
| 28>     H       12.9697186   15.4180727   15.0027535
| 29>     H       13.5432714   16.7978773   14.0403055
| 30>     H       15.3159410   14.9479033   15.7541389
| 31>     H       15.2068202   14.8905660   13.9772849
| 32>     H       16.6156842   19.0883216   14.1000367
| 33>     H       15.9852935   20.5241390   14.9043241
| 34>     H       15.0502926   19.0240632   14.9323139
| 35>     H       16.6568816   20.9801235   16.8860555
| 36>     H       19.0283478   18.7793808   19.2765668
| 37>     H       19.0378922   17.2211241   17.4056504
| 38>     H       18.9551683   14.9513709   18.1862109
| 39>     H       18.0967361   13.2415422   19.7732140
| 40>     H       16.1680786   13.7906560   21.2618393
| 41>     H       14.7413470   15.3347290   21.8736601
| 42>     H       15.9778821   17.7461795   19.5847562
| 43> *
| 44>
| 45>                          ****END OF INPUT****

CARTESIAN COORDINATES (ANGSTROEM)
---------------------------------
  C     13.743728   16.192135   14.932794
  C     15.139365   15.550896   14.851751
  O     16.098775   16.613784   14.739134
  C     17.142401   16.598933   15.612093
  O     17.886861   15.637767   15.699783
  C     17.150419   17.732092   16.595468
  C     16.758995   18.988495   16.258181
  C     16.066418   19.433296   14.985223
  N     17.031991   20.069794   17.099646
  C     17.876451   20.018548   18.175998
  S     18.238841   21.364984   19.065390
  N     18.424151   18.793987   18.464524
  C     18.060470   17.521675   17.810719
  C     17.535222   16.471573   18.780422
  C     18.124523   15.196158   18.844291
  C     17.636037   14.227146   19.736659
  C     16.549218   14.536606   20.572404
  C     15.958261   15.806042   20.508534
  O     14.905061   16.105653   21.309899
  C     16.446247   16.768165   19.618524
  H     13.664211   16.836225   15.817453
  H     12.969719   15.418073   15.002754
  H     13.543271   16.797877   14.040306
  H     15.315941   14.947903   15.754139
  H     15.206820   14.890566   13.977285
  H     16.615684   19.088322   14.100037
  H     15.985293   20.524139   14.904324
  H     15.050293   19.024063   14.932314
  H     16.656882   20.980124   16.886056
  H     19.028348   18.779381   19.276567
  H     19.037892   17.221124   17.405650
  H     18.955168   14.951371   18.186211
  H     18.096736   13.241542   19.773214
  H     16.168079   13.790656   21.261839
  H     14.741347   15.334729   21.873660
  H     15.977882   17.746180   19.584756

 Total Charge           Charge          ....    0
 Multiplicity           Mult            ....    1
 Number of Electrons    NEL             ....  154
 Basis Dimension        Dim             ....  828

ORBITAL ENERGIES
----------------

  NO   OCC          E(Eh)            E(eV)
   0   2.0000     -91.889277     -2500.4343
   1   2.0000     -20.594098      -560.3939
   2   2.0000     -20.590553      -560.2974
   3   2.0000     -20.549988      -559.1936
   4   2.0000     -15.630043      -425.3151
   5   2.0000     -15.606939      -424.6864
   6   2.0000     -11.393792      -310.0408
   7   2.0000     -11.384006      -309.7745
   8   2.0000     -11.339141      -308.5537
   9   2.0000     -11.310256      -307.7677
  10   2.0000     -11.305336      -307.6338
  11   2.0000     -11.302859      -307.5664
  12   2.0000     -11.260323      -306.4090
  13   2.0000     -11.260243      -306.4068
  14   2.0000     -11.257370      -306.3286
  15   2.0000     -11.250209      -306.1338
  16   2.0000     -11.240366      -305.8659
  17   2.0000     -11.236575      -305.7627
  18   2.0000     -11.235047      -305.7212
  19   2.0000     -11.233126      -305.6689
  20   2.0000      -8.894352      -242.0276
  21   2.0000      -6.575926      -178.9400
  22   2.0000      -6.573925      -178.8856
  23   2.0000      -6.573334      -178.8695
  24   2.0000      -1.453695       -39.5571
  25   2.0000      -1.413850       -38.4728
  26   2.0000      -1.357882       -36.9498
  27   2.0000      -1.341085       -36.4928
  28   2.0000      -1.238192       -33.6929
  29   2.0000      -1.154699       -31.4210
  30   2.0000      -1.122229       -30.5374
  31   2.0000      -1.044752       -28.4291
  32   2.0000      -1.037670       -28.2364
  33   2.0000      -1.012229       -27.5441
  34   2.0000      -1.000577       -27.2271
  35   2.0000      -0.986002       -26.8305
  36   2.0000      -0.922255       -25.0958
  37   2.0000      -0.887814       -24.1586
  38   2.0000      -0.848490       -23.0886
  39   2.0000      -0.837342       -22.7852
  40   2.0000      -0.830386       -22.5959
  41   2.0000      -0.823809       -22.4170
  42   2.0000      -0.761304       -20.7161
  43   2.0000      -0.736701       -20.0467
  44   2.0000      -0.727920       -19.8077
  45   2.0000      -0.692254       -18.8372
  46   2.0000      -0.684295       -18.6206
  47   2.0000      -0.682388       -18.5687
  48   2.0000      -0.675984       -18.3945
  49   2.0000      -0.658664       -17.9231
  50   2.0000      -0.652318       -17.7505
  51   2.0000      -0.642844       -17.4927
  52   2.0000      -0.634838       -17.2748
  53   2.0000      -0.605475       -16.4758
  54   2.0000      -0.601161       -16.3584
  55   2.0000      -0.600516       -16.3409
  56   2.0000      -0.597477       -16.2582
  57   2.0000      -0.578074       -15.7302
  58   2.0000      -0.574750       -15.6397
  59   2.0000      -0.571017       -15.5382
  60   2.0000      -0.560465       -15.2510
  61   2.0000      -0.555352       -15.1119
  62   2.0000      -0.546275       -14.8649
  63   2.0000      -0.518354       -14.1051
  64   2.0000      -0.515352       -14.0234
  65   2.0000      -0.512587       -13.9482
  66   2.0000      -0.506401       -13.7799
  67   2.0000      -0.496027       -13.4976
  68   2.0000      -0.481663       -13.1067
  69   2.0000      -0.463279       -12.6065
  70   2.0000      -0.458575       -12.4784
  71   2.0000      -0.454242       -12.3605
  72   2.0000      -0.354277        -9.6404
  73   2.0000      -0.346788        -9.4366
  74   2.0000      -0.328318        -8.9340
  75   2.0000      -0.318472        -8.6661
  76   2.0000      -0.316967        -8.6251
  77   0.0000       0.073199         1.9919
  78   0.0000       0.107805         2.9335
  79   0.0000       0.120053         3.2668
  80   0.0000       0.134257         3.6533
  81   0.0000       0.138781         3.7764

MULLIKEN ATOMIC CHARGES
-----------------------
   0 C :   -0.294868
   1 C :    0.047041
   2 O :   -0.365993
   3 C :    0.444291
   4 O :   -0.397731
   5 C :   -0.199295
   6 C :    0.153224
   7 C :   -0.286479
   8 N :   -0.127848
   9 C :    0.206496
  10 S :   -0.440606
  11 N :   -0.211142
  12 C :    0.045697
  13 C :    0.030829
  14 C :   -0.174566
  15 C :   -0.133650
  16 C :   -0.277913
  17 C :    0.313799
  18 O :   -0.358754
  19 C :   -0.253737
  20 H :    0.098052
  21 H :    0.111124
  22 H :    0.097132
  23 H :    0.095542
  24 H :    0.105962
  25 H :    0.129437
  26 H :    0.105981
  27 H :    0.125153
  28 H :    0.198843
  29 H :    0.199899
  30 H :    0.156449
  31 H :    0.162026
  32 H :    0.161364
  33 H :    0.129258
  34 H :    0.240364
  35 H :    0.164620
Sum of atomic charges:    0.0000000

LOEWDIN ATOMIC CHARGES
----------------------
   0 C :    0.103587
   1 C :   -0.015119
   2 O :    0.299607
   3 C :   -0.423536
   4 O :    0.118491
   5 C :   -0.096555
   6 C :   -0.065341
   7 C :    0.126372
   8 N :    0.405829
   9 C :   -0.458167
  10 S :   -0.036365
  11 N :    0.396139
  12 C :   -0.048525
  13 C :   -0.041526
  14 C :    0.024424
  15 C :    0.041301
  16 C :   -0.001198
  17 C :   -0.193008
  18 O :    0.393142
  19 C :    0.028289
  20 H :   -0.028251
  21 H :   -0.023250
  22 H :   -0.028661
  23 H :   -0.024854
  24 H :   -0.026984
  25 H :   -0.007577
  26 H :   -0.020433
  27 H :   -0.010770
  28 H :   -0.058330
  29 H :   -0.063311
  30 H :   -0.007419
  31 H :   -0.023270
  32 H :   -0.020491
  33 H :   -0.035859
  34 H :   -0.154474
  35 H :   -0.023906

  Mayer bond orders larger than 0.100000
B(  0-C ,  1-C ) :   0.9694 B(  0-C , 20-H ) :   0.9762 B(  0-C , 21-H ) :   0.9784
B(  0-C , 22-H ) :   0.9763 B(  1-C ,  2-O ) :   0.8968 B(  1-C , 23-H ) :   0.9706
B(  1-C , 24-H ) :   0.9849 B(  2-O ,  3-C ) :   1.0867 B(  3-C ,  4-O ) :   2.0360
B(  3-C ,  5-C ) :   1.0239 B(  5-C ,  6-C ) :   1.6615 B(  5-C , 12-C ) :   0.9491
B(  6-C ,  7-C ) :   0.9549 B(  6-C ,  8-N ) :   1.1388 B(  7-C , 25-H ) :   0.9654
B(  7-C , 26-H ) :   0.9899 B(  7-C , 27-H ) :   0.9656 B(  8-N ,  9-C ) :   1.1847
B(  8-N , 28-H ) :   0.9470 B(  9-C , 10-S ) :   1.6108 B(  9-C , 11-N ) :   1.3044
B( 11-N , 12-C ) :   0.9778 B( 11-N , 29-H ) :   0.9486 B( 12-C , 13-C ) :   0.9708
B( 12-C , 30-H ) :   0.9952 B( 13-C , 14-C ) :   1.3785 B( 13-C , 19-C ) :   1.3631
B( 14-C , 15-C ) :   1.3967 B( 14-C , 31-H ) :   0.9626 B( 15-C , 16-C ) :   1.3593
B( 15-C , 32-H ) :   0.9708 B( 16-C , 17-C ) :   1.3327 B( 16-C , 33-H ) :   0.9857
B( 17-C , 18-O ) :   1.1045 B( 17-C , 19-C ) :   1.3672 B( 18-O , 34-H ) :   0.9803
B( 19-C , 35-H ) :   0.9601

MP2 TOTAL ENERGY:    -1274.329003113 Eh
FINAL SINGLE POINT ENERGY     -1274.329003112881

DIPOLE MOMENT
-------------
                                X             Y             Z
Electronic contribution:     10.95665       7.68032       9.43671
Nuclear contribution   :    -12.34297      -8.99012     -10.23577
                        -----------------------------------------
Total Dipole Moment    :     -1.38633      -1.30980      -0.79906
                        -----------------------------------------
Magnitude (a.u.)       :      2.06784
Magnitude (Debye)      :      5.25604

Rotational constants in cm-1:     0.010065     0.009325     0.006053
Rotational constants in MHz :   301.733174   279.554215   181.450968

                             ****ORCA TERMINATED NORMALLY****
TOTAL RUN TIME: 0 days 1 hours 47 minutes 26 seconds 797 msec
