                         Program Version 4.2.0 -  RELEASE  -
|  1> ! ri-mp2 cc-pvtz cc-pvtz/c TightSCF NoKeepInts
|  2>
|  3> %scf
|  4>   MaxCore 4096
|  5> end
|  6> *xyz  0  1
|  7>     C       14.5213127   15.0204854   13.6438481
|  8>     C       14.7178501   15.5695693   15.0667314
|  9>     O       15.7658032   16.5520825   15.0069165
| 10>     C       16.8015712   16.4473251   15.8860850
| 11>     O       17.3588212   15.3839003   16.0994937
| 12>     C       17.0599636   17.6799155   16.7043496
| 13>     C       16.8688294   18.9341150   16.2165550
| 14>     C       16.1790418   19.3359989   14.9276096
| 15>     N       17.3748898   20.0469189   16.8931655
| 16>     C       18.2645883   19.9834216   17.9314786
| 17>     S       18.9079485   21.3456369   18.6139892
| 18>     N       18.6117866   18.7277347   18.3611946
| 19>     C       17.9945391   17.4682915   17.9019096
| 20>     C       17.3633840   16.6613477   19.0288764
| 21>     C       17.7373946   15.3236240   19.2498360
| 22>     C       17.1544255   14.5810309   20.2903472
| 23>     C       16.1900501   15.1818644   21.1176085
| 24>     C       15.8139493   16.5142247   20.8981355
| 25>     O       14.8796712   17.0953810   21.6922666
| 26>     C       16.3954053   17.2504636   19.8609070
| 27>     H       15.4430620   14.5447190   13.2854906
| 28>     H       14.2543836   15.8268034   12.9495794
| 29>     H       13.7203599   14.2714572   13.6270777
| 30>     H       13.7893551   16.0316113   15.4261648
| 31>     H       14.9751906   14.7423808   15.7432703
| 32>     H       16.6266396   18.8208555   14.0682053
| 33>     H       16.2470422   20.4119342   14.7256270
| 34>     H       15.1135990   19.0765120   14.9600194
| 35>     H       17.1478263   20.9750239   16.5737675
| 36>     H       19.2539824   18.7087560   19.1434151
| 37>     H       18.8792734   16.9504717   17.5034289
| 38>     H       18.4722709   14.8539511   18.6000704
| 39>     H       17.4474885   13.5445764   20.4478104
| 40>     H       15.7364957   14.6115315   21.9213416
| 41>     H       14.6245110   16.4446117   22.3632809
| 42>     H       16.0942939   18.2814725   19.7081470
| 43> *
| 44>
| 45>                          ****END OF INPUT****

CARTESIAN COORDINATES (ANGSTROEM)
---------------------------------
  C     14.521313   15.020485   13.643848
  C     14.717850   15.569569   15.066731
  O     15.765803   16.552083   15.006917
  C     16.801571   16.447325   15.886085
  O     17.358821   15.383900   16.099494
  C     17.059964   17.679915   16.704350
  C     16.868829   18.934115   16.216555
  C     16.179042   19.335999   14.927610
  N     17.374890   20.046919   16.893165
  C     18.264588   19.983422   17.931479
  S     18.907948   21.345637   18.613989
  N     18.611787   18.727735   18.361195
  C     17.994539   17.468291   17.901910
  C     17.363384   16.661348   19.028876
  C     17.737395   15.323624   19.249836
  C     17.154425   14.581031   20.290347
  C     16.190050   15.181864   21.117608
  C     15.813949   16.514225   20.898135
  O     14.879671   17.095381   21.692267
  C     16.395405   17.250464   19.860907
  H     15.443062   14.544719   13.285491
  H     14.254384   15.826803   12.949579
  H     13.720360   14.271457   13.627078
  H     13.789355   16.031611   15.426165
  H     14.975191   14.742381   15.743270
  H     16.626640   18.820856   14.068205
  H     16.247042   20.411934   14.725627
  H     15.113599   19.076512   14.960019
  H     17.147826   20.975024   16.573767
  H     19.253982   18.708756   19.143415
  H     18.879273   16.950472   17.503429
  H     18.472271   14.853951   18.600070
  H     17.447488   13.544576   20.447810
  H     15.736496   14.611531   21.921342
  H     14.624511   16.444612   22.363281
  H     16.094294   18.281472   19.708147

 Total Charge           Charge          ....    0
 Multiplicity           Mult            ....    1
 Number of Electrons    NEL             ....  154
 Basis Dimension        Dim             ....  828

ORBITAL ENERGIES
----------------

  NO   OCC          E(Eh)            E(eV)
   0   2.0000     -91.888652     -2500.4173
   1   2.0000     -20.594325      -560.4001
   2   2.0000     -20.592719      -560.3564
   3   2.0000     -20.548988      -559.1664
   4   2.0000     -15.629427      -425.2983
   5   2.0000     -15.606214      -424.6667
   6   2.0000     -11.395103      -310.0765
   7   2.0000     -11.383255      -309.7541
   8   2.0000     -11.338837      -308.5454
   9   2.0000     -11.308776      -307.7275
  10   2.0000     -11.304596      -307.6137
  11   2.0000     -11.301099      -307.5185
  12   2.0000     -11.260297      -306.4083
  13   2.0000     -11.259877      -306.3968
  14   2.0000     -11.256009      -306.2916
  15   2.0000     -11.248831      -306.0962
  16   2.0000     -11.238997      -305.8287
  17   2.0000     -11.235138      -305.7236
  18   2.0000     -11.231841      -305.6339
  19   2.0000     -11.229377      -305.5669
  20   2.0000      -8.893730      -242.0107
  21   2.0000      -6.575306      -178.9232
  22   2.0000      -6.573304      -178.8687
  23   2.0000      -6.572715      -178.8527
  24   2.0000      -1.453607       -39.5547
  25   2.0000      -1.412464       -38.4351
  26   2.0000      -1.357804       -36.9477
  27   2.0000      -1.340509       -36.4771
  28   2.0000      -1.237574       -33.6761
  29   2.0000      -1.153327       -31.3836
  30   2.0000      -1.121440       -30.5159
  31   2.0000      -1.043903       -28.4060
  32   2.0000      -1.035803       -28.1856
  33   2.0000      -1.010873       -27.5072
  34   2.0000      -0.999325       -27.1930
  35   2.0000      -0.984293       -26.7840
  36   2.0000      -0.921337       -25.0708
  37   2.0000      -0.885175       -24.0868
  38   2.0000      -0.848354       -23.0849
  39   2.0000      -0.836413       -22.7600
  40   2.0000      -0.829026       -22.5590
  41   2.0000      -0.823925       -22.4201
  42   2.0000      -0.760126       -20.6841
  43   2.0000      -0.736070       -20.0295
  44   2.0000      -0.727038       -19.7837
  45   2.0000      -0.691062       -18.8047
  46   2.0000      -0.686834       -18.6897
  47   2.0000      -0.680152       -18.5079
  48   2.0000      -0.671746       -18.2791
  49   2.0000      -0.655822       -17.8458
  50   2.0000      -0.647525       -17.6200
  51   2.0000      -0.640231       -17.4216
  52   2.0000      -0.628982       -17.1155
  53   2.0000      -0.618097       -16.8193
  54   2.0000      -0.603644       -16.4260
  55   2.0000      -0.599397       -16.3104
  56   2.0000      -0.595976       -16.2173
  57   2.0000      -0.581553       -15.8249
  58   2.0000      -0.573968       -15.6185
  59   2.0000      -0.563265       -15.3272
  60   2.0000      -0.561884       -15.2897
  61   2.0000      -0.548863       -14.9353
  62   2.0000      -0.535319       -14.5668
  63   2.0000      -0.523400       -14.2424
  64   2.0000      -0.516901       -14.0656
  65   2.0000      -0.509896       -13.8750
  66   2.0000      -0.503035       -13.6883
  67   2.0000      -0.494908       -13.4671
  68   2.0000      -0.480918       -13.0865
  69   2.0000      -0.462906       -12.5963
  70   2.0000      -0.459345       -12.4994
  71   2.0000      -0.452977       -12.3261
  72   2.0000      -0.353651        -9.6233
  73   2.0000      -0.345435        -9.3998
  74   2.0000      -0.327694        -8.9170
  75   2.0000      -0.317827        -8.6485
  76   2.0000      -0.315476        -8.5845
  77   0.0000       0.074154         2.0178
  78   0.0000       0.110258         3.0003
  79   0.0000       0.120691         3.2842
  80   0.0000       0.135001         3.6736
  81   0.0000       0.138965         3.7814

MULLIKEN ATOMIC CHARGES
-----------------------
   0 C :   -0.262613
   1 C :    0.034243
   2 O :   -0.364133
   3 C :    0.439629
   4 O :   -0.407314
   5 C :   -0.186146
   6 C :    0.153984
   7 C :   -0.280023
   8 N :   -0.128372
   9 C :    0.207085
  10 S :   -0.441392
  11 N :   -0.210886
  12 C :    0.041072
  13 C :    0.032403
  14 C :   -0.171808
  15 C :   -0.134356
  16 C :   -0.277382
  17 C :    0.313791
  18 O :   -0.358944
  19 C :   -0.251933
  20 H :    0.104795
  21 H :    0.090562
  22 H :    0.088795
  23 H :    0.096419
  24 H :    0.107608
  25 H :    0.127372
  26 H :    0.102759
  27 H :    0.126224
  28 H :    0.198931
  29 H :    0.199984
  30 H :    0.156068
  31 H :    0.160435
  32 H :    0.160575
  33 H :    0.128587
  34 H :    0.240090
  35 H :    0.163890
Sum of atomic charges:   -0.0000000

LOEWDIN ATOMIC CHARGES
----------------------
   0 C :    0.106117
   1 C :   -0.015180
   2 O :    0.302517
   3 C :   -0.419024
   4 O :    0.112560
   5 C :   -0.094627
   6 C :   -0.064399
   7 C :    0.125597
   8 N :    0.405703
   9 C :   -0.458435
  10 S :   -0.036896
  11 N :    0.396252
  12 C :   -0.048429
  13 C :   -0.040911
  14 C :    0.024449
  15 C :    0.040904
  16 C :   -0.001219
  17 C :   -0.192695
  18 O :    0.393087
  19 C :    0.029205
  20 H :   -0.022791
  21 H :   -0.029526
  22 H :   -0.026774
  23 H :   -0.032242
  24 H :   -0.025413
  25 H :   -0.008365
  26 H :   -0.020870
  27 H :   -0.009770
  28 H :   -0.058510
  29 H :   -0.063222
  30 H :   -0.007881
  31 H :   -0.023727
  32 H :   -0.020861
  33 H :   -0.036061
  34 H :   -0.154699
  35 H :   -0.023865

  Mayer bond orders larger than 0.100000
B(  0-C ,  1-C ) :   0.9774 B(  0-C , 20-H ) :   0.9774 B(  0-C , 21-H ) :   0.9795
B(  0-C , 22-H ) :   0.9758 B(  1-C ,  2-O ) :   0.8897 B(  1-C , 23-H ) :   0.9780
B(  1-C , 24-H ) :   0.9719 B(  2-O ,  3-C ) :   1.0922 B(  3-C ,  4-O ) :   2.0123
B(  3-C ,  5-C ) :   1.0384 B(  5-C ,  6-C ) :   1.6588 B(  5-C , 12-C ) :   0.9477
B(  6-C ,  7-C ) :   0.9539 B(  6-C ,  8-N ) :   1.1369 B(  7-C , 25-H ) :   0.9655
B(  7-C , 26-H ) :   0.9905 B(  7-C , 27-H ) :   0.9644 B(  8-N ,  9-C ) :   1.1847
B(  8-N , 28-H ) :   0.9469 B(  9-C , 10-S ) :   1.6095 B(  9-C , 11-N ) :   1.3057
B( 11-N , 12-C ) :   0.9758 B( 11-N , 29-H ) :   0.9485 B( 12-C , 13-C ) :   0.9718
B( 12-C , 30-H ) :   0.9965 B( 13-C , 14-C ) :   1.3771 B( 13-C , 19-C ) :   1.3646
B( 14-C , 15-C ) :   1.3973 B( 14-C , 31-H ) :   0.9633 B( 15-C , 16-C ) :   1.3589
B( 15-C , 32-H ) :   0.9710 B( 16-C , 17-C ) :   1.3331 B( 16-C , 33-H ) :   0.9859
B( 17-C , 18-O ) :   1.1039 B( 17-C , 19-C ) :   1.3674 B( 18-O , 34-H ) :   0.9805
B( 19-C , 35-H ) :   0.9602

MP2 TOTAL ENERGY:    -1274.331679949 Eh
FINAL SINGLE POINT ENERGY     -1274.331679949312

DIPOLE MOMENT
-------------
                                X             Y             Z
Electronic contribution:     10.16090      10.06412      11.77122
Nuclear contribution   :    -11.71352     -11.30875     -12.52885
                        -----------------------------------------
Total Dipole Moment    :     -1.55262      -1.24463      -0.75763
                        -----------------------------------------
Magnitude (a.u.)       :      2.12926
Magnitude (Debye)      :      5.41215

Rotational constants in cm-1:     0.009826     0.009030     0.005537
Rotational constants in MHz :   294.573630   270.700977   165.995435

                             ****ORCA TERMINATED NORMALLY****
TOTAL RUN TIME: 0 days 1 hours 33 minutes 17 seconds 69 msec
