                         Program Version 4.2.0 -  RELEASE  -
|  1> ! ri-mp2 cc-pvtz cc-pvtz/c TightSCF NoKeepInts
|  2>
|  3> %scf
|  4>   MaxCore 4096
|  5> end
|  6> *xyz  0  1
|  7>     C       15.4842217   13.9979386   16.3657588
|  8>     C       15.2622783   15.3187096   15.6097962
|  9>     O       16.5354471   15.9502385   15.3905867
| 10>     C       16.5080792   17.2931244   15.1595907
| 11>     O       16.0269907   17.7130270   14.1227828
| 12>     C       16.9558082   18.1517902   16.3153813
| 13>     C       17.0839437   19.4958168   16.1486299
| 14>     C       16.5356762   20.3432284   15.0179557
| 15>     N       17.7848034   20.2758684   17.0706841
| 16>     C       18.5832184   19.7713784   18.0591659
| 17>     S       19.4883605   20.7464580   19.0418264
| 18>     N       18.6177023   18.4059260   18.1728918
| 19>     C       17.7506698   17.4630488   17.4410238
| 20>     C       16.9527028   16.5872877   18.3976580
| 21>     C       17.5755278   15.4917678   19.0250090
| 22>     C       16.8718496   14.7027474   19.9508413
| 23>     C       15.5350336   15.0132443   20.2535156
| 24>     C       14.9166406   16.1117581   19.6409014
| 25>     O       13.6281980   16.4178770   19.9348703
| 26>     C       15.6211950   16.9000700   18.7256017
| 27>     H       16.1469421   13.3355118   15.7954181
| 28>     H       14.5298747   13.4794488   16.5169877
| 29>     H       15.9326027   14.1704277   17.3467724
| 30>     H       14.7663164   15.1311931   14.6479873
| 31>     H       14.6101629   15.9661070   16.2117003
| 32>     H       15.4720749   20.1291011   14.8525089
| 33>     H       17.0638974   20.1258354   14.0806233
| 34>     H       16.6230716   21.4200094   15.2050801
| 35>     H       17.7905404   21.2788918   16.9761661
| 36>     H       19.1928733   18.0653481   18.9326397
| 37>     H       18.5195514   16.8679519   16.9273929
| 38>     H       18.6099831   15.2515757   18.7936396
| 39>     H       17.3616638   13.8561089   20.4292617
| 40>     H       14.9867229   14.4056136   20.9660842
| 41>     H       13.3336471   15.8059456   20.6266131
| 42>     H       15.1287285   17.7596245   18.2846532
| 43> *
| 44>
| 45>                          ****END OF INPUT****

CARTESIAN COORDINATES (ANGSTROEM)
---------------------------------
  C     15.484222   13.997939   16.365759
  C     15.262278   15.318710   15.609796
  O     16.535447   15.950238   15.390587
  C     16.508079   17.293124   15.159591
  O     16.026991   17.713027   14.122783
  C     16.955808   18.151790   16.315381
  C     17.083944   19.495817   16.148630
  C     16.535676   20.343228   15.017956
  N     17.784803   20.275868   17.070684
  C     18.583218   19.771378   18.059166
  S     19.488360   20.746458   19.041826
  N     18.617702   18.405926   18.172892
  C     17.750670   17.463049   17.441024
  C     16.952703   16.587288   18.397658
  C     17.575528   15.491768   19.025009
  C     16.871850   14.702747   19.950841
  C     15.535034   15.013244   20.253516
  C     14.916641   16.111758   19.640901
  O     13.628198   16.417877   19.934870
  C     15.621195   16.900070   18.725602
  H     16.146942   13.335512   15.795418
  H     14.529875   13.479449   16.516988
  H     15.932603   14.170428   17.346772
  H     14.766316   15.131193   14.647987
  H     14.610163   15.966107   16.211700
  H     15.472075   20.129101   14.852509
  H     17.063897   20.125835   14.080623
  H     16.623072   21.420009   15.205080
  H     17.790540   21.278892   16.976166
  H     19.192873   18.065348   18.932640
  H     18.519551   16.867952   16.927393
  H     18.609983   15.251576   18.793640
  H     17.361664   13.856109   20.429262
  H     14.986723   14.405614   20.966084
  H     13.333647   15.805946   20.626613
  H     15.128728   17.759625   18.284653

 Total Charge           Charge          ....    0
 Multiplicity           Mult            ....    1
 Number of Electrons    NEL             ....  154
 Basis Dimension        Dim             ....  828

ORBITAL ENERGIES
----------------

  NO   OCC          E(Eh)            E(eV)
   0   2.0000     -91.891121     -2500.4845
   1   2.0000     -20.604139      -560.6671
   2   2.0000     -20.582737      -560.0847
   3   2.0000     -20.543782      -559.0247
   4   2.0000     -15.631872      -425.3649
   5   2.0000     -15.608984      -424.7420
   6   2.0000     -11.390960      -309.9638
   7   2.0000     -11.385342      -309.8109
   8   2.0000     -11.341577      -308.6200
   9   2.0000     -11.321646      -308.0777
  10   2.0000     -11.311685      -307.8066
  11   2.0000     -11.294743      -307.3456
  12   2.0000     -11.268748      -306.6382
  13   2.0000     -11.262842      -306.4775
  14   2.0000     -11.260654      -306.4180
  15   2.0000     -11.253444      -306.2218
  16   2.0000     -11.250312      -306.1366
  17   2.0000     -11.245685      -306.0106
  18   2.0000     -11.245391      -306.0026
  19   2.0000     -11.221639      -305.3563
  20   2.0000      -8.896168      -242.0771
  21   2.0000      -6.577737      -178.9893
  22   2.0000      -6.575741      -178.9350
  23   2.0000      -6.575147      -178.9188
  24   2.0000      -1.447738       -39.3950
  25   2.0000      -1.423769       -38.7427
  26   2.0000      -1.350966       -36.7616
  27   2.0000      -1.343637       -36.5622
  28   2.0000      -1.241669       -33.7875
  29   2.0000      -1.164156       -31.6783
  30   2.0000      -1.123332       -30.5674
  31   2.0000      -1.047834       -28.5130
  32   2.0000      -1.032475       -28.0951
  33   2.0000      -1.022731       -27.8299
  34   2.0000      -0.999985       -27.2110
  35   2.0000      -0.987179       -26.8625
  36   2.0000      -0.925959       -25.1966
  37   2.0000      -0.878309       -23.9000
  38   2.0000      -0.851102       -23.1597
  39   2.0000      -0.844293       -22.9744
  40   2.0000      -0.839252       -22.8372
  41   2.0000      -0.826127       -22.4800
  42   2.0000      -0.762708       -20.7543
  43   2.0000      -0.739088       -20.1116
  44   2.0000      -0.723347       -19.6833
  45   2.0000      -0.702185       -19.1074
  46   2.0000      -0.689978       -18.7753
  47   2.0000      -0.677672       -18.4404
  48   2.0000      -0.672847       -18.3091
  49   2.0000      -0.662046       -18.0152
  50   2.0000      -0.649581       -17.6760
  51   2.0000      -0.641683       -17.4611
  52   2.0000      -0.635707       -17.2985
  53   2.0000      -0.614550       -16.7228
  54   2.0000      -0.611727       -16.6459
  55   2.0000      -0.605463       -16.4755
  56   2.0000      -0.603724       -16.4282
  57   2.0000      -0.583797       -15.8859
  58   2.0000      -0.572019       -15.5654
  59   2.0000      -0.568330       -15.4650
  60   2.0000      -0.550744       -14.9865
  61   2.0000      -0.542725       -14.7683
  62   2.0000      -0.541034       -14.7223
  63   2.0000      -0.531721       -14.4689
  64   2.0000      -0.515960       -14.0400
  65   2.0000      -0.510399       -13.8887
  66   2.0000      -0.507363       -13.8060
  67   2.0000      -0.500112       -13.6087
  68   2.0000      -0.485320       -13.2062
  69   2.0000      -0.464406       -12.6371
  70   2.0000      -0.455878       -12.4051
  71   2.0000      -0.443434       -12.0665
  72   2.0000      -0.357635        -9.7318
  73   2.0000      -0.355065        -9.6618
  74   2.0000      -0.332039        -9.0352
  75   2.0000      -0.327733        -8.9181
  76   2.0000      -0.321467        -8.7476
  77   0.0000       0.071976         1.9586
  78   0.0000       0.099517         2.7080
  79   0.0000       0.118791         3.2325
  80   0.0000       0.124551         3.3892
  81   0.0000       0.129161         3.5146

MULLIKEN ATOMIC CHARGES
-----------------------
   0 C :   -0.275775
   1 C :    0.023577
   2 O :   -0.370226
   3 C :    0.483154
   4 O :   -0.409534
   5 C :   -0.305813
   6 C :    0.179499
   7 C :   -0.265338
   8 N :   -0.129147
   9 C :    0.221602
  10 S :   -0.441366
  11 N :   -0.224930
  12 C :    0.080141
  13 C :    0.069060
  14 C :   -0.220884
  15 C :   -0.125761
  16 C :   -0.273874
  17 C :    0.319819
  18 O :   -0.357661
  19 C :   -0.263260
  20 H :    0.101091
  21 H :    0.090902
  22 H :    0.107845
  23 H :    0.122300
  24 H :    0.087198
  25 H :    0.131314
  26 H :    0.132800
  27 H :    0.094672
  28 H :    0.199301
  29 H :    0.199982
  30 H :    0.147828
  31 H :    0.154681
  32 H :    0.162816
  33 H :    0.133214
  34 H :    0.243058
  35 H :    0.177718
Sum of atomic charges:   -0.0000000

LOEWDIN ATOMIC CHARGES
----------------------
   0 C :    0.111709
   1 C :   -0.021481
   2 O :    0.290841
   3 C :   -0.423767
   4 O :    0.114585
   5 C :   -0.101222
   6 C :   -0.050502
   7 C :    0.131251
   8 N :    0.408896
   9 C :   -0.455807
  10 S :   -0.034728
  11 N :    0.394353
  12 C :   -0.053419
  13 C :   -0.034418
  14 C :    0.012387
  15 C :    0.044313
  16 C :    0.000520
  17 C :   -0.189818
  18 O :    0.396392
  19 C :    0.033235
  20 H :   -0.027296
  21 H :   -0.025387
  22 H :   -0.029198
  23 H :   -0.028709
  24 H :   -0.035268
  25 H :   -0.004797
  26 H :   -0.003802
  27 H :   -0.023443
  28 H :   -0.056362
  29 H :   -0.066335
  30 H :   -0.011764
  31 H :   -0.029372
  32 H :   -0.019104
  33 H :   -0.034061
  34 H :   -0.151807
  35 H :   -0.026616

  Mayer bond orders larger than 0.100000
B(  0-C ,  1-C ) :   0.9751 B(  0-C , 20-H ) :   0.9784 B(  0-C , 21-H ) :   0.9775
B(  0-C , 22-H ) :   0.9735 B(  1-C ,  2-O ) :   0.8874 B(  1-C , 23-H ) :   0.9827
B(  1-C , 24-H ) :   0.9684 B(  2-O ,  3-C ) :   1.1108 B(  3-C ,  4-O ) :   2.0200
B(  3-C ,  5-C ) :   1.0603 B(  5-C ,  6-C ) :   1.6260 B(  5-C , 12-C ) :   0.9521
B(  6-C ,  7-C ) :   0.9665 B(  6-C ,  8-N ) :   1.1639 B(  7-C , 25-H ) :   0.9625
B(  7-C , 26-H ) :   0.9559 B(  7-C , 27-H ) :   0.9899 B(  8-N ,  9-C ) :   1.1857
B(  8-N , 28-H ) :   0.9464 B(  9-C , 10-S ) :   1.5972 B(  9-C , 11-N ) :   1.3136
B( 11-N , 12-C ) :   0.9429 B( 11-N , 29-H ) :   0.9470 B( 12-C , 13-C ) :   0.9758
B( 12-C , 30-H ) :   0.9997 B( 13-C , 14-C ) :   1.3578 B( 13-C , 19-C ) :   1.3452
B( 14-C , 15-C ) :   1.4009 B( 14-C , 31-H ) :   0.9737 B( 15-C , 16-C ) :   1.3583
B( 15-C , 32-H ) :   0.9704 B( 16-C , 17-C ) :   1.3394 B( 16-C , 33-H ) :   0.9845
B( 17-C , 18-O ) :   1.1086 B( 17-C , 19-C ) :   1.3507 B( 18-O , 34-H ) :   0.9782
B( 19-C , 35-H ) :   0.9563

MP2 TOTAL ENERGY:    -1274.329224873 Eh
FINAL SINGLE POINT ENERGY     -1274.329224872565

DIPOLE MOMENT
-------------
                                X             Y             Z
Electronic contribution:      7.56971      11.05033       4.40029
Nuclear contribution   :     -8.65050     -12.44058      -4.00059
                        -----------------------------------------
Total Dipole Moment    :     -1.08079      -1.39025       0.39970
                        -----------------------------------------
Magnitude (a.u.)       :      1.80573
Magnitude (Debye)      :      4.58981

Rotational constants in cm-1:     0.012804     0.008406     0.006132
Rotational constants in MHz :   383.845343   252.003670   183.844290

                             ****ORCA TERMINATED NORMALLY****
TOTAL RUN TIME: 0 days 1 hours 50 minutes 16 seconds 862 msec
