                         Program Version 4.2.0 -  RELEASE  -
|  1> ! ri-mp2 cc-pvtz cc-pvtz/c TightSCF NoKeepInts
|  2>
|  3> %scf
|  4>   MaxCore 4096
|  5> end
|  6> *xyz  0  1
|  7>     C       14.1618010   14.9293794   15.4379852
|  8>     C       15.1569126   15.8299453   16.1874296
|  9>     O       16.3287719   15.9406464   15.3583456
| 10>     C       17.0054061   17.1208421   15.2145693
| 11>     O       17.5314004   17.4125054   14.1566157
| 12>     C       17.0577216   18.0152280   16.4146681
| 13>     C       16.9011647   19.3459147   16.2179939
| 14>     C       16.2809287   19.9944665   14.9987412
| 15>     N       17.3250424   20.2771234   17.1670933
| 16>     C       18.1434461   19.9737060   18.2219618
| 17>     S       18.7160286   21.1359093   19.2495484
| 18>     N       18.4851820   18.6519059   18.3687028
| 19>     C       17.9153679   17.5314477   17.5942716
| 20>     C       17.3124594   16.4451985   18.4681984
| 21>     C       17.7877396   15.1229310   18.3952250
| 22>     C       17.2258051   14.1193255   19.2021056
| 23>     C       16.1856973   14.4422351   20.0908233
| 24>     C       15.7166855   15.7607439   20.1702907
| 25>     O       14.7097009   16.0745132   21.0230539
| 26>     C       16.2754296   16.7576222   19.3640490
| 27>     H       13.2412432   14.8028991   16.0205837
| 28>     H       14.5966286   13.9373645   15.2624213
| 29>     H       13.8983218   15.3673376   14.4670180
| 30>     H       14.6925085   16.8100153   16.3601895
| 31>     H       15.3953655   15.3699691   17.1515963
| 32>     H       15.4790110   19.3728969   14.5815026
| 33>     H       17.0353534   20.1239290   14.2112320
| 34>     H       15.8493420   20.9777969   15.2205811
| 35>     H       17.1202944   21.2555834   17.0393286
| 36>     H       19.0819454   18.4564669   19.1630094
| 37>     H       18.8368944   17.1547343   17.1265769
| 38>     H       18.5880273   14.8698237   17.7038640
| 39>     H       17.5961803   13.0973215   19.1366180
| 40>     H       15.7492345   13.6694060   20.7154240
| 41>     H       14.5003225   15.2784216   21.5351155
| 42>     H       15.9036358   17.7744446   19.4412664
| 43> *
| 44>
| 45>                          ****END OF INPUT****

CARTESIAN COORDINATES (ANGSTROEM)
---------------------------------
  C     14.161801   14.929379   15.437985
  C     15.156913   15.829945   16.187430
  O     16.328772   15.940646   15.358346
  C     17.005406   17.120842   15.214569
  O     17.531400   17.412505   14.156616
  C     17.057722   18.015228   16.414668
  C     16.901165   19.345915   16.217994
  C     16.280929   19.994467   14.998741
  N     17.325042   20.277123   17.167093
  C     18.143446   19.973706   18.221962
  S     18.716029   21.135909   19.249548
  N     18.485182   18.651906   18.368703
  C     17.915368   17.531448   17.594272
  C     17.312459   16.445199   18.468198
  C     17.787740   15.122931   18.395225
  C     17.225805   14.119326   19.202106
  C     16.185697   14.442235   20.090823
  C     15.716686   15.760744   20.170291
  O     14.709701   16.074513   21.023054
  C     16.275430   16.757622   19.364049
  H     13.241243   14.802899   16.020584
  H     14.596629   13.937364   15.262421
  H     13.898322   15.367338   14.467018
  H     14.692509   16.810015   16.360190
  H     15.395366   15.369969   17.151596
  H     15.479011   19.372897   14.581503
  H     17.035353   20.123929   14.211232
  H     15.849342   20.977797   15.220581
  H     17.120294   21.255583   17.039329
  H     19.081945   18.456467   19.163009
  H     18.836894   17.154734   17.126577
  H     18.588027   14.869824   17.703864
  H     17.596180   13.097321   19.136618
  H     15.749234   13.669406   20.715424
  H     14.500322   15.278422   21.535115
  H     15.903636   17.774445   19.441266

 Total Charge           Charge          ....    0
 Multiplicity           Mult            ....    1
 Number of Electrons    NEL             ....  154
 Basis Dimension        Dim             ....  828

ORBITAL ENERGIES
----------------

  NO   OCC          E(Eh)            E(eV)
   0   2.0000     -91.890423     -2500.4655
   1   2.0000     -20.605156      -560.6948
   2   2.0000     -20.596157      -560.4499
   3   2.0000     -20.549839      -559.1896
   4   2.0000     -15.627687      -425.2510
   5   2.0000     -15.610876      -424.7935
   6   2.0000     -11.394575      -310.0622
   7   2.0000     -11.385584      -309.8175
   8   2.0000     -11.330635      -308.3222
   9   2.0000     -11.323608      -308.1310
  10   2.0000     -11.316721      -307.9436
  11   2.0000     -11.296593      -307.3959
  12   2.0000     -11.269637      -306.6624
  13   2.0000     -11.264883      -306.5330
  14   2.0000     -11.257126      -306.3220
  15   2.0000     -11.256576      -306.3070
  16   2.0000     -11.253933      -306.2351
  17   2.0000     -11.248332      -306.0827
  18   2.0000     -11.247863      -306.0699
  19   2.0000     -11.228253      -305.5363
  20   2.0000      -8.895494      -242.0587
  21   2.0000      -6.577065      -178.9710
  22   2.0000      -6.575066      -178.9166
  23   2.0000      -6.574475      -178.9006
  24   2.0000      -1.446863       -39.3712
  25   2.0000      -1.424934       -38.7744
  26   2.0000      -1.359370       -36.9903
  27   2.0000      -1.340819       -36.4855
  28   2.0000      -1.240462       -33.7547
  29   2.0000      -1.166939       -31.7540
  30   2.0000      -1.125105       -30.6157
  31   2.0000      -1.051314       -28.6077
  32   2.0000      -1.035656       -28.1816
  33   2.0000      -1.024884       -27.8885
  34   2.0000      -1.002983       -27.2925
  35   2.0000      -0.989139       -26.9158
  36   2.0000      -0.927395       -25.2357
  37   2.0000      -0.877623       -23.8813
  38   2.0000      -0.852738       -23.2042
  39   2.0000      -0.844662       -22.9844
  40   2.0000      -0.843733       -22.9591
  41   2.0000      -0.837654       -22.7937
  42   2.0000      -0.760047       -20.6819
  43   2.0000      -0.740109       -20.1394
  44   2.0000      -0.726017       -19.7559
  45   2.0000      -0.703833       -19.1523
  46   2.0000      -0.692734       -18.8502
  47   2.0000      -0.677860       -18.4455
  48   2.0000      -0.675611       -18.3843
  49   2.0000      -0.669966       -18.2307
  50   2.0000      -0.651210       -17.7203
  51   2.0000      -0.649558       -17.6754
  52   2.0000      -0.637658       -17.3515
  53   2.0000      -0.614917       -16.7327
  54   2.0000      -0.609265       -16.5789
  55   2.0000      -0.604326       -16.4445
  56   2.0000      -0.589517       -16.0416
  57   2.0000      -0.583091       -15.8667
  58   2.0000      -0.575503       -15.6602
  59   2.0000      -0.569811       -15.5054
  60   2.0000      -0.563295       -15.3280
  61   2.0000      -0.555226       -15.1085
  62   2.0000      -0.546638       -14.8748
  63   2.0000      -0.530904       -14.4466
  64   2.0000      -0.522290       -14.2122
  65   2.0000      -0.516342       -14.0504
  66   2.0000      -0.506067       -13.7708
  67   2.0000      -0.502420       -13.6715
  68   2.0000      -0.487250       -13.2587
  69   2.0000      -0.469554       -12.7772
  70   2.0000      -0.453671       -12.3450
  71   2.0000      -0.448155       -12.1949
  72   2.0000      -0.358612        -9.7583
  73   2.0000      -0.352905        -9.6030
  74   2.0000      -0.332926        -9.0594
  75   2.0000      -0.328970        -8.9517
  76   2.0000      -0.320026        -8.7083
  77   0.0000       0.081801         2.2259
  78   0.0000       0.095347         2.5945
  79   0.0000       0.118045         3.2122
  80   0.0000       0.126280         3.4362
  81   0.0000       0.129115         3.5134

MULLIKEN ATOMIC CHARGES
-----------------------
   0 C :   -0.254486
   1 C :    0.017226
   2 O :   -0.310897
   3 C :    0.402932
   4 O :   -0.373625
   5 C :   -0.230874
   6 C :    0.160910
   7 C :   -0.279045
   8 N :   -0.131692
   9 C :    0.211372
  10 S :   -0.439831
  11 N :   -0.209819
  12 C :    0.020416
  13 C :   -0.018890
  14 C :   -0.166768
  15 C :   -0.136610
  16 C :   -0.269691
  17 C :    0.299385
  18 O :   -0.355097
  19 C :   -0.208781
  20 H :    0.087800
  21 H :    0.099730
  22 H :    0.099576
  23 H :    0.094672
  24 H :    0.110314
  25 H :    0.113569
  26 H :    0.144053
  27 H :    0.098074
  28 H :    0.198365
  29 H :    0.199504
  30 H :    0.159179
  31 H :    0.156843
  32 H :    0.164653
  33 H :    0.135466
  34 H :    0.241992
  35 H :    0.170075
Sum of atomic charges:   -0.0000000

LOEWDIN ATOMIC CHARGES
----------------------
   0 C :    0.108869
   1 C :   -0.024122
   2 O :    0.308243
   3 C :   -0.422575
   4 O :    0.125318
   5 C :   -0.098117
   6 C :   -0.077863
   7 C :    0.129232
   8 N :    0.405522
   9 C :   -0.455591
  10 S :   -0.035226
  11 N :    0.395631
  12 C :   -0.054878
  13 C :   -0.046201
  14 C :    0.018368
  15 C :    0.043523
  16 C :    0.001875
  17 C :   -0.192105
  18 O :    0.397210
  19 C :    0.034405
  20 H :   -0.026629
  21 H :   -0.025145
  22 H :   -0.026287
  23 H :   -0.035886
  24 H :   -0.031961
  25 H :   -0.009894
  26 H :   -0.003521
  27 H :   -0.020940
  28 H :   -0.057251
  29 H :   -0.063708
  30 H :   -0.009961
  31 H :   -0.026053
  32 H :   -0.018190
  33 H :   -0.033050
  34 H :   -0.152039
  35 H :   -0.021005

  Mayer bond orders larger than 0.100000
B(  0-C ,  1-C ) :   0.9837 B(  0-C , 20-H ) :   0.9775 B(  0-C , 21-H ) :   0.9792
B(  0-C , 22-H ) :   0.9793 B(  1-C ,  2-O ) :   0.8957 B(  1-C , 23-H ) :   0.9673
B(  1-C , 24-H ) :   0.9679 B(  2-O ,  3-C ) :   1.1906 B(  3-C ,  4-O ) :   2.1176
B(  3-C ,  5-C ) :   0.9419 B(  5-C ,  6-C ) :   1.6808 B(  5-C , 12-C ) :   0.9654
B(  6-C ,  7-C ) :   0.9484 B(  6-C ,  8-N ) :   1.1328 B(  7-C , 25-H ) :   0.9769
B(  7-C , 26-H ) :   0.9561 B(  7-C , 27-H ) :   0.9846 B(  8-N ,  9-C ) :   1.1957
B(  8-N , 28-H ) :   0.9490 B(  9-C , 10-S ) :   1.6132 B(  9-C , 11-N ) :   1.2905
B( 11-N , 12-C ) :   0.9785 B( 11-N , 29-H ) :   0.9476 B( 12-C , 13-C ) :   0.9561
B( 12-C , 30-H ) :   1.0072 B( 13-C , 14-C ) :   1.3672 B( 13-C , 19-C ) :   1.3634
B( 14-C , 15-C ) :   1.3962 B( 14-C , 31-H ) :   0.9691 B( 15-C , 16-C ) :   1.3627
B( 15-C , 32-H ) :   0.9702 B( 16-C , 17-C ) :   1.3271 B( 16-C , 33-H ) :   0.9834
B( 17-C , 18-O ) :   1.1109 B( 17-C , 19-C ) :   1.3691 B( 18-O , 34-H ) :   0.9784
B( 19-C , 35-H ) :   0.9589

MP2 TOTAL ENERGY:    -1274.325163658 Eh
FINAL SINGLE POINT ENERGY     -1274.325163658115

DIPOLE MOMENT
-------------
                                X             Y             Z
Electronic contribution:     10.49062       9.26519       7.00212
Nuclear contribution   :    -11.99383     -10.84331      -6.64843
                        -----------------------------------------
Total Dipole Moment    :     -1.50321      -1.57811       0.35369
                        -----------------------------------------
Magnitude (a.u.)       :      2.20798
Magnitude (Debye)      :      5.61225

Rotational constants in cm-1:     0.011918     0.008834     0.006033
Rotational constants in MHz :   357.305114   264.825151   180.872566

                             ****ORCA TERMINATED NORMALLY****
TOTAL RUN TIME: 0 days 1 hours 48 minutes 4 seconds 207 msec
