                         Program Version 4.2.0 -  RELEASE  -
|  1> ! ri-mp2 cc-pvtz cc-pvtz/c TightSCF NoKeepInts
|  2>
|  3> %scf
|  4>   MaxCore 4096
|  5> end
|  6> *xyz  0  1
|  7>     C       14.3519599   16.1693438   15.2964344
|  8>     C       15.4307276   15.3645377   16.0506097
|  9>     O       16.7364576   15.6214444   15.4860928
| 10>     C       17.2080769   16.8867509   15.2705467
| 11>     O       17.6856579   17.1961453   14.1944878
| 12>     C       17.0905327   17.8385759   16.4236417
| 13>     C       16.8771954   19.1501470   16.1548630
| 14>     C       16.3456430   19.7265352   14.8591166
| 15>     N       17.1523912   20.1404947   17.0989795
| 16>     C       17.8849769   19.9313612   18.2361021
| 17>     S       18.2902738   21.1668382   19.2578089
| 18>     N       18.2896431   18.6410900   18.4714976
| 19>     C       17.8569531   17.4570203   17.7030337
| 20>     C       17.2464985   16.3728662   18.5764615
| 21>     C       17.7509702   15.0598036   18.5436729
| 22>     C       17.1822706   14.0576962   19.3474843
| 23>     C       16.1056242   14.3728564   20.1942929
| 24>     C       15.6067514   15.6821303   20.2345236
| 25>     O       14.5650620   15.9883018   21.0475515
| 26>     C       16.1723612   16.6772825   19.4309658
| 27>     H       14.4158241   17.2389396   15.5266247
| 28>     H       13.3516608   15.8264643   15.5879625
| 29>     H       14.4542045   16.0350949   14.2117879
| 30>     H       15.3825744   15.6189471   17.1118325
| 31>     H       15.2127440   14.2925270   15.9605848
| 32>     H       15.6658470   19.0278021   14.3569063
| 33>     H       17.1725000   19.9267154   14.1649647
| 34>     H       15.7946848   20.6621209   15.0122181
| 35>     H       16.9023214   21.0982676   16.9101477
| 36>     H       18.8204820   18.5147231   19.3244108
| 37>     H       18.8389770   17.1189253   17.3412161
| 38>     H       18.5792301   14.8125112   17.8838147
| 39>     H       17.5763149   13.0431119   19.3125877
| 40>     H       15.6641582   13.6015783   20.8172394
| 41>     H       14.3513989   15.1950047   21.5619481
| 42>     H       15.7740511   17.6860452   19.4755871
| 43> *
| 44>
| 45>                          ****END OF INPUT****

CARTESIAN COORDINATES (ANGSTROEM)
---------------------------------
  C     14.351960   16.169344   15.296434
  C     15.430728   15.364538   16.050610
  O     16.736458   15.621444   15.486093
  C     17.208077   16.886751   15.270547
  O     17.685658   17.196145   14.194488
  C     17.090533   17.838576   16.423642
  C     16.877195   19.150147   16.154863
  C     16.345643   19.726535   14.859117
  N     17.152391   20.140495   17.098979
  C     17.884977   19.931361   18.236102
  S     18.290274   21.166838   19.257809
  N     18.289643   18.641090   18.471498
  C     17.856953   17.457020   17.703034
  C     17.246498   16.372866   18.576461
  C     17.750970   15.059804   18.543673
  C     17.182271   14.057696   19.347484
  C     16.105624   14.372856   20.194293
  C     15.606751   15.682130   20.234524
  O     14.565062   15.988302   21.047552
  C     16.172361   16.677283   19.430966
  H     14.415824   17.238940   15.526625
  H     13.351661   15.826464   15.587962
  H     14.454204   16.035095   14.211788
  H     15.382574   15.618947   17.111832
  H     15.212744   14.292527   15.960585
  H     15.665847   19.027802   14.356906
  H     17.172500   19.926715   14.164965
  H     15.794685   20.662121   15.012218
  H     16.902321   21.098268   16.910148
  H     18.820482   18.514723   19.324411
  H     18.838977   17.118925   17.341216
  H     18.579230   14.812511   17.883815
  H     17.576315   13.043112   19.312588
  H     15.664158   13.601578   20.817239
  H     14.351399   15.195005   21.561948
  H     15.774051   17.686045   19.475587

 Total Charge           Charge          ....    0
 Multiplicity           Mult            ....    1
 Number of Electrons    NEL             ....  154
 Basis Dimension        Dim             ....  828

ORBITAL ENERGIES
----------------

  NO   OCC          E(Eh)            E(eV)
   0   2.0000     -91.890835     -2500.4767
   1   2.0000     -20.603645      -560.6537
   2   2.0000     -20.590065      -560.2842
   3   2.0000     -20.551669      -559.2393
   4   2.0000     -15.628429      -425.2712
   5   2.0000     -15.610726      -424.7894
   6   2.0000     -11.394693      -310.0654
   7   2.0000     -11.385737      -309.8216
   8   2.0000     -11.332837      -308.3822
   9   2.0000     -11.321933      -308.0855
  10   2.0000     -11.316061      -307.9257
  11   2.0000     -11.299552      -307.4764
  12   2.0000     -11.268495      -306.6313
  13   2.0000     -11.262819      -306.4769
  14   2.0000     -11.257750      -306.3390
  15   2.0000     -11.255767      -306.2850
  16   2.0000     -11.251822      -306.1776
  17   2.0000     -11.246649      -306.0369
  18   2.0000     -11.245985      -306.0188
  19   2.0000     -11.232368      -305.6483
  20   2.0000      -8.895896      -242.0696
  21   2.0000      -6.577466      -178.9819
  22   2.0000      -6.575469      -178.9276
  23   2.0000      -6.574875      -178.9115
  24   2.0000      -1.444946       -39.3190
  25   2.0000      -1.423427       -38.7334
  26   2.0000      -1.357244       -36.9325
  27   2.0000      -1.341519       -36.5046
  28   2.0000      -1.240839       -33.7649
  29   2.0000      -1.165106       -31.7041
  30   2.0000      -1.124156       -30.5898
  31   2.0000      -1.049734       -28.5647
  32   2.0000      -1.034408       -28.1477
  33   2.0000      -1.023126       -27.8407
  34   2.0000      -1.003048       -27.2943
  35   2.0000      -0.989262       -26.9192
  36   2.0000      -0.926722       -25.2174
  37   2.0000      -0.895092       -24.3567
  38   2.0000      -0.850839       -23.1525
  39   2.0000      -0.844081       -22.9686
  40   2.0000      -0.841936       -22.9103
  41   2.0000      -0.830292       -22.5934
  42   2.0000      -0.752612       -20.4796
  43   2.0000      -0.738613       -20.0987
  44   2.0000      -0.717811       -19.5326
  45   2.0000      -0.701829       -19.0977
  46   2.0000      -0.690786       -18.7972
  47   2.0000      -0.680671       -18.5220
  48   2.0000      -0.676006       -18.3951
  49   2.0000      -0.666074       -18.1248
  50   2.0000      -0.650756       -17.7080
  51   2.0000      -0.648891       -17.6572
  52   2.0000      -0.635898       -17.3037
  53   2.0000      -0.622552       -16.9405
  54   2.0000      -0.612621       -16.6703
  55   2.0000      -0.606587       -16.5061
  56   2.0000      -0.603090       -16.4109
  57   2.0000      -0.582806       -15.8589
  58   2.0000      -0.577301       -15.7092
  59   2.0000      -0.566850       -15.4248
  60   2.0000      -0.555078       -15.1045
  61   2.0000      -0.548764       -14.9326
  62   2.0000      -0.544732       -14.8229
  63   2.0000      -0.533858       -14.5270
  64   2.0000      -0.528392       -14.3783
  65   2.0000      -0.517421       -14.0797
  66   2.0000      -0.505011       -13.7420
  67   2.0000      -0.500125       -13.6091
  68   2.0000      -0.482222       -13.1219
  69   2.0000      -0.467793       -12.7293
  70   2.0000      -0.453194       -12.3320
  71   2.0000      -0.450508       -12.2590
  72   2.0000      -0.357483        -9.7276
  73   2.0000      -0.353017        -9.6061
  74   2.0000      -0.330886        -9.0039
  75   2.0000      -0.328780        -8.9466
  76   2.0000      -0.320775        -8.7287
  77   0.0000       0.079817         2.1719
  78   0.0000       0.097363         2.6494
  79   0.0000       0.121570         3.3081
  80   0.0000       0.127015         3.4563
  81   0.0000       0.129537         3.5249

MULLIKEN ATOMIC CHARGES
-----------------------
   0 C :   -0.315970
   1 C :    0.036358
   2 O :   -0.346541
   3 C :    0.427420
   4 O :   -0.370345
   5 C :   -0.233888
   6 C :    0.158256
   7 C :   -0.284422
   8 N :   -0.131429
   9 C :    0.209832
  10 S :   -0.438785
  11 N :   -0.211567
  12 C :    0.028903
  13 C :    0.000418
  14 C :   -0.177317
  15 C :   -0.133689
  16 C :   -0.271570
  17 C :    0.303803
  18 O :   -0.355072
  19 C :   -0.228120
  20 H :    0.093852
  21 H :    0.109372
  22 H :    0.116578
  23 H :    0.102492
  24 H :    0.121654
  25 H :    0.118362
  26 H :    0.146014
  27 H :    0.098965
  28 H :    0.198815
  29 H :    0.200521
  30 H :    0.156503
  31 H :    0.156997
  32 H :    0.165314
  33 H :    0.135015
  34 H :    0.241543
  35 H :    0.171730
Sum of atomic charges:   -0.0000000

LOEWDIN ATOMIC CHARGES
----------------------
   0 C :    0.103572
   1 C :   -0.016667
   2 O :    0.296129
   3 C :   -0.425032
   4 O :    0.129244
   5 C :   -0.099122
   6 C :   -0.071732
   7 C :    0.128827
   8 N :    0.406581
   9 C :   -0.456807
  10 S :   -0.034383
  11 N :    0.395807
  12 C :   -0.053943
  13 C :   -0.046516
  14 C :    0.021512
  15 C :    0.044015
  16 C :    0.001456
  17 C :   -0.192353
  18 O :    0.396847
  19 C :    0.030271
  20 H :   -0.034744
  21 H :   -0.023410
  22 H :   -0.023065
  23 H :   -0.037495
  24 H :   -0.020761
  25 H :   -0.011115
  26 H :   -0.003668
  27 H :   -0.021138
  28 H :   -0.056708
  29 H :   -0.063496
  30 H :   -0.010378
  31 H :   -0.025888
  32 H :   -0.018489
  33 H :   -0.033590
  34 H :   -0.152408
  35 H :   -0.021352

  Mayer bond orders larger than 0.100000
B(  0-C ,  1-C ) :   0.9680 B(  0-C , 20-H ) :   0.9740 B(  0-C , 21-H ) :   0.9777
B(  0-C , 22-H ) :   0.9744 B(  1-C ,  2-O ) :   0.8922 B(  1-C , 23-H ) :   0.9612
B(  1-C , 24-H ) :   0.9819 B(  2-O ,  3-C ) :   1.1442 B(  3-C ,  4-O ) :   2.1095
B(  3-C ,  5-C ) :   0.9538 B(  5-C ,  6-C ) :   1.6704 B(  5-C , 12-C ) :   0.9642
B(  6-C ,  7-C ) :   0.9533 B(  6-C ,  8-N ) :   1.1383 B(  7-C , 25-H ) :   0.9748
B(  7-C , 26-H ) :   0.9556 B(  7-C , 27-H ) :   0.9838 B(  8-N ,  9-C ) :   1.1941
B(  8-N , 28-H ) :   0.9490 B(  9-C , 10-S ) :   1.6144 B(  9-C , 11-N ) :   1.2908
B( 11-N , 12-C ) :   0.9819 B( 11-N , 29-H ) :   0.9469 B( 12-C , 13-C ) :   0.9593
B( 12-C , 30-H ) :   1.0054 B( 13-C , 14-C ) :   1.3742 B( 13-C , 19-C ) :   1.3590
B( 14-C , 15-C ) :   1.3932 B( 14-C , 31-H ) :   0.9682 B( 15-C , 16-C ) :   1.3618
B( 15-C , 32-H ) :   0.9692 B( 16-C , 17-C ) :   1.3313 B( 16-C , 33-H ) :   0.9832
B( 17-C , 18-O ) :   1.1104 B( 17-C , 19-C ) :   1.3622 B( 18-O , 34-H ) :   0.9788
B( 19-C , 35-H ) :   0.9589

MP2 TOTAL ENERGY:    -1274.322440831 Eh
FINAL SINGLE POINT ENERGY     -1274.322440831391

DIPOLE MOMENT
-------------
                                X             Y             Z
Electronic contribution:      9.56758       7.01030       7.75909
Nuclear contribution   :    -10.99550      -8.66719      -7.56386
                        -----------------------------------------
Total Dipole Moment    :     -1.42792      -1.65689       0.19523
                        -----------------------------------------
Magnitude (a.u.)       :      2.19598
Magnitude (Debye)      :      5.58174

Rotational constants in cm-1:     0.011748     0.009176     0.006221
Rotational constants in MHz :   352.197163   275.091025   186.515010

                             ****ORCA TERMINATED NORMALLY****
TOTAL RUN TIME: 0 days 1 hours 49 minutes 24 seconds 808 msec
