                         Program Version 4.2.0 -  RELEASE  -
|  1> ! ri-mp2 cc-pvtz cc-pvtz/c TightSCF NoKeepInts
|  2>
|  3> %scf
|  4>   MaxCore 4096
|  5> end
|  6> *xyz  0  1
|  7>     C       14.6570035   15.4413605   16.3341763
|  8>     C       15.7657991   14.9383307   15.3886265
|  9>     O       16.9938106   15.6753465   15.5627998
| 10>     C       17.0105221   16.9821245   15.1778251
| 11>     O       16.8387307   17.2794386   14.0090921
| 12>     C       17.0601127   17.9574339   16.3251875
| 13>     C       16.9248404   19.2884863   16.0865977
| 14>     C       16.3566870   19.9462986   14.8455862
| 15>     N       17.3108857   20.2366379   17.0362929
| 16>     C       18.0653009   19.9563386   18.1422798
| 17>     S       18.6011405   21.1423070   19.1627885
| 18>     N       18.3765533   18.6365154   18.3465430
| 19>     C       17.8272105   17.5004404   17.5811837
| 20>     C       17.1202440   16.4959973   18.4802884
| 21>     C       17.5823917   15.1708108   18.5830806
| 22>     C       16.9482837   14.2587435   19.4435900
| 23>     C       15.8503626   14.6782198   20.2146339
| 24>     C       15.3952886   16.0009891   20.1224501
| 25>     O       14.3359611   16.4086557   20.8653975
| 26>     C       16.0260502   16.9055011   19.2622071
| 27>     H       14.8960060   15.1990492   17.3739883
| 28>     H       13.7067645   14.9497210   16.0934633
| 29>     H       14.5051372   16.5237590   16.2463550
| 30>     H       15.9494524   13.8750270   15.5892850
| 31>     H       15.4278444   15.0261521   14.3468205
| 32>     H       17.0848620   19.9144150   14.0247827
| 33>     H       16.0784738   20.9945290   15.0064549
| 34>     H       15.4550778   19.4219888   14.5044463
| 35>     H       17.1173684   21.2125007   16.8770508
| 36>     H       18.9156015   18.4564084   19.1843119
| 37>     H       18.7674232   17.0756343   17.2016030
| 38>     H       18.4317433   14.8458415   17.9875797
| 39>     H       17.3098063   13.2341537   19.5128769
| 40>     H       15.3588924   13.9777380   20.8819019
| 41>     H       14.0689421   15.6651466   21.4266374
| 42>     H       15.6664258   17.9279597   19.2098156
| 43> *
| 44>
| 45>                          ****END OF INPUT****

CARTESIAN COORDINATES (ANGSTROEM)
---------------------------------
  C     14.657003   15.441360   16.334176
  C     15.765799   14.938331   15.388627
  O     16.993811   15.675346   15.562800
  C     17.010522   16.982125   15.177825
  O     16.838731   17.279439   14.009092
  C     17.060113   17.957434   16.325187
  C     16.924840   19.288486   16.086598
  C     16.356687   19.946299   14.845586
  N     17.310886   20.236638   17.036293
  C     18.065301   19.956339   18.142280
  S     18.601140   21.142307   19.162789
  N     18.376553   18.636515   18.346543
  C     17.827210   17.500440   17.581184
  C     17.120244   16.495997   18.480288
  C     17.582392   15.170811   18.583081
  C     16.948284   14.258743   19.443590
  C     15.850363   14.678220   20.214634
  C     15.395289   16.000989   20.122450
  O     14.335961   16.408656   20.865397
  C     16.026050   16.905501   19.262207
  H     14.896006   15.199049   17.373988
  H     13.706764   14.949721   16.093463
  H     14.505137   16.523759   16.246355
  H     15.949452   13.875027   15.589285
  H     15.427844   15.026152   14.346820
  H     17.084862   19.914415   14.024783
  H     16.078474   20.994529   15.006455
  H     15.455078   19.421989   14.504446
  H     17.117368   21.212501   16.877051
  H     18.915602   18.456408   19.184312
  H     18.767423   17.075634   17.201603
  H     18.431743   14.845841   17.987580
  H     17.309806   13.234154   19.512877
  H     15.358892   13.977738   20.881902
  H     14.068942   15.665147   21.426637
  H     15.666426   17.927960   19.209816

 Total Charge           Charge          ....    0
 Multiplicity           Mult            ....    1
 Number of Electrons    NEL             ....  154
 Basis Dimension        Dim             ....  828

ORBITAL ENERGIES
----------------

  NO   OCC          E(Eh)            E(eV)
   0   2.0000     -91.891079     -2500.4834
   1   2.0000     -20.599229      -560.5335
   2   2.0000     -20.583435      -560.1037
   3   2.0000     -20.547919      -559.1373
   4   2.0000     -15.631065      -425.3429
   5   2.0000     -15.608956      -424.7413
   6   2.0000     -11.393046      -310.0205
   7   2.0000     -11.385191      -309.8068
   8   2.0000     -11.339237      -308.5563
   9   2.0000     -11.316578      -307.9398
  10   2.0000     -11.311438      -307.7999
  11   2.0000     -11.298311      -307.4427
  12   2.0000     -11.263405      -306.4928
  13   2.0000     -11.259743      -306.3932
  14   2.0000     -11.258080      -306.3479
  15   2.0000     -11.253749      -306.2301
  16   2.0000     -11.247152      -306.0506
  17   2.0000     -11.241686      -305.9018
  18   2.0000     -11.241191      -305.8884
  19   2.0000     -11.223504      -305.4071
  20   2.0000      -8.896120      -242.0757
  21   2.0000      -6.577684      -178.9879
  22   2.0000      -6.575695      -178.9337
  23   2.0000      -6.575095      -178.9174
  24   2.0000      -1.448357       -39.4118
  25   2.0000      -1.419019       -38.6135
  26   2.0000      -1.352730       -36.8097
  27   2.0000      -1.342884       -36.5417
  28   2.0000      -1.240819       -33.7644
  29   2.0000      -1.160196       -31.5705
  30   2.0000      -1.122547       -30.5461
  31   2.0000      -1.045221       -28.4419
  32   2.0000      -1.032097       -28.0848
  33   2.0000      -1.017914       -27.6989
  34   2.0000      -1.000217       -27.2173
  35   2.0000      -0.987507       -26.8714
  36   2.0000      -0.924358       -25.1531
  37   2.0000      -0.893086       -24.3021
  38   2.0000      -0.848618       -23.0921
  39   2.0000      -0.841192       -22.8900
  40   2.0000      -0.837139       -22.7797
  41   2.0000      -0.817422       -22.2432
  42   2.0000      -0.753656       -20.5080
  43   2.0000      -0.736039       -20.0286
  44   2.0000      -0.723804       -19.6957
  45   2.0000      -0.697725       -18.9861
  46   2.0000      -0.690178       -18.7807
  47   2.0000      -0.675158       -18.3720
  48   2.0000      -0.671313       -18.2674
  49   2.0000      -0.667735       -18.1700
  50   2.0000      -0.647909       -17.6305
  51   2.0000      -0.645247       -17.5581
  52   2.0000      -0.636868       -17.3300
  53   2.0000      -0.610221       -16.6050
  54   2.0000      -0.608026       -16.5452
  55   2.0000      -0.601426       -16.3656
  56   2.0000      -0.599685       -16.3183
  57   2.0000      -0.579041       -15.7565
  58   2.0000      -0.571932       -15.5631
  59   2.0000      -0.566383       -15.4121
  60   2.0000      -0.559091       -15.2136
  61   2.0000      -0.547302       -14.8928
  62   2.0000      -0.542426       -14.7602
  63   2.0000      -0.525545       -14.3008
  64   2.0000      -0.523204       -14.2371
  65   2.0000      -0.514749       -14.0070
  66   2.0000      -0.503622       -13.7042
  67   2.0000      -0.501363       -13.6428
  68   2.0000      -0.476886       -12.9767
  69   2.0000      -0.464621       -12.6430
  70   2.0000      -0.452118       -12.3028
  71   2.0000      -0.447601       -12.1798
  72   2.0000      -0.355551        -9.6750
  73   2.0000      -0.351309        -9.5596
  74   2.0000      -0.330028        -8.9805
  75   2.0000      -0.324595        -8.8327
  76   2.0000      -0.320630        -8.7248
  77   0.0000       0.070862         1.9283
  78   0.0000       0.102200         2.7810
  79   0.0000       0.121293         3.3006
  80   0.0000       0.129733         3.5302
  81   0.0000       0.132800         3.6137

MULLIKEN ATOMIC CHARGES
-----------------------
   0 C :   -0.318893
   1 C :    0.033749
   2 O :   -0.379030
   3 C :    0.461320
   4 O :   -0.401715
   5 C :   -0.231709
   6 C :    0.159915
   7 C :   -0.267550
   8 N :   -0.125299
   9 C :    0.206160
  10 S :   -0.436918
  11 N :   -0.209795
  12 C :    0.037093
  13 C :    0.013199
  14 C :   -0.179006
  15 C :   -0.134644
  16 C :   -0.272784
  17 C :    0.300803
  18 O :   -0.359027
  19 C :   -0.218748
  20 H :    0.112890
  21 H :    0.116597
  22 H :    0.097523
  23 H :    0.111492
  24 H :    0.115735
  25 H :    0.135803
  26 H :    0.094221
  27 H :    0.125496
  28 H :    0.200095
  29 H :    0.199597
  30 H :    0.152758
  31 H :    0.158955
  32 H :    0.163046
  33 H :    0.132522
  34 H :    0.240843
  35 H :    0.165304
Sum of atomic charges:   -0.0000000

LOEWDIN ATOMIC CHARGES
----------------------
   0 C :    0.106413
   1 C :   -0.018349
   2 O :    0.290950
   3 C :   -0.423082
   4 O :    0.116702
   5 C :   -0.101936
   6 C :   -0.055544
   7 C :    0.130305
   8 N :    0.408041
   9 C :   -0.458998
  10 S :   -0.032958
  11 N :    0.395949
  12 C :   -0.053133
  13 C :   -0.042187
  14 C :    0.020138
  15 C :    0.038653
  16 C :   -0.001608
  17 C :   -0.193035
  18 O :    0.396206
  19 C :    0.034307
  20 H :   -0.026796
  21 H :   -0.025004
  22 H :   -0.030931
  23 H :   -0.022493
  24 H :   -0.028385
  25 H :   -0.004181
  26 H :   -0.023115
  27 H :   -0.006306
  28 H :   -0.056604
  29 H :   -0.063320
  30 H :   -0.011751
  31 H :   -0.026904
  32 H :   -0.020367
  33 H :   -0.034794
  34 H :   -0.153425
  35 H :   -0.022458

  Mayer bond orders larger than 0.100000
B(  0-C ,  1-C ) :   0.9563 B(  0-C , 20-H ) :   0.9715 B(  0-C , 21-H ) :   0.9780
B(  0-C , 22-H ) :   0.9726 B(  1-C ,  2-O ) :   0.8900 B(  1-C , 23-H ) :   0.9840
B(  1-C , 24-H ) :   0.9835 B(  2-O ,  3-C ) :   1.1065 B(  3-C ,  4-O ) :   2.0351
B(  3-C ,  5-C ) :   1.0505 B(  5-C ,  6-C ) :   1.6339 B(  5-C , 12-C ) :   0.9629
B(  6-C ,  7-C ) :   0.9671 B(  6-C ,  8-N ) :   1.1498 B(  7-C , 25-H ) :   0.9554
B(  7-C , 26-H ) :   0.9881 B(  7-C , 27-H ) :   0.9664 B(  8-N ,  9-C ) :   1.1850
B(  8-N , 28-H ) :   0.9471 B(  9-C , 10-S ) :   1.6152 B(  9-C , 11-N ) :   1.3021
B( 11-N , 12-C ) :   0.9762 B( 11-N , 29-H ) :   0.9485 B( 12-C , 13-C ) :   0.9550
B( 12-C , 30-H ) :   1.0041 B( 13-C , 14-C ) :   1.3643 B( 13-C , 19-C ) :   1.3701
B( 14-C , 15-C ) :   1.3925 B( 14-C , 31-H ) :   0.9674 B( 15-C , 16-C ) :   1.3553
B( 15-C , 32-H ) :   0.9706 B( 16-C , 17-C ) :   1.3346 B( 16-C , 33-H ) :   0.9846
B( 17-C , 18-O ) :   1.1072 B( 17-C , 19-C ) :   1.3658 B( 18-O , 34-H ) :   0.9795
B( 19-C , 35-H ) :   0.9602

MP2 TOTAL ENERGY:    -1274.326106165 Eh
FINAL SINGLE POINT ENERGY     -1274.326106164681

DIPOLE MOMENT
-------------
                                X             Y             Z
Electronic contribution:      8.92673       9.19859       5.98698
Nuclear contribution   :    -10.01560     -10.86009      -6.02448
                        -----------------------------------------
Total Dipole Moment    :     -1.08886      -1.66150      -0.03750
                        -----------------------------------------
Magnitude (a.u.)       :      1.98686
Magnitude (Debye)      :      5.05021

Rotational constants in cm-1:     0.012088     0.009155     0.006180
Rotational constants in MHz :   362.403384   274.455186   185.271586

                             ****ORCA TERMINATED NORMALLY****
TOTAL RUN TIME: 0 days 1 hours 59 minutes 46 seconds 812 msec
