                         Program Version 4.2.0 -  RELEASE  -
|  1> ! ri-mp2 cc-pvtz cc-pvtz/c TightSCF NoKeepInts
|  2>
|  3> %scf
|  4>   MaxCore 4096
|  5> end
|  6> *xyz  0  1
|  7>     C       14.4817216   15.0763426   14.8104466
|  8>     C       15.6853104   14.9066448   15.7612038
|  9>     O       16.6819093   15.9515558   15.6455949
| 10>     C       16.3801947   17.2761527   15.4728190
| 11>     O       15.7007049   17.6820510   14.5466942
| 12>     C       16.9403200   18.1406258   16.5721635
| 13>     C       16.9564818   19.4938799   16.4556658
| 14>     C       16.2340351   20.3347489   15.4232170
| 15>     N       17.7005143   20.2838234   17.3351277
| 16>     C       18.6013669   19.7954805   18.2420957
| 17>     S       19.5184006   20.7927105   19.1909268
| 18>     N       18.7206824   18.4307062   18.3096395
| 19>     C       17.8769187   17.4609609   17.5866316
| 20>     C       17.1817680   16.4812972   18.5231402
| 21>     C       17.6570099   15.1637319   18.6580548
| 22>     C       17.0101023   14.2561742   19.5135971
| 23>     C       15.8821489   14.6713365   20.2421818
| 24>     C       15.4116303   15.9856906   20.1148014
| 25>     O       14.3236081   16.3893979   20.8174800
| 26>     C       16.0565939   16.8861192   19.2611962
| 27>     H       13.8652570   15.9370742   15.0981647
| 28>     H       13.8432426   14.1854484   14.8423173
| 29>     H       14.8188491   15.2154990   13.7753820
| 30>     H       15.3081629   14.8847605   16.7923154
| 31>     H       16.1649053   13.9384658   15.5688883
| 32>     H       15.1661502   20.0824769   15.3980883
| 33>     H       16.6383884   20.1468939   14.4202975
| 34>     H       16.3099194   21.4115368   15.6147781
| 35>     H       17.6395643   21.2879161   17.2794031
| 36>     H       19.3710040   18.0997574   19.0110065
| 37>     H       18.6391575   16.9451561   16.9852734
| 38>     H       18.5268285   14.8410830   18.0916813
| 39>     H       17.3838835   13.2382531   19.6117134
| 40>     H       15.3800389   13.9746237   20.9055839
| 41>     H       14.0483513   15.6506103   21.3810138
| 42>     H       15.6818749   17.9010142   19.1794151
| 43> *
| 44>
| 45>                          ****END OF INPUT****

CARTESIAN COORDINATES (ANGSTROEM)
---------------------------------
  C     14.481722   15.076343   14.810447
  C     15.685310   14.906645   15.761204
  O     16.681909   15.951556   15.645595
  C     16.380195   17.276153   15.472819
  O     15.700705   17.682051   14.546694
  C     16.940320   18.140626   16.572163
  C     16.956482   19.493880   16.455666
  C     16.234035   20.334749   15.423217
  N     17.700514   20.283823   17.335128
  C     18.601367   19.795481   18.242096
  S     19.518401   20.792710   19.190927
  N     18.720682   18.430706   18.309639
  C     17.876919   17.460961   17.586632
  C     17.181768   16.481297   18.523140
  C     17.657010   15.163732   18.658055
  C     17.010102   14.256174   19.513597
  C     15.882149   14.671337   20.242182
  C     15.411630   15.985691   20.114801
  O     14.323608   16.389398   20.817480
  C     16.056594   16.886119   19.261196
  H     13.865257   15.937074   15.098165
  H     13.843243   14.185448   14.842317
  H     14.818849   15.215499   13.775382
  H     15.308163   14.884761   16.792315
  H     16.164905   13.938466   15.568888
  H     15.166150   20.082477   15.398088
  H     16.638388   20.146894   14.420297
  H     16.309919   21.411537   15.614778
  H     17.639564   21.287916   17.279403
  H     19.371004   18.099757   19.011007
  H     18.639157   16.945156   16.985273
  H     18.526829   14.841083   18.091681
  H     17.383883   13.238253   19.611713
  H     15.380039   13.974624   20.905584
  H     14.048351   15.650610   21.381014
  H     15.681875   17.901014   19.179415

 Total Charge           Charge          ....    0
 Multiplicity           Mult            ....    1
 Number of Electrons    NEL             ....  154
 Basis Dimension        Dim             ....  828

ORBITAL ENERGIES
----------------

  NO   OCC          E(Eh)            E(eV)
   0   2.0000     -91.889312     -2500.4353
   1   2.0000     -20.600330      -560.5635
   2   2.0000     -20.586797      -560.1952
   3   2.0000     -20.543265      -559.0107
   4   2.0000     -15.629662      -425.3047
   5   2.0000     -15.607403      -424.6990
   6   2.0000     -11.394700      -310.0655
   7   2.0000     -11.383906      -309.7718
   8   2.0000     -11.337522      -308.5096
   9   2.0000     -11.318008      -307.9787
  10   2.0000     -11.308024      -307.7070
  11   2.0000     -11.299322      -307.4702
  12   2.0000     -11.264065      -306.5108
  13   2.0000     -11.259148      -306.3770
  14   2.0000     -11.257705      -306.3377
  15   2.0000     -11.252001      -306.1825
  16   2.0000     -11.247479      -306.0595
  17   2.0000     -11.242511      -305.9243
  18   2.0000     -11.241962      -305.9093
  19   2.0000     -11.220061      -305.3134
  20   2.0000      -8.894382      -242.0284
  21   2.0000      -6.575954      -178.9408
  22   2.0000      -6.573956      -178.8864
  23   2.0000      -6.573365      -178.8704
  24   2.0000      -1.441997       -39.2387
  25   2.0000      -1.420008       -38.6404
  26   2.0000      -1.352265       -36.7970
  27   2.0000      -1.340807       -36.4852
  28   2.0000      -1.238824       -33.7101
  29   2.0000      -1.160878       -31.5891
  30   2.0000      -1.121121       -30.5073
  31   2.0000      -1.045034       -28.4368
  32   2.0000      -1.032425       -28.0937
  33   2.0000      -1.018831       -27.7238
  34   2.0000      -0.996762       -27.1233
  35   2.0000      -0.984868       -26.7996
  36   2.0000      -0.923103       -25.1189
  37   2.0000      -0.891787       -24.2667
  38   2.0000      -0.847940       -23.0736
  39   2.0000      -0.840908       -22.8823
  40   2.0000      -0.837527       -22.7903
  41   2.0000      -0.821494       -22.3540
  42   2.0000      -0.747054       -20.3284
  43   2.0000      -0.734553       -19.9882
  44   2.0000      -0.716995       -19.5104
  45   2.0000      -0.698443       -19.0056
  46   2.0000      -0.688354       -18.7311
  47   2.0000      -0.677059       -18.4237
  48   2.0000      -0.667742       -18.1702
  49   2.0000      -0.663076       -18.0432
  50   2.0000      -0.648791       -17.6545
  51   2.0000      -0.645099       -17.5540
  52   2.0000      -0.636278       -17.3140
  53   2.0000      -0.610413       -16.6102
  54   2.0000      -0.606968       -16.5164
  55   2.0000      -0.602022       -16.3819
  56   2.0000      -0.601160       -16.3584
  57   2.0000      -0.579932       -15.7808
  58   2.0000      -0.571388       -15.5483
  59   2.0000      -0.567985       -15.4557
  60   2.0000      -0.559823       -15.2336
  61   2.0000      -0.540898       -14.7186
  62   2.0000      -0.534749       -14.5513
  63   2.0000      -0.526559       -14.3284
  64   2.0000      -0.523115       -14.2347
  65   2.0000      -0.513752       -13.9799
  66   2.0000      -0.501221       -13.6389
  67   2.0000      -0.494032       -13.4433
  68   2.0000      -0.484711       -13.1896
  69   2.0000      -0.463288       -12.6067
  70   2.0000      -0.452263       -12.3067
  71   2.0000      -0.440740       -11.9931
  72   2.0000      -0.354576        -9.6485
  73   2.0000      -0.351999        -9.5784
  74   2.0000      -0.329035        -8.9535
  75   2.0000      -0.325027        -8.8444
  76   2.0000      -0.318716        -8.6727
  77   0.0000       0.073669         2.0046
  78   0.0000       0.101481         2.7614
  79   0.0000       0.124034         3.3751
  80   0.0000       0.130868         3.5611
  81   0.0000       0.133826         3.6416

MULLIKEN ATOMIC CHARGES
-----------------------
   0 C :   -0.279055
   1 C :    0.034591
   2 O :   -0.381764
   3 C :    0.465235
   4 O :   -0.417452
   5 C :   -0.266533
   6 C :    0.185369
   7 C :   -0.265499
   8 N :   -0.127406
   9 C :    0.212538
  10 S :   -0.441950
  11 N :   -0.218205
  12 C :    0.080917
  13 C :    0.004798
  14 C :   -0.168986
  15 C :   -0.132543
  16 C :   -0.276886
  17 C :    0.311467
  18 O :   -0.355983
  19 C :   -0.236598
  20 H :    0.100953
  21 H :    0.095097
  22 H :    0.110913
  23 H :    0.100771
  24 H :    0.100926
  25 H :    0.131655
  26 H :    0.130851
  27 H :    0.094535
  28 H :    0.199447
  29 H :    0.200783
  30 H :    0.151232
  31 H :    0.154715
  32 H :    0.162641
  33 H :    0.132715
  34 H :    0.241329
  35 H :    0.165381
Sum of atomic charges:   -0.0000000

LOEWDIN ATOMIC CHARGES
----------------------
   0 C :    0.103664
   1 C :   -0.016070
   2 O :    0.289051
   3 C :   -0.413967
   4 O :    0.114358
   5 C :   -0.099421
   6 C :   -0.055417
   7 C :    0.131029
   8 N :    0.407361
   9 C :   -0.456055
  10 S :   -0.036393
  11 N :    0.394262
  12 C :   -0.054729
  13 C :   -0.038947
  14 C :    0.017545
  15 C :    0.039934
  16 C :   -0.001491
  17 C :   -0.190624
  18 O :    0.395957
  19 C :    0.031474
  20 H :   -0.028145
  21 H :   -0.028405
  22 H :   -0.023256
  23 H :   -0.030411
  24 H :   -0.024405
  25 H :   -0.004886
  26 H :   -0.004460
  27 H :   -0.023678
  28 H :   -0.057097
  29 H :   -0.064762
  30 H :   -0.012753
  31 H :   -0.028199
  32 H :   -0.020390
  33 H :   -0.034756
  34 H :   -0.153172
  35 H :   -0.022746

  Mayer bond orders larger than 0.100000
B(  0-C ,  1-C ) :   0.9829 B(  0-C , 20-H ) :   0.9741 B(  0-C , 21-H ) :   0.9742
B(  0-C , 22-H ) :   0.9742 B(  1-C ,  2-O ) :   0.8962 B(  1-C , 23-H ) :   0.9689
B(  1-C , 24-H ) :   0.9800 B(  2-O ,  3-C ) :   1.0937 B(  3-C ,  4-O ) :   1.9983
B(  3-C ,  5-C ) :   1.0742 B(  5-C ,  6-C ) :   1.6320 B(  5-C , 12-C ) :   0.9547
B(  6-C ,  7-C ) :   0.9649 B(  6-C ,  8-N ) :   1.1551 B(  7-C , 25-H ) :   0.9617
B(  7-C , 26-H ) :   0.9579 B(  7-C , 27-H ) :   0.9904 B(  8-N ,  9-C ) :   1.1868
B(  8-N , 28-H ) :   0.9464 B(  9-C , 10-S ) :   1.6043 B(  9-C , 11-N ) :   1.3112
B( 11-N , 12-C ) :   0.9632 B( 11-N , 29-H ) :   0.9485 B( 12-C , 13-C ) :   0.9628
B( 12-C , 30-H ) :   1.0000 B( 13-C , 14-C ) :   1.3536 B( 13-C , 19-C ) :   1.3797
B( 14-C , 15-C ) :   1.3941 B( 14-C , 31-H ) :   0.9723 B( 15-C , 16-C ) :   1.3582
B( 15-C , 32-H ) :   0.9704 B( 16-C , 17-C ) :   1.3327 B( 16-C , 33-H ) :   0.9844
B( 17-C , 18-O ) :   1.1070 B( 17-C , 19-C ) :   1.3651 B( 18-O , 34-H ) :   0.9791
B( 19-C , 35-H ) :   0.9591

MP2 TOTAL ENERGY:    -1274.329390521 Eh
FINAL SINGLE POINT ENERGY     -1274.329390521123

DIPOLE MOMENT
-------------
                                X             Y             Z
Electronic contribution:      9.69232       9.72505       8.40927
Nuclear contribution   :    -10.71220     -11.44107      -8.46303
                        -----------------------------------------
Total Dipole Moment    :     -1.01988      -1.71602      -0.05375
                        -----------------------------------------
Magnitude (a.u.)       :      1.99694
Magnitude (Debye)      :      5.07583

Rotational constants in cm-1:     0.011887     0.008592     0.005996
Rotational constants in MHz :   356.365847   257.594841   179.745965

                             ****ORCA TERMINATED NORMALLY****
TOTAL RUN TIME: 0 days 1 hours 44 minutes 25 seconds 75 msec
