                         Program Version 4.2.0 -  RELEASE  -
|  1> ! ri-mp2 cc-pvtz cc-pvtz/c TightSCF NoKeepInts
|  2>
|  3> %scf
|  4>   MaxCore 4096
|  5> end
|  6> *xyz  0  1
|  7>     C       14.4386973   16.4643344   16.1004546
|  8>     C       15.1413723   15.7961966   14.8988220
|  9>     O       16.4423232   16.3351240   14.5519340
| 10>     C       17.4346299   16.5674621   15.4665205
| 11>     O       18.4115543   15.8429863   15.5202075
| 12>     C       17.1916025   17.6589799   16.4612081
| 13>     C       16.7954621   18.8853977   16.0379569
| 14>     C       16.3695101   19.2680891   14.6332303
| 15>     N       16.8611069   19.9905174   16.8893396
| 16>     C       17.5398429   20.0052477   18.0789019
| 17>     S       17.6821464   21.3816250   18.9844106
| 18>     N       18.1204191   18.8229056   18.4662737
| 19>     C       17.9250509   17.5202633   17.7987842
| 20>     C       17.3484468   16.4342965   18.6967071
| 21>     C       17.8898167   15.1363893   18.6795310
| 22>     C       17.3517756   14.1264974   19.4944786
| 23>     C       16.2620989   14.4167069   20.3332329
| 24>     C       15.7186354   15.7085020   20.3505482
| 25>     O       14.6609467   15.9894862   21.1524215
| 26>     C       16.2560778   16.7118315   19.5378437
| 27>     H       14.9753840   16.2689424   17.0353886
| 28>     H       13.4319556   16.0451055   16.2184590
| 29>     H       14.3271401   17.5446407   15.9638334
| 30>     H       15.2562575   14.7271697   15.1231105
| 31>     H       14.4879608   15.8705157   14.0199500
| 32>     H       15.3850853   18.8564933   14.3848237
| 33>     H       17.0847308   18.8883439   13.8921530
| 34>     H       16.3168479   20.3546112   14.4915676
| 35>     H       16.4717257   20.8738239   16.6004223
| 36>     H       18.6111321   18.8589021   19.3510333
| 37>     H       18.9677314   17.2816685   17.5412235
| 38>     H       18.7263781   14.9078870   18.0222636
| 39>     H       17.7781451   13.1250223   19.4704500
| 40>     H       15.8427776   13.6390648   20.9630549
| 41>     H       14.4636861   15.1904490   21.6640988
| 42>     H       15.8185463   17.7045212   19.5633607
| 43> *
| 44>
| 45>                          ****END OF INPUT****

CARTESIAN COORDINATES (ANGSTROEM)
---------------------------------
  C     14.438697   16.464334   16.100455
  C     15.141372   15.796197   14.898822
  O     16.442323   16.335124   14.551934
  C     17.434630   16.567462   15.466520
  O     18.411554   15.842986   15.520207
  C     17.191602   17.658980   16.461208
  C     16.795462   18.885398   16.037957
  C     16.369510   19.268089   14.633230
  N     16.861107   19.990517   16.889340
  C     17.539843   20.005248   18.078902
  S     17.682146   21.381625   18.984411
  N     18.120419   18.822906   18.466274
  C     17.925051   17.520263   17.798784
  C     17.348447   16.434296   18.696707
  C     17.889817   15.136389   18.679531
  C     17.351776   14.126497   19.494479
  C     16.262099   14.416707   20.333233
  C     15.718635   15.708502   20.350548
  O     14.660947   15.989486   21.152421
  C     16.256078   16.711831   19.537844
  H     14.975384   16.268942   17.035389
  H     13.431956   16.045105   16.218459
  H     14.327140   17.544641   15.963833
  H     15.256258   14.727170   15.123110
  H     14.487961   15.870516   14.019950
  H     15.385085   18.856493   14.384824
  H     17.084731   18.888344   13.892153
  H     16.316848   20.354611   14.491568
  H     16.471726   20.873824   16.600422
  H     18.611132   18.858902   19.351033
  H     18.967731   17.281668   17.541224
  H     18.726378   14.907887   18.022264
  H     17.778145   13.125022   19.470450
  H     15.842778   13.639065   20.963055
  H     14.463686   15.190449   21.664099
  H     15.818546   17.704521   19.563361

 Total Charge           Charge          ....    0
 Multiplicity           Mult            ....    1
 Number of Electrons    NEL             ....  154
 Basis Dimension        Dim             ....  828

ORBITAL ENERGIES
----------------

  NO   OCC          E(Eh)            E(eV)
   0   2.0000     -91.890059     -2500.4556
   1   2.0000     -20.597811      -560.4949
   2   2.0000     -20.588867      -560.2516
   3   2.0000     -20.552522      -559.2626
   4   2.0000     -15.629452      -425.2990
   5   2.0000     -15.608551      -424.7303
   6   2.0000     -11.395937      -310.0992
   7   2.0000     -11.385183      -309.8066
   8   2.0000     -11.335442      -308.4531
   9   2.0000     -11.314755      -307.8901
  10   2.0000     -11.310416      -307.7721
  11   2.0000     -11.307846      -307.7021
  12   2.0000     -11.262982      -306.4813
  13   2.0000     -11.262229      -306.4608
  14   2.0000     -11.259565      -306.3883
  15   2.0000     -11.254894      -306.2612
  16   2.0000     -11.244226      -305.9710
  17   2.0000     -11.240128      -305.8594
  18   2.0000     -11.236724      -305.7668
  19   2.0000     -11.234873      -305.7164
  20   2.0000      -8.895144      -242.0492
  21   2.0000      -6.576720      -178.9617
  22   2.0000      -6.574716      -178.9071
  23   2.0000      -6.574127      -178.8911
  24   2.0000      -1.445107       -39.3234
  25   2.0000      -1.417586       -38.5745
  26   2.0000      -1.356819       -36.9209
  27   2.0000      -1.341168       -36.4950
  28   2.0000      -1.238881       -33.7117
  29   2.0000      -1.158760       -31.5315
  30   2.0000      -1.124221       -30.5916
  31   2.0000      -1.046384       -28.4736
  32   2.0000      -1.037632       -28.2354
  33   2.0000      -1.016676       -27.6651
  34   2.0000      -1.003613       -27.3097
  35   2.0000      -0.989598       -26.9283
  36   2.0000      -0.925256       -25.1775
  37   2.0000      -0.897627       -24.4257
  38   2.0000      -0.850887       -23.1538
  39   2.0000      -0.840484       -22.8707
  40   2.0000      -0.834467       -22.7070
  41   2.0000      -0.824275       -22.4297
  42   2.0000      -0.749742       -20.4015
  43   2.0000      -0.734912       -19.9980
  44   2.0000      -0.728907       -19.8346
  45   2.0000      -0.695181       -18.9168
  46   2.0000      -0.687639       -18.7116
  47   2.0000      -0.675928       -18.3929
  48   2.0000      -0.673441       -18.3252
  49   2.0000      -0.665256       -18.1025
  50   2.0000      -0.652696       -17.7608
  51   2.0000      -0.649595       -17.6764
  52   2.0000      -0.639328       -17.3970
  53   2.0000      -0.614092       -16.7103
  54   2.0000      -0.603410       -16.4196
  55   2.0000      -0.602394       -16.3920
  56   2.0000      -0.601575       -16.3697
  57   2.0000      -0.587379       -15.9834
  58   2.0000      -0.576525       -15.6880
  59   2.0000      -0.569974       -15.5098
  60   2.0000      -0.563224       -15.3261
  61   2.0000      -0.554373       -15.0853
  62   2.0000      -0.547379       -14.8949
  63   2.0000      -0.529712       -14.4142
  64   2.0000      -0.521639       -14.1945
  65   2.0000      -0.512614       -13.9489
  66   2.0000      -0.500133       -13.6093
  67   2.0000      -0.488906       -13.3038
  68   2.0000      -0.486824       -13.2471
  69   2.0000      -0.466845       -12.7035
  70   2.0000      -0.459414       -12.5013
  71   2.0000      -0.449953       -12.2438
  72   2.0000      -0.354612        -9.6495
  73   2.0000      -0.348730        -9.4894
  74   2.0000      -0.329324        -8.9614
  75   2.0000      -0.322346        -8.7715
  76   2.0000      -0.319423        -8.6919
  77   0.0000       0.075756         2.0614
  78   0.0000       0.105347         2.8666
  79   0.0000       0.118076         3.2130
  80   0.0000       0.129338         3.5195
  81   0.0000       0.131429         3.5764

MULLIKEN ATOMIC CHARGES
-----------------------
   0 C :   -0.332431
   1 C :    0.034265
   2 O :   -0.370574
   3 C :    0.453573
   4 O :   -0.378255
   5 C :   -0.234908
   6 C :    0.142718
   7 C :   -0.287127
   8 N :   -0.134474
   9 C :    0.206702
  10 S :   -0.440703
  11 N :   -0.222915
  12 C :    0.086276
  13 C :    0.013570
  14 C :   -0.209242
  15 C :   -0.131804
  16 C :   -0.276627
  17 C :    0.323307
  18 O :   -0.357724
  19 C :   -0.266219
  20 H :    0.126349
  21 H :    0.124302
  22 H :    0.098819
  23 H :    0.108041
  24 H :    0.112448
  25 H :    0.118349
  26 H :    0.134737
  27 H :    0.108023
  28 H :    0.197708
  29 H :    0.202597
  30 H :    0.162942
  31 H :    0.177319
  32 H :    0.163862
  33 H :    0.131663
  34 H :    0.240865
  35 H :    0.174567
Sum of atomic charges:   -0.0000000

LOEWDIN ATOMIC CHARGES
----------------------
   0 C :    0.103057
   1 C :   -0.015052
   2 O :    0.283621
   3 C :   -0.417298
   4 O :    0.126845
   5 C :   -0.090748
   6 C :   -0.075374
   7 C :    0.127414
   8 N :    0.405003
   9 C :   -0.457701
  10 S :   -0.036645
  11 N :    0.396252
  12 C :   -0.048296
  13 C :   -0.044015
  14 C :    0.021297
  15 C :    0.043279
  16 C :   -0.000815
  17 C :   -0.193105
  18 O :    0.394791
  19 C :    0.027648
  20 H :   -0.027166
  21 H :   -0.021367
  22 H :   -0.033356
  23 H :   -0.025864
  24 H :   -0.021884
  25 H :   -0.015887
  26 H :   -0.005235
  27 H :   -0.018352
  28 H :   -0.058854
  29 H :   -0.063578
  30 H :   -0.005378
  31 H :   -0.021630
  32 H :   -0.019144
  33 H :   -0.035167
  34 H :   -0.153622
  35 H :   -0.023674

  Mayer bond orders larger than 0.100000
B(  0-C ,  1-C ) :   0.9633 B(  0-C , 20-H ) :   0.9636 B(  0-C , 21-H ) :   0.9777
B(  0-C , 22-H ) :   0.9730 B(  1-C ,  2-O ) :   0.9057 B(  1-C , 23-H ) :   0.9830
B(  1-C , 24-H ) :   0.9815 B(  2-O ,  3-C ) :   1.0974 B(  3-C ,  4-O ) :   2.0713
B(  3-C ,  5-C ) :   0.9664 B(  5-C ,  6-C ) :   1.7024 B(  5-C , 12-C ) :   0.9264
B(  6-C ,  7-C ) :   0.9452 B(  6-C ,  8-N ) :   1.1169 B(  7-C , 25-H ) :   0.9668
B(  7-C , 26-H ) :   0.9662 B(  7-C , 27-H ) :   0.9883 B(  8-N ,  9-C ) :   1.1906
B(  8-N , 28-H ) :   0.9476 B(  9-C , 10-S ) :   1.6109 B(  9-C , 11-N ) :   1.2958
B( 11-N , 12-C ) :   0.9757 B( 11-N , 29-H ) :   0.9478 B( 12-C , 13-C ) :   0.9701
B( 12-C , 30-H ) :   0.9922 B( 13-C , 14-C ) :   1.3884 B( 13-C , 19-C ) :   1.3468
B( 14-C , 15-C ) :   1.3967 B( 14-C , 31-H ) :   0.9571 B( 15-C , 16-C ) :   1.3599
B( 15-C , 32-H ) :   0.9703 B( 16-C , 17-C ) :   1.3326 B( 16-C , 33-H ) :   0.9846
B( 17-C , 18-O ) :   1.1074 B( 17-C , 19-C ) :   1.3606 B( 18-O , 34-H ) :   0.9798
B( 19-C , 35-H ) :   0.9588

MP2 TOTAL ENERGY:    -1274.320872841 Eh
FINAL SINGLE POINT ENERGY     -1274.320872841263

DIPOLE MOMENT
-------------
                                X             Y             Z
Electronic contribution:      8.92987       6.80980       7.15276
Nuclear contribution   :    -10.42375      -8.11713      -7.73063
                        -----------------------------------------
Total Dipole Moment    :     -1.49388      -1.30732      -0.57787
                        -----------------------------------------
Magnitude (a.u.)       :      2.06753
Magnitude (Debye)      :      5.25526

Rotational constants in cm-1:     0.011279     0.009333     0.006439
Rotational constants in MHz :   338.126612   279.805084   193.033915

                             ****ORCA TERMINATED NORMALLY****
TOTAL RUN TIME: 0 days 1 hours 45 minutes 25 seconds 90 msec
