                         Program Version 4.2.0 -  RELEASE  -
|  1> ! ri-mp2 cc-pvtz cc-pvtz/c TightSCF NoKeepInts
|  2>
|  3> %scf
|  4>   MaxCore 4096
|  5> end
|  6> *xyz  0  1
|  7>     C       14.8071918   14.7290183   15.4018718
|  8>     C       14.7302788   16.1944129   14.9227530
|  9>     O       16.0378581   16.7472399   14.6592989
| 10>     C       17.0290394   16.6217154   15.5873524
| 11>     O       17.6874150   15.6017754   15.6961749
| 12>     C       17.1670137   17.7868642   16.5222922
| 13>     C       16.9646896   19.0705346   16.1269845
| 14>     C       16.3833392   19.5553622   14.8136514
| 15>     N       17.3564920   20.1360863   16.9412308
| 16>     C       18.1439718   20.0107569   18.0542419
| 17>     S       18.6547133   21.3281734   18.9136517
| 18>     N       18.5035840   18.7345442   18.4077530
| 19>     C       17.9946719   17.4998352   17.7791948
| 20>     C       17.2882141   16.5672071   18.7540223
| 21>     C       17.6679742   15.2168676   18.8557966
| 22>     C       17.0069954   14.3535691   19.7454608
| 23>     C       15.9572990   14.8450915   20.5403256
| 24>     C       15.5747504   16.1896970   20.4385793
| 25>     O       14.5567778   16.6653148   21.1992204
| 26>     C       16.2336898   17.0462398   19.5508173
| 27>     H       15.4127177   14.1265417   14.7126836
| 28>     H       13.8040113   14.2886220   15.4484463
| 29>     H       15.2493361   14.6592065   16.4042688
| 30>     H       14.1296441   16.2449174   14.0053972
| 31>     H       14.2221747   16.7938378   15.6897270
| 32>     H       16.9056102   19.0986335   13.9631731
| 33>     H       16.4651135   20.6421275   14.6890448
| 34>     H       15.3206880   19.2955003   14.7374883
| 35>     H       17.1222448   21.0807464   16.6807466
| 36>     H       19.0701113   18.6684366   19.2440625
| 37>     H       18.9354049   17.0522629   17.4260104
| 38>     H       18.4690402   14.8322169   18.2284115
| 39>     H       17.3063953   13.3090025   19.8112577
| 40>     H       15.4433144   14.1812713   21.2275282
| 41>     H       14.2610492   15.9422920   21.7726838
| 42>     H       15.9241853   18.0840787   19.4863966
| 43> *
| 44>
| 45>                          ****END OF INPUT****

CARTESIAN COORDINATES (ANGSTROEM)
---------------------------------
  C     14.807192   14.729018   15.401872
  C     14.730279   16.194413   14.922753
  O     16.037858   16.747240   14.659299
  C     17.029039   16.621715   15.587352
  O     17.687415   15.601775   15.696175
  C     17.167014   17.786864   16.522292
  C     16.964690   19.070535   16.126984
  C     16.383339   19.555362   14.813651
  N     17.356492   20.136086   16.941231
  C     18.143972   20.010757   18.054242
  S     18.654713   21.328173   18.913652
  N     18.503584   18.734544   18.407753
  C     17.994672   17.499835   17.779195
  C     17.288214   16.567207   18.754022
  C     17.667974   15.216868   18.855797
  C     17.006995   14.353569   19.745461
  C     15.957299   14.845092   20.540326
  C     15.574750   16.189697   20.438579
  O     14.556778   16.665315   21.199220
  C     16.233690   17.046240   19.550817
  H     15.412718   14.126542   14.712684
  H     13.804011   14.288622   15.448446
  H     15.249336   14.659206   16.404269
  H     14.129644   16.244917   14.005397
  H     14.222175   16.793838   15.689727
  H     16.905610   19.098633   13.963173
  H     16.465114   20.642127   14.689045
  H     15.320688   19.295500   14.737488
  H     17.122245   21.080746   16.680747
  H     19.070111   18.668437   19.244062
  H     18.935405   17.052263   17.426010
  H     18.469040   14.832217   18.228411
  H     17.306395   13.309003   19.811258
  H     15.443314   14.181271   21.227528
  H     14.261049   15.942292   21.772684
  H     15.924185   18.084079   19.486397

 Total Charge           Charge          ....    0
 Multiplicity           Mult            ....    1
 Number of Electrons    NEL             ....  154
 Basis Dimension        Dim             ....  828

ORBITAL ENERGIES
----------------

  NO   OCC          E(Eh)            E(eV)
   0   2.0000     -91.889560     -2500.4421
   1   2.0000     -20.595166      -560.4230
   2   2.0000     -20.587150      -560.2048
   3   2.0000     -20.551946      -559.2469
   4   2.0000     -15.630315      -425.3225
   5   2.0000     -15.607267      -424.6953
   6   2.0000     -11.394757      -310.0671
   7   2.0000     -11.384355      -309.7840
   8   2.0000     -11.339512      -308.5638
   9   2.0000     -11.311541      -307.8027
  10   2.0000     -11.307366      -307.6891
  11   2.0000     -11.305307      -307.6331
  12   2.0000     -11.261120      -306.4306
  13   2.0000     -11.259977      -306.3996
  14   2.0000     -11.258570      -306.3613
  15   2.0000     -11.251518      -306.1694
  16   2.0000     -11.241583      -305.8990
  17   2.0000     -11.237742      -305.7945
  18   2.0000     -11.234179      -305.6975
  19   2.0000     -11.225288      -305.4556
  20   2.0000      -8.894637      -242.0354
  21   2.0000      -6.576211      -178.9478
  22   2.0000      -6.574210      -178.8933
  23   2.0000      -6.573619      -178.8773
  24   2.0000      -1.448626       -39.4191
  25   2.0000      -1.414922       -38.5020
  26   2.0000      -1.357999       -36.9530
  27   2.0000      -1.341292       -36.4984
  28   2.0000      -1.238452       -33.7000
  29   2.0000      -1.155848       -31.4522
  30   2.0000      -1.122286       -30.5390
  31   2.0000      -1.044096       -28.4113
  32   2.0000      -1.032686       -28.1008
  33   2.0000      -1.013456       -27.5776
  34   2.0000      -1.001129       -27.2421
  35   2.0000      -0.985927       -26.8284
  36   2.0000      -0.923172       -25.1208
  37   2.0000      -0.891736       -24.2654
  38   2.0000      -0.850705       -23.1489
  39   2.0000      -0.838714       -22.8226
  40   2.0000      -0.831620       -22.6295
  41   2.0000      -0.825940       -22.4750
  42   2.0000      -0.745807       -20.2944
  43   2.0000      -0.729875       -19.8609
  44   2.0000      -0.728535       -19.8244
  45   2.0000      -0.692880       -18.8542
  46   2.0000      -0.684998       -18.6397
  47   2.0000      -0.680920       -18.5288
  48   2.0000      -0.676204       -18.4004
  49   2.0000      -0.666366       -18.1327
  50   2.0000      -0.649030       -17.6610
  51   2.0000      -0.644862       -17.5476
  52   2.0000      -0.635260       -17.2863
  53   2.0000      -0.614192       -16.7130
  54   2.0000      -0.605674       -16.4812
  55   2.0000      -0.601341       -16.3633
  56   2.0000      -0.598569       -16.2879
  57   2.0000      -0.577101       -15.7037
  58   2.0000      -0.574150       -15.6234
  59   2.0000      -0.567544       -15.4437
  60   2.0000      -0.555653       -15.1201
  61   2.0000      -0.551238       -14.9999
  62   2.0000      -0.539015       -14.6673
  63   2.0000      -0.527631       -14.3576
  64   2.0000      -0.518323       -14.1043
  65   2.0000      -0.511543       -13.9198
  66   2.0000      -0.498245       -13.5579
  67   2.0000      -0.492482       -13.4011
  68   2.0000      -0.481602       -13.1051
  69   2.0000      -0.465060       -12.6549
  70   2.0000      -0.459113       -12.4931
  71   2.0000      -0.449376       -12.2282
  72   2.0000      -0.354701        -9.6519
  73   2.0000      -0.347938        -9.4679
  74   2.0000      -0.328638        -8.9427
  75   2.0000      -0.318937        -8.6787
  76   2.0000      -0.318243        -8.6598
  77   0.0000       0.072389         1.9698
  78   0.0000       0.106597         2.9006
  79   0.0000       0.120372         3.2755
  80   0.0000       0.133120         3.6224
  81   0.0000       0.138484         3.7683

MULLIKEN ATOMIC CHARGES
-----------------------
   0 C :   -0.280366
   1 C :    0.028296
   2 O :   -0.378055
   3 C :    0.451795
   4 O :   -0.388963
   5 C :   -0.211855
   6 C :    0.160353
   7 C :   -0.284683
   8 N :   -0.127616
   9 C :    0.206783
  10 S :   -0.440204
  11 N :   -0.213296
  12 C :    0.051709
  13 C :    0.030122
  14 C :   -0.187612
  15 C :   -0.132364
  16 C :   -0.278160
  17 C :    0.314052
  18 O :   -0.358272
  19 C :   -0.253883
  20 H :    0.111524
  21 H :    0.097091
  22 H :    0.109511
  23 H :    0.108946
  24 H :    0.084945
  25 H :    0.132347
  26 H :    0.105217
  27 H :    0.121601
  28 H :    0.198742
  29 H :    0.199809
  30 H :    0.157688
  31 H :    0.165499
  32 H :    0.162385
  33 H :    0.130209
  34 H :    0.240538
  35 H :    0.166165
Sum of atomic charges:   -0.0000000

LOEWDIN ATOMIC CHARGES
----------------------
   0 C :    0.107813
   1 C :   -0.021683
   2 O :    0.289736
   3 C :   -0.419146
   4 O :    0.127812
   5 C :   -0.097657
   6 C :   -0.065713
   7 C :    0.126407
   8 N :    0.405714
   9 C :   -0.458046
  10 S :   -0.036182
  11 N :    0.396143
  12 C :   -0.048980
  13 C :   -0.042387
  14 C :    0.023632
  15 C :    0.040948
  16 C :   -0.001127
  17 C :   -0.192847
  18 O :    0.393436
  19 C :    0.028246
  20 H :   -0.021170
  21 H :   -0.027196
  22 H :   -0.025176
  23 H :   -0.022403
  24 H :   -0.036681
  25 H :   -0.006402
  26 H :   -0.020183
  27 H :   -0.011068
  28 H :   -0.058298
  29 H :   -0.063439
  30 H :   -0.007327
  31 H :   -0.023065
  32 H :   -0.020218
  33 H :   -0.035601
  34 H :   -0.154204
  35 H :   -0.023687

  Mayer bond orders larger than 0.100000
B(  0-C ,  1-C ) :   0.9814 B(  0-C , 20-H ) :   0.9732 B(  0-C , 21-H ) :   0.9742
B(  0-C , 22-H ) :   0.9695 B(  1-C ,  2-O ) :   0.9054 B(  1-C , 23-H ) :   0.9781
B(  1-C , 24-H ) :   0.9733 B(  2-O ,  3-C ) :   1.0691 B(  3-C ,  4-O ) :   2.0474
B(  3-C ,  5-C ) :   1.0110 B(  5-C ,  6-C ) :   1.6610 B(  5-C , 12-C ) :   0.9518
B(  6-C ,  7-C ) :   0.9517 B(  6-C ,  8-N ) :   1.1404 B(  7-C , 25-H ) :   0.9645
B(  7-C , 26-H ) :   0.9894 B(  7-C , 27-H ) :   0.9675 B(  8-N ,  9-C ) :   1.1842
B(  8-N , 28-H ) :   0.9472 B(  9-C , 10-S ) :   1.6115 B(  9-C , 11-N ) :   1.3031
B( 11-N , 12-C ) :   0.9802 B( 11-N , 29-H ) :   0.9487 B( 12-C , 13-C ) :   0.9676
B( 12-C , 30-H ) :   0.9952 B( 13-C , 14-C ) :   1.3785 B( 13-C , 19-C ) :   1.3629
B( 14-C , 15-C ) :   1.3949 B( 14-C , 31-H ) :   0.9617 B( 15-C , 16-C ) :   1.3597
B( 15-C , 32-H ) :   0.9705 B( 16-C , 17-C ) :   1.3322 B( 16-C , 33-H ) :   0.9854
B( 17-C , 18-O ) :   1.1054 B( 17-C , 19-C ) :   1.3669 B( 18-O , 34-H ) :   0.9801
B( 19-C , 35-H ) :   0.9593

MP2 TOTAL ENERGY:    -1274.326540518 Eh
FINAL SINGLE POINT ENERGY     -1274.326540518214

DIPOLE MOMENT
-------------
                                X             Y             Z
Electronic contribution:      9.57474       9.88373       8.20176
Nuclear contribution   :    -11.16183     -10.99095      -8.88781
                        -----------------------------------------
Total Dipole Moment    :     -1.58709      -1.10721      -0.68604
                        -----------------------------------------
Magnitude (a.u.)       :      2.05315
Magnitude (Debye)      :      5.21870

Rotational constants in cm-1:     0.010988     0.009182     0.006033
Rotational constants in MHz :   329.419316   275.268928   180.874641

                             ****ORCA TERMINATED NORMALLY****
TOTAL RUN TIME: 0 days 2 hours 6 minutes 4 seconds 133 msec
