                         Program Version 4.2.0 -  RELEASE  -
|  1> ! ri-mp2 cc-pvtz cc-pvtz/c TightSCF NoKeepInts
|  2>
|  3> %scf
|  4>   MaxCore 4096
|  5> end
|  6> *xyz  0  1
|  7>     C       14.3426997   16.3382616   15.4382045
|  8>     C       15.4093471   15.3896940   16.0242765
|  9>     O       16.6953460   15.6193587   15.4051395
| 10>     C       17.2846374   16.8492720   15.2782403
| 11>     O       17.9238961   17.1325261   14.2820057
| 12>     C       17.1043438   17.8046636   16.4166928
| 13>     C       16.8674382   19.1051644   16.1202346
| 14>     C       16.3728823   19.6406342   14.7929278
| 15>     N       17.0925072   20.1177661   17.0538167
| 16>     C       17.8005415   19.9446522   18.2127154
| 17>     S       18.1470772   21.2055858   19.2249031
| 18>     N       18.2326543   18.6688799   18.4784938
| 19>     C       17.8514413   17.4630297   17.7163705
| 20>     C       17.2524219   16.3667607   18.5813918
| 21>     C       17.7758751   15.0613615   18.5425578
| 22>     C       17.2162652   14.0457072   19.3356796
| 23>     C       16.1288404   14.3393224   20.1764904
| 24>     C       15.6098595   15.6406353   20.2211582
| 25>     O       14.5570064   15.9256145   21.0274703
| 26>     C       16.1665253   16.6494170   19.4284091
| 27>     H       14.4645430   17.3619644   15.8088068
| 28>     H       13.3399696   16.0013739   15.7284975
| 29>     H       14.3914979   16.3492794   14.3417772
| 30>     H       15.4445468   15.5128533   17.1086515
| 31>     H       15.1109352   14.3518155   15.8277531
| 32>     H       15.7369494   18.9121012   14.2757193
| 33>     H       17.2220389   19.8548771   14.1305017
| 34>     H       15.7877591   20.5610484   14.9062092
| 35>     H       16.8249385   21.0660228   16.8422409
| 36>     H       18.7465561   18.5691552   19.3451908
| 37>     H       18.8503475   17.1486209   17.3798679
| 38>     H       18.6124939   14.8306482   17.8871587
| 39>     H       17.6254379   13.0372440   19.2969972
| 40>     H       15.6942668   13.5574187   20.7909911
| 41>     H       14.3512977   15.1258185   21.5350221
| 42>     H       15.7518158   17.6514513   19.4754364
| 43> *
| 44>
| 45>                          ****END OF INPUT****

CARTESIAN COORDINATES (ANGSTROEM)
---------------------------------
  C     14.342700   16.338262   15.438204
  C     15.409347   15.389694   16.024276
  O     16.695346   15.619359   15.405139
  C     17.284637   16.849272   15.278240
  O     17.923896   17.132526   14.282006
  C     17.104344   17.804664   16.416693
  C     16.867438   19.105164   16.120235
  C     16.372882   19.640634   14.792928
  N     17.092507   20.117766   17.053817
  C     17.800542   19.944652   18.212715
  S     18.147077   21.205586   19.224903
  N     18.232654   18.668880   18.478494
  C     17.851441   17.463030   17.716370
  C     17.252422   16.366761   18.581392
  C     17.775875   15.061362   18.542558
  C     17.216265   14.045707   19.335680
  C     16.128840   14.339322   20.176490
  C     15.609860   15.640635   20.221158
  O     14.557006   15.925614   21.027470
  C     16.166525   16.649417   19.428409
  H     14.464543   17.361964   15.808807
  H     13.339970   16.001374   15.728497
  H     14.391498   16.349279   14.341777
  H     15.444547   15.512853   17.108651
  H     15.110935   14.351815   15.827753
  H     15.736949   18.912101   14.275719
  H     17.222039   19.854877   14.130502
  H     15.787759   20.561048   14.906209
  H     16.824938   21.066023   16.842241
  H     18.746556   18.569155   19.345191
  H     18.850347   17.148621   17.379868
  H     18.612494   14.830648   17.887159
  H     17.625438   13.037244   19.296997
  H     15.694267   13.557419   20.790991
  H     14.351298   15.125818   21.535022
  H     15.751816   17.651451   19.475436

 Total Charge           Charge          ....    0
 Multiplicity           Mult            ....    1
 Number of Electrons    NEL             ....  154
 Basis Dimension        Dim             ....  828

ORBITAL ENERGIES
----------------

  NO   OCC          E(Eh)            E(eV)
   0   2.0000     -91.890405     -2500.4650
   1   2.0000     -20.604543      -560.6781
   2   2.0000     -20.593275      -560.3715
   3   2.0000     -20.551365      -559.2311
   4   2.0000     -15.627391      -425.2429
   5   2.0000     -15.610831      -424.7923
   6   2.0000     -11.395836      -310.0965
   7   2.0000     -11.385530      -309.8160
   8   2.0000     -11.330385      -308.3155
   9   2.0000     -11.323064      -308.1162
  10   2.0000     -11.316624      -307.9410
  11   2.0000     -11.300114      -307.4917
  12   2.0000     -11.269615      -306.6618
  13   2.0000     -11.264003      -306.5091
  14   2.0000     -11.257232      -306.3249
  15   2.0000     -11.256322      -306.3001
  16   2.0000     -11.252834      -306.2052
  17   2.0000     -11.247574      -306.0621
  18   2.0000     -11.247196      -306.0518
  19   2.0000     -11.232903      -305.6628
  20   2.0000      -8.895474      -242.0582
  21   2.0000      -6.577046      -178.9705
  22   2.0000      -6.575046      -178.9161
  23   2.0000      -6.574456      -178.9000
  24   2.0000      -1.444466       -39.3059
  25   2.0000      -1.424316       -38.7576
  26   2.0000      -1.357842       -36.9488
  27   2.0000      -1.340768       -36.4842
  28   2.0000      -1.240403       -33.7531
  29   2.0000      -1.166258       -31.7355
  30   2.0000      -1.124794       -30.6072
  31   2.0000      -1.050754       -28.5925
  32   2.0000      -1.035090       -28.1662
  33   2.0000      -1.024272       -27.8719
  34   2.0000      -1.003553       -27.3081
  35   2.0000      -0.989613       -26.9287
  36   2.0000      -0.927097       -25.2276
  37   2.0000      -0.896477       -24.3944
  38   2.0000      -0.851016       -23.1573
  39   2.0000      -0.844429       -22.9781
  40   2.0000      -0.842945       -22.9377
  41   2.0000      -0.830575       -22.6011
  42   2.0000      -0.752945       -20.4887
  43   2.0000      -0.739361       -20.1190
  44   2.0000      -0.718868       -19.5614
  45   2.0000      -0.702838       -19.1252
  46   2.0000      -0.691754       -18.8236
  47   2.0000      -0.680260       -18.5108
  48   2.0000      -0.676639       -18.4123
  49   2.0000      -0.665510       -18.1094
  50   2.0000      -0.649909       -17.6849
  51   2.0000      -0.649755       -17.6807
  52   2.0000      -0.636390       -17.3171
  53   2.0000      -0.622544       -16.9403
  54   2.0000      -0.613224       -16.6867
  55   2.0000      -0.607541       -16.5320
  56   2.0000      -0.603648       -16.4261
  57   2.0000      -0.583717       -15.8837
  58   2.0000      -0.577958       -15.7270
  59   2.0000      -0.566829       -15.4242
  60   2.0000      -0.558469       -15.1967
  61   2.0000      -0.549761       -14.9597
  62   2.0000      -0.543123       -14.7791
  63   2.0000      -0.535357       -14.5678
  64   2.0000      -0.529079       -14.3970
  65   2.0000      -0.517701       -14.0874
  66   2.0000      -0.505363       -13.7516
  67   2.0000      -0.502236       -13.6665
  68   2.0000      -0.484461       -13.1829
  69   2.0000      -0.466727       -12.7003
  70   2.0000      -0.452935       -12.3250
  71   2.0000      -0.449569       -12.2334
  72   2.0000      -0.357949        -9.7403
  73   2.0000      -0.352715        -9.5979
  74   2.0000      -0.331679        -9.0254
  75   2.0000      -0.328969        -8.9517
  76   2.0000      -0.320148        -8.7117
  77   0.0000       0.082344         2.2407
  78   0.0000       0.096659         2.6302
  79   0.0000       0.121095         3.2952
  80   0.0000       0.126477         3.4416
  81   0.0000       0.129089         3.5127

MULLIKEN ATOMIC CHARGES
-----------------------
   0 C :   -0.328199
   1 C :    0.039345
   2 O :   -0.333926
   3 C :    0.422751
   4 O :   -0.370770
   5 C :   -0.230410
   6 C :    0.151682
   7 C :   -0.287809
   8 N :   -0.132878
   9 C :    0.210812
  10 S :   -0.439986
  11 N :   -0.213913
  12 C :    0.025563
  13 C :    0.003520
  14 C :   -0.186146
  15 C :   -0.132318
  16 C :   -0.270807
  17 C :    0.304050
  18 O :   -0.354683
  19 C :   -0.227671
  20 H :    0.103091
  21 H :    0.112327
  22 H :    0.114140
  23 H :    0.101009
  24 H :    0.122764
  25 H :    0.117533
  26 H :    0.148498
  27 H :    0.100285
  28 H :    0.198418
  29 H :    0.200872
  30 H :    0.160132
  31 H :    0.158096
  32 H :    0.165344
  33 H :    0.135282
  34 H :    0.241719
  35 H :    0.172282
Sum of atomic charges:   -0.0000000

LOEWDIN ATOMIC CHARGES
----------------------
   0 C :    0.102199
   1 C :   -0.015557
   2 O :    0.298240
   3 C :   -0.421967
   4 O :    0.128402
   5 C :   -0.095689
   6 C :   -0.077820
   7 C :    0.128658
   8 N :    0.406079
   9 C :   -0.456178
  10 S :   -0.035349
  11 N :    0.395872
  12 C :   -0.054686
  13 C :   -0.047017
  14 C :    0.020359
  15 C :    0.044706
  16 C :    0.001812
  17 C :   -0.191972
  18 O :    0.397200
  19 C :    0.030357
  20 H :   -0.035405
  21 H :   -0.023182
  22 H :   -0.025446
  23 H :   -0.037283
  24 H :   -0.020491
  25 H :   -0.010866
  26 H :   -0.003395
  27 H :   -0.020619
  28 H :   -0.057137
  29 H :   -0.063699
  30 H :   -0.009632
  31 H :   -0.025645
  32 H :   -0.018128
  33 H :   -0.033355
  34 H :   -0.152232
  35 H :   -0.021132

  Mayer bond orders larger than 0.100000
B(  0-C ,  1-C ) :   0.9615 B(  0-C , 20-H ) :   0.9724 B(  0-C , 21-H ) :   0.9778
B(  0-C , 22-H ) :   0.9751 B(  1-C ,  2-O ) :   0.8970 B(  1-C , 23-H ) :   0.9615
B(  1-C , 24-H ) :   0.9834 B(  2-O ,  3-C ) :   1.1644 B(  3-C ,  4-O ) :   2.1165
B(  3-C ,  5-C ) :   0.9326 B(  5-C ,  6-C ) :   1.6869 B(  5-C , 12-C ) :   0.9633
B(  6-C ,  7-C ) :   0.9480 B(  6-C ,  8-N ) :   1.1310 B(  7-C , 25-H ) :   0.9757
B(  7-C , 26-H ) :   0.9568 B(  7-C , 27-H ) :   0.9829 B(  8-N ,  9-C ) :   1.1971
B(  8-N , 28-H ) :   0.9492 B(  9-C , 10-S ) :   1.6133 B(  9-C , 11-N ) :   1.2885
B( 11-N , 12-C ) :   0.9803 B( 11-N , 29-H ) :   0.9467 B( 12-C , 13-C ) :   0.9563
B( 12-C , 30-H ) :   1.0054 B( 13-C , 14-C ) :   1.3751 B( 13-C , 19-C ) :   1.3586
B( 14-C , 15-C ) :   1.3938 B( 14-C , 31-H ) :   0.9684 B( 15-C , 16-C ) :   1.3625
B( 15-C , 32-H ) :   0.9693 B( 16-C , 17-C ) :   1.3303 B( 16-C , 33-H ) :   0.9832
B( 17-C , 18-O ) :   1.1112 B( 17-C , 19-C ) :   1.3619 B( 18-O , 34-H ) :   0.9786
B( 19-C , 35-H ) :   0.9586

MP2 TOTAL ENERGY:    -1274.322102972 Eh
FINAL SINGLE POINT ENERGY     -1274.322102972461

DIPOLE MOMENT
-------------
                                X             Y             Z
Electronic contribution:      9.39827       6.70224       7.54055
Nuclear contribution   :    -10.87069      -8.39416      -7.34071
                        -----------------------------------------
Total Dipole Moment    :     -1.47242      -1.69192       0.19984
                        -----------------------------------------
Magnitude (a.u.)       :      2.25179
Magnitude (Debye)      :      5.72359

Rotational constants in cm-1:     0.011858     0.009133     0.006286
Rotational constants in MHz :   355.483299   273.792073   188.456135

                             ****ORCA TERMINATED NORMALLY****
TOTAL RUN TIME: 0 days 1 hours 47 minutes 56 seconds 498 msec
