                         Program Version 4.2.0 -  RELEASE  -
|  1> ! ri-mp2 cc-pvtz cc-pvtz/c TightSCF NoKeepInts
|  2>
|  3> %scf
|  4>   MaxCore 4096
|  5> end
|  6> *xyz  0  1
|  7>     C       14.5184981   16.2650888   16.3661683
|  8>     C       15.1570669   16.0037022   14.9841255
|  9>     O       16.5680259   15.6997179   15.0707712
| 10>     C       17.5861764   16.5170435   15.4993008
| 11>     O       18.7474950   16.2475382   15.2569196
| 12>     C       17.2373345   17.6128128   16.4424986
| 13>     C       16.8754905   18.8181176   15.9443389
| 14>     C       16.5004093   19.1304828   14.5102715
| 15>     N       16.8810210   19.9577210   16.7503217
| 16>     C       17.4858595   20.0229273   17.9782792
| 17>     S       17.5663581   21.4343844   18.8360256
| 18>     N       18.0453075   18.8592432   18.4476680
| 19>     C       17.8936936   17.5307994   17.8198522
| 20>     C       17.2859887   16.4565981   18.7086943
| 21>     C       17.7891615   15.1439406   18.6686372
| 22>     C       17.2197071   14.1366182   19.4651207
| 23>     C       16.1362652   14.4444254   20.3058002
| 24>     C       15.6294843   15.7507341   20.3431548
| 25>     O       14.5762879   16.0478174   21.1450698
| 26>     C       16.1979432   16.7518990   19.5490881
| 27>     H       14.9125745   15.5656289   17.1145652
| 28>     H       13.4336352   16.1137344   16.3104566
| 29>     H       14.6794997   17.2893609   16.7174833
| 30>     H       14.6561840   15.1345260   14.5380424
| 31>     H       14.9788856   16.8543914   14.3162480
| 32>     H       16.8599130   18.3692944   13.8068937
| 33>     H       16.9432079   20.0808516   14.1851507
| 34>     H       15.4126147   19.2120091   14.3978957
| 35>     H       16.5113211   20.8271952   16.3993863
| 36>     H       18.4864135   18.9333448   19.3558954
| 37>     H       18.9503713   17.2937412   17.6239661
| 38>     H       18.6198491   14.9026467   18.0083101
| 39>     H       17.6160248   13.1233165   19.4250960
| 40>     H       15.6923210   13.6686188   20.9208875
| 41>     H       14.3509154   15.2448136   21.6386500
| 42>     H       15.7856949   17.7549148   19.5869669
| 43> *
| 44>
| 45>                          ****END OF INPUT****

CARTESIAN COORDINATES (ANGSTROEM)
---------------------------------
  C     14.518498   16.265089   16.366168
  C     15.157067   16.003702   14.984125
  O     16.568026   15.699718   15.070771
  C     17.586176   16.517043   15.499301
  O     18.747495   16.247538   15.256920
  C     17.237334   17.612813   16.442499
  C     16.875491   18.818118   15.944339
  C     16.500409   19.130483   14.510271
  N     16.881021   19.957721   16.750322
  C     17.485860   20.022927   17.978279
  S     17.566358   21.434384   18.836026
  N     18.045307   18.859243   18.447668
  C     17.893694   17.530799   17.819852
  C     17.285989   16.456598   18.708694
  C     17.789161   15.143941   18.668637
  C     17.219707   14.136618   19.465121
  C     16.136265   14.444425   20.305800
  C     15.629484   15.750734   20.343155
  O     14.576288   16.047817   21.145070
  C     16.197943   16.751899   19.549088
  H     14.912574   15.565629   17.114565
  H     13.433635   16.113734   16.310457
  H     14.679500   17.289361   16.717483
  H     14.656184   15.134526   14.538042
  H     14.978886   16.854391   14.316248
  H     16.859913   18.369294   13.806894
  H     16.943208   20.080852   14.185151
  H     15.412615   19.212009   14.397896
  H     16.511321   20.827195   16.399386
  H     18.486414   18.933345   19.355895
  H     18.950371   17.293741   17.623966
  H     18.619849   14.902647   18.008310
  H     17.616025   13.123316   19.425096
  H     15.692321   13.668619   20.920887
  H     14.350915   15.244814   21.638650
  H     15.785695   17.754915   19.586967

 Total Charge           Charge          ....    0
 Multiplicity           Mult            ....    1
 Number of Electrons    NEL             ....  154
 Basis Dimension        Dim             ....  828

ORBITAL ENERGIES
----------------

  NO   OCC          E(Eh)            E(eV)
   0   2.0000     -91.888783     -2500.4209
   1   2.0000     -20.600777      -560.5756
   2   2.0000     -20.599930      -560.5526
   3   2.0000     -20.553066      -559.2774
   4   2.0000     -15.625471      -425.1907
   5   2.0000     -15.609557      -424.7577
   6   2.0000     -11.400933      -310.2352
   7   2.0000     -11.384923      -309.7995
   8   2.0000     -11.327400      -308.2342
   9   2.0000     -11.317470      -307.9640
  10   2.0000     -11.312358      -307.8249
  11   2.0000     -11.311272      -307.7954
  12   2.0000     -11.268709      -306.6372
  13   2.0000     -11.265525      -306.5505
  14   2.0000     -11.262080      -306.4568
  15   2.0000     -11.258474      -306.3587
  16   2.0000     -11.246676      -306.0376
  17   2.0000     -11.242005      -305.9105
  18   2.0000     -11.240872      -305.8797
  19   2.0000     -11.230835      -305.6066
  20   2.0000      -8.893898      -242.0153
  21   2.0000      -6.575485      -178.9280
  22   2.0000      -6.573467      -178.8731
  23   2.0000      -6.572890      -178.8574
  24   2.0000      -1.446737       -39.3677
  25   2.0000      -1.419657       -38.6308
  26   2.0000      -1.361549       -37.0496
  27   2.0000      -1.339340       -36.4453
  28   2.0000      -1.238471       -33.7005
  29   2.0000      -1.162028       -31.6204
  30   2.0000      -1.126715       -30.6595
  31   2.0000      -1.049158       -28.5490
  32   2.0000      -1.038912       -28.2702
  33   2.0000      -1.019959       -27.7545
  34   2.0000      -1.006929       -27.3999
  35   2.0000      -0.990201       -26.9447
  36   2.0000      -0.927109       -25.2279
  37   2.0000      -0.898228       -24.4420
  38   2.0000      -0.853043       -23.2125
  39   2.0000      -0.841665       -22.9029
  40   2.0000      -0.837412       -22.7871
  41   2.0000      -0.830357       -22.5952
  42   2.0000      -0.749641       -20.3988
  43   2.0000      -0.739021       -20.1098
  44   2.0000      -0.732594       -19.9349
  45   2.0000      -0.697490       -18.9797
  46   2.0000      -0.689845       -18.7716
  47   2.0000      -0.679518       -18.4906
  48   2.0000      -0.674297       -18.3485
  49   2.0000      -0.665413       -18.1068
  50   2.0000      -0.651482       -17.7277
  51   2.0000      -0.649737       -17.6802
  52   2.0000      -0.638708       -17.3801
  53   2.0000      -0.614978       -16.7344
  54   2.0000      -0.609864       -16.5952
  55   2.0000      -0.606577       -16.5058
  56   2.0000      -0.603527       -16.4228
  57   2.0000      -0.589959       -16.0536
  58   2.0000      -0.580038       -15.7836
  59   2.0000      -0.576686       -15.6924
  60   2.0000      -0.563796       -15.3417
  61   2.0000      -0.558845       -15.2069
  62   2.0000      -0.541594       -14.7375
  63   2.0000      -0.530050       -14.4234
  64   2.0000      -0.519268       -14.1300
  65   2.0000      -0.512948       -13.9580
  66   2.0000      -0.506326       -13.7778
  67   2.0000      -0.501867       -13.6565
  68   2.0000      -0.488322       -13.2879
  69   2.0000      -0.461894       -12.5688
  70   2.0000      -0.455759       -12.4018
  71   2.0000      -0.454155       -12.3582
  72   2.0000      -0.354988        -9.6597
  73   2.0000      -0.350319        -9.5327
  74   2.0000      -0.328475        -8.9383
  75   2.0000      -0.325603        -8.8601
  76   2.0000      -0.318474        -8.6661
  77   0.0000       0.091347         2.4857
  78   0.0000       0.105911         2.8820
  79   0.0000       0.112862         3.0711
  80   0.0000       0.127467         3.4686
  81   0.0000       0.129525         3.5246

MULLIKEN ATOMIC CHARGES
-----------------------
   0 C :   -0.322101
   1 C :    0.026395
   2 O :   -0.322244
   3 C :    0.418616
   4 O :   -0.377754
   5 C :   -0.198741
   6 C :    0.150482
   7 C :   -0.338980
   8 N :   -0.142079
   9 C :    0.211794
  10 S :   -0.444860
  11 N :   -0.230009
  12 C :    0.062874
  13 C :    0.018813
  14 C :   -0.217882
  15 C :   -0.131692
  16 C :   -0.277366
  17 C :    0.317097
  18 O :   -0.356262
  19 C :   -0.252057
  20 H :    0.125624
  21 H :    0.112929
  22 H :    0.107889
  23 H :    0.131508
  24 H :    0.086308
  25 H :    0.127656
  26 H :    0.132137
  27 H :    0.124074
  28 H :    0.197349
  29 H :    0.204192
  30 H :    0.171203
  31 H :    0.171070
  32 H :    0.164338
  33 H :    0.132607
  34 H :    0.241338
  35 H :    0.175734
Sum of atomic charges:   -0.0000000

LOEWDIN ATOMIC CHARGES
----------------------
   0 C :    0.101633
   1 C :   -0.017008
   2 O :    0.300445
   3 C :   -0.417045
   4 O :    0.124714
   5 C :   -0.076220
   6 C :   -0.098595
   7 C :    0.123932
   8 N :    0.401723
   9 C :   -0.455820
  10 S :   -0.039939
  11 N :    0.396742
  12 C :   -0.048963
  13 C :   -0.043233
  14 C :    0.018611
  15 C :    0.045366
  16 C :   -0.000469
  17 C :   -0.191284
  18 O :    0.396119
  19 C :    0.030139
  20 H :   -0.020025
  21 H :   -0.025721
  22 H :   -0.036211
  23 H :   -0.017625
  24 H :   -0.038146
  25 H :   -0.008545
  26 H :   -0.009988
  27 H :   -0.018066
  28 H :   -0.058252
  29 H :   -0.063939
  30 H :   -0.002804
  31 H :   -0.021933
  32 H :   -0.018227
  33 H :   -0.034602
  34 H :   -0.153150
  35 H :   -0.023614

  Mayer bond orders larger than 0.100000
B(  0-C ,  1-C ) :   0.9502 B(  0-C , 20-H ) :   0.9687 B(  0-C , 21-H ) :   0.9778
B(  0-C , 22-H ) :   0.9738 B(  1-C ,  2-O ) :   0.9092 B(  1-C , 23-H ) :   0.9831
B(  1-C , 24-H ) :   0.9759 B(  2-O ,  3-C ) :   1.1644 B(  3-C ,  4-O ) :   2.1055
B(  3-C ,  5-C ) :   0.9088 B(  5-C ,  6-C ) :   1.7336 B(  5-C , 12-C ) :   0.9374
B(  6-C ,  7-C ) :   0.9339 B(  6-C ,  8-N ) :   1.0928 B(  7-C , 25-H ) :   0.9780
B(  7-C , 26-H ) :   0.9759 B(  7-C , 27-H ) :   0.9664 B(  8-N ,  9-C ) :   1.2029
B(  8-N , 28-H ) :   0.9516 B(  9-C , 10-S ) :   1.6068 B(  9-C , 11-N ) :   1.2874
B( 11-N , 12-C ) :   0.9768 B( 11-N , 29-H ) :   0.9466 B( 12-C , 13-C ) :   0.9652
B( 12-C , 30-H ) :   0.9889 B( 13-C , 14-C ) :   1.3842 B( 13-C , 19-C ) :   1.3503
B( 14-C , 15-C ) :   1.3991 B( 14-C , 31-H ) :   0.9625 B( 15-C , 16-C ) :   1.3608
B( 15-C , 32-H ) :   0.9696 B( 16-C , 17-C ) :   1.3301 B( 16-C , 33-H ) :   0.9847
B( 17-C , 18-O ) :   1.1104 B( 17-C , 19-C ) :   1.3663 B( 18-O , 34-H ) :   0.9793
B( 19-C , 35-H ) :   0.9563

MP2 TOTAL ENERGY:    -1274.321210681 Eh
FINAL SINGLE POINT ENERGY     -1274.321210681044

DIPOLE MOMENT
-------------
                                X             Y             Z
Electronic contribution:      8.79710       6.44130       6.97733
Nuclear contribution   :    -10.45170      -7.79277      -7.54402
                        -----------------------------------------
Total Dipole Moment    :     -1.65460      -1.35148      -0.56669
                        -----------------------------------------
Magnitude (a.u.)       :      2.21028
Magnitude (Debye)      :      5.61808

Rotational constants in cm-1:     0.011711     0.009231     0.006518
Rotational constants in MHz :   351.079668   276.748474   195.402325

                             ****ORCA TERMINATED NORMALLY****
TOTAL RUN TIME: 0 days 2 hours 2 minutes 59 seconds 334 msec
