                         Program Version 4.2.0 -  RELEASE  -
|  1> ! ri-mp2 cc-pvtz cc-pvtz/c TightSCF NoKeepInts
|  2>
|  3> %scf
|  4>   MaxCore 4096
|  5> end
|  6> *xyz  0  1
|  7>     C       14.0135902   16.5529970   15.2907555
|  8>     C       15.1572529   15.7537149   15.9402143
|  9>     O       16.3458112   15.8775531   15.1301089
| 10>     C       17.3957752   16.7087570   15.4268032
| 11>     O       18.4739154   16.6068349   14.8735320
| 12>     C       17.1536803   17.7163400   16.4935151
| 13>     C       16.7633898   18.9583574   16.1287743
| 14>     C       16.2685862   19.3790102   14.7608823
| 15>     N       16.8856131   20.0365101   17.0063869
| 16>     C       17.6108213   19.9973215   18.1689402
| 17>     S       17.8156276   21.3376684   19.1154567
| 18>     N       18.1833775   18.7911057   18.4945880
| 19>     C       17.9477220   17.5185458   17.7829995
| 20>     C       17.4274711   16.3772911   18.6424542
| 21>     C       17.9422109   15.0790780   18.4759173
| 22>     C       17.4457573   14.0113860   19.2420505
| 23>     C       16.4245263   14.2440742   20.1792665
| 24>     C       15.9064401   15.5361346   20.3430371
| 25>     O       14.9128687   15.7615123   21.2386292
| 26>     C       16.4007431   16.5970657   19.5773138
| 27>     H       14.1611294   17.6302996   15.4182155
| 28>     H       13.0557402   16.2907883   15.7566390
| 29>     H       13.9431127   16.3304963   14.2184446
| 30>     H       15.3112448   16.0595555   16.9817745
| 31>     H       14.8649615   14.6956258   15.9554520
| 32>     H       16.0257550   18.5241428   14.1181856
| 33>     H       17.0386429   19.9617857   14.2390609
| 34>     H       15.3655385   19.9971736   14.8341804
| 35>     H       16.5152878   20.9387899   16.7520624
| 36>     H       18.7145360   18.7907223   19.3565496
| 37>     H       18.9738842   17.2939339   17.4543517
| 38>     H       18.7260754   14.8962496   17.7436626
| 39>     H       17.8515490   13.0099380   19.1066792
| 40>     H       16.0381417   13.4217921   20.7727863
| 41>     H       14.7442801   14.9283617   21.7044674
| 42>     H       15.9819406   17.5890868   19.7138624
| 43> *
| 44>
| 45>                          ****END OF INPUT****

CARTESIAN COORDINATES (ANGSTROEM)
---------------------------------
  C     14.013590   16.552997   15.290755
  C     15.157253   15.753715   15.940214
  O     16.345811   15.877553   15.130109
  C     17.395775   16.708757   15.426803
  O     18.473915   16.606835   14.873532
  C     17.153680   17.716340   16.493515
  C     16.763390   18.958357   16.128774
  C     16.268586   19.379010   14.760882
  N     16.885613   20.036510   17.006387
  C     17.610821   19.997321   18.168940
  S     17.815628   21.337668   19.115457
  N     18.183377   18.791106   18.494588
  C     17.947722   17.518546   17.782999
  C     17.427471   16.377291   18.642454
  C     17.942211   15.079078   18.475917
  C     17.445757   14.011386   19.242051
  C     16.424526   14.244074   20.179267
  C     15.906440   15.536135   20.343037
  O     14.912869   15.761512   21.238629
  C     16.400743   16.597066   19.577314
  H     14.161129   17.630300   15.418216
  H     13.055740   16.290788   15.756639
  H     13.943113   16.330496   14.218445
  H     15.311245   16.059555   16.981775
  H     14.864961   14.695626   15.955452
  H     16.025755   18.524143   14.118186
  H     17.038643   19.961786   14.239061
  H     15.365538   19.997174   14.834180
  H     16.515288   20.938790   16.752062
  H     18.714536   18.790722   19.356550
  H     18.973884   17.293934   17.454352
  H     18.726075   14.896250   17.743663
  H     17.851549   13.009938   19.106679
  H     16.038142   13.421792   20.772786
  H     14.744280   14.928362   21.704467
  H     15.981941   17.589087   19.713862

 Total Charge           Charge          ....    0
 Multiplicity           Mult            ....    1
 Number of Electrons    NEL             ....  154
 Basis Dimension        Dim             ....  828

ORBITAL ENERGIES
----------------

  NO   OCC          E(Eh)            E(eV)
   0   2.0000     -91.889145     -2500.4308
   1   2.0000     -20.604258      -560.6704
   2   2.0000     -20.602865      -560.6324
   3   2.0000     -20.552715      -559.2678
   4   2.0000     -15.625016      -425.1783
   5   2.0000     -15.610617      -424.7865
   6   2.0000     -11.399247      -310.1893
   7   2.0000     -11.385424      -309.8131
   8   2.0000     -11.327360      -308.2331
   9   2.0000     -11.322763      -308.1081
  10   2.0000     -11.314787      -307.8910
  11   2.0000     -11.303661      -307.5883
  12   2.0000     -11.270449      -306.6845
  13   2.0000     -11.263788      -306.5033
  14   2.0000     -11.262978      -306.4812
  15   2.0000     -11.260684      -306.4188
  16   2.0000     -11.251455      -306.1677
  17   2.0000     -11.246904      -306.0438
  18   2.0000     -11.246444      -306.0313
  19   2.0000     -11.235148      -305.7239
  20   2.0000      -8.894249      -242.0248
  21   2.0000      -6.575832      -178.9375
  22   2.0000      -6.573819      -178.8827
  23   2.0000      -6.573239      -178.8669
  24   2.0000      -1.448303       -39.4103
  25   2.0000      -1.423955       -38.7478
  26   2.0000      -1.363118       -37.0923
  27   2.0000      -1.339141       -36.4399
  28   2.0000      -1.239007       -33.7151
  29   2.0000      -1.166512       -31.7424
  30   2.0000      -1.127459       -30.6797
  31   2.0000      -1.051751       -28.6196
  32   2.0000      -1.039754       -28.2931
  33   2.0000      -1.024343       -27.8738
  34   2.0000      -1.006069       -27.3765
  35   2.0000      -0.990327       -26.9482
  36   2.0000      -0.927940       -25.2505
  37   2.0000      -0.891274       -24.2528
  38   2.0000      -0.853151       -23.2154
  39   2.0000      -0.844110       -22.9694
  40   2.0000      -0.842093       -22.9145
  41   2.0000      -0.836891       -22.7730
  42   2.0000      -0.757922       -20.6241
  43   2.0000      -0.738672       -20.1003
  44   2.0000      -0.729927       -19.8623
  45   2.0000      -0.702150       -19.1065
  46   2.0000      -0.693621       -18.8744
  47   2.0000      -0.681368       -18.5410
  48   2.0000      -0.676718       -18.4144
  49   2.0000      -0.667043       -18.1512
  50   2.0000      -0.653072       -17.7710
  51   2.0000      -0.641111       -17.4455
  52   2.0000      -0.631630       -17.1875
  53   2.0000      -0.621918       -16.9232
  54   2.0000      -0.613735       -16.7006
  55   2.0000      -0.608283       -16.5522
  56   2.0000      -0.606823       -16.5125
  57   2.0000      -0.585101       -15.9214
  58   2.0000      -0.580007       -15.7828
  59   2.0000      -0.573097       -15.5948
  60   2.0000      -0.566327       -15.4105
  61   2.0000      -0.557433       -15.1685
  62   2.0000      -0.540766       -14.7150
  63   2.0000      -0.538174       -14.6445
  64   2.0000      -0.527013       -14.3408
  65   2.0000      -0.517556       -14.0834
  66   2.0000      -0.504539       -13.7292
  67   2.0000      -0.502150       -13.6642
  68   2.0000      -0.490720       -13.3532
  69   2.0000      -0.468180       -12.7398
  70   2.0000      -0.454346       -12.3634
  71   2.0000      -0.453060       -12.3284
  72   2.0000      -0.357177        -9.7193
  73   2.0000      -0.354194        -9.6381
  74   2.0000      -0.331089        -9.0094
  75   2.0000      -0.328353        -8.9349
  76   2.0000      -0.319399        -8.6913
  77   0.0000       0.091548         2.4912
  78   0.0000       0.100490         2.7345
  79   0.0000       0.119803         3.2600
  80   0.0000       0.125710         3.4207
  81   0.0000       0.126801         3.4504

MULLIKEN ATOMIC CHARGES
-----------------------
   0 C :   -0.303972
   1 C :    0.035071
   2 O :   -0.314924
   3 C :    0.414724
   4 O :   -0.381451
   5 C :   -0.198513
   6 C :    0.137010
   7 C :   -0.333398
   8 N :   -0.137904
   9 C :    0.212296
  10 S :   -0.443899
  11 N :   -0.227499
  12 C :    0.052832
  13 C :    0.010948
  14 C :   -0.219505
  15 C :   -0.132166
  16 C :   -0.273032
  17 C :    0.314630
  18 O :   -0.353574
  19 C :   -0.240569
  20 H :    0.092615
  21 H :    0.108544
  22 H :    0.111507
  23 H :    0.104490
  24 H :    0.119758
  25 H :    0.122856
  26 H :    0.150983
  27 H :    0.113833
  28 H :    0.196417
  29 H :    0.202851
  30 H :    0.168327
  31 H :    0.170153
  32 H :    0.165920
  33 H :    0.134471
  34 H :    0.241860
  35 H :    0.178312
Sum of atomic charges:   -0.0000000

LOEWDIN ATOMIC CHARGES
----------------------
   0 C :    0.103959
   1 C :   -0.017039
   2 O :    0.306192
   3 C :   -0.418211
   4 O :    0.122848
   5 C :   -0.085590
   6 C :   -0.097767
   7 C :    0.124668
   8 N :    0.403088
   9 C :   -0.454175
  10 S :   -0.038913
  11 N :    0.395668
  12 C :   -0.052428
  13 C :   -0.045538
  14 C :    0.016652
  15 C :    0.046593
  16 C :    0.001206
  17 C :   -0.190452
  18 O :    0.397066
  19 C :    0.027850
  20 H :   -0.033339
  21 H :   -0.023283
  22 H :   -0.023961
  23 H :   -0.034195
  24 H :   -0.022294
  25 H :   -0.009815
  26 H :   -0.006943
  27 H :   -0.017759
  28 H :   -0.057361
  29 H :   -0.064478
  30 H :   -0.003973
  31 H :   -0.022839
  32 H :   -0.017540
  33 H :   -0.033786
  34 H :   -0.152201
  35 H :   -0.021910

  Mayer bond orders larger than 0.100000
B(  0-C ,  1-C ) :   0.9668 B(  0-C , 20-H ) :   0.9782 B(  0-C , 21-H ) :   0.9779
B(  0-C , 22-H ) :   0.9742 B(  1-C ,  2-O ) :   0.8971 B(  1-C , 23-H ) :   0.9566
B(  1-C , 24-H ) :   0.9838 B(  2-O ,  3-C ) :   1.1866 B(  3-C ,  4-O ) :   2.1163
B(  3-C ,  5-C ) :   0.8933 B(  5-C ,  6-C ) :   1.7295 B(  5-C , 12-C ) :   0.9465
B(  6-C ,  7-C ) :   0.9463 B(  6-C ,  8-N ) :   1.1061 B(  7-C , 25-H ) :   0.9790
B(  7-C , 26-H ) :   0.9629 B(  7-C , 27-H ) :   0.9728 B(  8-N ,  9-C ) :   1.2037
B(  8-N , 28-H ) :   0.9506 B(  9-C , 10-S ) :   1.6091 B(  9-C , 11-N ) :   1.2854
B( 11-N , 12-C ) :   0.9807 B( 11-N , 29-H ) :   0.9465 B( 12-C , 13-C ) :   0.9685
B( 12-C , 30-H ) :   0.9932 B( 13-C , 14-C ) :   1.3806 B( 13-C , 19-C ) :   1.3464
B( 14-C , 15-C ) :   1.3981 B( 14-C , 31-H ) :   0.9642 B( 15-C , 16-C ) :   1.3641
B( 15-C , 32-H ) :   0.9690 B( 16-C , 17-C ) :   1.3302 B( 16-C , 33-H ) :   0.9836
B( 17-C , 18-O ) :   1.1128 B( 17-C , 19-C ) :   1.3608 B( 18-O , 34-H ) :   0.9786
B( 19-C , 35-H ) :   0.9560

MP2 TOTAL ENERGY:    -1274.328835385 Eh
FINAL SINGLE POINT ENERGY     -1274.328835384859

DIPOLE MOMENT
-------------
                                X             Y             Z
Electronic contribution:      9.99904       6.13741       8.13669
Nuclear contribution   :    -11.56831      -7.75352      -8.15602
                        -----------------------------------------
Total Dipole Moment    :     -1.56927      -1.61612      -0.01933
                        -----------------------------------------
Magnitude (a.u.)       :      2.25273
Magnitude (Debye)      :      5.72600

Rotational constants in cm-1:     0.011392     0.009068     0.006407
Rotational constants in MHz :   341.526822   271.860688   192.073261

                             ****ORCA TERMINATED NORMALLY****
TOTAL RUN TIME: 0 days 1 hours 52 minutes 30 seconds 253 msec
