                         Program Version 4.2.0 -  RELEASE  -
|  1> ! ri-mp2 cc-pvtz cc-pvtz/c TightSCF NoKeepInts
|  2>
|  3> %scf
|  4>   MaxCore 4096
|  5> end
|  6> *xyz  0  1
|  7>     C       14.4388699   15.0896813   15.4175899
|  8>     C       15.1841063   15.7495293   14.2370208
|  9>     O       15.9323200   16.8898106   14.7024516
| 10>     C       16.9202399   16.7226457   15.6297926
| 11>     O       17.5551082   15.6845538   15.7205595
| 12>     C       17.0711643   17.8555489   16.6042471
| 13>     C       16.8142017   19.1492737   16.2762938
| 14>     C       16.1414698   19.6767770   15.0243108
| 15>     N       17.2205313   20.1907893   17.1144697
| 16>     C       18.0685798   20.0432542   18.1788068
| 17>     S       18.5920262   21.3388841   19.0636292
| 18>     N       18.4789089   18.7646324   18.4593449
| 19>     C       17.9690520   17.5427848   17.8073178
| 20>     C       17.3436507   16.5553989   18.7838707
| 21>     C       17.7974270   15.2256966   18.8486788
| 22>     C       17.2158213   14.3149725   19.7465717
| 23>     C       16.1720897   14.7380503   20.5873869
| 24>     C       15.7164160   16.0620820   20.5230716
| 25>     O       14.7053206   16.4717950   21.3299860
| 26>     C       16.2969698   16.9660192   19.6276876
| 27>     H       15.1388644   14.6413908   16.1342256
| 28>     H       13.7797079   14.2925155   15.0533433
| 29>     H       13.8228749   15.8258206   15.9487786
| 30>     H       15.8567756   15.0190587   13.7670316
| 31>     H       14.4561296   16.0758620   13.4833364
| 32>     H       15.0994446   19.3372630   14.9720928
| 33>     H       16.6591467   19.3220038   14.1242567
| 34>     H       16.1300087   20.7724648   14.9760719
| 35>     H       16.9453242   21.1376671   16.9082376
| 36>     H       19.0866160   18.6803161   19.2644068
| 37>     H       18.9019176   17.1372465   17.3891419
| 38>     H       18.5935829   14.8939900   18.1862431
| 39>     H       17.5710981   13.2867285   19.7831944
| 40>     H       15.7190753   14.0375890   21.2809733
| 41>     H       14.4596870   15.7206693   21.8905722
| 42>     H       15.9324729   17.9872349   19.5930064
| 43> *
| 44>
| 45>                          ****END OF INPUT****

CARTESIAN COORDINATES (ANGSTROEM)
---------------------------------
  C     14.438870   15.089681   15.417590
  C     15.184106   15.749529   14.237021
  O     15.932320   16.889811   14.702452
  C     16.920240   16.722646   15.629793
  O     17.555108   15.684554   15.720559
  C     17.071164   17.855549   16.604247
  C     16.814202   19.149274   16.276294
  C     16.141470   19.676777   15.024311
  N     17.220531   20.190789   17.114470
  C     18.068580   20.043254   18.178807
  S     18.592026   21.338884   19.063629
  N     18.478909   18.764632   18.459345
  C     17.969052   17.542785   17.807318
  C     17.343651   16.555399   18.783871
  C     17.797427   15.225697   18.848679
  C     17.215821   14.314972   19.746572
  C     16.172090   14.738050   20.587387
  C     15.716416   16.062082   20.523072
  O     14.705321   16.471795   21.329986
  C     16.296970   16.966019   19.627688
  H     15.138864   14.641391   16.134226
  H     13.779708   14.292516   15.053343
  H     13.822875   15.825821   15.948779
  H     15.856776   15.019059   13.767032
  H     14.456130   16.075862   13.483336
  H     15.099445   19.337263   14.972093
  H     16.659147   19.322004   14.124257
  H     16.130009   20.772465   14.976072
  H     16.945324   21.137667   16.908238
  H     19.086616   18.680316   19.264407
  H     18.901918   17.137246   17.389142
  H     18.593583   14.893990   18.186243
  H     17.571098   13.286728   19.783194
  H     15.719075   14.037589   21.280973
  H     14.459687   15.720669   21.890572
  H     15.932473   17.987235   19.593006

 Total Charge           Charge          ....    0
 Multiplicity           Mult            ....    1
 Number of Electrons    NEL             ....  154
 Basis Dimension        Dim             ....  828

ORBITAL ENERGIES
----------------

  NO   OCC          E(Eh)            E(eV)
   0   2.0000     -91.888162     -2500.4040
   1   2.0000     -20.598667      -560.5182
   2   2.0000     -20.592627      -560.3539
   3   2.0000     -20.546310      -559.0935
   4   2.0000     -15.628622      -425.2764
   5   2.0000     -15.605960      -424.6597
   6   2.0000     -11.395747      -310.0940
   7   2.0000     -11.382808      -309.7419
   8   2.0000     -11.337889      -308.5196
   9   2.0000     -11.308750      -307.7267
  10   2.0000     -11.304522      -307.6117
  11   2.0000     -11.301504      -307.5296
  12   2.0000     -11.260456      -306.4126
  13   2.0000     -11.258708      -306.3650
  14   2.0000     -11.255881      -306.2881
  15   2.0000     -11.248890      -306.0979
  16   2.0000     -11.239030      -305.8296
  17   2.0000     -11.235079      -305.7220
  18   2.0000     -11.231849      -305.6341
  19   2.0000     -11.227025      -305.5029
  20   2.0000      -8.893243      -241.9975
  21   2.0000      -6.574820      -178.9100
  22   2.0000      -6.572818      -178.8555
  23   2.0000      -6.572230      -178.8395
  24   2.0000      -1.452469       -39.5237
  25   2.0000      -1.412382       -38.4329
  26   2.0000      -1.356367       -36.9086
  27   2.0000      -1.339873       -36.4598
  28   2.0000      -1.237127       -33.6639
  29   2.0000      -1.153309       -31.3831
  30   2.0000      -1.121054       -30.5054
  31   2.0000      -1.042654       -28.3720
  32   2.0000      -1.033007       -28.1096
  33   2.0000      -1.010775       -27.5046
  34   2.0000      -0.999002       -27.1842
  35   2.0000      -0.984058       -26.7776
  36   2.0000      -0.921398       -25.0725
  37   2.0000      -0.895527       -24.3685
  38   2.0000      -0.847718       -23.0676
  39   2.0000      -0.835621       -22.7384
  40   2.0000      -0.828996       -22.5581
  41   2.0000      -0.815636       -22.1946
  42   2.0000      -0.750660       -20.4265
  43   2.0000      -0.735541       -20.0151
  44   2.0000      -0.726631       -19.7726
  45   2.0000      -0.691222       -18.8091
  46   2.0000      -0.685951       -18.6657
  47   2.0000      -0.678736       -18.4694
  48   2.0000      -0.669628       -18.2215
  49   2.0000      -0.656691       -17.8695
  50   2.0000      -0.652873       -17.7656
  51   2.0000      -0.644983       -17.5509
  52   2.0000      -0.631993       -17.1974
  53   2.0000      -0.613411       -16.6918
  54   2.0000      -0.603152       -16.4126
  55   2.0000      -0.598896       -16.2968
  56   2.0000      -0.595932       -16.2161
  57   2.0000      -0.578972       -15.7546
  58   2.0000      -0.574020       -15.6199
  59   2.0000      -0.563262       -15.3271
  60   2.0000      -0.555824       -15.1247
  61   2.0000      -0.548479       -14.9249
  62   2.0000      -0.536244       -14.5919
  63   2.0000      -0.531843       -14.4722
  64   2.0000      -0.516590       -14.0571
  65   2.0000      -0.509141       -13.8544
  66   2.0000      -0.497524       -13.5383
  67   2.0000      -0.493861       -13.4386
  68   2.0000      -0.481086       -13.0910
  69   2.0000      -0.463646       -12.6164
  70   2.0000      -0.459651       -12.5077
  71   2.0000      -0.450172       -12.2498
  72   2.0000      -0.353127        -9.6091
  73   2.0000      -0.345427        -9.3995
  74   2.0000      -0.327249        -8.9049
  75   2.0000      -0.317336        -8.6351
  76   2.0000      -0.315442        -8.5836
  77   0.0000       0.076503         2.0818
  78   0.0000       0.110038         2.9943
  79   0.0000       0.120778         3.2865
  80   0.0000       0.135147         3.6775
  81   0.0000       0.141668         3.8550

MULLIKEN ATOMIC CHARGES
-----------------------
   0 C :   -0.305560
   1 C :    0.035036
   2 O :   -0.360845
   3 C :    0.428457
   4 O :   -0.419986
   5 C :   -0.164697
   6 C :    0.152547
   7 C :   -0.279975
   8 N :   -0.128333
   9 C :    0.207892
  10 S :   -0.442120
  11 N :   -0.211537
  12 C :    0.044317
  13 C :    0.031879
  14 C :   -0.174666
  15 C :   -0.134596
  16 C :   -0.277492
  17 C :    0.314578
  18 O :   -0.358789
  19 C :   -0.251075
  20 H :    0.123585
  21 H :    0.098033
  22 H :    0.095633
  23 H :    0.106583
  24 H :    0.107313
  25 H :    0.127672
  26 H :    0.126246
  27 H :    0.101071
  28 H :    0.198837
  29 H :    0.199803
  30 H :    0.155842
  31 H :    0.160842
  32 H :    0.160758
  33 H :    0.128821
  34 H :    0.240036
  35 H :    0.163887
Sum of atomic charges:    0.0000000

LOEWDIN ATOMIC CHARGES
----------------------
   0 C :    0.106178
   1 C :   -0.017145
   2 O :    0.299791
   3 C :   -0.415646
   4 O :    0.107015
   5 C :   -0.092301
   6 C :   -0.064642
   7 C :    0.125676
   8 N :    0.405492
   9 C :   -0.458202
  10 S :   -0.037521
  11 N :    0.396375
  12 C :   -0.048163
  13 C :   -0.040889
  14 C :    0.024266
  15 C :    0.040302
  16 C :   -0.001172
  17 C :   -0.192499
  18 O :    0.393249
  19 C :    0.029786
  20 H :   -0.023239
  21 H :   -0.025836
  22 H :   -0.028861
  23 H :   -0.028177
  24 H :   -0.025144
  25 H :   -0.009652
  26 H :   -0.008724
  27 H :   -0.021225
  28 H :   -0.058650
  29 H :   -0.063281
  30 H :   -0.007996
  31 H :   -0.023786
  32 H :   -0.020908
  33 H :   -0.036027
  34 H :   -0.154752
  35 H :   -0.023692

  Mayer bond orders larger than 0.100000
B(  0-C ,  1-C ) :   0.9596 B(  0-C , 20-H ) :   0.9715 B(  0-C , 21-H ) :   0.9763
B(  0-C , 22-H ) :   0.9760 B(  1-C ,  2-O ) :   0.9004 B(  1-C , 23-H ) :   0.9806
B(  1-C , 24-H ) :   0.9839 B(  2-O ,  3-C ) :   1.1142 B(  3-C ,  4-O ) :   1.9923
B(  3-C ,  5-C ) :   1.0367 B(  5-C ,  6-C ) :   1.6555 B(  5-C , 12-C ) :   0.9501
B(  6-C ,  7-C ) :   0.9561 B(  6-C ,  8-N ) :   1.1371 B(  7-C , 25-H ) :   0.9636
B(  7-C , 26-H ) :   0.9651 B(  7-C , 27-H ) :   0.9904 B(  8-N ,  9-C ) :   1.1853
B(  8-N , 28-H ) :   0.9470 B(  9-C , 10-S ) :   1.6089 B(  9-C , 11-N ) :   1.3053
B( 11-N , 12-C ) :   0.9776 B( 11-N , 29-H ) :   0.9485 B( 12-C , 13-C ) :   0.9710
B( 12-C , 30-H ) :   0.9963 B( 13-C , 14-C ) :   1.3764 B( 13-C , 19-C ) :   1.3661
B( 14-C , 15-C ) :   1.3967 B( 14-C , 31-H ) :   0.9631 B( 15-C , 16-C ) :   1.3589
B( 15-C , 32-H ) :   0.9709 B( 16-C , 17-C ) :   1.3331 B( 16-C , 33-H ) :   0.9858
B( 17-C , 18-O ) :   1.1039 B( 17-C , 19-C ) :   1.3669 B( 18-O , 34-H ) :   0.9805
B( 19-C , 35-H ) :   0.9600

MP2 TOTAL ENERGY:    -1274.338652962 Eh
FINAL SINGLE POINT ENERGY     -1274.338652962417

DIPOLE MOMENT
-------------
                                X             Y             Z
Electronic contribution:      9.49005       9.91079       9.19481
Nuclear contribution   :    -10.89478     -11.21495     -10.26820
                        -----------------------------------------
Total Dipole Moment    :     -1.40472      -1.30416      -1.07339
                        -----------------------------------------
Magnitude (a.u.)       :      2.19687
Magnitude (Debye)      :      5.58400

Rotational constants in cm-1:     0.010479     0.009259     0.005871
Rotational constants in MHz :   314.141393   277.570694   175.997906

                             ****ORCA TERMINATED NORMALLY****
TOTAL RUN TIME: 0 days 1 hours 39 minutes 9 seconds 887 msec
