                         Program Version 4.2.0 -  RELEASE  -
|  1> ! ri-mp2 cc-pvtz cc-pvtz/c TightSCF NoKeepInts
|  2>
|  3> %scf
|  4>   MaxCore 4096
|  5> end
|  6> *xyz  0  1
|  7>     C       14.3532165   15.1288903   15.3087778
|  8>     C       15.8531634   14.7661434   15.3924900
|  9>     O       16.7270090   15.8900235   15.6616044
| 10>     C       16.4025715   17.2065751   15.4681199
| 11>     O       15.7212421   17.5863678   14.5319183
| 12>     C       16.9741317   18.1001886   16.5367007
| 13>     C       17.0157038   19.4476503   16.3735987
| 14>     C       16.3200289   20.2629765   15.3031463
| 15>     N       17.7650565   20.2539374   17.2334825
| 16>     C       18.6420166   19.7806319   18.1715541
| 17>     S       19.5645159   20.7934225   19.0984296
| 18>     N       18.7319553   18.4169502   18.2907408
| 19>     C       17.8829534   17.4379237   17.5862106
| 20>     C       17.1478796   16.5060616   18.5411172
| 21>     C       17.5523204   15.1660708   18.6853557
| 22>     C       16.8684976   14.3045969   19.5596765
| 23>     C       15.7739084   14.7883761   20.2967893
| 24>     C       15.3726684   16.1244358   20.1582042
| 25>     O       14.3167656   16.5941496   20.8690597
| 26>     C       16.0552371   16.9793210   19.2872229
| 27>     H       14.0477401   15.7426108   16.1655872
| 28>     H       13.7447690   14.2166555   15.3146229
| 29>     H       14.1210032   15.6691795   14.3828531
| 30>     H       15.9976816   14.0153370   16.1801125
| 31>     H       16.1488095   14.3041163   14.4416583
| 32>     H       16.7239268   20.0234528   14.3111768
| 33>     H       16.4227008   21.3444716   15.4505622
| 34>     H       15.2462034   20.0367097   15.2827473
| 35>     H       17.7244953   21.2563875   17.1417625
| 36>     H       19.3630924   18.0985243   19.0150244
| 37>     H       18.6444019   16.8864053   17.0165970
| 38>     H       18.3954625   14.7904374   18.1116590
| 39>     H       17.1872724   13.2689756   19.6647507
| 40>     H       15.2428706   14.1273083   20.9738166
| 41>     H       14.0014235   15.8730600   21.4342964
| 42>     H       15.7343053   18.0116756   19.1965739
| 43> *
| 44>
| 45>                          ****END OF INPUT****

CARTESIAN COORDINATES (ANGSTROEM)
---------------------------------
  C     14.353217   15.128890   15.308778
  C     15.853163   14.766143   15.392490
  O     16.727009   15.890023   15.661604
  C     16.402572   17.206575   15.468120
  O     15.721242   17.586368   14.531918
  C     16.974132   18.100189   16.536701
  C     17.015704   19.447650   16.373599
  C     16.320029   20.262977   15.303146
  N     17.765057   20.253937   17.233482
  C     18.642017   19.780632   18.171554
  S     19.564516   20.793422   19.098430
  N     18.731955   18.416950   18.290741
  C     17.882953   17.437924   17.586211
  C     17.147880   16.506062   18.541117
  C     17.552320   15.166071   18.685356
  C     16.868498   14.304597   19.559676
  C     15.773908   14.788376   20.296789
  C     15.372668   16.124436   20.158204
  O     14.316766   16.594150   20.869060
  C     16.055237   16.979321   19.287223
  H     14.047740   15.742611   16.165587
  H     13.744769   14.216655   15.314623
  H     14.121003   15.669180   14.382853
  H     15.997682   14.015337   16.180112
  H     16.148809   14.304116   14.441658
  H     16.723927   20.023453   14.311177
  H     16.422701   21.344472   15.450562
  H     15.246203   20.036710   15.282747
  H     17.724495   21.256387   17.141762
  H     19.363092   18.098524   19.015024
  H     18.644402   16.886405   17.016597
  H     18.395462   14.790437   18.111659
  H     17.187272   13.268976   19.664751
  H     15.242871   14.127308   20.973817
  H     14.001423   15.873060   21.434296
  H     15.734305   18.011676   19.196574

 Total Charge           Charge          ....    0
 Multiplicity           Mult            ....    1
 Number of Electrons    NEL             ....  154
 Basis Dimension        Dim             ....  828

ORBITAL ENERGIES
----------------

  NO   OCC          E(Eh)            E(eV)
   0   2.0000     -91.888686     -2500.4183
   1   2.0000     -20.598332      -560.5091
   2   2.0000     -20.592040      -560.3379
   3   2.0000     -20.540980      -558.9485
   4   2.0000     -15.628985      -425.2863
   5   2.0000     -15.606808      -424.6828
   6   2.0000     -11.395228      -310.0799
   7   2.0000     -11.383372      -309.7573
   8   2.0000     -11.336801      -308.4900
   9   2.0000     -11.315686      -307.9155
  10   2.0000     -11.307138      -307.6829
  11   2.0000     -11.300760      -307.5093
  12   2.0000     -11.262385      -306.4651
  13   2.0000     -11.258086      -306.3481
  14   2.0000     -11.257200      -306.3240
  15   2.0000     -11.251408      -306.1664
  16   2.0000     -11.245354      -306.0016
  17   2.0000     -11.240457      -305.8684
  18   2.0000     -11.240329      -305.8649
  19   2.0000     -11.224008      -305.4208
  20   2.0000      -8.893759      -242.0115
  21   2.0000      -6.575333      -178.9239
  22   2.0000      -6.573334      -178.8695
  23   2.0000      -6.572744      -178.8535
  24   2.0000      -1.443118       -39.2692
  25   2.0000      -1.418000       -38.5857
  26   2.0000      -1.351788       -36.7840
  27   2.0000      -1.340058       -36.4648
  28   2.0000      -1.238042       -33.6888
  29   2.0000      -1.159036       -31.5390
  30   2.0000      -1.120695       -30.4957
  31   2.0000      -1.043606       -28.3980
  32   2.0000      -1.034405       -28.1476
  33   2.0000      -1.016814       -27.6689
  34   2.0000      -0.996333       -27.1116
  35   2.0000      -0.984455       -26.7884
  36   2.0000      -0.922095       -25.0915
  37   2.0000      -0.897515       -24.4226
  38   2.0000      -0.846898       -23.0453
  39   2.0000      -0.839350       -22.8399
  40   2.0000      -0.835787       -22.7429
  41   2.0000      -0.817425       -22.2433
  42   2.0000      -0.744689       -20.2640
  43   2.0000      -0.733509       -19.9598
  44   2.0000      -0.719468       -19.5777
  45   2.0000      -0.696744       -18.9594
  46   2.0000      -0.688066       -18.7232
  47   2.0000      -0.674976       -18.3670
  48   2.0000      -0.672267       -18.2933
  49   2.0000      -0.658095       -17.9077
  50   2.0000      -0.649229       -17.6664
  51   2.0000      -0.641512       -17.4564
  52   2.0000      -0.634866       -17.2756
  53   2.0000      -0.618074       -16.8186
  54   2.0000      -0.608341       -16.5538
  55   2.0000      -0.601667       -16.3722
  56   2.0000      -0.599960       -16.3258
  57   2.0000      -0.578456       -15.7406
  58   2.0000      -0.570140       -15.5143
  59   2.0000      -0.566206       -15.4073
  60   2.0000      -0.555285       -15.1101
  61   2.0000      -0.542163       -14.7530
  62   2.0000      -0.535240       -14.5646
  63   2.0000      -0.525586       -14.3019
  64   2.0000      -0.521517       -14.1912
  65   2.0000      -0.513546       -13.9743
  66   2.0000      -0.500666       -13.6238
  67   2.0000      -0.497194       -13.5294
  68   2.0000      -0.486049       -13.2261
  69   2.0000      -0.462814       -12.5938
  70   2.0000      -0.453973       -12.3532
  71   2.0000      -0.441237       -12.0067
  72   2.0000      -0.352860        -9.6018
  73   2.0000      -0.350883        -9.5480
  74   2.0000      -0.328111        -8.9283
  75   2.0000      -0.323037        -8.7903
  76   2.0000      -0.317958        -8.6521
  77   0.0000       0.076406         2.0791
  78   0.0000       0.102541         2.7903
  79   0.0000       0.124635         3.3915
  80   0.0000       0.132191         3.5971
  81   0.0000       0.136520         3.7149

MULLIKEN ATOMIC CHARGES
-----------------------
   0 C :   -0.311650
   1 C :    0.048975
   2 O :   -0.369090
   3 C :    0.451713
   4 O :   -0.428381
   5 C :   -0.247444
   6 C :    0.177954
   7 C :   -0.267600
   8 N :   -0.125768
   9 C :    0.211983
  10 S :   -0.442548
  11 N :   -0.216917
  12 C :    0.073466
  13 C :    0.045290
  14 C :   -0.195213
  15 C :   -0.128252
  16 C :   -0.278665
  17 C :    0.318633
  18 O :   -0.356598
  19 C :   -0.254936
  20 H :    0.100548
  21 H :    0.098787
  22 H :    0.125994
  23 H :    0.101802
  24 H :    0.104059
  25 H :    0.129991
  26 H :    0.094518
  27 H :    0.132507
  28 H :    0.199412
  29 H :    0.200478
  30 H :    0.151968
  31 H :    0.155554
  32 H :    0.163261
  33 H :    0.131205
  34 H :    0.240929
  35 H :    0.164034
Sum of atomic charges:   -0.0000000

LOEWDIN ATOMIC CHARGES
----------------------
   0 C :    0.104758
   1 C :   -0.010041
   2 O :    0.295117
   3 C :   -0.416091
   4 O :    0.104814
   5 C :   -0.096873
   6 C :   -0.056529
   7 C :    0.131043
   8 N :    0.407162
   9 C :   -0.455999
  10 S :   -0.037004
  11 N :    0.394374
  12 C :   -0.054553
  13 C :   -0.038670
  14 C :    0.017594
  15 C :    0.038586
  16 C :   -0.001242
  17 C :   -0.189914
  18 O :    0.395373
  19 C :    0.032621
  20 H :   -0.027360
  21 H :   -0.026337
  22 H :   -0.024855
  23 H :   -0.027215
  24 H :   -0.028881
  25 H :   -0.004749
  26 H :   -0.023754
  27 H :   -0.004664
  28 H :   -0.057213
  29 H :   -0.064730
  30 H :   -0.013254
  31 H :   -0.028653
  32 H :   -0.021103
  33 H :   -0.035235
  34 H :   -0.153675
  35 H :   -0.022846

  Mayer bond orders larger than 0.100000
B(  0-C ,  1-C ) :   0.9638 B(  0-C , 20-H ) :   0.9744 B(  0-C , 21-H ) :   0.9753
B(  0-C , 22-H ) :   0.9724 B(  1-C ,  2-O ) :   0.8963 B(  1-C , 23-H ) :   0.9766
B(  1-C , 24-H ) :   0.9842 B(  2-O ,  3-C ) :   1.1397 B(  3-C ,  4-O ) :   1.9787
B(  3-C ,  5-C ) :   1.0566 B(  5-C ,  6-C ) :   1.6344 B(  5-C , 12-C ) :   0.9558
B(  6-C ,  7-C ) :   0.9652 B(  6-C ,  8-N ) :   1.1563 B(  7-C , 25-H ) :   0.9587
B(  7-C , 26-H ) :   0.9902 B(  7-C , 27-H ) :   0.9617 B(  8-N ,  9-C ) :   1.1870
B(  8-N , 28-H ) :   0.9466 B(  9-C , 10-S ) :   1.6046 B(  9-C , 11-N ) :   1.3103
B( 11-N , 12-C ) :   0.9677 B( 11-N , 29-H ) :   0.9486 B( 12-C , 13-C ) :   0.9617
B( 12-C , 30-H ) :   1.0000 B( 13-C , 14-C ) :   1.3498 B( 13-C , 19-C ) :   1.3780
B( 14-C , 15-C ) :   1.3891 B( 14-C , 31-H ) :   0.9713 B( 15-C , 16-C ) :   1.3601
B( 15-C , 32-H ) :   0.9700 B( 16-C , 17-C ) :   1.3333 B( 16-C , 33-H ) :   0.9847
B( 17-C , 18-O ) :   1.1050 B( 17-C , 19-C ) :   1.3631 B( 18-O , 34-H ) :   0.9795
B( 19-C , 35-H ) :   0.9598

MP2 TOTAL ENERGY:    -1274.334023939 Eh
FINAL SINGLE POINT ENERGY     -1274.334023938937

DIPOLE MOMENT
-------------
                                X             Y             Z
Electronic contribution:      9.80581       9.78015       7.93928
Nuclear contribution   :    -10.83894     -11.55984      -8.17006
                        -----------------------------------------
Total Dipole Moment    :     -1.03313      -1.77968      -0.23077
                        -----------------------------------------
Magnitude (a.u.)       :      2.07072
Magnitude (Debye)      :      5.26336

Rotational constants in cm-1:     0.011911     0.008579     0.006033
Rotational constants in MHz :   357.072727   257.190146   180.873288

                             ****ORCA TERMINATED NORMALLY****
TOTAL RUN TIME: 0 days 1 hours 57 minutes 29 seconds 389 msec
