                         Program Version 4.2.0 -  RELEASE  -
|  1> ! ri-mp2 cc-pvtz cc-pvtz/c TightSCF NoKeepInts
|  2>
|  3> %scf
|  4>   MaxCore 4096
|  5> end
|  6> *xyz  0  1
|  7>     C       14.5334732   14.8842780   15.7475681
|  8>     C       15.9350530   14.8324288   15.1028539
|  9>     O       16.7546447   15.8930421   15.6294650
| 10>     C       16.4071761   17.2024754   15.4422962
| 11>     O       15.6994365   17.5583885   14.5150750
| 12>     C       16.9613494   18.1075471   16.5089493
| 13>     C       16.9978046   19.4530963   16.3331244
| 14>     C       16.3140203   20.2517000   15.2427652
| 15>     N       17.7319753   20.2713191   17.1947586
| 16>     C       18.5988801   19.8107826   18.1486220
| 17>     S       19.5043742   20.8368208   19.0776603
| 18>     N       18.6937124   18.4485430   18.2819917
| 19>     C       17.8587346   17.4585866   17.5755618
| 20>     C       17.1092275   16.5352078   18.5275163
| 21>     C       17.4712413   15.1806342   18.6454429
| 22>     C       16.7709058   14.3280079   19.5153383
| 23>     C       15.7024855   14.8352281   20.2747141
| 24>     C       15.3432316   16.1855516   20.1619909
| 25>     O       14.3120066   16.6776554   20.8936287
| 26>     C       16.0419554   17.0314858   19.2950942
| 27>     H       14.6120005   14.8886557   16.8423713
| 28>     H       13.9453818   14.0075766   15.4510009
| 29>     H       13.9803429   15.7785684   15.4351402
| 30>     H       16.4035439   13.8663607   15.3299672
| 31>     H       15.8480820   14.9227040   14.0115375
| 32>     H       16.7227027   19.9912804   14.2581020
| 33>     H       16.4223623   21.3351766   15.3703599
| 34>     H       15.2390380   20.0310605   15.2199635
| 35>     H       17.6871948   21.2727050   17.0937268
| 36>     H       19.3166896   18.1397658   19.0174738
| 37>     H       18.6303480   16.9038600   17.0230783
| 38>     H       18.2922757   14.7863022   18.0526551
| 39>     H       17.0558989   13.2806672   19.5983943
| 40>     H       15.1585690   14.1808207   20.9479221
| 41>     H       13.9781737   15.9570795   21.4487573
| 42>     H       15.7527080   18.0746377   19.2231329
| 43> *
| 44>
| 45>                          ****END OF INPUT****

CARTESIAN COORDINATES (ANGSTROEM)
---------------------------------
  C     14.533473   14.884278   15.747568
  C     15.935053   14.832429   15.102854
  O     16.754645   15.893042   15.629465
  C     16.407176   17.202475   15.442296
  O     15.699436   17.558388   14.515075
  C     16.961349   18.107547   16.508949
  C     16.997805   19.453096   16.333124
  C     16.314020   20.251700   15.242765
  N     17.731975   20.271319   17.194759
  C     18.598880   19.810783   18.148622
  S     19.504374   20.836821   19.077660
  N     18.693712   18.448543   18.281992
  C     17.858735   17.458587   17.575562
  C     17.109227   16.535208   18.527516
  C     17.471241   15.180634   18.645443
  C     16.770906   14.328008   19.515338
  C     15.702485   14.835228   20.274714
  C     15.343232   16.185552   20.161991
  O     14.312007   16.677655   20.893629
  C     16.041955   17.031486   19.295094
  H     14.612001   14.888656   16.842371
  H     13.945382   14.007577   15.451001
  H     13.980343   15.778568   15.435140
  H     16.403544   13.866361   15.329967
  H     15.848082   14.922704   14.011537
  H     16.722703   19.991280   14.258102
  H     16.422362   21.335177   15.370360
  H     15.239038   20.031060   15.219963
  H     17.687195   21.272705   17.093727
  H     19.316690   18.139766   19.017474
  H     18.630348   16.903860   17.023078
  H     18.292276   14.786302   18.052655
  H     17.055899   13.280667   19.598394
  H     15.158569   14.180821   20.947922
  H     13.978174   15.957079   21.448757
  H     15.752708   18.074638   19.223133

 Total Charge           Charge          ....    0
 Multiplicity           Mult            ....    1
 Number of Electrons    NEL             ....  154
 Basis Dimension        Dim             ....  828

ORBITAL ENERGIES
----------------

  NO   OCC          E(Eh)            E(eV)
   0   2.0000     -91.889056     -2500.4283
   1   2.0000     -20.597587      -560.4888
   2   2.0000     -20.597072      -560.4748
   3   2.0000     -20.541284      -558.9568
   4   2.0000     -15.629457      -425.2992
   5   2.0000     -15.607263      -424.6952
   6   2.0000     -11.394796      -310.0682
   7   2.0000     -11.383823      -309.7696
   8   2.0000     -11.337431      -308.5072
   9   2.0000     -11.314969      -307.8960
  10   2.0000     -11.307630      -307.6963
  11   2.0000     -11.297650      -307.4247
  12   2.0000     -11.261678      -306.4458
  13   2.0000     -11.258949      -306.3716
  14   2.0000     -11.256295      -306.2994
  15   2.0000     -11.251881      -306.1792
  16   2.0000     -11.244868      -305.9884
  17   2.0000     -11.240050      -305.8573
  18   2.0000     -11.239646      -305.8463
  19   2.0000     -11.222325      -305.3750
  20   2.0000      -8.894124      -242.0214
  21   2.0000      -6.575696      -178.9338
  22   2.0000      -6.573698      -178.8794
  23   2.0000      -6.573108      -178.8634
  24   2.0000      -1.449303       -39.4375
  25   2.0000      -1.417289       -38.5664
  26   2.0000      -1.353233       -36.8233
  27   2.0000      -1.340453       -36.4756
  28   2.0000      -1.238387       -33.6982
  29   2.0000      -1.158697       -31.5298
  30   2.0000      -1.121508       -30.5178
  31   2.0000      -1.043557       -28.3966
  32   2.0000      -1.034353       -28.1462
  33   2.0000      -1.016116       -27.6499
  34   2.0000      -0.996260       -27.1096
  35   2.0000      -0.984900       -26.8005
  36   2.0000      -0.922286       -25.0967
  37   2.0000      -0.895364       -24.3641
  38   2.0000      -0.846848       -23.0439
  39   2.0000      -0.838893       -22.8274
  40   2.0000      -0.835220       -22.7275
  41   2.0000      -0.815614       -22.1940
  42   2.0000      -0.752426       -20.4745
  43   2.0000      -0.734379       -19.9835
  44   2.0000      -0.722506       -19.6604
  45   2.0000      -0.696420       -18.9506
  46   2.0000      -0.689351       -18.7582
  47   2.0000      -0.677942       -18.4477
  48   2.0000      -0.671496       -18.2723
  49   2.0000      -0.659867       -17.9559
  50   2.0000      -0.647512       -17.6197
  51   2.0000      -0.639634       -17.4053
  52   2.0000      -0.634067       -17.2538
  53   2.0000      -0.613335       -16.6897
  54   2.0000      -0.607652       -16.5351
  55   2.0000      -0.601101       -16.3568
  56   2.0000      -0.599864       -16.3231
  57   2.0000      -0.578137       -15.7319
  58   2.0000      -0.570178       -15.5153
  59   2.0000      -0.566577       -15.4174
  60   2.0000      -0.556835       -15.1522
  61   2.0000      -0.545031       -14.8311
  62   2.0000      -0.533990       -14.5306
  63   2.0000      -0.528641       -14.3850
  64   2.0000      -0.524695       -14.2777
  65   2.0000      -0.513360       -13.9692
  66   2.0000      -0.500583       -13.6216
  67   2.0000      -0.498415       -13.5626
  68   2.0000      -0.481996       -13.1158
  69   2.0000      -0.463991       -12.6258
  70   2.0000      -0.454790       -12.3755
  71   2.0000      -0.445319       -12.1178
  72   2.0000      -0.353410        -9.6168
  73   2.0000      -0.350773        -9.5450
  74   2.0000      -0.328304        -8.9336
  75   2.0000      -0.322323        -8.7709
  76   2.0000      -0.318276        -8.6607
  77   0.0000       0.076458         2.0805
  78   0.0000       0.103996         2.8299
  79   0.0000       0.124738         3.3943
  80   0.0000       0.132062         3.5936
  81   0.0000       0.137111         3.7310

MULLIKEN ATOMIC CHARGES
-----------------------
   0 C :   -0.313396
   1 C :    0.022850
   2 O :   -0.361290
   3 C :    0.450721
   4 O :   -0.438181
   5 C :   -0.233596
   6 C :    0.174071
   7 C :   -0.267994
   8 N :   -0.125912
   9 C :    0.210802
  10 S :   -0.441612
  11 N :   -0.216102
  12 C :    0.068811
  13 C :    0.032126
  14 C :   -0.181672
  15 C :   -0.133856
  16 C :   -0.276741
  17 C :    0.313336
  18 O :   -0.356927
  19 C :   -0.242000
  20 H :    0.110349
  21 H :    0.098777
  22 H :    0.116542
  23 H :    0.111653
  24 H :    0.116896
  25 H :    0.129351
  26 H :    0.094856
  27 H :    0.133874
  28 H :    0.199652
  29 H :    0.200332
  30 H :    0.153294
  31 H :    0.154627
  32 H :    0.160967
  33 H :    0.131091
  34 H :    0.240672
  35 H :    0.163631
Sum of atomic charges:    0.0000000

LOEWDIN ATOMIC CHARGES
----------------------
   0 C :    0.105165
   1 C :   -0.017615
   2 O :    0.304288
   3 C :   -0.414489
   4 O :    0.096827
   5 C :   -0.095271
   6 C :   -0.056615
   7 C :    0.131476
   8 N :    0.407199
   9 C :   -0.456113
  10 S :   -0.036372
  11 N :    0.394582
  12 C :   -0.054080
  13 C :   -0.040184
  14 C :    0.016875
  15 C :    0.038615
  16 C :   -0.001247
  17 C :   -0.190399
  18 O :    0.395554
  19 C :    0.033061
  20 H :   -0.025748
  21 H :   -0.027099
  22 H :   -0.026045
  23 H :   -0.025111
  24 H :   -0.028079
  25 H :   -0.004829
  26 H :   -0.023590
  27 H :   -0.004342
  28 H :   -0.057126
  29 H :   -0.064488
  30 H :   -0.013303
  31 H :   -0.028748
  32 H :   -0.021184
  33 H :   -0.035191
  34 H :   -0.153795
  35 H :   -0.022579

  Mayer bond orders larger than 0.100000
B(  0-C ,  1-C ) :   0.9576 B(  0-C , 20-H ) :   0.9711 B(  0-C , 21-H ) :   0.9780
B(  0-C , 22-H ) :   0.9747 B(  1-C ,  2-O ) :   0.8952 B(  1-C , 23-H ) :   0.9839
B(  1-C , 24-H ) :   0.9828 B(  2-O ,  3-C ) :   1.1481 B(  3-C ,  4-O ) :   1.9617
B(  3-C ,  5-C ) :   1.0673 B(  5-C ,  6-C ) :   1.6396 B(  5-C , 12-C ) :   0.9548
B(  6-C ,  7-C ) :   0.9643 B(  6-C ,  8-N ) :   1.1558 B(  7-C , 25-H ) :   0.9592
B(  7-C , 26-H ) :   0.9903 B(  7-C , 27-H ) :   0.9612 B(  8-N ,  9-C ) :   1.1869
B(  8-N , 28-H ) :   0.9463 B(  9-C , 10-S ) :   1.6063 B(  9-C , 11-N ) :   1.3090
B( 11-N , 12-C ) :   0.9700 B( 11-N , 29-H ) :   0.9485 B( 12-C , 13-C ) :   0.9607
B( 12-C , 30-H ) :   0.9999 B( 13-C , 14-C ) :   1.3547 B( 13-C , 19-C ) :   1.3813
B( 14-C , 15-C ) :   1.3931 B( 14-C , 31-H ) :   0.9709 B( 15-C , 16-C ) :   1.3581
B( 15-C , 32-H ) :   0.9710 B( 16-C , 17-C ) :   1.3335 B( 16-C , 33-H ) :   0.9849
B( 17-C , 18-O ) :   1.1059 B( 17-C , 19-C ) :   1.3648 B( 18-O , 34-H ) :   0.9797
B( 19-C , 35-H ) :   0.9591

MP2 TOTAL ENERGY:    -1274.343214267 Eh
FINAL SINGLE POINT ENERGY     -1274.343214267177

DIPOLE MOMENT
-------------
                                X             Y             Z
Electronic contribution:      9.37868      10.23040       7.45184
Nuclear contribution   :    -10.31849     -11.99490      -7.77812
                        -----------------------------------------
Total Dipole Moment    :     -0.93981      -1.76450      -0.32628
                        -----------------------------------------
Magnitude (a.u.)       :      2.02562
Magnitude (Debye)      :      5.14873

Rotational constants in cm-1:     0.012046     0.008594     0.006056
Rotational constants in MHz :   361.136741   257.627033   181.553888

                             ****ORCA TERMINATED NORMALLY****
TOTAL RUN TIME: 0 days 1 hours 53 minutes 52 seconds 382 msec
