                         Program Version 4.2.0 -  RELEASE  -
|  1> ! ri-mp2 cc-pvtz cc-pvtz/c TightSCF NoKeepInts
|  2>
|  3> %scf
|  4>   MaxCore 4096
|  5> end
|  6> *xyz  0  1
|  7>     C       14.0999887   16.1952562   15.2839761
|  8>     C       15.2830259   15.6254536   16.0860658
|  9>     O       16.4793522   15.7773542   15.2940783
| 10>     C       17.3064141   16.8704846   15.3328889
| 11>     O       18.1549690   17.0542309   14.4808134
| 12>     C       17.1067038   17.8235402   16.4618880
| 13>     C       16.8178550   19.1090444   16.1575828
| 14>     C       16.3266821   19.6106524   14.8167142
| 15>     N       17.0202836   20.1361285   17.0805575
| 16>     C       17.7460402   19.9935469   18.2338800
| 17>     S       18.0572226   21.2718148   19.2356923
| 18>     N       18.2271218   18.7350761   18.5028896
| 19>     C       17.8870367   17.5137276   17.7454824
| 20>     C       17.3363667   16.3763926   18.5918628
| 21>     C       17.8040016   15.0631477   18.4028679
| 22>     C       17.2826596   14.0040059   19.1643324
| 23>     C       16.2869962   14.2607439   20.1224727
| 24>     C       15.8199869   15.5684393   20.3131793
| 25>     O       14.8531465   15.8179672   21.2312203
| 26>     C       16.3384098   16.6208533   19.5516979
| 27>     H       14.1855890   17.2823118   15.1762865
| 28>     H       13.1533148   15.9790693   15.7941284
| 29>     H       14.0590882   15.7473058   14.2829176
| 30>     H       15.3412576   16.1098779   17.0644824
| 31>     H       15.1063575   14.5553038   16.2554574
| 32>     H       15.7652210   18.8413949   14.2735922
| 33>     H       17.1782490   19.8942472   14.1841528
| 34>     H       15.6702480   20.4833546   14.9171861
| 35>     H       16.7190907   21.0736511   16.8660394
| 36>     H       18.7588779   18.6589715   19.3611982
| 37>     H       18.8923763   17.2382594   17.3930739
| 38>     H       18.5685160   14.8610829   17.6559044
| 39>     H       17.6502110   12.9905169   19.0102731
| 40>     H       15.8819659   13.4452103   20.7129799
| 41>     H       14.6623958   14.9856842   21.6900470
| 42>     H       15.9599782   17.6258979   19.7101378
| 43> *
| 44>
| 45>                          ****END OF INPUT****

CARTESIAN COORDINATES (ANGSTROEM)
---------------------------------
  C     14.099989   16.195256   15.283976
  C     15.283026   15.625454   16.086066
  O     16.479352   15.777354   15.294078
  C     17.306414   16.870485   15.332889
  O     18.154969   17.054231   14.480813
  C     17.106704   17.823540   16.461888
  C     16.817855   19.109044   16.157583
  C     16.326682   19.610652   14.816714
  N     17.020284   20.136129   17.080557
  C     17.746040   19.993547   18.233880
  S     18.057223   21.271815   19.235692
  N     18.227122   18.735076   18.502890
  C     17.887037   17.513728   17.745482
  C     17.336367   16.376393   18.591863
  C     17.804002   15.063148   18.402868
  C     17.282660   14.004006   19.164332
  C     16.286996   14.260744   20.122473
  C     15.819987   15.568439   20.313179
  O     14.853146   15.817967   21.231220
  C     16.338410   16.620853   19.551698
  H     14.185589   17.282312   15.176286
  H     13.153315   15.979069   15.794128
  H     14.059088   15.747306   14.282918
  H     15.341258   16.109878   17.064482
  H     15.106357   14.555304   16.255457
  H     15.765221   18.841395   14.273592
  H     17.178249   19.894247   14.184153
  H     15.670248   20.483355   14.917186
  H     16.719091   21.073651   16.866039
  H     18.758878   18.658971   19.361198
  H     18.892376   17.238259   17.393074
  H     18.568516   14.861083   17.655904
  H     17.650211   12.990517   19.010273
  H     15.881966   13.445210   20.712980
  H     14.662396   14.985684   21.690047
  H     15.959978   17.625898   19.710138

 Total Charge           Charge          ....    0
 Multiplicity           Mult            ....    1
 Number of Electrons    NEL             ....  154
 Basis Dimension        Dim             ....  828

ORBITAL ENERGIES
----------------

  NO   OCC          E(Eh)            E(eV)
   0   2.0000     -91.889943     -2500.4525
   1   2.0000     -20.605032      -560.6914
   2   2.0000     -20.600852      -560.5777
   3   2.0000     -20.551516      -559.2352
   4   2.0000     -15.626050      -425.2064
   5   2.0000     -15.611284      -424.8046
   6   2.0000     -11.397796      -310.1498
   7   2.0000     -11.385689      -309.8203
   8   2.0000     -11.327854      -308.2466
   9   2.0000     -11.323731      -308.1344
  10   2.0000     -11.317346      -307.9606
  11   2.0000     -11.300775      -307.5097
  12   2.0000     -11.271249      -306.7063
  13   2.0000     -11.264892      -306.5333
  14   2.0000     -11.259125      -306.3764
  15   2.0000     -11.258306      -306.3541
  16   2.0000     -11.252837      -306.2053
  17   2.0000     -11.247895      -306.0708
  18   2.0000     -11.247853      -306.0697
  19   2.0000     -11.232906      -305.6629
  20   2.0000      -8.895023      -242.0459
  21   2.0000      -6.576600      -178.9584
  22   2.0000      -6.574594      -178.9038
  23   2.0000      -6.574009      -178.8879
  24   2.0000      -1.447003       -39.3750
  25   2.0000      -1.424756       -38.7696
  26   2.0000      -1.361389       -37.0453
  27   2.0000      -1.339715       -36.4555
  28   2.0000      -1.239803       -33.7367
  29   2.0000      -1.167104       -31.7585
  30   2.0000      -1.126412       -30.6512
  31   2.0000      -1.051912       -28.6240
  32   2.0000      -1.037748       -28.2386
  33   2.0000      -1.025213       -27.8975
  34   2.0000      -1.004629       -27.3373
  35   2.0000      -0.990149       -26.9433
  36   2.0000      -0.927781       -25.2462
  37   2.0000      -0.890795       -24.2398
  38   2.0000      -0.852683       -23.2027
  39   2.0000      -0.844922       -22.9915
  40   2.0000      -0.843071       -22.9411
  41   2.0000      -0.835912       -22.7463
  42   2.0000      -0.757886       -20.6231
  43   2.0000      -0.739571       -20.1247
  44   2.0000      -0.724697       -19.7200
  45   2.0000      -0.703278       -19.1372
  46   2.0000      -0.694225       -18.8908
  47   2.0000      -0.679756       -18.4971
  48   2.0000      -0.677907       -18.4468
  49   2.0000      -0.667738       -18.1701
  50   2.0000      -0.652043       -17.7430
  51   2.0000      -0.644915       -17.5490
  52   2.0000      -0.632077       -17.1997
  53   2.0000      -0.617964       -16.8157
  54   2.0000      -0.613952       -16.7065
  55   2.0000      -0.608301       -16.5527
  56   2.0000      -0.605226       -16.4690
  57   2.0000      -0.584880       -15.9154
  58   2.0000      -0.579518       -15.7695
  59   2.0000      -0.567311       -15.4373
  60   2.0000      -0.564179       -15.3521
  61   2.0000      -0.553131       -15.0514
  62   2.0000      -0.546861       -14.8808
  63   2.0000      -0.533983       -14.5304
  64   2.0000      -0.528156       -14.3719
  65   2.0000      -0.518514       -14.1095
  66   2.0000      -0.505976       -13.7683
  67   2.0000      -0.504877       -13.7384
  68   2.0000      -0.488459       -13.2916
  69   2.0000      -0.466891       -12.7048
  70   2.0000      -0.455134       -12.3848
  71   2.0000      -0.449340       -12.2272
  72   2.0000      -0.358585        -9.7576
  73   2.0000      -0.352347        -9.5878
  74   2.0000      -0.331913        -9.0318
  75   2.0000      -0.328956        -8.9514
  76   2.0000      -0.320001        -8.7077
  77   0.0000       0.088113         2.3977
  78   0.0000       0.096959         2.6384
  79   0.0000       0.121053         3.2940
  80   0.0000       0.126659         3.4466
  81   0.0000       0.128188         3.4882

MULLIKEN ATOMIC CHARGES
-----------------------
   0 C :   -0.288690
   1 C :    0.034855
   2 O :   -0.315986
   3 C :    0.406648
   4 O :   -0.378469
   5 C :   -0.204366
   6 C :    0.143035
   7 C :   -0.300091
   8 N :   -0.136362
   9 C :    0.214300
  10 S :   -0.441459
  11 N :   -0.225696
  12 C :    0.031404
  13 C :    0.013848
  14 C :   -0.201971
  15 C :   -0.136296
  16 C :   -0.271719
  17 C :    0.311361
  18 O :   -0.352884
  19 C :   -0.237540
  20 H :    0.086924
  21 H :    0.100975
  22 H :    0.111263
  23 H :    0.103565
  24 H :    0.119322
  25 H :    0.114208
  26 H :    0.147850
  27 H :    0.103541
  28 H :    0.197496
  29 H :    0.203094
  30 H :    0.165419
  31 H :    0.160217
  32 H :    0.166330
  33 H :    0.135452
  34 H :    0.241820
  35 H :    0.178599
Sum of atomic charges:    0.0000000

LOEWDIN ATOMIC CHARGES
----------------------
   0 C :    0.104339
   1 C :   -0.019367
   2 O :    0.308563
   3 C :   -0.419957
   4 O :    0.124484
   5 C :   -0.093064
   6 C :   -0.088313
   7 C :    0.128756
   8 N :    0.404462
   9 C :   -0.454506
  10 S :   -0.036772
  11 N :    0.395668
  12 C :   -0.054049
  13 C :   -0.045837
  14 C :    0.019244
  15 C :    0.045915
  16 C :    0.001437
  17 C :   -0.190629
  18 O :    0.397489
  19 C :    0.029078
  20 H :   -0.034291
  21 H :   -0.024548
  22 H :   -0.023445
  23 H :   -0.038066
  24 H :   -0.021948
  25 H :   -0.012802
  26 H :   -0.003825
  27 H :   -0.019013
  28 H :   -0.057738
  29 H :   -0.064172
  30 H :   -0.007458
  31 H :   -0.024867
  32 H :   -0.017743
  33 H :   -0.033507
  34 H :   -0.152078
  35 H :   -0.021440

  Mayer bond orders larger than 0.100000
B(  0-C ,  1-C ) :   0.9750 B(  0-C , 20-H ) :   0.9783 B(  0-C , 21-H ) :   0.9769
B(  0-C , 22-H ) :   0.9766 B(  1-C ,  2-O ) :   0.8856 B(  1-C , 23-H ) :   0.9540
B(  1-C , 24-H ) :   0.9811 B(  2-O ,  3-C ) :   1.1871 B(  3-C ,  4-O ) :   2.1260
B(  3-C ,  5-C ) :   0.9008 B(  5-C ,  6-C ) :   1.7148 B(  5-C , 12-C ) :   0.9546
B(  6-C ,  7-C ) :   0.9457 B(  6-C ,  8-N ) :   1.1176 B(  7-C , 25-H ) :   0.9798
B(  7-C , 26-H ) :   0.9580 B(  7-C , 27-H ) :   0.9813 B(  8-N ,  9-C ) :   1.2017
B(  8-N , 28-H ) :   0.9499 B(  9-C , 10-S ) :   1.6113 B(  9-C , 11-N ) :   1.2848
B( 11-N , 12-C ) :   0.9780 B( 11-N , 29-H ) :   0.9457 B( 12-C , 13-C ) :   0.9664
B( 12-C , 30-H ) :   1.0002 B( 13-C , 14-C ) :   1.3786 B( 13-C , 19-C ) :   1.3460
B( 14-C , 15-C ) :   1.3966 B( 14-C , 31-H ) :   0.9703 B( 15-C , 16-C ) :   1.3622
B( 15-C , 32-H ) :   0.9691 B( 16-C , 17-C ) :   1.3311 B( 16-C , 33-H ) :   0.9831
B( 17-C , 18-O ) :   1.1128 B( 17-C , 19-C ) :   1.3606 B( 18-O , 34-H ) :   0.9786
B( 19-C , 35-H ) :   0.9558

MP2 TOTAL ENERGY:    -1274.325480150 Eh
FINAL SINGLE POINT ENERGY     -1274.325480149986

DIPOLE MOMENT
-------------
                                X             Y             Z
Electronic contribution:      9.90660       6.93230       8.05298
Nuclear contribution   :    -11.43276      -8.64709      -7.91341
                        -----------------------------------------
Total Dipole Moment    :     -1.52615      -1.71479       0.13956
                        -----------------------------------------
Magnitude (a.u.)       :      2.29981
Magnitude (Debye)      :      5.84566

Rotational constants in cm-1:     0.011592     0.009083     0.006232
Rotational constants in MHz :   347.506042   272.303531   186.821576

                             ****ORCA TERMINATED NORMALLY****
TOTAL RUN TIME: 0 days 1 hours 45 minutes 38 seconds 631 msec
