                         Program Version 4.2.0 -  RELEASE  -
|  1> ! ri-mp2 cc-pvtz cc-pvtz/c TightSCF NoKeepInts
|  2>
|  3> %scf
|  4>   MaxCore 4096
|  5> end
|  6> *xyz  0  1
|  7>     C       15.3133389   13.9989808   15.1576388
|  8>     C       14.9746767   15.3865358   15.7267022
|  9>     O       16.1480272   16.2036498   15.5904821
| 10>     C       15.9824195   17.5550488   15.5194529
| 11>     O       15.1791796   18.0597383   14.7545203
| 12>     C       16.7774990   18.2962141   16.5604034
| 13>     C       16.9212534   19.6447137   16.4952536
| 14>     C       16.1584294   20.6040518   15.6052412
| 15>     N       17.8608485   20.3073526   17.2883345
| 16>     C       18.8229097   19.6818970   18.0343472
| 17>     S       19.9652621   20.5290715   18.8786723
| 18>     N       18.8043210   18.3100825   18.0291065
| 19>     C       17.7680051   17.4705607   17.3990578
| 20>     C       17.1053558   16.5173921   18.3852546
| 21>     C       17.3827089   15.1385351   18.3434987
| 22>     C       16.7614846   14.2581754   19.2451414
| 23>     C       15.8599125   14.7619878   20.1984420
| 24>     C       15.5873679   16.1362678   20.2459967
| 25>     O       14.7174442   16.6252851   21.1650831
| 26>     C       16.2054198   17.0096021   19.3455499
| 27>     H       14.4453157   13.3323693   15.2276177
| 28>     H       16.1419279   13.5449530   15.7149150
| 29>     H       15.6041562   14.0753621   14.1023993
| 30>     H       14.1352472   15.8062001   15.1551377
| 31>     H       14.6787578   15.3139740   16.7818350
| 32>     H       15.0764026   20.4767014   15.7383667
| 33>     H       16.3829104   20.4127538   14.5480786
| 34>     H       16.3905700   21.6562503   15.8076746
| 35>     H       17.8999095   21.3140979   17.2828666
| 36>     H       19.5079377   17.8774333   18.6141017
| 37>     H       18.3783830   16.9134439   16.6739543
| 38>     H       18.0747467   14.7477595   17.6020351
| 39>     H       16.9798486   13.1923690   19.2041228
| 40>     H       15.3785680   14.0862929   20.8979137
| 41>     H       14.4302761   15.8840679   21.7193527
| 42>     H       15.9861788   18.0708288   19.3994494
| 43> *
| 44>
| 45>                          ****END OF INPUT****

CARTESIAN COORDINATES (ANGSTROEM)
---------------------------------
  C     15.313339   13.998981   15.157639
  C     14.974677   15.386536   15.726702
  O     16.148027   16.203650   15.590482
  C     15.982419   17.555049   15.519453
  O     15.179180   18.059738   14.754520
  C     16.777499   18.296214   16.560403
  C     16.921253   19.644714   16.495254
  C     16.158429   20.604052   15.605241
  N     17.860848   20.307353   17.288335
  C     18.822910   19.681897   18.034347
  S     19.965262   20.529072   18.878672
  N     18.804321   18.310083   18.029107
  C     17.768005   17.470561   17.399058
  C     17.105356   16.517392   18.385255
  C     17.382709   15.138535   18.343499
  C     16.761485   14.258175   19.245141
  C     15.859912   14.761988   20.198442
  C     15.587368   16.136268   20.245997
  O     14.717444   16.625285   21.165083
  C     16.205420   17.009602   19.345550
  H     14.445316   13.332369   15.227618
  H     16.141928   13.544953   15.714915
  H     15.604156   14.075362   14.102399
  H     14.135247   15.806200   15.155138
  H     14.678758   15.313974   16.781835
  H     15.076403   20.476701   15.738367
  H     16.382910   20.412754   14.548079
  H     16.390570   21.656250   15.807675
  H     17.899909   21.314098   17.282867
  H     19.507938   17.877433   18.614102
  H     18.378383   16.913444   16.673954
  H     18.074747   14.747759   17.602035
  H     16.979849   13.192369   19.204123
  H     15.378568   14.086293   20.897914
  H     14.430276   15.884068   21.719353
  H     15.986179   18.070829   19.399449

 Total Charge           Charge          ....    0
 Multiplicity           Mult            ....    1
 Number of Electrons    NEL             ....  154
 Basis Dimension        Dim             ....  828

ORBITAL ENERGIES
----------------

  NO   OCC          E(Eh)            E(eV)
   0   2.0000     -91.890073     -2500.4560
   1   2.0000     -20.599731      -560.5472
   2   2.0000     -20.590120      -560.2857
   3   2.0000     -20.543645      -559.0210
   4   2.0000     -15.630504      -425.3276
   5   2.0000     -15.608246      -424.7220
   6   2.0000     -11.392579      -310.0078
   7   2.0000     -11.384753      -309.7949
   8   2.0000     -11.338396      -308.5334
   9   2.0000     -11.317437      -307.9631
  10   2.0000     -11.308991      -307.7333
  11   2.0000     -11.294248      -307.3321
  12   2.0000     -11.263913      -306.5066
  13   2.0000     -11.258728      -306.3656
  14   2.0000     -11.258321      -306.3545
  15   2.0000     -11.252537      -306.1971
  16   2.0000     -11.247151      -306.0505
  17   2.0000     -11.242368      -305.9204
  18   2.0000     -11.241864      -305.9067
  19   2.0000     -11.227566      -305.5176
  20   2.0000      -8.895133      -242.0489
  21   2.0000      -6.576702      -178.9612
  22   2.0000      -6.574707      -178.9069
  23   2.0000      -6.574113      -178.8907
  24   2.0000      -1.449839       -39.4521
  25   2.0000      -1.419422       -38.6244
  26   2.0000      -1.353759       -36.8377
  27   2.0000      -1.341509       -36.5043
  28   2.0000      -1.239501       -33.7285
  29   2.0000      -1.160802       -31.5870
  30   2.0000      -1.122222       -30.5372
  31   2.0000      -1.045299       -28.4440
  32   2.0000      -1.037292       -28.2262
  33   2.0000      -1.018585       -27.7171
  34   2.0000      -0.997445       -27.1419
  35   2.0000      -0.985949       -26.8290
  36   2.0000      -0.923595       -25.1323
  37   2.0000      -0.882753       -24.0209
  38   2.0000      -0.847814       -23.0702
  39   2.0000      -0.840515       -22.8716
  40   2.0000      -0.837389       -22.7865
  41   2.0000      -0.823462       -22.4075
  42   2.0000      -0.763598       -20.7786
  43   2.0000      -0.736376       -20.0378
  44   2.0000      -0.723692       -19.6927
  45   2.0000      -0.698349       -19.0030
  46   2.0000      -0.689019       -18.7492
  47   2.0000      -0.678410       -18.4605
  48   2.0000      -0.674491       -18.3538
  49   2.0000      -0.655215       -17.8293
  50   2.0000      -0.649197       -17.6655
  51   2.0000      -0.640556       -17.4304
  52   2.0000      -0.628984       -17.1155
  53   2.0000      -0.619382       -16.8542
  54   2.0000      -0.609924       -16.5969
  55   2.0000      -0.602813       -16.4034
  56   2.0000      -0.601176       -16.3588
  57   2.0000      -0.579932       -15.7807
  58   2.0000      -0.571001       -15.5377
  59   2.0000      -0.565817       -15.3967
  60   2.0000      -0.558821       -15.2063
  61   2.0000      -0.542651       -14.7663
  62   2.0000      -0.533981       -14.5303
  63   2.0000      -0.526928       -14.3384
  64   2.0000      -0.522182       -14.2093
  65   2.0000      -0.514859       -14.0100
  66   2.0000      -0.503213       -13.6931
  67   2.0000      -0.497967       -13.5504
  68   2.0000      -0.487705       -13.2711
  69   2.0000      -0.465196       -12.6586
  70   2.0000      -0.456904       -12.4330
  71   2.0000      -0.446075       -12.1383
  72   2.0000      -0.354598        -9.6491
  73   2.0000      -0.352609        -9.5950
  74   2.0000      -0.329418        -8.9639
  75   2.0000      -0.324737        -8.8365
  76   2.0000      -0.319372        -8.6906
  77   0.0000       0.072971         1.9856
  78   0.0000       0.101326         2.7572
  79   0.0000       0.124107         3.3771
  80   0.0000       0.130608         3.5540
  81   0.0000       0.134192         3.6515

MULLIKEN ATOMIC CHARGES
-----------------------
   0 C :   -0.264410
   1 C :    0.007656
   2 O :   -0.368667
   3 C :    0.477611
   4 O :   -0.422404
   5 C :   -0.272917
   6 C :    0.179142
   7 C :   -0.266287
   8 N :   -0.126341
   9 C :    0.211018
  10 S :   -0.440100
  11 N :   -0.216568
  12 C :    0.072700
  13 C :    0.008698
  14 C :   -0.171374
  15 C :   -0.132966
  16 C :   -0.276022
  17 C :    0.311929
  18 O :   -0.355711
  19 C :   -0.237929
  20 H :    0.088684
  21 H :    0.089075
  22 H :    0.102204
  23 H :    0.123542
  24 H :    0.111016
  25 H :    0.133497
  26 H :    0.130055
  27 H :    0.094682
  28 H :    0.199668
  29 H :    0.200851
  30 H :    0.152022
  31 H :    0.156113
  32 H :    0.162976
  33 H :    0.132601
  34 H :    0.241117
  35 H :    0.164839
Sum of atomic charges:   -0.0000000

LOEWDIN ATOMIC CHARGES
----------------------
   0 C :    0.108038
   1 C :   -0.019514
   2 O :    0.303772
   3 C :   -0.418011
   4 O :    0.105091
   5 C :   -0.099441
   6 C :   -0.055180
   7 C :    0.131859
   8 N :    0.407514
   9 C :   -0.456138
  10 S :   -0.035120
  11 N :    0.394358
  12 C :   -0.054671
  13 C :   -0.039809
  14 C :    0.018018
  15 C :    0.039343
  16 C :   -0.001050
  17 C :   -0.190333
  18 O :    0.395876
  19 C :    0.032463
  20 H :   -0.025690
  21 H :   -0.031459
  22 H :   -0.024635
  23 H :   -0.027733
  24 H :   -0.031464
  25 H :   -0.004159
  26 H :   -0.004410
  27 H :   -0.023496
  28 H :   -0.056941
  29 H :   -0.064445
  30 H :   -0.012660
  31 H :   -0.028930
  32 H :   -0.020655
  33 H :   -0.034761
  34 H :   -0.153314
  35 H :   -0.022313

  Mayer bond orders larger than 0.100000
B(  0-C ,  1-C ) :   0.9774 B(  0-C , 20-H ) :   0.9765 B(  0-C , 21-H ) :   0.9794
B(  0-C , 22-H ) :   0.9781 B(  1-C ,  2-O ) :   0.8804 B(  1-C , 23-H ) :   0.9766
B(  1-C , 24-H ) :   0.9683 B(  2-O ,  3-C ) :   1.1202 B(  3-C ,  4-O ) :   2.0001
B(  3-C ,  5-C ) :   1.0715 B(  5-C ,  6-C ) :   1.6313 B(  5-C , 12-C ) :   0.9530
B(  6-C ,  7-C ) :   0.9653 B(  6-C ,  8-N ) :   1.1569 B(  7-C , 25-H ) :   0.9607
B(  7-C , 26-H ) :   0.9586 B(  7-C , 27-H ) :   0.9904 B(  8-N ,  9-C ) :   1.1859
B(  8-N , 28-H ) :   0.9462 B(  9-C , 10-S ) :   1.6074 B(  9-C , 11-N ) :   1.3094
B( 11-N , 12-C ) :   0.9676 B( 11-N , 29-H ) :   0.9484 B( 12-C , 13-C ) :   0.9617
B( 12-C , 30-H ) :   1.0005 B( 13-C , 14-C ) :   1.3591 B( 13-C , 19-C ) :   1.3790
B( 14-C , 15-C ) :   1.3899 B( 14-C , 31-H ) :   0.9715 B( 15-C , 16-C ) :   1.3590
B( 15-C , 32-H ) :   0.9700 B( 16-C , 17-C ) :   1.3329 B( 16-C , 33-H ) :   0.9843
B( 17-C , 18-O ) :   1.1069 B( 17-C , 19-C ) :   1.3660 B( 18-O , 34-H ) :   0.9793
B( 19-C , 35-H ) :   0.9589

MP2 TOTAL ENERGY:    -1274.336498175 Eh
FINAL SINGLE POINT ENERGY     -1274.336498174973

DIPOLE MOMENT
-------------
                                X             Y             Z
Electronic contribution:      8.88823      11.30548       7.39298
Nuclear contribution   :    -10.02249     -12.87474      -7.42154
                        -----------------------------------------
Total Dipole Moment    :     -1.13426      -1.56926      -0.02857
                        -----------------------------------------
Magnitude (a.u.)       :      1.93647
Magnitude (Debye)      :      4.92213

Rotational constants in cm-1:     0.012105     0.008310     0.005999
Rotational constants in MHz :   362.895296   249.126486   179.852894

                             ****ORCA TERMINATED NORMALLY****
TOTAL RUN TIME: 0 days 1 hours 43 minutes 43 seconds 870 msec
