                         Program Version 4.2.0 -  RELEASE  -
|  1> ! ri-mp2 cc-pvtz cc-pvtz/c TightSCF NoKeepInts
|  2>
|  3> %scf
|  4>   MaxCore 4096
|  5> end
|  6> *xyz  0  1
|  7>     C       14.8971418   14.7071509   16.4162670
|  8>     C       15.7560876   14.9804751   15.1705980
|  9>     O       16.8333398   15.8706445   15.5248035
| 10>     C       16.7043107   17.1924853   15.2092100
| 11>     O       16.2897659   17.5415840   14.1173314
| 12>     C       16.9718554   18.1145441   16.3703702
| 13>     C       16.9155155   19.4620702   16.2007878
| 14>     C       16.2973637   20.2194809   15.0431242
| 15>     N       17.4588761   20.3327948   17.1479483
| 16>     C       18.2712863   19.9447141   18.1776935
| 17>     S       18.9807419   21.0383724   19.1956845
| 18>     N       18.4896261   18.5970099   18.3048353
| 19>     C       17.8037426   17.5431685   17.5337051
| 20>     C       17.0865200   16.5530724   18.4399773
| 21>     C       17.6659262   15.3045341   18.7323771
| 22>     C       17.0265096   14.4085549   19.6060273
| 23>     C       15.7991299   14.7651436   20.1911021
| 24>     C       15.2241401   16.0115354   19.9060084
| 25>     O       14.0407428   16.3592381   20.4710136
| 26>     C       15.8654639   16.9034162   19.0406634
| 27>     H       15.4928134   14.2253035   17.1993301
| 28>     H       14.0628383   14.0406266   16.1670594
| 29>     H       14.4802638   15.6400098   16.8148575
| 30>     H       16.1769022   14.0299352   14.8185423
| 31>     H       15.1353291   15.3899873   14.3618224
| 32>     H       15.2961388   19.8316205   14.8160886
| 33>     H       16.9067985   20.1052559   14.1374301
| 34>     H       16.1910573   21.2928277   15.2397539
| 35>     H       17.3300238   21.3268018   17.0462538
| 36>     H       19.0698919   18.3381648   19.0927127
| 37>     H       18.6733800   17.0677481   17.0581148
| 38>     H       18.6148985   15.0283291   18.2804178
| 39>     H       17.4812571   13.4442053   19.8262507
| 40>     H       15.3007846   14.0760910   20.8650683
| 41>     H       13.7817057   15.6425695   21.0696806
| 42>     H       15.4148309   17.8705344   18.8450891
| 43> *
| 44>
| 45>                          ****END OF INPUT****

CARTESIAN COORDINATES (ANGSTROEM)
---------------------------------
  C     14.897142   14.707151   16.416267
  C     15.756088   14.980475   15.170598
  O     16.833340   15.870644   15.524804
  C     16.704311   17.192485   15.209210
  O     16.289766   17.541584   14.117331
  C     16.971855   18.114544   16.370370
  C     16.915516   19.462070   16.200788
  C     16.297364   20.219481   15.043124
  N     17.458876   20.332795   17.147948
  C     18.271286   19.944714   18.177693
  S     18.980742   21.038372   19.195684
  N     18.489626   18.597010   18.304835
  C     17.803743   17.543169   17.533705
  C     17.086520   16.553072   18.439977
  C     17.665926   15.304534   18.732377
  C     17.026510   14.408555   19.606027
  C     15.799130   14.765144   20.191102
  C     15.224140   16.011535   19.906008
  O     14.040743   16.359238   20.471014
  C     15.865464   16.903416   19.040663
  H     15.492813   14.225303   17.199330
  H     14.062838   14.040627   16.167059
  H     14.480264   15.640010   16.814857
  H     16.176902   14.029935   14.818542
  H     15.135329   15.389987   14.361822
  H     15.296139   19.831620   14.816089
  H     16.906799   20.105256   14.137430
  H     16.191057   21.292828   15.239754
  H     17.330024   21.326802   17.046254
  H     19.069892   18.338165   19.092713
  H     18.673380   17.067748   17.058115
  H     18.614898   15.028329   18.280418
  H     17.481257   13.444205   19.826251
  H     15.300785   14.076091   20.865068
  H     13.781706   15.642570   21.069681
  H     15.414831   17.870534   18.845089

 Total Charge           Charge          ....    0
 Multiplicity           Mult            ....    1
 Number of Electrons    NEL             ....  154
 Basis Dimension        Dim             ....  828

ORBITAL ENERGIES
----------------

  NO   OCC          E(Eh)            E(eV)
   0   2.0000     -91.890072     -2500.4560
   1   2.0000     -20.599673      -560.5456
   2   2.0000     -20.590561      -560.2976
   3   2.0000     -20.543193      -559.0087
   4   2.0000     -15.630598      -425.3302
   5   2.0000     -15.607936      -424.7135
   6   2.0000     -11.393425      -310.0308
   7   2.0000     -11.384363      -309.7843
   8   2.0000     -11.339371      -308.5600
   9   2.0000     -11.316712      -307.9434
  10   2.0000     -11.309563      -307.7489
  11   2.0000     -11.293588      -307.3141
  12   2.0000     -11.263418      -306.4932
  13   2.0000     -11.259737      -306.3930
  14   2.0000     -11.258055      -306.3472
  15   2.0000     -11.252674      -306.2008
  16   2.0000     -11.246484      -306.0324
  17   2.0000     -11.241207      -305.8888
  18   2.0000     -11.240961      -305.8821
  19   2.0000     -11.220156      -305.3160
  20   2.0000      -8.895124      -242.0486
  21   2.0000      -6.576692      -178.9609
  22   2.0000      -6.574699      -178.9066
  23   2.0000      -6.574104      -178.8905
  24   2.0000      -1.448540       -39.4168
  25   2.0000      -1.419333       -38.6220
  26   2.0000      -1.352202       -36.7953
  27   2.0000      -1.342093       -36.5202
  28   2.0000      -1.239958       -33.7410
  29   2.0000      -1.160049       -31.5665
  30   2.0000      -1.122081       -30.5334
  31   2.0000      -1.044741       -28.4289
  32   2.0000      -1.033459       -28.1219
  33   2.0000      -1.017902       -27.6985
  34   2.0000      -0.998166       -27.1615
  35   2.0000      -0.985987       -26.8301
  36   2.0000      -0.923599       -25.1324
  37   2.0000      -0.888048       -24.1650
  38   2.0000      -0.847868       -23.0717
  39   2.0000      -0.840585       -22.8735
  40   2.0000      -0.836667       -22.7669
  41   2.0000      -0.815754       -22.1978
  42   2.0000      -0.759712       -20.6728
  43   2.0000      -0.735678       -20.0188
  44   2.0000      -0.722010       -19.6469
  45   2.0000      -0.698209       -18.9992
  46   2.0000      -0.688923       -18.7465
  47   2.0000      -0.676111       -18.3979
  48   2.0000      -0.670310       -18.2401
  49   2.0000      -0.668761       -18.1979
  50   2.0000      -0.647017       -17.6062
  51   2.0000      -0.643380       -17.5073
  52   2.0000      -0.636876       -17.3303
  53   2.0000      -0.609893       -16.5960
  54   2.0000      -0.603841       -16.4313
  55   2.0000      -0.601468       -16.3668
  56   2.0000      -0.588140       -16.0041
  57   2.0000      -0.579155       -15.7596
  58   2.0000      -0.570699       -15.5295
  59   2.0000      -0.566828       -15.4242
  60   2.0000      -0.564609       -15.3638
  61   2.0000      -0.548110       -14.9148
  62   2.0000      -0.540186       -14.6992
  63   2.0000      -0.526560       -14.3284
  64   2.0000      -0.521235       -14.1835
  65   2.0000      -0.513652       -13.9772
  66   2.0000      -0.502697       -13.6791
  67   2.0000      -0.498920       -13.5763
  68   2.0000      -0.479639       -13.0516
  69   2.0000      -0.463241       -12.6054
  70   2.0000      -0.450181       -12.2500
  71   2.0000      -0.447823       -12.1859
  72   2.0000      -0.354044        -9.6340
  73   2.0000      -0.352432        -9.5902
  74   2.0000      -0.329348        -8.9620
  75   2.0000      -0.324366        -8.8265
  76   2.0000      -0.319732        -8.7004
  77   0.0000       0.073063         1.9881
  78   0.0000       0.101053         2.7498
  79   0.0000       0.122877         3.3436
  80   0.0000       0.131178         3.5695
  81   0.0000       0.133582         3.6349

MULLIKEN ATOMIC CHARGES
-----------------------
   0 C :   -0.308779
   1 C :    0.030957
   2 O :   -0.367401
   3 C :    0.458209
   4 O :   -0.420551
   5 C :   -0.258244
   6 C :    0.180359
   7 C :   -0.264970
   8 N :   -0.126618
   9 C :    0.211729
  10 S :   -0.440366
  11 N :   -0.216864
  12 C :    0.059044
  13 C :    0.056482
  14 C :   -0.180333
  15 C :   -0.139237
  16 C :   -0.275043
  17 C :    0.329081
  18 O :   -0.359741
  19 C :   -0.269008
  20 H :    0.106148
  21 H :    0.112376
  22 H :    0.102916
  23 H :    0.102653
  24 H :    0.111361
  25 H :    0.129443
  26 H :    0.132881
  27 H :    0.094166
  28 H :    0.199998
  29 H :    0.201618
  30 H :    0.152108
  31 H :    0.150512
  32 H :    0.164192
  33 H :    0.132179
  34 H :    0.241595
  35 H :    0.167150
Sum of atomic charges:   -0.0000000

LOEWDIN ATOMIC CHARGES
----------------------
   0 C :    0.103095
   1 C :   -0.015480
   2 O :    0.298200
   3 C :   -0.419072
   4 O :    0.104778
   5 C :   -0.100495
   6 C :   -0.053377
   7 C :    0.130797
   8 N :    0.408005
   9 C :   -0.456886
  10 S :   -0.034821
  11 N :    0.395039
  12 C :   -0.054145
  13 C :   -0.037892
  14 C :    0.015960
  15 C :    0.040666
  16 C :   -0.000386
  17 C :   -0.189165
  18 O :    0.396041
  19 C :    0.035278
  20 H :   -0.026443
  21 H :   -0.027153
  22 H :   -0.029233
  23 H :   -0.027066
  24 H :   -0.028259
  25 H :   -0.005099
  26 H :   -0.004249
  27 H :   -0.023525
  28 H :   -0.056759
  29 H :   -0.064236
  30 H :   -0.012486
  31 H :   -0.028686
  32 H :   -0.020637
  33 H :   -0.035012
  34 H :   -0.153164
  35 H :   -0.024132

  Mayer bond orders larger than 0.100000
B(  0-C ,  1-C ) :   0.9667 B(  0-C , 20-H ) :   0.9725 B(  0-C , 21-H ) :   0.9783
B(  0-C , 22-H ) :   0.9741 B(  1-C ,  2-O ) :   0.8891 B(  1-C , 23-H ) :   0.9871
B(  1-C , 24-H ) :   0.9754 B(  2-O ,  3-C ) :   1.1291 B(  3-C ,  4-O ) :   1.9991
B(  3-C ,  5-C ) :   1.0687 B(  5-C ,  6-C ) :   1.6204 B(  5-C , 12-C ) :   0.9608
B(  6-C ,  7-C ) :   0.9661 B(  6-C ,  8-N ) :   1.1569 B(  7-C , 25-H ) :   0.9636
B(  7-C , 26-H ) :   0.9561 B(  7-C , 27-H ) :   0.9897 B(  8-N ,  9-C ) :   1.1855
B(  8-N , 28-H ) :   0.9467 B(  9-C , 10-S ) :   1.6058 B(  9-C , 11-N ) :   1.3112
B( 11-N , 12-C ) :   0.9592 B( 11-N , 29-H ) :   0.9482 B( 12-C , 13-C ) :   0.9635
B( 12-C , 30-H ) :   1.0038 B( 13-C , 14-C ) :   1.3527 B( 13-C , 19-C ) :   1.3605
B( 14-C , 15-C ) :   1.3915 B( 14-C , 31-H ) :   0.9734 B( 15-C , 16-C ) :   1.3560
B( 15-C , 32-H ) :   0.9706 B( 16-C , 17-C ) :   1.3344 B( 16-C , 33-H ) :   0.9847
B( 17-C , 18-O ) :   1.1036 B( 17-C , 19-C ) :   1.3559 B( 18-O , 34-H ) :   0.9792
B( 19-C , 35-H ) :   0.9610

MP2 TOTAL ENERGY:    -1274.334812622 Eh
FINAL SINGLE POINT ENERGY     -1274.334812621578

DIPOLE MOMENT
-------------
                                X             Y             Z
Electronic contribution:      8.27616      10.58319       5.67256
Nuclear contribution   :     -9.24579     -12.26200      -5.74710
                        -----------------------------------------
Total Dipole Moment    :     -0.96963      -1.67881      -0.07455
                        -----------------------------------------
Magnitude (a.u.)       :      1.94015
Magnitude (Debye)      :      4.93146

Rotational constants in cm-1:     0.012397     0.008703     0.006125
Rotational constants in MHz :   371.646435   260.902603   183.616655

                             ****ORCA TERMINATED NORMALLY****
TOTAL RUN TIME: 0 days 1 hours 42 minutes 46 seconds 47 msec
