                         Program Version 4.2.0 -  RELEASE  -
|  1> ! ri-mp2 cc-pvtz cc-pvtz/c TightSCF NoKeepInts
|  2>
|  3> %scf
|  4>   MaxCore 4096
|  5> end
|  6> *xyz  0  1
|  7>     C       14.4876444   16.5014501   16.2163279
|  8>     C       15.0604114   16.0572874   14.8513518
|  9>     O       16.5040007   15.9040171   14.7768193
| 10>     C       17.5287524   16.4547224   15.5142598
| 11>     O       18.6452897   15.9740600   15.4520856
| 12>     C       17.2285671   17.5631859   16.4659854
| 13>     C       16.8632043   18.7735723   15.9774842
| 14>     C       16.4640435   19.0986597   14.5516437
| 15>     N       16.8991358   19.9125540   16.7839628
| 16>     C       17.5364471   19.9741774   17.9950911
| 17>     S       17.6509747   21.3859450   18.8484469
| 18>     N       18.0993534   18.8069021   18.4496882
| 19>     C       17.9196701   17.4791745   17.8283119
| 20>     C       17.3202872   16.4174874   18.7380515
| 21>     C       17.8273286   15.1059164   18.7193646
| 22>     C       17.2666661   14.1118888   19.5384934
| 23>     C       16.1878331   14.4319116   20.3805574
| 24>     C       15.6768064   15.7370114   20.3964673
| 25>     O       14.6283674   16.0459361   21.2002038
| 26>     C       16.2366353   16.7248207   19.5798218
| 27>     H       14.9763776   15.9681269   17.0410779
| 28>     H       13.4193852   16.2566496   16.2619537
| 29>     H       14.5662294   17.5803629   16.3789415
| 30>     H       14.6098952   15.0921734   14.5848508
| 31>     H       14.7340003   16.7746481   14.0880259
| 32>     H       16.8780170   18.3839753   13.8297594
| 33>     H       16.8349532   20.0863790   14.2490793
| 34>     H       15.3735974   19.1032467   14.4391359
| 35>     H       16.5254571   20.7845172   16.4437160
| 36>     H       18.5638570   18.8775114   19.3464438
| 37>     H       18.9694520   17.2311638   17.6109999
| 38>     H       18.6546282   14.8552527   18.0580429
| 39>     H       17.6665165   13.0994790   19.5148415
| 40>     H       15.7508350   13.6664450   21.0132926
| 41>     H       14.4099788   15.2519039   21.7111220
| 42>     H       15.8224016   17.7274849   19.6022984
| 43> *
| 44>
| 45>                          ****END OF INPUT****

CARTESIAN COORDINATES (ANGSTROEM)
---------------------------------
  C     14.487644   16.501450   16.216328
  C     15.060411   16.057287   14.851352
  O     16.504001   15.904017   14.776819
  C     17.528752   16.454722   15.514260
  O     18.645290   15.974060   15.452086
  C     17.228567   17.563186   16.465985
  C     16.863204   18.773572   15.977484
  C     16.464043   19.098660   14.551644
  N     16.899136   19.912554   16.783963
  C     17.536447   19.974177   17.995091
  S     17.650975   21.385945   18.848447
  N     18.099353   18.806902   18.449688
  C     17.919670   17.479174   17.828312
  C     17.320287   16.417487   18.738052
  C     17.827329   15.105916   18.719365
  C     17.266666   14.111889   19.538493
  C     16.187833   14.431912   20.380557
  C     15.676806   15.737011   20.396467
  O     14.628367   16.045936   21.200204
  C     16.236635   16.724821   19.579822
  H     14.976378   15.968127   17.041078
  H     13.419385   16.256650   16.261954
  H     14.566229   17.580363   16.378941
  H     14.609895   15.092173   14.584851
  H     14.734000   16.774648   14.088026
  H     16.878017   18.383975   13.829759
  H     16.834953   20.086379   14.249079
  H     15.373597   19.103247   14.439136
  H     16.525457   20.784517   16.443716
  H     18.563857   18.877511   19.346444
  H     18.969452   17.231164   17.611000
  H     18.654628   14.855253   18.058043
  H     17.666516   13.099479   19.514841
  H     15.750835   13.666445   21.013293
  H     14.409979   15.251904   21.711122
  H     15.822402   17.727485   19.602298

 Total Charge           Charge          ....    0
 Multiplicity           Mult            ....    1
 Number of Electrons    NEL             ....  154
 Basis Dimension        Dim             ....  828

ORBITAL ENERGIES
----------------

  NO   OCC          E(Eh)            E(eV)
   0   2.0000     -91.889587     -2500.4428
   1   2.0000     -20.599733      -560.5472
   2   2.0000     -20.599099      -560.5300
   3   2.0000     -20.547091      -559.1148
   4   2.0000     -15.627721      -425.2519
   5   2.0000     -15.609256      -424.7494
   6   2.0000     -11.400979      -310.2364
   7   2.0000     -11.385371      -309.8117
   8   2.0000     -11.331538      -308.3468
   9   2.0000     -11.316388      -307.9346
  10   2.0000     -11.314211      -307.8753
  11   2.0000     -11.309627      -307.7506
  12   2.0000     -11.267960      -306.6168
  13   2.0000     -11.264074      -306.5110
  14   2.0000     -11.262646      -306.4722
  15   2.0000     -11.256855      -306.3146
  16   2.0000     -11.245517      -306.0061
  17   2.0000     -11.241235      -305.8895
  18   2.0000     -11.238714      -305.8210
  19   2.0000     -11.236768      -305.7680
  20   2.0000      -8.894692      -242.0369
  21   2.0000      -6.576275      -178.9495
  22   2.0000      -6.574262      -178.8948
  23   2.0000      -6.573680      -178.8789
  24   2.0000      -1.442219       -39.2448
  25   2.0000      -1.418836       -38.6085
  26   2.0000      -1.356233       -36.9050
  27   2.0000      -1.340663       -36.4813
  28   2.0000      -1.238978       -33.7143
  29   2.0000      -1.160695       -31.5841
  30   2.0000      -1.126089       -30.6424
  31   2.0000      -1.048098       -28.5202
  32   2.0000      -1.041405       -28.3381
  33   2.0000      -1.018737       -27.7213
  34   2.0000      -1.006404       -27.3856
  35   2.0000      -0.990477       -26.9522
  36   2.0000      -0.926961       -25.2239
  37   2.0000      -0.902341       -24.5540
  38   2.0000      -0.853096       -23.2139
  39   2.0000      -0.841346       -22.8942
  40   2.0000      -0.836084       -22.7510
  41   2.0000      -0.828008       -22.5313
  42   2.0000      -0.745440       -20.2845
  43   2.0000      -0.735464       -20.0130
  44   2.0000      -0.731717       -19.9110
  45   2.0000      -0.696012       -18.9394
  46   2.0000      -0.687505       -18.7080
  47   2.0000      -0.678092       -18.4518
  48   2.0000      -0.673546       -18.3281
  49   2.0000      -0.662052       -18.0154
  50   2.0000      -0.660117       -17.9627
  51   2.0000      -0.650785       -17.7087
  52   2.0000      -0.640074       -17.4173
  53   2.0000      -0.615152       -16.7391
  54   2.0000      -0.607975       -16.5438
  55   2.0000      -0.605768       -16.4838
  56   2.0000      -0.602573       -16.3968
  57   2.0000      -0.590357       -16.0644
  58   2.0000      -0.577425       -15.7125
  59   2.0000      -0.573447       -15.6043
  60   2.0000      -0.563871       -15.3437
  61   2.0000      -0.557563       -15.1721
  62   2.0000      -0.544611       -14.8196
  63   2.0000      -0.530809       -14.4440
  64   2.0000      -0.521555       -14.1922
  65   2.0000      -0.513493       -13.9729
  66   2.0000      -0.501118       -13.6361
  67   2.0000      -0.500412       -13.6169
  68   2.0000      -0.485548       -13.2124
  69   2.0000      -0.466670       -12.6987
  70   2.0000      -0.454471       -12.3668
  71   2.0000      -0.450003       -12.2452
  72   2.0000      -0.354808        -9.6548
  73   2.0000      -0.349816        -9.5190
  74   2.0000      -0.329098        -8.9552
  75   2.0000      -0.324285        -8.8243
  76   2.0000      -0.319223        -8.6865
  77   0.0000       0.085524         2.3272
  78   0.0000       0.105730         2.8771
  79   0.0000       0.114684         3.1207
  80   0.0000       0.127815         3.4780
  81   0.0000       0.130406         3.5485

MULLIKEN ATOMIC CHARGES
-----------------------
   0 C :   -0.334036
   1 C :    0.043288
   2 O :   -0.333328
   3 C :    0.435138
   4 O :   -0.384518
   5 C :   -0.216258
   6 C :    0.139768
   7 C :   -0.337017
   8 N :   -0.142543
   9 C :    0.208588
  10 S :   -0.443318
  11 N :   -0.226210
  12 C :    0.076044
  13 C :    0.012270
  14 C :   -0.218477
  15 C :   -0.130374
  16 C :   -0.277089
  17 C :    0.320789
  18 O :   -0.356686
  19 C :   -0.259890
  20 H :    0.127630
  21 H :    0.120423
  22 H :    0.107985
  23 H :    0.129325
  24 H :    0.085079
  25 H :    0.138132
  26 H :    0.130871
  27 H :    0.120886
  28 H :    0.198532
  29 H :    0.203951
  30 H :    0.169323
  31 H :    0.178718
  32 H :    0.164470
  33 H :    0.132184
  34 H :    0.241213
  35 H :    0.175137
Sum of atomic charges:    0.0000000

LOEWDIN ATOMIC CHARGES
----------------------
   0 C :    0.102343
   1 C :   -0.012817
   2 O :    0.292838
   3 C :   -0.417147
   4 O :    0.118249
   5 C :   -0.081480
   6 C :   -0.090505
   7 C :    0.126855
   8 N :    0.402817
   9 C :   -0.456944
  10 S :   -0.038591
  11 N :    0.396708
  12 C :   -0.048086
  13 C :   -0.044403
  14 C :    0.019527
  15 C :    0.044865
  16 C :   -0.000482
  17 C :   -0.192021
  18 O :    0.395378
  19 C :    0.028179
  20 H :   -0.021806
  21 H :   -0.022383
  22 H :   -0.034589
  23 H :   -0.018385
  24 H :   -0.035312
  25 H :   -0.006567
  26 H :   -0.011173
  27 H :   -0.018460
  28 H :   -0.057945
  29 H :   -0.063567
  30 H :   -0.003726
  31 H :   -0.020989
  32 H :   -0.018473
  33 H :   -0.034874
  34 H :   -0.153340
  35 H :   -0.023694

  Mayer bond orders larger than 0.100000
B(  0-C ,  1-C ) :   0.9555 B(  0-C , 20-H ) :   0.9656 B(  0-C , 21-H ) :   0.9783
B(  0-C , 22-H ) :   0.9744 B(  1-C ,  2-O ) :   0.9070 B(  1-C , 23-H ) :   0.9794
B(  1-C , 24-H ) :   0.9743 B(  2-O ,  3-C ) :   1.1726 B(  3-C ,  4-O ) :   2.0824
B(  3-C ,  5-C ) :   0.9307 B(  5-C ,  6-C ) :   1.7264 B(  5-C , 12-C ) :   0.9332
B(  6-C ,  7-C ) :   0.9385 B(  6-C ,  8-N ) :   1.0948 B(  7-C , 25-H ) :   0.9738
B(  7-C , 26-H ) :   0.9800 B(  7-C , 27-H ) :   0.9648 B(  8-N ,  9-C ) :   1.1979
B(  8-N , 28-H ) :   0.9501 B(  9-C , 10-S ) :   1.6085 B(  9-C , 11-N ) :   1.2916
B( 11-N , 12-C ) :   0.9776 B( 11-N , 29-H ) :   0.9471 B( 12-C , 13-C ) :   0.9677
B( 12-C , 30-H ) :   0.9884 B( 13-C , 14-C ) :   1.3870 B( 13-C , 19-C ) :   1.3493
B( 14-C , 15-C ) :   1.3966 B( 14-C , 31-H ) :   0.9578 B( 15-C , 16-C ) :   1.3608
B( 15-C , 32-H ) :   0.9699 B( 16-C , 17-C ) :   1.3315 B( 16-C , 33-H ) :   0.9846
B( 17-C , 18-O ) :   1.1093 B( 17-C , 19-C ) :   1.3626 B( 18-O , 34-H ) :   0.9794
B( 19-C , 35-H ) :   0.9570

MP2 TOTAL ENERGY:    -1274.320470282 Eh
FINAL SINGLE POINT ENERGY     -1274.320470281702

DIPOLE MOMENT
-------------
                                X             Y             Z
Electronic contribution:      9.02558       5.93965       7.25540
Nuclear contribution   :    -10.72801      -7.16050      -7.81152
                        -----------------------------------------
Total Dipole Moment    :     -1.70243      -1.22084      -0.55613
                        -----------------------------------------
Magnitude (a.u.)       :      2.16748
Magnitude (Debye)      :      5.50931

Rotational constants in cm-1:     0.011389     0.009255     0.006491
Rotational constants in MHz :   341.427031   277.446435   194.594506

                             ****ORCA TERMINATED NORMALLY****
TOTAL RUN TIME: 0 days 2 hours 3 minutes 3 seconds 918 msec
