                         Program Version 4.2.0 -  RELEASE  -
|  1> ! ri-mp2 cc-pvtz cc-pvtz/c TightSCF NoKeepInts
|  2>
|  3> %scf
|  4>   MaxCore 4096
|  5> end
|  6> *xyz  0  1
|  7>     C       14.5004718   14.9128496   14.8466602
|  8>     C       15.4625448   15.2129505   16.0120549
|  9>     O       16.5571625   16.0205038   15.5381943
| 10>     C       16.3584195   17.3629436   15.3986122
| 11>     O       15.7292600   17.8089762   14.4563390
| 12>     C       16.9021017   18.1746764   16.5466757
| 13>     C       16.9065686   19.5322845   16.4875173
| 14>     C       16.1584562   20.4119137   15.5067457
| 15>     N       17.6569625   20.2915049   17.3882220
| 16>     C       18.5913415   19.7757223   18.2441682
| 17>     S       19.5236125   20.7411739   19.2106420
| 18>     N       18.7322143   18.4115946   18.2417805
| 19>     C       17.8703207   17.4641850   17.5106945
| 20>     C       17.2239554   16.4421673   18.4353815
| 21>     C       17.7219151   15.1281092   18.5070467
| 22>     C       17.1206496   14.1832100   19.3553973
| 23>     C       16.0176024   14.5577752   20.1418467
| 24>     C       15.5272217   15.8694968   20.0801564
| 25>     O       14.4629390   16.2341984   20.8380336
| 26>     C       16.1260783   16.8071370   19.2330072
| 27>     H       13.9941417   15.8246122   14.5064599
| 28>     H       13.7312906   14.1964657   15.1590596
| 29>     H       15.0450047   14.4833929   13.9965235
| 30>     H       14.9277247   15.7130924   16.8305849
| 31>     H       15.8578833   14.2634697   16.3952679
| 32>     H       15.1010420   20.1225325   15.4548114
| 33>     H       16.5764976   20.3070587   14.4972429
| 34>     H       16.1910378   21.4755232   15.7707140
| 35>     H       17.5827843   21.2962820   17.3790388
| 36>     H       19.4109461   18.0584739   18.9045162
| 37>     H       18.6202369   16.9826222   16.8667567
| 38>     H       18.5728045   14.8367506   17.8964009
| 39>     H       17.5106277   13.1676420   19.4033123
| 40>     H       15.5508829   13.8316871   20.7997063
| 41>     H       14.2264466   15.4770998   21.3951339
| 42>     H       15.7378505   17.8199224   19.2032950
| 43> *
| 44>
| 45>                          ****END OF INPUT****

CARTESIAN COORDINATES (ANGSTROEM)
---------------------------------
  C     14.500472   14.912850   14.846660
  C     15.462545   15.212950   16.012055
  O     16.557163   16.020504   15.538194
  C     16.358420   17.362944   15.398612
  O     15.729260   17.808976   14.456339
  C     16.902102   18.174676   16.546676
  C     16.906569   19.532284   16.487517
  C     16.158456   20.411914   15.506746
  N     17.656962   20.291505   17.388222
  C     18.591341   19.775722   18.244168
  S     19.523612   20.741174   19.210642
  N     18.732214   18.411595   18.241780
  C     17.870321   17.464185   17.510694
  C     17.223955   16.442167   18.435381
  C     17.721915   15.128109   18.507047
  C     17.120650   14.183210   19.355397
  C     16.017602   14.557775   20.141847
  C     15.527222   15.869497   20.080156
  O     14.462939   16.234198   20.838034
  C     16.126078   16.807137   19.233007
  H     13.994142   15.824612   14.506460
  H     13.731291   14.196466   15.159060
  H     15.045005   14.483393   13.996523
  H     14.927725   15.713092   16.830585
  H     15.857883   14.263470   16.395268
  H     15.101042   20.122532   15.454811
  H     16.576498   20.307059   14.497243
  H     16.191038   21.475523   15.770714
  H     17.582784   21.296282   17.379039
  H     19.410946   18.058474   18.904516
  H     18.620237   16.982622   16.866757
  H     18.572804   14.836751   17.896401
  H     17.510628   13.167642   19.403312
  H     15.550883   13.831687   20.799706
  H     14.226447   15.477100   21.395134
  H     15.737850   17.819922   19.203295

 Total Charge           Charge          ....    0
 Multiplicity           Mult            ....    1
 Number of Electrons    NEL             ....  154
 Basis Dimension        Dim             ....  828

ORBITAL ENERGIES
----------------

  NO   OCC          E(Eh)            E(eV)
   0   2.0000     -91.890836     -2500.4768
   1   2.0000     -20.602270      -560.6163
   2   2.0000     -20.581999      -560.0647
   3   2.0000     -20.546605      -559.1016
   4   2.0000     -15.631352      -425.3507
   5   2.0000     -15.608949      -424.7411
   6   2.0000     -11.392936      -310.0175
   7   2.0000     -11.385271      -309.8090
   8   2.0000     -11.339769      -308.5708
   9   2.0000     -11.320047      -308.0341
  10   2.0000     -11.310436      -307.7726
  11   2.0000     -11.296303      -307.3880
  12   2.0000     -11.266012      -306.5638
  13   2.0000     -11.261295      -306.4354
  14   2.0000     -11.259215      -306.3788
  15   2.0000     -11.253363      -306.2196
  16   2.0000     -11.249852      -306.1240
  17   2.0000     -11.244436      -305.9767
  18   2.0000     -11.244307      -305.9732
  19   2.0000     -11.216835      -305.2256
  20   2.0000      -8.895892      -242.0695
  21   2.0000      -6.577460      -178.9818
  22   2.0000      -6.575466      -178.9275
  23   2.0000      -6.574870      -178.9113
  24   2.0000      -1.446304       -39.3559
  25   2.0000      -1.421991       -38.6943
  26   2.0000      -1.353622       -36.8339
  27   2.0000      -1.342738       -36.5378
  28   2.0000      -1.240737       -33.7622
  29   2.0000      -1.163075       -31.6489
  30   2.0000      -1.122676       -30.5496
  31   2.0000      -1.047132       -28.4939
  32   2.0000      -1.030066       -28.0295
  33   2.0000      -1.021110       -27.7858
  34   2.0000      -0.998272       -27.1644
  35   2.0000      -0.986625       -26.8474
  36   2.0000      -0.925029       -25.1713
  37   2.0000      -0.882976       -24.0270
  38   2.0000      -0.849916       -23.1274
  39   2.0000      -0.842957       -22.9380
  40   2.0000      -0.839735       -22.8503
  41   2.0000      -0.827854       -22.5270
  42   2.0000      -0.754765       -20.5382
  43   2.0000      -0.737173       -20.0595
  44   2.0000      -0.719773       -19.5860
  45   2.0000      -0.700717       -19.0675
  46   2.0000      -0.690636       -18.7931
  47   2.0000      -0.678879       -18.4732
  48   2.0000      -0.670683       -18.2502
  49   2.0000      -0.660680       -17.9780
  50   2.0000      -0.648536       -17.6476
  51   2.0000      -0.647020       -17.6063
  52   2.0000      -0.638148       -17.3649
  53   2.0000      -0.612467       -16.6661
  54   2.0000      -0.606692       -16.5089
  55   2.0000      -0.603032       -16.4093
  56   2.0000      -0.591328       -16.0909
  57   2.0000      -0.581725       -15.8295
  58   2.0000      -0.575322       -15.6553
  59   2.0000      -0.570804       -15.5324
  60   2.0000      -0.564864       -15.3707
  61   2.0000      -0.542526       -14.7629
  62   2.0000      -0.536141       -14.5891
  63   2.0000      -0.528645       -14.3852
  64   2.0000      -0.517728       -14.0881
  65   2.0000      -0.514103       -13.9895
  66   2.0000      -0.503031       -13.6882
  67   2.0000      -0.495316       -13.4782
  68   2.0000      -0.484795       -13.1919
  69   2.0000      -0.464333       -12.6351
  70   2.0000      -0.456730       -12.4282
  71   2.0000      -0.441764       -12.0210
  72   2.0000      -0.356118        -9.6905
  73   2.0000      -0.354183        -9.6378
  74   2.0000      -0.330660        -8.9977
  75   2.0000      -0.327042        -8.8993
  76   2.0000      -0.320442        -8.7197
  77   0.0000       0.071474         1.9449
  78   0.0000       0.097691         2.6583
  79   0.0000       0.122642         3.3373
  80   0.0000       0.129486         3.5235
  81   0.0000       0.131141         3.5685

MULLIKEN ATOMIC CHARGES
-----------------------
   0 C :   -0.264677
   1 C :    0.019106
   2 O :   -0.380614
   3 C :    0.487653
   4 O :   -0.409313
   5 C :   -0.291005
   6 C :    0.187061
   7 C :   -0.266110
   8 N :   -0.127307
   9 C :    0.211888
  10 S :   -0.439560
  11 N :   -0.216340
  12 C :    0.069923
  13 C :    0.022553
  14 C :   -0.178502
  15 C :   -0.132066
  16 C :   -0.273114
  17 C :    0.317237
  18 O :   -0.356391
  19 C :   -0.252075
  20 H :    0.107436
  21 H :    0.087622
  22 H :    0.097270
  23 H :    0.096418
  24 H :    0.109220
  25 H :    0.130595
  26 H :    0.132596
  27 H :    0.094601
  28 H :    0.199482
  29 H :    0.201199
  30 H :    0.152568
  31 H :    0.152845
  32 H :    0.166105
  33 H :    0.133983
  34 H :    0.241819
  35 H :    0.167888
Sum of atomic charges:   -0.0000000

LOEWDIN ATOMIC CHARGES
----------------------
   0 C :    0.105929
   1 C :   -0.023739
   2 O :    0.290788
   3 C :   -0.419598
   4 O :    0.118419
   5 C :   -0.102219
   6 C :   -0.053650
   7 C :    0.131266
   8 N :    0.407834
   9 C :   -0.456790
  10 S :   -0.034393
  11 N :    0.394500
  12 C :   -0.054610
  13 C :   -0.039287
  14 C :    0.019474
  15 C :    0.041518
  16 C :   -0.000113
  17 C :   -0.191257
  18 O :    0.396232
  19 C :    0.032468
  20 H :   -0.027615
  21 H :   -0.030636
  22 H :   -0.025307
  23 H :   -0.032648
  24 H :   -0.024079
  25 H :   -0.004865
  26 H :   -0.003988
  27 H :   -0.023409
  28 H :   -0.056665
  29 H :   -0.064332
  30 H :   -0.011952
  31 H :   -0.027567
  32 H :   -0.019874
  33 H :   -0.034159
  34 H :   -0.152614
  35 H :   -0.023063

  Mayer bond orders larger than 0.100000
B(  0-C ,  1-C ) :   0.9865 B(  0-C , 20-H ) :   0.9731 B(  0-C , 21-H ) :   0.9768
B(  0-C , 22-H ) :   0.9780 B(  1-C ,  2-O ) :   0.8848 B(  1-C , 23-H ) :   0.9660
B(  1-C , 24-H ) :   0.9782 B(  2-O ,  3-C ) :   1.0806 B(  3-C ,  4-O ) :   2.0113
B(  3-C ,  5-C ) :   1.0765 B(  5-C ,  6-C ) :   1.6309 B(  5-C , 12-C ) :   0.9524
B(  6-C ,  7-C ) :   0.9663 B(  6-C ,  8-N ) :   1.1585 B(  7-C , 25-H ) :   0.9625
B(  7-C , 26-H ) :   0.9567 B(  7-C , 27-H ) :   0.9897 B(  8-N ,  9-C ) :   1.1852
B(  8-N , 28-H ) :   0.9462 B(  9-C , 10-S ) :   1.6070 B(  9-C , 11-N ) :   1.3103
B( 11-N , 12-C ) :   0.9617 B( 11-N , 29-H ) :   0.9484 B( 12-C , 13-C ) :   0.9699
B( 12-C , 30-H ) :   1.0008 B( 13-C , 14-C ) :   1.3398 B( 13-C , 19-C ) :   1.3712
B( 14-C , 15-C ) :   1.3919 B( 14-C , 31-H ) :   0.9760 B( 15-C , 16-C ) :   1.3598
B( 15-C , 32-H ) :   0.9689 B( 16-C , 17-C ) :   1.3317 B( 16-C , 33-H ) :   0.9837
B( 17-C , 18-O ) :   1.1068 B( 17-C , 19-C ) :   1.3613 B( 18-O , 34-H ) :   0.9787
B( 19-C , 35-H ) :   0.9599

MP2 TOTAL ENERGY:    -1274.328089271 Eh
FINAL SINGLE POINT ENERGY     -1274.328089270868

DIPOLE MOMENT
-------------
                                X             Y             Z
Electronic contribution:      9.93046       9.65113       7.88721
Nuclear contribution   :    -10.94600     -11.21850      -7.69144
                        -----------------------------------------
Total Dipole Moment    :     -1.01554      -1.56737       0.19576
                        -----------------------------------------
Magnitude (a.u.)       :      1.87785
Magnitude (Debye)      :      4.77311

Rotational constants in cm-1:     0.012005     0.008650     0.006007
Rotational constants in MHz :   359.913146   259.316453   180.092841

                             ****ORCA TERMINATED NORMALLY****
TOTAL RUN TIME: 0 days 1 hours 46 minutes 46 seconds 320 msec
