                         Program Version 4.2.0 -  RELEASE  -
|  1> ! ri-mp2 cc-pvtz cc-pvtz/c TightSCF NoKeepInts
|  2>
|  3> %scf
|  4>   MaxCore 4096
|  5> end
|  6> *xyz  0  1
|  7>     C       14.6399901   14.8682888   14.4072865
|  8>     C       15.2428405   15.1512793   15.7979282
|  9>     O       16.3498216   16.0641392   15.6794004
| 10>     C       16.1117750   17.4069250   15.5942142
| 11>     O       15.3018306   17.8755504   14.8142884
| 12>     C       16.8447711   18.1914196   16.6497033
| 13>     C       16.9252297   19.5452392   16.5802112
| 14>     C       16.1411193   20.4637242   15.6657560
| 15>     N       17.8107630   20.2563879   17.3932766
| 16>     C       18.7818126   19.6821905   18.1681126
| 17>     S       19.8594330   20.5878519   19.0365192
| 18>     N       18.8294912   18.3111925   18.1710466
| 19>     C       17.8519828   17.4194179   17.5193446
| 20>     C       17.2109873   16.4408576   18.4950124
| 21>     C       17.5795422   15.0828861   18.4911846
| 22>     C       16.9812980   14.1787794   19.3849340
| 23>     C       16.0101147   14.6377143   20.2913951
| 24>     C       15.6461102   15.9914471   20.3009653
| 25>     O       14.7093389   16.4373118   21.1752128
| 26>     C       16.2421810   16.8884888   19.4090740
| 27>     H       14.1370869   15.7541654   14.0011960
| 28>     H       13.8986672   14.0626941   14.4694736
| 29>     H       15.4216681   14.5607093   13.7018106
| 30>     H       14.4776504   15.5530958   16.4760127
| 31>     H       15.6067573   14.2065289   16.2218272
| 32>     H       15.0631087   20.2883979   15.7748092
| 33>     H       16.3986162   20.2760401   14.6155065
| 34>     H       16.3208216   21.5266252   15.8655293
| 35>     H       17.8011550   21.2637872   17.3826005
| 36>     H       19.5372030   17.9161935   18.7773115
| 37>     H       18.5074789   16.8888028   16.8140456
| 38>     H       18.3271053   14.7266934   17.7871065
| 39>     H       17.2716326   13.1294877   19.3747383
| 40>     H       15.5462631   13.9436846   20.9847300
| 41>     H       14.4490187   15.6882832   21.7322338
| 42>     H       15.9523343   17.9337193   19.4342029
| 43> *
| 44>
| 45>                          ****END OF INPUT****

CARTESIAN COORDINATES (ANGSTROEM)
---------------------------------
  C     14.639990   14.868289   14.407286
  C     15.242840   15.151279   15.797928
  O     16.349822   16.064139   15.679400
  C     16.111775   17.406925   15.594214
  O     15.301831   17.875550   14.814288
  C     16.844771   18.191420   16.649703
  C     16.925230   19.545239   16.580211
  C     16.141119   20.463724   15.665756
  N     17.810763   20.256388   17.393277
  C     18.781813   19.682191   18.168113
  S     19.859433   20.587852   19.036519
  N     18.829491   18.311193   18.171047
  C     17.851983   17.419418   17.519345
  C     17.210987   16.440858   18.495012
  C     17.579542   15.082886   18.491185
  C     16.981298   14.178779   19.384934
  C     16.010115   14.637714   20.291395
  C     15.646110   15.991447   20.300965
  O     14.709339   16.437312   21.175213
  C     16.242181   16.888489   19.409074
  H     14.137087   15.754165   14.001196
  H     13.898667   14.062694   14.469474
  H     15.421668   14.560709   13.701811
  H     14.477650   15.553096   16.476013
  H     15.606757   14.206529   16.221827
  H     15.063109   20.288398   15.774809
  H     16.398616   20.276040   14.615506
  H     16.320822   21.526625   15.865529
  H     17.801155   21.263787   17.382600
  H     19.537203   17.916193   18.777311
  H     18.507479   16.888803   16.814046
  H     18.327105   14.726693   17.787106
  H     17.271633   13.129488   19.374738
  H     15.546263   13.943685   20.984730
  H     14.449019   15.688283   21.732234
  H     15.952334   17.933719   19.434203

 Total Charge           Charge          ....    0
 Multiplicity           Mult            ....    1
 Number of Electrons    NEL             ....  154
 Basis Dimension        Dim             ....  828

ORBITAL ENERGIES
----------------

  NO   OCC          E(Eh)            E(eV)
   0   2.0000     -91.889792     -2500.4484
   1   2.0000     -20.599296      -560.5353
   2   2.0000     -20.588899      -560.2524
   3   2.0000     -20.545103      -559.0607
   4   2.0000     -15.630311      -425.3224
   5   2.0000     -15.607829      -424.7106
   6   2.0000     -11.394484      -310.0597
   7   2.0000     -11.384432      -309.7861
   8   2.0000     -11.338331      -308.5317
   9   2.0000     -11.316789      -307.9455
  10   2.0000     -11.308416      -307.7176
  11   2.0000     -11.298010      -307.4345
  12   2.0000     -11.263424      -306.4934
  13   2.0000     -11.258361      -306.3556
  14   2.0000     -11.258141      -306.3496
  15   2.0000     -11.252714      -306.2019
  16   2.0000     -11.246427      -306.0308
  17   2.0000     -11.241639      -305.9005
  18   2.0000     -11.241292      -305.8911
  19   2.0000     -11.217181      -305.2350
  20   2.0000      -8.894855      -242.0413
  21   2.0000      -6.576425      -178.9536
  22   2.0000      -6.574429      -178.8993
  23   2.0000      -6.573836      -178.8832
  24   2.0000      -1.447896       -39.3993
  25   2.0000      -1.418967       -38.6120
  26   2.0000      -1.354748       -36.8646
  27   2.0000      -1.341318       -36.4991
  28   2.0000      -1.239209       -33.7206
  29   2.0000      -1.160133       -31.5688
  30   2.0000      -1.121801       -30.5258
  31   2.0000      -1.044742       -28.4289
  32   2.0000      -1.032596       -28.0984
  33   2.0000      -1.017897       -27.6984
  34   2.0000      -0.996570       -27.1181
  35   2.0000      -0.985101       -26.8060
  36   2.0000      -0.923220       -25.1221
  37   2.0000      -0.886727       -24.1291
  38   2.0000      -0.848147       -23.0792
  39   2.0000      -0.840361       -22.8674
  40   2.0000      -0.836829       -22.7713
  41   2.0000      -0.823548       -22.4099
  42   2.0000      -0.755292       -20.5525
  43   2.0000      -0.734872       -19.9969
  44   2.0000      -0.721430       -19.6311
  45   2.0000      -0.697868       -18.9900
  46   2.0000      -0.689737       -18.7687
  47   2.0000      -0.679570       -18.4920
  48   2.0000      -0.670883       -18.2557
  49   2.0000      -0.654119       -17.7995
  50   2.0000      -0.647211       -17.6115
  51   2.0000      -0.646724       -17.5982
  52   2.0000      -0.635361       -17.2891
  53   2.0000      -0.609621       -16.5886
  54   2.0000      -0.603690       -16.4272
  55   2.0000      -0.601178       -16.3589
  56   2.0000      -0.593718       -16.1559
  57   2.0000      -0.582447       -15.8492
  58   2.0000      -0.576144       -15.6777
  59   2.0000      -0.570426       -15.5221
  60   2.0000      -0.564656       -15.3651
  61   2.0000      -0.541173       -14.7261
  62   2.0000      -0.535093       -14.5606
  63   2.0000      -0.526285       -14.3210
  64   2.0000      -0.516793       -14.0626
  65   2.0000      -0.512894       -13.9566
  66   2.0000      -0.501070       -13.6348
  67   2.0000      -0.497108       -13.5270
  68   2.0000      -0.487049       -13.2533
  69   2.0000      -0.464126       -12.6295
  70   2.0000      -0.455628       -12.3983
  71   2.0000      -0.441831       -12.0228
  72   2.0000      -0.354143        -9.6367
  73   2.0000      -0.352064        -9.5802
  74   2.0000      -0.329130        -8.9561
  75   2.0000      -0.324091        -8.8190
  76   2.0000      -0.319108        -8.6834
  77   0.0000       0.073164         1.9909
  78   0.0000       0.101718         2.7679
  79   0.0000       0.124333         3.3833
  80   0.0000       0.131293         3.5727
  81   0.0000       0.135030         3.6743

MULLIKEN ATOMIC CHARGES
-----------------------
   0 C :   -0.275797
   1 C :    0.038042
   2 O :   -0.369683
   3 C :    0.449583
   4 O :   -0.423149
   5 C :   -0.245615
   6 C :    0.181327
   7 C :   -0.266980
   8 N :   -0.125950
   9 C :    0.211936
  10 S :   -0.440755
  11 N :   -0.217170
  12 C :    0.074622
  13 C :    0.031968
  14 C :   -0.188577
  15 C :   -0.128074
  16 C :   -0.278299
  17 C :    0.315805
  18 O :   -0.356053
  19 C :   -0.249123
  20 H :    0.119893
  21 H :    0.088632
  22 H :    0.091483
  23 H :    0.090203
  24 H :    0.105459
  25 H :    0.133076
  26 H :    0.129714
  27 H :    0.094985
  28 H :    0.199411
  29 H :    0.200831
  30 H :    0.152166
  31 H :    0.154604
  32 H :    0.163825
  33 H :    0.131971
  34 H :    0.241155
  35 H :    0.164535
Sum of atomic charges:   -0.0000000

LOEWDIN ATOMIC CHARGES
----------------------
   0 C :    0.105171
   1 C :   -0.017863
   2 O :    0.296828
   3 C :   -0.416115
   4 O :    0.111165
   5 C :   -0.098530
   6 C :   -0.055131
   7 C :    0.131447
   8 N :    0.407460
   9 C :   -0.456148
  10 S :   -0.035550
  11 N :    0.394320
  12 C :   -0.054660
  13 C :   -0.038869
  14 C :    0.018102
  15 C :    0.039312
  16 C :   -0.000999
  17 C :   -0.190134
  18 O :    0.395540
  19 C :    0.032264
  20 H :   -0.026793
  21 H :   -0.030707
  22 H :   -0.027829
  23 H :   -0.030058
  24 H :   -0.025221
  25 H :   -0.004446
  26 H :   -0.004583
  27 H :   -0.023479
  28 H :   -0.057024
  29 H :   -0.064533
  30 H :   -0.012729
  31 H :   -0.028334
  32 H :   -0.020788
  33 H :   -0.034975
  34 H :   -0.153391
  35 H :   -0.022719

  Mayer bond orders larger than 0.100000
B(  0-C ,  1-C ) :   0.9839 B(  0-C , 20-H ) :   0.9722 B(  0-C , 21-H ) :   0.9775
B(  0-C , 22-H ) :   0.9760 B(  1-C ,  2-O ) :   0.8898 B(  1-C , 23-H ) :   0.9709
B(  1-C , 24-H ) :   0.9797 B(  2-O ,  3-C ) :   1.1023 B(  3-C ,  4-O ) :   1.9811
B(  3-C ,  5-C ) :   1.0799 B(  5-C ,  6-C ) :   1.6291 B(  5-C , 12-C ) :   0.9531
B(  6-C ,  7-C ) :   0.9657 B(  6-C ,  8-N ) :   1.1568 B(  7-C , 25-H ) :   0.9607
B(  7-C , 26-H ) :   0.9587 B(  7-C , 27-H ) :   0.9906 B(  8-N ,  9-C ) :   1.1857
B(  8-N , 28-H ) :   0.9462 B(  9-C , 10-S ) :   1.6064 B(  9-C , 11-N ) :   1.3102
B( 11-N , 12-C ) :   0.9649 B( 11-N , 29-H ) :   0.9484 B( 12-C , 13-C ) :   0.9617
B( 12-C , 30-H ) :   1.0008 B( 13-C , 14-C ) :   1.3494 B( 13-C , 19-C ) :   1.3789
B( 14-C , 15-C ) :   1.3899 B( 14-C , 31-H ) :   0.9726 B( 15-C , 16-C ) :   1.3599
B( 15-C , 32-H ) :   0.9699 B( 16-C , 17-C ) :   1.3330 B( 16-C , 33-H ) :   0.9844
B( 17-C , 18-O ) :   1.1059 B( 17-C , 19-C ) :   1.3647 B( 18-O , 34-H ) :   0.9793
B( 19-C , 35-H ) :   0.9595

MP2 TOTAL ENERGY:    -1274.333380906 Eh
FINAL SINGLE POINT ENERGY     -1274.333380906241

DIPOLE MOMENT
-------------
                                X             Y             Z
Electronic contribution:     10.06326       9.71660       9.15771
Nuclear contribution   :    -11.13313     -11.30957      -9.23248
                        -----------------------------------------
Total Dipole Moment    :     -1.06987      -1.59297      -0.07477
                        -----------------------------------------
Magnitude (a.u.)       :      1.92036
Magnitude (Debye)      :      4.88116

Rotational constants in cm-1:     0.011540     0.008580     0.005894
Rotational constants in MHz :   345.953506   257.229223   176.683696

                             ****ORCA TERMINATED NORMALLY****
TOTAL RUN TIME: 0 days 1 hours 55 minutes 42 seconds 275 msec
