                         Program Version 4.2.0 -  RELEASE  -
|  1> ! ri-mp2 cc-pvtz cc-pvtz/c TightSCF NoKeepInts
|  2>
|  3> %scf
|  4>   MaxCore 4096
|  5> end
|  6> *xyz  0  1
|  7>     C       14.7585123   15.1373256   16.3374003
|  8>     C       15.8540781   14.9247358   15.2761569
|  9>     O       16.9852232   15.7776898   15.5427421
| 10>     C       16.8815990   17.0912101   15.1910769
| 11>     O       16.5678114   17.4077663   14.0569183
| 12>     C       17.0106776   18.0399720   16.3544684
| 13>     C       16.8846414   19.3789781   16.1577224
| 14>     C       16.2852206   20.0802187   14.9557200
| 15>     N       17.3206027   20.2947955   17.1177025
| 16>     C       18.1037531   19.9726869   18.1918792
| 17>     S       18.6915617   21.1222920   19.2254480
| 18>     N       18.3988041   18.6431349   18.3515835
| 19>     C       17.8128758   17.5376118   17.5697234
| 20>     C       17.1125735   16.5210028   18.4596968
| 21>     C       17.6464799   15.2307843   18.6342327
| 22>     C       17.0210385   14.3103671   19.4924084
| 23>     C       15.8566369   14.6857492   20.1848600
| 24>     C       15.3272957   15.9731429   20.0173527
| 25>     O       14.2037759   16.3381936   20.6843484
| 26>     C       15.9517489   16.8868349   19.1623462
| 27>     H       15.0992109   14.7918464   17.3186676
| 28>     H       13.8610298   14.5639502   16.0761083
| 29>     H       14.4747247   16.1940627   16.4141490
| 30>     H       16.1763436   13.8760745   15.3074104
| 31>     H       15.4520379   15.1199144   14.2723089
| 32>     H       15.3383685   19.6089259   14.6629859
| 33>     H       16.9629975   20.0174734   14.0946068
| 34>     H       16.0748777   21.1405999   15.1384513
| 35>     H       17.1369265   21.2774106   16.9920539
| 36>     H       18.9573472   18.4318109   19.1689334
| 37>     H       18.7332689   17.1090308   17.1482247
| 38>     H       18.5472671   14.9404113   18.0998102
| 39>     H       17.4395555   13.3134402   19.6198860
| 40>     H       15.3708957   13.9787006   20.8493696
| 41>     H       13.9502853   15.5982841   21.2565029
| 42>     H       15.5369530   17.8835716   19.0547438
| 43> *
| 44>
| 45>                          ****END OF INPUT****

CARTESIAN COORDINATES (ANGSTROEM)
---------------------------------
  C     14.758512   15.137326   16.337400
  C     15.854078   14.924736   15.276157
  O     16.985223   15.777690   15.542742
  C     16.881599   17.091210   15.191077
  O     16.567811   17.407766   14.056918
  C     17.010678   18.039972   16.354468
  C     16.884641   19.378978   16.157722
  C     16.285221   20.080219   14.955720
  N     17.320603   20.294795   17.117703
  C     18.103753   19.972687   18.191879
  S     18.691562   21.122292   19.225448
  N     18.398804   18.643135   18.351584
  C     17.812876   17.537612   17.569723
  C     17.112573   16.521003   18.459697
  C     17.646480   15.230784   18.634233
  C     17.021038   14.310367   19.492408
  C     15.856637   14.685749   20.184860
  C     15.327296   15.973143   20.017353
  O     14.203776   16.338194   20.684348
  C     15.951749   16.886835   19.162346
  H     15.099211   14.791846   17.318668
  H     13.861030   14.563950   16.076108
  H     14.474725   16.194063   16.414149
  H     16.176344   13.876074   15.307410
  H     15.452038   15.119914   14.272309
  H     15.338368   19.608926   14.662986
  H     16.962998   20.017473   14.094607
  H     16.074878   21.140600   15.138451
  H     17.136927   21.277411   16.992054
  H     18.957347   18.431811   19.168933
  H     18.733269   17.109031   17.148225
  H     18.547267   14.940411   18.099810
  H     17.439556   13.313440   19.619886
  H     15.370896   13.978701   20.849370
  H     13.950285   15.598284   21.256503
  H     15.536953   17.883572   19.054744

 Total Charge           Charge          ....    0
 Multiplicity           Mult            ....    1
 Number of Electrons    NEL             ....  154
 Basis Dimension        Dim             ....  828

ORBITAL ENERGIES
----------------

  NO   OCC          E(Eh)            E(eV)
   0   2.0000     -91.890680     -2500.4725
   1   2.0000     -20.599274      -560.5347
   2   2.0000     -20.586657      -560.1914
   3   2.0000     -20.545359      -559.0676
   4   2.0000     -15.631032      -425.3420
   5   2.0000     -15.608490      -424.7286
   6   2.0000     -11.393110      -310.0223
   7   2.0000     -11.384852      -309.7976
   8   2.0000     -11.339632      -308.5671
   9   2.0000     -11.316605      -307.9405
  10   2.0000     -11.310359      -307.7705
  11   2.0000     -11.295826      -307.3750
  12   2.0000     -11.263181      -306.4867
  13   2.0000     -11.259823      -306.3954
  14   2.0000     -11.258083      -306.3480
  15   2.0000     -11.253211      -306.2154
  16   2.0000     -11.246889      -306.0434
  17   2.0000     -11.241368      -305.8932
  18   2.0000     -11.241233      -305.8895
  19   2.0000     -11.221971      -305.3654
  20   2.0000      -8.895724      -242.0650
  21   2.0000      -6.577290      -178.9772
  22   2.0000      -6.575299      -178.9230
  23   2.0000      -6.574701      -178.9067
  24   2.0000      -1.448598       -39.4184
  25   2.0000      -1.419011       -38.6132
  26   2.0000      -1.352340       -36.7990
  27   2.0000      -1.342639       -36.5351
  28   2.0000      -1.240475       -33.7550
  29   2.0000      -1.160121       -31.5685
  30   2.0000      -1.122376       -30.5414
  31   2.0000      -1.044980       -28.4354
  32   2.0000      -1.032302       -28.0904
  33   2.0000      -1.017775       -27.6951
  34   2.0000      -0.999164       -27.1886
  35   2.0000      -0.986836       -26.8532
  36   2.0000      -0.923990       -25.1430
  37   2.0000      -0.891416       -24.2567
  38   2.0000      -0.848263       -23.0824
  39   2.0000      -0.840850       -22.8807
  40   2.0000      -0.836962       -22.7749
  41   2.0000      -0.816216       -22.2104
  42   2.0000      -0.755630       -20.5617
  43   2.0000      -0.735851       -20.0235
  44   2.0000      -0.723099       -19.6765
  45   2.0000      -0.697977       -18.9929
  46   2.0000      -0.689745       -18.7689
  47   2.0000      -0.675720       -18.3873
  48   2.0000      -0.671008       -18.2590
  49   2.0000      -0.667636       -18.1673
  50   2.0000      -0.647341       -17.6150
  51   2.0000      -0.644119       -17.5274
  52   2.0000      -0.636881       -17.3304
  53   2.0000      -0.609675       -16.5901
  54   2.0000      -0.605748       -16.4832
  55   2.0000      -0.601311       -16.3625
  56   2.0000      -0.597354       -16.2548
  57   2.0000      -0.579151       -15.7595
  58   2.0000      -0.571031       -15.5385
  59   2.0000      -0.566645       -15.4192
  60   2.0000      -0.559467       -15.2239
  61   2.0000      -0.546688       -14.8761
  62   2.0000      -0.541738       -14.7414
  63   2.0000      -0.525989       -14.3129
  64   2.0000      -0.522719       -14.2239
  65   2.0000      -0.514636       -14.0039
  66   2.0000      -0.503717       -13.7068
  67   2.0000      -0.500609       -13.6223
  68   2.0000      -0.477046       -12.9811
  69   2.0000      -0.464256       -12.6330
  70   2.0000      -0.451464       -12.2850
  71   2.0000      -0.446930       -12.1616
  72   2.0000      -0.354756        -9.6534
  73   2.0000      -0.352208        -9.5841
  74   2.0000      -0.329742        -8.9727
  75   2.0000      -0.324588        -8.8325
  76   2.0000      -0.320232        -8.7140
  77   0.0000       0.071365         1.9419
  78   0.0000       0.101959         2.7745
  79   0.0000       0.122089         3.3222
  80   0.0000       0.130471         3.5503
  81   0.0000       0.134100         3.6490

MULLIKEN ATOMIC CHARGES
-----------------------
   0 C :   -0.314668
   1 C :    0.030498
   2 O :   -0.375164
   3 C :    0.456459
   4 O :   -0.411974
   5 C :   -0.235241
   6 C :    0.165812
   7 C :   -0.265990
   8 N :   -0.125609
   9 C :    0.207949
  10 S :   -0.438172
  11 N :   -0.211171
  12 C :    0.045848
  13 C :    0.025311
  14 C :   -0.179736
  15 C :   -0.130920
  16 C :   -0.277863
  17 C :    0.308892
  18 O :   -0.358882
  19 C :   -0.229581
  20 H :    0.108613
  21 H :    0.115416
  22 H :    0.098706
  23 H :    0.108557
  24 H :    0.117173
  25 H :    0.128135
  26 H :    0.134003
  27 H :    0.094080
  28 H :    0.200185
  29 H :    0.200411
  30 H :    0.153178
  31 H :    0.155592
  32 H :    0.162466
  33 H :    0.132160
  34 H :    0.241083
  35 H :    0.164442
Sum of atomic charges:   -0.0000000

LOEWDIN ATOMIC CHARGES
----------------------
   0 C :    0.104845
   1 C :   -0.018242
   2 O :    0.294261
   3 C :   -0.420838
   4 O :    0.110316
   5 C :   -0.101931
   6 C :   -0.053812
   7 C :    0.130724
   8 N :    0.408030
   9 C :   -0.458208
  10 S :   -0.033620
  11 N :    0.395655
  12 C :   -0.053750
  13 C :   -0.040690
  14 C :    0.018212
  15 C :    0.038911
  16 C :   -0.001579
  17 C :   -0.191447
  18 O :    0.396230
  19 C :    0.035667
  20 H :   -0.026251
  21 H :   -0.026001
  22 H :   -0.029732
  23 H :   -0.023912
  24 H :   -0.028235
  25 H :   -0.005457
  26 H :   -0.004181
  27 H :   -0.023369
  28 H :   -0.056659
  29 H :   -0.063587
  30 H :   -0.012009
  31 H :   -0.027536
  32 H :   -0.020511
  33 H :   -0.034937
  34 H :   -0.153380
  35 H :   -0.022974

  Mayer bond orders larger than 0.100000
B(  0-C ,  1-C ) :   0.9577 B(  0-C , 20-H ) :   0.9730 B(  0-C , 21-H ) :   0.9781
B(  0-C , 22-H ) :   0.9733 B(  1-C ,  2-O ) :   0.8909 B(  1-C , 23-H ) :   0.9854
B(  1-C , 24-H ) :   0.9809 B(  2-O ,  3-C ) :   1.1115 B(  3-C ,  4-O ) :   2.0158
B(  3-C ,  5-C ) :   1.0631 B(  5-C ,  6-C ) :   1.6295 B(  5-C , 12-C ) :   0.9607
B(  6-C ,  7-C ) :   0.9676 B(  6-C ,  8-N ) :   1.1534 B(  7-C , 25-H ) :   0.9645
B(  7-C , 26-H ) :   0.9557 B(  7-C , 27-H ) :   0.9891 B(  8-N ,  9-C ) :   1.1848
B(  8-N , 28-H ) :   0.9467 B(  9-C , 10-S ) :   1.6119 B(  9-C , 11-N ) :   1.3066
B( 11-N , 12-C ) :   0.9698 B( 11-N , 29-H ) :   0.9486 B( 12-C , 13-C ) :   0.9584
B( 12-C , 30-H ) :   1.0044 B( 13-C , 14-C ) :   1.3577 B( 13-C , 19-C ) :   1.3709
B( 14-C , 15-C ) :   1.3912 B( 14-C , 31-H ) :   0.9703 B( 15-C , 16-C ) :   1.3550
B( 15-C , 32-H ) :   0.9711 B( 16-C , 17-C ) :   1.3348 B( 16-C , 33-H ) :   0.9849
B( 17-C , 18-O ) :   1.1064 B( 17-C , 19-C ) :   1.3624 B( 18-O , 34-H ) :   0.9794
B( 19-C , 35-H ) :   0.9605

MP2 TOTAL ENERGY:    -1274.331191916 Eh
FINAL SINGLE POINT ENERGY     -1274.331191916070

DIPOLE MOMENT
-------------
                                X             Y             Z
Electronic contribution:      8.49912       9.86584       5.98630
Nuclear contribution   :     -9.47627     -11.55931      -6.05985
                        -----------------------------------------
Total Dipole Moment    :     -0.97715      -1.69346      -0.07354
                        -----------------------------------------
Magnitude (a.u.)       :      1.95654
Magnitude (Debye)      :      4.97314

Rotational constants in cm-1:     0.012202     0.008975     0.006170
Rotational constants in MHz :   365.797091   269.062725   184.971035

                             ****ORCA TERMINATED NORMALLY****
TOTAL RUN TIME: 0 days 1 hours 45 minutes 22 seconds 411 msec
