                         Program Version 4.2.0 -  RELEASE  -
|  1> ! ri-mp2 cc-pvtz cc-pvtz/c TightSCF NoKeepInts
|  2>
|  3> %scf
|  4>   MaxCore 4096
|  5> end
|  6> *xyz  0  1
|  7>     C       15.3019508   14.0120190   15.7210907
|  8>     C       15.0443071   15.5235969   15.8398604
|  9>     O       16.2288067   16.2052743   15.3980468
| 10>     C       16.1516785   17.5621382   15.3127496
| 11>     O       15.4909247   18.0841874   14.4332565
| 12>     C       16.8172205   18.2896778   16.4525809
| 13>     C       16.9425100   19.6426235   16.4203667
| 14>     C       16.2330487   20.6101655   15.4950798
| 15>     N       17.8022859   20.3090359   17.2963386
| 16>     C       18.7314447   19.6906760   18.0873344
| 17>     S       19.7976718   20.5443627   19.0199336
| 18>     N       18.7498978   18.3201225   18.0464591
| 19>     C       17.7657837   17.4721073   17.3483092
| 20>     C       17.0822191   16.4938266   18.2926298
| 21>     C       17.5110558   15.1562123   18.3665656
| 22>     C       16.8847279   14.2538676   19.2427912
| 23>     C       15.8262140   14.6951854   20.0552193
| 24>     C       15.4064473   16.0310553   19.9927573
| 25>     O       14.3866503   16.4609252   20.7772239
| 26>     C       16.0312293   16.9267111   19.1193022
| 27>     H       14.4240678   13.4456772   16.0544871
| 28>     H       16.1577917   13.7111890   16.3360389
| 29>     H       15.5120590   13.7386762   14.6795248
| 30>     H       14.1899254   15.7988897   15.2062061
| 31>     H       14.8050739   15.7859471   16.8781562
| 32>     H       15.1509052   20.4270639   15.4984709
| 33>     H       16.5832928   20.4847266   14.4624041
| 34>     H       16.3851406   21.6602246   15.7712975
| 35>     H       17.8175841   21.3163271   17.3132182
| 36>     H       19.4285622   17.8911245   18.6628349
| 37>     H       18.4332139   16.9397737   16.6554171
| 38>     H       18.3279622   14.8135065   17.7366762
| 39>     H       17.2203667   13.2191906   19.2910606
| 40>     H       15.3397419   14.0018451   20.7336698
| 41>     H       14.1252561   15.7225756   21.3481785
| 42>     H       15.6999819   17.9594919   19.0924634
| 43> *
| 44>
| 45>                          ****END OF INPUT****

CARTESIAN COORDINATES (ANGSTROEM)
---------------------------------
  C     15.301951   14.012019   15.721091
  C     15.044307   15.523597   15.839860
  O     16.228807   16.205274   15.398047
  C     16.151678   17.562138   15.312750
  O     15.490925   18.084187   14.433256
  C     16.817221   18.289678   16.452581
  C     16.942510   19.642623   16.420367
  C     16.233049   20.610166   15.495080
  N     17.802286   20.309036   17.296339
  C     18.731445   19.690676   18.087334
  S     19.797672   20.544363   19.019934
  N     18.749898   18.320123   18.046459
  C     17.765784   17.472107   17.348309
  C     17.082219   16.493827   18.292630
  C     17.511056   15.156212   18.366566
  C     16.884728   14.253868   19.242791
  C     15.826214   14.695185   20.055219
  C     15.406447   16.031055   19.992757
  O     14.386650   16.460925   20.777224
  C     16.031229   16.926711   19.119302
  H     14.424068   13.445677   16.054487
  H     16.157792   13.711189   16.336039
  H     15.512059   13.738676   14.679525
  H     14.189925   15.798890   15.206206
  H     14.805074   15.785947   16.878156
  H     15.150905   20.427064   15.498471
  H     16.583293   20.484727   14.462404
  H     16.385141   21.660225   15.771297
  H     17.817584   21.316327   17.313218
  H     19.428562   17.891124   18.662835
  H     18.433214   16.939774   16.655417
  H     18.327962   14.813506   17.736676
  H     17.220367   13.219191   19.291061
  H     15.339742   14.001845   20.733670
  H     14.125256   15.722576   21.348178
  H     15.699982   17.959492   19.092463

 Total Charge           Charge          ....    0
 Multiplicity           Mult            ....    1
 Number of Electrons    NEL             ....  154
 Basis Dimension        Dim             ....  828

ORBITAL ENERGIES
----------------

  NO   OCC          E(Eh)            E(eV)
   0   2.0000     -91.890982     -2500.4807
   1   2.0000     -20.602596      -560.6251
   2   2.0000     -20.583634      -560.1092
   3   2.0000     -20.544892      -559.0549
   4   2.0000     -15.631497      -425.3547
   5   2.0000     -15.609093      -424.7450
   6   2.0000     -11.390951      -309.9635
   7   2.0000     -11.385372      -309.8117
   8   2.0000     -11.340089      -308.5795
   9   2.0000     -11.320470      -308.0456
  10   2.0000     -11.310803      -307.7826
  11   2.0000     -11.293959      -307.3243
  12   2.0000     -11.266627      -306.5805
  13   2.0000     -11.261960      -306.4535
  14   2.0000     -11.259374      -306.3831
  15   2.0000     -11.253097      -306.2123
  16   2.0000     -11.250303      -306.1363
  17   2.0000     -11.244930      -305.9901
  18   2.0000     -11.244636      -305.9821
  19   2.0000     -11.225416      -305.4591
  20   2.0000      -8.896035      -242.0734
  21   2.0000      -6.577602      -178.9856
  22   2.0000      -6.575608      -178.9314
  23   2.0000      -6.575012      -178.9152
  24   2.0000      -1.448488       -39.4154
  25   2.0000      -1.422322       -38.7033
  26   2.0000      -1.352692       -36.8086
  27   2.0000      -1.342967       -36.5440
  28   2.0000      -1.241014       -33.7697
  29   2.0000      -1.163692       -31.6657
  30   2.0000      -1.123011       -30.5587
  31   2.0000      -1.047531       -28.5048
  32   2.0000      -1.034207       -28.1422
  33   2.0000      -1.021774       -27.8039
  34   2.0000      -0.998991       -27.1839
  35   2.0000      -0.987128       -26.8611
  36   2.0000      -0.925356       -25.1802
  37   2.0000      -0.878089       -23.8940
  38   2.0000      -0.849599       -23.1188
  39   2.0000      -0.842890       -22.9362
  40   2.0000      -0.839930       -22.8556
  41   2.0000      -0.828363       -22.5409
  42   2.0000      -0.762832       -20.7577
  43   2.0000      -0.738584       -20.0979
  44   2.0000      -0.724465       -19.7137
  45   2.0000      -0.701508       -19.0890
  46   2.0000      -0.690514       -18.7898
  47   2.0000      -0.678463       -18.4619
  48   2.0000      -0.674058       -18.3421
  49   2.0000      -0.656004       -17.8508
  50   2.0000      -0.650040       -17.6885
  51   2.0000      -0.641727       -17.4623
  52   2.0000      -0.627697       -17.0805
  53   2.0000      -0.623633       -16.9699
  54   2.0000      -0.612999       -16.6805
  55   2.0000      -0.605015       -16.4633
  56   2.0000      -0.603046       -16.4097
  57   2.0000      -0.582216       -15.8429
  58   2.0000      -0.571568       -15.5532
  59   2.0000      -0.567136       -15.4326
  60   2.0000      -0.553056       -15.0494
  61   2.0000      -0.542904       -14.7732
  62   2.0000      -0.532136       -14.4802
  63   2.0000      -0.529491       -14.4082
  64   2.0000      -0.518863       -14.1190
  65   2.0000      -0.515920       -14.0389
  66   2.0000      -0.506233       -13.7753
  67   2.0000      -0.500611       -13.6223
  68   2.0000      -0.486615       -13.2415
  69   2.0000      -0.465236       -12.6597
  70   2.0000      -0.458317       -12.4714
  71   2.0000      -0.444642       -12.0993
  72   2.0000      -0.356572        -9.7028
  73   2.0000      -0.354505        -9.6466
  74   2.0000      -0.330875        -9.0036
  75   2.0000      -0.327354        -8.9078
  76   2.0000      -0.320685        -8.7263
  77   0.0000       0.071530         1.9464
  78   0.0000       0.098379         2.6770
  79   0.0000       0.122057         3.3213
  80   0.0000       0.128761         3.5038
  81   0.0000       0.130130         3.5410

MULLIKEN ATOMIC CHARGES
-----------------------
   0 C :   -0.270334
   1 C :    0.011312
   2 O :   -0.372211
   3 C :    0.496111
   4 O :   -0.409914
   5 C :   -0.309603
   6 C :    0.186871
   7 C :   -0.265476
   8 N :   -0.127119
   9 C :    0.212628
  10 S :   -0.439579
  11 N :   -0.217426
  12 C :    0.071806
  13 C :    0.004222
  14 C :   -0.179297
  15 C :   -0.136398
  16 C :   -0.266003
  17 C :    0.311809
  18 O :   -0.356808
  19 C :   -0.236439
  20 H :    0.088989
  21 H :    0.092375
  22 H :    0.106088
  23 H :    0.118559
  24 H :    0.104041
  25 H :    0.131870
  26 H :    0.132183
  27 H :    0.094360
  28 H :    0.199651
  29 H :    0.201281
  30 H :    0.151765
  31 H :    0.160049
  32 H :    0.167439
  33 H :    0.134327
  34 H :    0.241758
  35 H :    0.167115
Sum of atomic charges:   -0.0000000

LOEWDIN ATOMIC CHARGES
----------------------
   0 C :    0.110413
   1 C :   -0.022283
   2 O :    0.295572
   3 C :   -0.421834
   4 O :    0.114194
   5 C :   -0.102037
   6 C :   -0.052994
   7 C :    0.131553
   8 N :    0.408062
   9 C :   -0.456662
  10 S :   -0.034232
  11 N :    0.394471
  12 C :   -0.054881
  13 C :   -0.039791
  14 C :    0.018555
  15 C :    0.044351
  16 C :    0.000356
  17 C :   -0.191300
  18 O :    0.396519
  19 C :    0.032349
  20 H :   -0.025479
  21 H :   -0.032068
  22 H :   -0.025734
  23 H :   -0.028960
  24 H :   -0.035304
  25 H :   -0.004488
  26 H :   -0.003920
  27 H :   -0.023474
  28 H :   -0.056580
  29 H :   -0.064516
  30 H :   -0.011961
  31 H :   -0.028373
  32 H :   -0.019747
  33 H :   -0.033957
  34 H :   -0.152577
  35 H :   -0.023241

  Mayer bond orders larger than 0.100000
B(  0-C ,  1-C ) :   0.9788 B(  0-C , 20-H ) :   0.9763 B(  0-C , 21-H ) :   0.9755
B(  0-C , 22-H ) :   0.9785 B(  1-C ,  2-O ) :   0.8854 B(  1-C , 23-H ) :   0.9798
B(  1-C , 24-H ) :   0.9645 B(  2-O ,  3-C ) :   1.1064 B(  3-C ,  4-O ) :   2.0250
B(  3-C ,  5-C ) :   1.0651 B(  5-C ,  6-C ) :   1.6281 B(  5-C , 12-C ) :   0.9509
B(  6-C ,  7-C ) :   0.9669 B(  6-C ,  8-N ) :   1.1603 B(  7-C , 25-H ) :   0.9619
B(  7-C , 26-H ) :   0.9567 B(  7-C , 27-H ) :   0.9897 B(  8-N ,  9-C ) :   1.1855
B(  8-N , 28-H ) :   0.9462 B(  9-C , 10-S ) :   1.6059 B(  9-C , 11-N ) :   1.3108
B( 11-N , 12-C ) :   0.9594 B( 11-N , 29-H ) :   0.9485 B( 12-C , 13-C ) :   0.9703
B( 12-C , 30-H ) :   1.0008 B( 13-C , 14-C ) :   1.3469 B( 13-C , 19-C ) :   1.3681
B( 14-C , 15-C ) :   1.3859 B( 14-C , 31-H ) :   0.9712 B( 15-C , 16-C ) :   1.3626
B( 15-C , 32-H ) :   0.9681 B( 16-C , 17-C ) :   1.3299 B( 16-C , 33-H ) :   0.9835
B( 17-C , 18-O ) :   1.1067 B( 17-C , 19-C ) :   1.3671 B( 18-O , 34-H ) :   0.9787
B( 19-C , 35-H ) :   0.9604

MP2 TOTAL ENERGY:    -1274.331000470 Eh
FINAL SINGLE POINT ENERGY     -1274.331000470359

DIPOLE MOMENT
-------------
                                X             Y             Z
Electronic contribution:      8.59638      11.03763       5.77878
Nuclear contribution   :     -9.68045     -12.54784      -5.52159
                        -----------------------------------------
Total Dipole Moment    :     -1.08407      -1.51020       0.25718
                        -----------------------------------------
Magnitude (a.u.)       :      1.87672
Magnitude (Debye)      :      4.77024

Rotational constants in cm-1:     0.012619     0.008368     0.006113
Rotational constants in MHz :   378.306805   250.878841   183.276900

                             ****ORCA TERMINATED NORMALLY****
TOTAL RUN TIME: 0 days 1 hours 45 minutes 39 seconds 735 msec
