                         Program Version 4.2.0 -  RELEASE  -
|  1> ! ri-mp2 cc-pvtz cc-pvtz/c TightSCF NoKeepInts
|  2>
|  3> %scf
|  4>   MaxCore 4096
|  5> end
|  6> *xyz  0  1
|  7>     C       14.4069714   16.3835732   16.0652457
|  8>     C       15.1686825   15.7439264   14.8849883
|  9>     O       16.3901935   16.4361844   14.5404537
| 10>     C       17.3866297   16.5907257   15.4620679
| 11>     O       18.2970919   15.7860850   15.5402389
| 12>     C       17.1864420   17.6879208   16.4623587
| 13>     C       16.7896503   18.9228160   16.0635389
| 14>     C       16.3180546   19.3295656   14.6806905
| 15>     N       16.8861452   20.0165347   16.9267837
| 16>     C       17.5884737   20.0099857   18.1024454
| 17>     S       17.7627690   21.3736002   19.0216165
| 18>     N       18.1630918   18.8170086   18.4645066
| 19>     C       17.9432690   17.5249993   17.7844117
| 20>     C       17.3642203   16.4406941   18.6831026
| 21>     C       17.9169192   15.1474783   18.6872207
| 22>     C       17.3759338   14.1413467   19.5049124
| 23>     C       16.2722233   14.4307474   20.3254081
| 24>     C       15.7178682   15.7180090   20.3218771
| 25>     O       14.6469048   15.9982778   21.1062202
| 26>     C       16.2583414   16.7174785   19.5064880
| 27>     H       14.9494719   16.2504828   17.0079781
| 28>     H       13.4303463   15.8987483   16.1848012
| 29>     H       14.2286709   17.4516822   15.9012487
| 30>     H       15.4008604   14.6992282   15.1330564
| 31>     H       14.5126001   15.7333099   14.0050386
| 32>     H       15.3244562   18.9228270   14.4618265
| 33>     H       17.0064437   18.9603476   13.9096375
| 34>     H       16.2619664   20.4181899   14.5579736
| 35>     H       16.4982900   20.9067157   16.6576859
| 36>     H       18.6684146   18.8366718   19.3415061
| 37>     H       18.9782588   17.2766026   17.5062455
| 38>     H       18.7635143   14.9191409   18.0430704
| 39>     H       17.8105407   13.1431997   19.4965643
| 40>     H       15.8504896   13.6559464   20.9570877
| 41>     H       14.4493702   15.2028253   21.6233269
| 42>     H       15.8134302   17.7071244   19.5163769
| 43> *
| 44>
| 45>                          ****END OF INPUT****

CARTESIAN COORDINATES (ANGSTROEM)
---------------------------------
  C     14.406971   16.383573   16.065246
  C     15.168682   15.743926   14.884988
  O     16.390193   16.436184   14.540454
  C     17.386630   16.590726   15.462068
  O     18.297092   15.786085   15.540239
  C     17.186442   17.687921   16.462359
  C     16.789650   18.922816   16.063539
  C     16.318055   19.329566   14.680690
  N     16.886145   20.016535   16.926784
  C     17.588474   20.009986   18.102445
  S     17.762769   21.373600   19.021616
  N     18.163092   18.817009   18.464507
  C     17.943269   17.524999   17.784412
  C     17.364220   16.440694   18.683103
  C     17.916919   15.147478   18.687221
  C     17.375934   14.141347   19.504912
  C     16.272223   14.430747   20.325408
  C     15.717868   15.718009   20.321877
  O     14.646905   15.998278   21.106220
  C     16.258341   16.717478   19.506488
  H     14.949472   16.250483   17.007978
  H     13.430346   15.898748   16.184801
  H     14.228671   17.451682   15.901249
  H     15.400860   14.699228   15.133056
  H     14.512600   15.733310   14.005039
  H     15.324456   18.922827   14.461827
  H     17.006444   18.960348   13.909638
  H     16.261966   20.418190   14.557974
  H     16.498290   20.906716   16.657686
  H     18.668415   18.836672   19.341506
  H     18.978259   17.276603   17.506245
  H     18.763514   14.919141   18.043070
  H     17.810541   13.143200   19.496564
  H     15.850490   13.655946   20.957088
  H     14.449370   15.202825   21.623327
  H     15.813430   17.707124   19.516377

 Total Charge           Charge          ....    0
 Multiplicity           Mult            ....    1
 Number of Electrons    NEL             ....  154
 Basis Dimension        Dim             ....  828

ORBITAL ENERGIES
----------------

  NO   OCC          E(Eh)            E(eV)
   0   2.0000     -91.890064     -2500.4558
   1   2.0000     -20.597110      -560.4759
   2   2.0000     -20.586627      -560.1906
   3   2.0000     -20.553696      -559.2945
   4   2.0000     -15.629815      -425.3089
   5   2.0000     -15.608270      -424.7226
   6   2.0000     -11.394828      -310.0690
   7   2.0000     -11.385062      -309.8033
   8   2.0000     -11.336797      -308.4899
   9   2.0000     -11.313880      -307.8663
  10   2.0000     -11.308205      -307.7119
  11   2.0000     -11.307400      -307.6900
  12   2.0000     -11.262181      -306.4595
  13   2.0000     -11.261227      -306.4336
  14   2.0000     -11.259580      -306.3888
  15   2.0000     -11.253938      -306.2352
  16   2.0000     -11.243569      -305.9531
  17   2.0000     -11.239512      -305.8427
  18   2.0000     -11.236017      -305.7476
  19   2.0000     -11.232923      -305.6634
  20   2.0000      -8.895145      -242.0492
  21   2.0000      -6.576720      -178.9616
  22   2.0000      -6.574718      -178.9072
  23   2.0000      -6.574127      -178.8911
  24   2.0000      -1.447555       -39.3900
  25   2.0000      -1.416897       -38.5557
  26   2.0000      -1.357632       -36.9431
  27   2.0000      -1.341373       -36.5006
  28   2.0000      -1.238911       -33.7125
  29   2.0000      -1.157976       -31.5101
  30   2.0000      -1.123707       -30.5776
  31   2.0000      -1.045788       -28.4573
  32   2.0000      -1.035808       -28.1858
  33   2.0000      -1.015807       -27.6415
  34   2.0000      -1.003167       -27.2976
  35   2.0000      -0.989000       -26.9120
  36   2.0000      -0.924718       -25.1629
  37   2.0000      -0.895766       -24.3750
  38   2.0000      -0.850353       -23.1393
  39   2.0000      -0.839924       -22.8555
  40   2.0000      -0.833728       -22.6869
  41   2.0000      -0.823086       -22.3973
  42   2.0000      -0.751750       -20.4561
  43   2.0000      -0.735341       -20.0097
  44   2.0000      -0.729026       -19.8378
  45   2.0000      -0.694797       -18.9064
  46   2.0000      -0.687422       -18.7057
  47   2.0000      -0.676382       -18.4053
  48   2.0000      -0.673779       -18.3345
  49   2.0000      -0.664294       -18.0764
  50   2.0000      -0.653077       -17.7711
  51   2.0000      -0.647808       -17.6278
  52   2.0000      -0.638357       -17.3706
  53   2.0000      -0.613006       -16.6807
  54   2.0000      -0.602805       -16.4032
  55   2.0000      -0.602220       -16.3872
  56   2.0000      -0.600860       -16.3502
  57   2.0000      -0.586219       -15.9518
  58   2.0000      -0.576234       -15.6801
  59   2.0000      -0.568185       -15.4611
  60   2.0000      -0.563055       -15.3215
  61   2.0000      -0.552639       -15.0381
  62   2.0000      -0.548080       -14.9140
  63   2.0000      -0.527749       -14.3608
  64   2.0000      -0.520915       -14.1748
  65   2.0000      -0.512404       -13.9432
  66   2.0000      -0.499691       -13.5973
  67   2.0000      -0.490912       -13.3584
  68   2.0000      -0.485390       -13.2081
  69   2.0000      -0.465690       -12.6721
  70   2.0000      -0.458989       -12.4897
  71   2.0000      -0.451567       -12.2878
  72   2.0000      -0.354720        -9.6524
  73   2.0000      -0.348501        -9.4832
  74   2.0000      -0.329259        -8.9596
  75   2.0000      -0.321405        -8.7459
  76   2.0000      -0.319371        -8.6905
  77   0.0000       0.073973         2.0129
  78   0.0000       0.105644         2.8747
  79   0.0000       0.119004         3.2383
  80   0.0000       0.131694         3.5836
  81   0.0000       0.132009         3.5921

MULLIKEN ATOMIC CHARGES
-----------------------
   0 C :   -0.329178
   1 C :    0.038158
   2 O :   -0.375351
   3 C :    0.463491
   4 O :   -0.382388
   5 C :   -0.240515
   6 C :    0.150665
   7 C :   -0.284276
   8 N :   -0.132538
   9 C :    0.205843
  10 S :   -0.440224
  11 N :   -0.218951
  12 C :    0.078513
  13 C :    0.018907
  14 C :   -0.201085
  15 C :   -0.132358
  16 C :   -0.276805
  17 C :    0.324634
  18 O :   -0.358341
  19 C :   -0.269984
  20 H :    0.124416
  21 H :    0.121763
  22 H :    0.097119
  23 H :    0.104704
  24 H :    0.111905
  25 H :    0.119781
  26 H :    0.132548
  27 H :    0.106546
  28 H :    0.197723
  29 H :    0.201443
  30 H :    0.160876
  31 H :    0.174036
  32 H :    0.163356
  33 H :    0.131363
  34 H :    0.240730
  35 H :    0.173474
Sum of atomic charges:   -0.0000000

LOEWDIN ATOMIC CHARGES
----------------------
   0 C :    0.103503
   1 C :   -0.016994
   2 O :    0.285302
   3 C :   -0.418167
   4 O :    0.127759
   5 C :   -0.092409
   6 C :   -0.071938
   7 C :    0.126948
   8 N :    0.405506
   9 C :   -0.457982
  10 S :   -0.036254
  11 N :    0.396157
  12 C :   -0.048355
  13 C :   -0.043845
  14 C :    0.022324
  15 C :    0.042865
  16 C :   -0.000789
  17 C :   -0.193447
  18 O :    0.394503
  19 C :    0.028123
  20 H :   -0.027865
  21 H :   -0.022432
  22 H :   -0.032525
  23 H :   -0.026217
  24 H :   -0.021472
  25 H :   -0.015451
  26 H :   -0.005816
  27 H :   -0.019006
  28 H :   -0.058613
  29 H :   -0.063509
  30 H :   -0.005813
  31 H :   -0.021962
  32 H :   -0.019424
  33 H :   -0.035258
  34 H :   -0.153766
  35 H :   -0.023682

  Mayer bond orders larger than 0.100000
B(  0-C ,  1-C ) :   0.9633 B(  0-C , 20-H ) :   0.9644 B(  0-C , 21-H ) :   0.9783
B(  0-C , 22-H ) :   0.9738 B(  1-C ,  2-O ) :   0.9038 B(  1-C , 23-H ) :   0.9826
B(  1-C , 24-H ) :   0.9825 B(  2-O ,  3-C ) :   1.0856 B(  3-C ,  4-O ) :   2.0621
B(  3-C ,  5-C ) :   0.9809 B(  5-C ,  6-C ) :   1.6924 B(  5-C , 12-C ) :   0.9321
B(  6-C ,  7-C ) :   0.9473 B(  6-C ,  8-N ) :   1.1255 B(  7-C , 25-H ) :   0.9656
B(  7-C , 26-H ) :   0.9663 B(  7-C , 27-H ) :   0.9887 B(  8-N ,  9-C ) :   1.1886
B(  8-N , 28-H ) :   0.9476 B(  9-C , 10-S ) :   1.6118 B(  9-C , 11-N ) :   1.2973
B( 11-N , 12-C ) :   0.9779 B( 11-N , 29-H ) :   0.9482 B( 12-C , 13-C ) :   0.9688
B( 12-C , 30-H ) :   0.9932 B( 13-C , 14-C ) :   1.3878 B( 13-C , 19-C ) :   1.3483
B( 14-C , 15-C ) :   1.3967 B( 14-C , 31-H ) :   0.9579 B( 15-C , 16-C ) :   1.3600
B( 15-C , 32-H ) :   0.9704 B( 16-C , 17-C ) :   1.3325 B( 16-C , 33-H ) :   0.9847
B( 17-C , 18-O ) :   1.1069 B( 17-C , 19-C ) :   1.3597 B( 18-O , 34-H ) :   0.9799
B( 19-C , 35-H ) :   0.9594

MP2 TOTAL ENERGY:    -1274.322939948 Eh
FINAL SINGLE POINT ENERGY     -1274.322939947683

DIPOLE MOMENT
-------------
                                X             Y             Z
Electronic contribution:      9.05281       7.05210       7.14820
Nuclear contribution   :    -10.47895      -8.35246      -7.76903
                        -----------------------------------------
Total Dipole Moment    :     -1.42614      -1.30036      -0.62083
                        -----------------------------------------
Magnitude (a.u.)       :      2.02737
Magnitude (Debye)      :      5.15317

Rotational constants in cm-1:     0.011249     0.009351     0.006431
Rotational constants in MHz :   337.229809   280.330392   192.801633

                             ****ORCA TERMINATED NORMALLY****
TOTAL RUN TIME: 0 days 1 hours 48 minutes 14 seconds 9 msec
