                         Program Version 4.2.0 -  RELEASE  -
|  1> ! ri-mp2 cc-pvtz cc-pvtz/c TightSCF NoKeepInts
|  2>
|  3> %scf
|  4>   MaxCore 4096
|  5> end
|  6> *xyz  0  1
|  7>     C       14.5565228   14.4431804   15.6279848
|  8>     C       15.0800864   15.8259475   16.0477441
|  9>     O       16.3663706   15.9991632   15.4256734
| 10>     C       16.8027129   17.2669109   15.1812915
| 11>     O       16.9740479   17.6517113   14.0394864
| 12>     C       16.9960611   18.1235703   16.4004201
| 13>     C       16.9213453   19.4718846   16.2709763
| 14>     C       16.2670041   20.2342554   15.1377609
| 15>     N       17.4589576   20.3253306   17.2358739
| 16>     C       18.3070402   19.9205168   18.2307321
| 17>     S       19.0139440   20.9937927   19.2713543
| 18>     N       18.5601076   18.5737878   18.3048782
| 19>     C       17.8701738   17.5301073   17.5214016
| 20>     C       17.2324867   16.4651030   18.3995790
| 21>     C       17.5893546   15.1113526   18.2581576
| 22>     C       16.9946330   14.1292404   19.0677825
| 23>     C       16.0423498   14.5049971   20.0308321
| 24>     C       15.6930887   15.8541894   20.1804467
| 25>     O       14.7718330   16.2194866   21.1065884
| 26>     C       16.2836361   16.8296456   19.3706605
| 27>     H       13.5575681   14.2659655   16.0443446
| 28>     H       15.2255650   13.6530346   15.9910290
| 29>     H       14.4933624   14.3686868   14.5349767
| 30>     H       14.3791955   16.5903063   15.6853854
| 31>     H       15.1296298   15.8937791   17.1379588
| 32>     H       15.3868470   19.7007408   14.7578929
| 33>     H       16.9662749   20.3469374   14.2987468
| 34>     H       15.9344247   21.2346644   15.4392010
| 35>     H       17.3144370   21.3199770   17.1630388
| 36>     H       19.1786948   18.3026310   19.0592376
| 37>     H       18.7384939   17.1040020   16.9981721
| 38>     H       18.3196253   14.8178772   17.5079066
| 39>     H       17.2721318   13.0832423   18.9470399
| 40>     H       15.5810336   13.7492741   20.6583772
| 41>     H       14.5244244   15.4246734   21.6032191
| 42>     H       16.0035354   17.8700345   19.5018490
| 43> *
| 44>
| 45>                          ****END OF INPUT****

CARTESIAN COORDINATES (ANGSTROEM)
---------------------------------
  C     14.556523   14.443180   15.627985
  C     15.080086   15.825947   16.047744
  O     16.366371   15.999163   15.425673
  C     16.802713   17.266911   15.181292
  O     16.974048   17.651711   14.039486
  C     16.996061   18.123570   16.400420
  C     16.921345   19.471885   16.270976
  C     16.267004   20.234255   15.137761
  N     17.458958   20.325331   17.235874
  C     18.307040   19.920517   18.230732
  S     19.013944   20.993793   19.271354
  N     18.560108   18.573788   18.304878
  C     17.870174   17.530107   17.521402
  C     17.232487   16.465103   18.399579
  C     17.589355   15.111353   18.258158
  C     16.994633   14.129240   19.067782
  C     16.042350   14.504997   20.030832
  C     15.693089   15.854189   20.180447
  O     14.771833   16.219487   21.106588
  C     16.283636   16.829646   19.370660
  H     13.557568   14.265966   16.044345
  H     15.225565   13.653035   15.991029
  H     14.493362   14.368687   14.534977
  H     14.379195   16.590306   15.685385
  H     15.129630   15.893779   17.137959
  H     15.386847   19.700741   14.757893
  H     16.966275   20.346937   14.298747
  H     15.934425   21.234664   15.439201
  H     17.314437   21.319977   17.163039
  H     19.178695   18.302631   19.059238
  H     18.738494   17.104002   16.998172
  H     18.319625   14.817877   17.507907
  H     17.272132   13.083242   18.947040
  H     15.581034   13.749274   20.658377
  H     14.524424   15.424673   21.603219
  H     16.003535   17.870034   19.501849

 Total Charge           Charge          ....    0
 Multiplicity           Mult            ....    1
 Number of Electrons    NEL             ....  154
 Basis Dimension        Dim             ....  828

ORBITAL ENERGIES
----------------

  NO   OCC          E(Eh)            E(eV)
   0   2.0000     -91.891370     -2500.4913
   1   2.0000     -20.603117      -560.6393
   2   2.0000     -20.587420      -560.2122
   3   2.0000     -20.551617      -559.2379
   4   2.0000     -15.629807      -425.3087
   5   2.0000     -15.610708      -424.7890
   6   2.0000     -11.392634      -310.0093
   7   2.0000     -11.386039      -309.8299
   8   2.0000     -11.335347      -308.4505
   9   2.0000     -11.321309      -308.0685
  10   2.0000     -11.315253      -307.9037
  11   2.0000     -11.296979      -307.4064
  12   2.0000     -11.267754      -306.6112
  13   2.0000     -11.262344      -306.4640
  14   2.0000     -11.257869      -306.3422
  15   2.0000     -11.255024      -306.2648
  16   2.0000     -11.251436      -306.1671
  17   2.0000     -11.246152      -306.0234
  18   2.0000     -11.245554      -306.0071
  19   2.0000     -11.227852      -305.5254
  20   2.0000      -8.896423      -242.0840
  21   2.0000      -6.577989      -178.9962
  22   2.0000      -6.575996      -178.9419
  23   2.0000      -6.575399      -178.9257
  24   2.0000      -1.448125       -39.4055
  25   2.0000      -1.422917       -38.7196
  26   2.0000      -1.358007       -36.9532
  27   2.0000      -1.342349       -36.5272
  28   2.0000      -1.241309       -33.7777
  29   2.0000      -1.164573       -31.6896
  30   2.0000      -1.123815       -30.5805
  31   2.0000      -1.049090       -28.5472
  32   2.0000      -1.035185       -28.1688
  33   2.0000      -1.022619       -27.8269
  34   2.0000      -1.001414       -27.2499
  35   2.0000      -0.988563       -26.9002
  36   2.0000      -0.926498       -25.2113
  37   2.0000      -0.875359       -23.8197
  38   2.0000      -0.851599       -23.1732
  39   2.0000      -0.843820       -22.9615
  40   2.0000      -0.841426       -22.8964
  41   2.0000      -0.836283       -22.7564
  42   2.0000      -0.761914       -20.7327
  43   2.0000      -0.738957       -20.1080
  44   2.0000      -0.726572       -19.7710
  45   2.0000      -0.701501       -19.0888
  46   2.0000      -0.691121       -18.8064
  47   2.0000      -0.680542       -18.5185
  48   2.0000      -0.674596       -18.3567
  49   2.0000      -0.660512       -17.9734
  50   2.0000      -0.650017       -17.6879
  51   2.0000      -0.649060       -17.6618
  52   2.0000      -0.639479       -17.4011
  53   2.0000      -0.613944       -16.7063
  54   2.0000      -0.608548       -16.5594
  55   2.0000      -0.603867       -16.4321
  56   2.0000      -0.599168       -16.3042
  57   2.0000      -0.582207       -15.8426
  58   2.0000      -0.575009       -15.6468
  59   2.0000      -0.566536       -15.4162
  60   2.0000      -0.557287       -15.1645
  61   2.0000      -0.549731       -14.9589
  62   2.0000      -0.543529       -14.7902
  63   2.0000      -0.528860       -14.3910
  64   2.0000      -0.518307       -14.1039
  65   2.0000      -0.515234       -14.0202
  66   2.0000      -0.505822       -13.7641
  67   2.0000      -0.500776       -13.6268
  68   2.0000      -0.484223       -13.1764
  69   2.0000      -0.469214       -12.7680
  70   2.0000      -0.456489       -12.4217
  71   2.0000      -0.451136       -12.2760
  72   2.0000      -0.357318        -9.7231
  73   2.0000      -0.353343        -9.6150
  74   2.0000      -0.330969        -9.0061
  75   2.0000      -0.328572        -8.9409
  76   2.0000      -0.321242        -8.7414
  77   0.0000       0.075904         2.0655
  78   0.0000       0.097506         2.6533
  79   0.0000       0.121410         3.3037
  80   0.0000       0.127538         3.4705
  81   0.0000       0.128102         3.4858

MULLIKEN ATOMIC CHARGES
-----------------------
   0 C :   -0.259617
   1 C :    0.015158
   2 O :   -0.341718
   3 C :    0.409015
   4 O :   -0.368378
   5 C :   -0.228929
   6 C :    0.160743
   7 C :   -0.271743
   8 N :   -0.130240
   9 C :    0.208696
  10 S :   -0.437431
  11 N :   -0.209422
  12 C :    0.034532
  13 C :   -0.012135
  14 C :   -0.154721
  15 C :   -0.144675
  16 C :   -0.268204
  17 C :    0.301635
  18 O :   -0.355742
  19 C :   -0.227054
  20 H :    0.087061
  21 H :    0.094997
  22 H :    0.106837
  23 H :    0.096051
  24 H :    0.118137
  25 H :    0.119371
  26 H :    0.140002
  27 H :    0.096039
  28 H :    0.199662
  29 H :    0.200049
  30 H :    0.153885
  31 H :    0.155042
  32 H :    0.166508
  33 H :    0.134921
  34 H :    0.241459
  35 H :    0.170209
Sum of atomic charges:   -0.0000000

LOEWDIN ATOMIC CHARGES
----------------------
   0 C :    0.111134
   1 C :   -0.022577
   2 O :    0.300672
   3 C :   -0.428509
   4 O :    0.128895
   5 C :   -0.102011
   6 C :   -0.064779
   7 C :    0.129433
   8 N :    0.406896
   9 C :   -0.457212
  10 S :   -0.033268
  11 N :    0.395570
  12 C :   -0.053623
  13 C :   -0.045603
  14 C :    0.021037
  15 C :    0.043178
  16 C :    0.001097
  17 C :   -0.192704
  18 O :    0.396704
  19 C :    0.031568
  20 H :   -0.026144
  21 H :   -0.027987
  22 H :   -0.023631
  23 H :   -0.033716
  24 H :   -0.035985
  25 H :   -0.008300
  26 H :   -0.004126
  27 H :   -0.021956
  28 H :   -0.056444
  29 H :   -0.063396
  30 H :   -0.011260
  31 H :   -0.026403
  32 H :   -0.019027
  33 H :   -0.033647
  34 H :   -0.152492
  35 H :   -0.021385

  Mayer bond orders larger than 0.100000
B(  0-C ,  1-C ) :   0.9837 B(  0-C , 20-H ) :   0.9765 B(  0-C , 21-H ) :   0.9782
B(  0-C , 22-H ) :   0.9781 B(  1-C ,  2-O ) :   0.8835 B(  1-C , 23-H ) :   0.9797
B(  1-C , 24-H ) :   0.9611 B(  2-O ,  3-C ) :   1.1451 B(  3-C ,  4-O ) :   2.1124
B(  3-C ,  5-C ) :   0.9791 B(  5-C ,  6-C ) :   1.6540 B(  5-C , 12-C ) :   0.9613
B(  6-C ,  7-C ) :   0.9585 B(  6-C ,  8-N ) :   1.1430 B(  7-C , 25-H ) :   0.9730
B(  7-C , 26-H ) :   0.9544 B(  7-C , 27-H ) :   0.9854 B(  8-N ,  9-C ) :   1.1907
B(  8-N , 28-H ) :   0.9483 B(  9-C , 10-S ) :   1.6154 B(  9-C , 11-N ) :   1.2945
B( 11-N , 12-C ) :   0.9796 B( 11-N , 29-H ) :   0.9476 B( 12-C , 13-C ) :   0.9588
B( 12-C , 30-H ) :   1.0065 B( 13-C , 14-C ) :   1.3714 B( 13-C , 19-C ) :   1.3645
B( 14-C , 15-C ) :   1.3910 B( 14-C , 31-H ) :   0.9691 B( 15-C , 16-C ) :   1.3600
B( 15-C , 32-H ) :   0.9691 B( 16-C , 17-C ) :   1.3318 B( 16-C , 33-H ) :   0.9833
B( 17-C , 18-O ) :   1.1096 B( 17-C , 19-C ) :   1.3646 B( 18-O , 34-H ) :   0.9789
B( 19-C , 35-H ) :   0.9588

MP2 TOTAL ENERGY:    -1274.323795173 Eh
FINAL SINGLE POINT ENERGY     -1274.323795173232

DIPOLE MOMENT
-------------
                                X             Y             Z
Electronic contribution:     10.14823      10.16085       6.64899
Nuclear contribution   :    -11.57965     -11.66531      -6.38958
                        -----------------------------------------
Total Dipole Moment    :     -1.43142      -1.50446       0.25941
                        -----------------------------------------
Magnitude (a.u.)       :      2.09276
Magnitude (Debye)      :      5.31937

Rotational constants in cm-1:     0.012223     0.008787     0.005937
Rotational constants in MHz :   366.430839   263.432739   177.980038

                             ****ORCA TERMINATED NORMALLY****
TOTAL RUN TIME: 0 days 1 hours 46 minutes 25 seconds 354 msec
