                         Program Version 4.2.0 -  RELEASE  -
|  1> ! ri-mp2 cc-pvtz cc-pvtz/c TightSCF NoKeepInts
|  2>
|  3> %scf
|  4>   MaxCore 4096
|  5> end
|  6> *xyz  0  1
|  7>     C       14.1650165   16.2235112   15.7947680
|  8>     C       15.2425987   15.6065100   14.8828897
|  9>     O       16.2550456   16.5934146   14.6228177
| 10>     C       17.2927162   16.6486300   15.5023228
| 11>     O       18.1106226   15.7491395   15.5845959
| 12>     C       17.1920331   17.7570444   16.5053985
| 13>     C       16.7909393   19.0052338   16.1545317
| 14>     C       16.2045168   19.4439553   14.8276335
| 15>     N       16.9600152   20.0800344   17.0304892
| 16>     C       17.7133184   20.0336406   18.1731751
| 17>     S       17.9575258   21.3733682   19.1115491
| 18>     N       18.2734397   18.8205544   18.4876942
| 19>     C       18.0070497   17.5500569   17.7847624
| 20>     C       17.4312272   16.4633718   18.6820753
| 21>     C       18.0323454   15.1935789   18.7448467
| 22>     C       17.4914876   14.1868078   19.5619909
| 23>     C       16.3389188   14.4520693   20.3213850
| 24>     C       15.7355313   15.7155775   20.2570853
| 25>     O       14.6175590   15.9719639   20.9818800
| 26>     C       16.2762056   16.7156323   19.4426707
| 27>     H       14.5828532   16.4889192   16.7739828
| 28>     H       13.3513102   15.5068954   15.9604164
| 29>     H       13.7368416   17.1247336   15.3399381
| 30>     H       15.6732081   14.7058294   15.3432194
| 31>     H       14.7760643   15.3115045   13.9341169
| 32>     H       15.1935049   19.0409353   14.6955521
| 33>     H       16.8196804   19.0886535   13.9911536
| 34>     H       16.1396677   20.5348402   14.7333351
| 35>     H       16.5766694   20.9827073   16.7994378
| 36>     H       18.8101311   18.8098546   19.3459311
| 37>     H       19.0231280   17.2858033   17.4565935
| 38>     H       18.9139633   14.9828614   18.1435272
| 39>     H       17.9627441   13.2061661   19.5989140
| 40>     H       15.9168826   13.6765435   20.9519053
| 41>     H       14.4262111   15.1817917   21.5092594
| 42>     H       15.7960273   17.6878663   19.4061554
| 43> *
| 44>
| 45>                          ****END OF INPUT****

CARTESIAN COORDINATES (ANGSTROEM)
---------------------------------
  C     14.165016   16.223511   15.794768
  C     15.242599   15.606510   14.882890
  O     16.255046   16.593415   14.622818
  C     17.292716   16.648630   15.502323
  O     18.110623   15.749140   15.584596
  C     17.192033   17.757044   16.505398
  C     16.790939   19.005234   16.154532
  C     16.204517   19.443955   14.827633
  N     16.960015   20.080034   17.030489
  C     17.713318   20.033641   18.173175
  S     17.957526   21.373368   19.111549
  N     18.273440   18.820554   18.487694
  C     18.007050   17.550057   17.784762
  C     17.431227   16.463372   18.682075
  C     18.032345   15.193579   18.744847
  C     17.491488   14.186808   19.561991
  C     16.338919   14.452069   20.321385
  C     15.735531   15.715578   20.257085
  O     14.617559   15.971964   20.981880
  C     16.276206   16.715632   19.442671
  H     14.582853   16.488919   16.773983
  H     13.351310   15.506895   15.960416
  H     13.736842   17.124734   15.339938
  H     15.673208   14.705829   15.343219
  H     14.776064   15.311504   13.934117
  H     15.193505   19.040935   14.695552
  H     16.819680   19.088653   13.991154
  H     16.139668   20.534840   14.733335
  H     16.576669   20.982707   16.799438
  H     18.810131   18.809855   19.345931
  H     19.023128   17.285803   17.456593
  H     18.913963   14.982861   18.143527
  H     17.962744   13.206166   19.598914
  H     15.916883   13.676543   20.951905
  H     14.426211   15.181792   21.509259
  H     15.796027   17.687866   19.406155

 Total Charge           Charge          ....    0
 Multiplicity           Mult            ....    1
 Number of Electrons    NEL             ....  154
 Basis Dimension        Dim             ....  828

ORBITAL ENERGIES
----------------

  NO   OCC          E(Eh)            E(eV)
   0   2.0000     -91.889654     -2500.4446
   1   2.0000     -20.596030      -560.4465
   2   2.0000     -20.587536      -560.2153
   3   2.0000     -20.552978      -559.2750
   4   2.0000     -15.629990      -425.3137
   5   2.0000     -15.607623      -424.7050
   6   2.0000     -11.393932      -310.0447
   7   2.0000     -11.384609      -309.7909
   8   2.0000     -11.337969      -308.5218
   9   2.0000     -11.312496      -307.8287
  10   2.0000     -11.306256      -307.6589
  11   2.0000     -11.303134      -307.5739
  12   2.0000     -11.260722      -306.4198
  13   2.0000     -11.259443      -306.3850
  14   2.0000     -11.259079      -306.3751
  15   2.0000     -11.252465      -306.1951
  16   2.0000     -11.242381      -305.9207
  17   2.0000     -11.238530      -305.8159
  18   2.0000     -11.235167      -305.7244
  19   2.0000     -11.230796      -305.6055
  20   2.0000      -8.894730      -242.0379
  21   2.0000      -6.576304      -178.9503
  22   2.0000      -6.574303      -178.8959
  23   2.0000      -6.573712      -178.8798
  24   2.0000      -1.452538       -39.5256
  25   2.0000      -1.415797       -38.5258
  26   2.0000      -1.358793       -36.9747
  27   2.0000      -1.341136       -36.4942
  28   2.0000      -1.238500       -33.7013
  29   2.0000      -1.156780       -31.4776
  30   2.0000      -1.123070       -30.5603
  31   2.0000      -1.045025       -28.4366
  32   2.0000      -1.034776       -28.1577
  33   2.0000      -1.014291       -27.6003
  34   2.0000      -1.001810       -27.2606
  35   2.0000      -0.987337       -26.8668
  36   2.0000      -0.923524       -25.1304
  37   2.0000      -0.891163       -24.2498
  38   2.0000      -0.849057       -23.1040
  39   2.0000      -0.838670       -22.8214
  40   2.0000      -0.832561       -22.6551
  41   2.0000      -0.821998       -22.3677
  42   2.0000      -0.757659       -20.6169
  43   2.0000      -0.736812       -20.0497
  44   2.0000      -0.729019       -19.8376
  45   2.0000      -0.694221       -18.8907
  46   2.0000      -0.686297       -18.6751
  47   2.0000      -0.678561       -18.4646
  48   2.0000      -0.675394       -18.3784
  49   2.0000      -0.661188       -17.9918
  50   2.0000      -0.653601       -17.7854
  51   2.0000      -0.645324       -17.5602
  52   2.0000      -0.636173       -17.3111
  53   2.0000      -0.608068       -16.5464
  54   2.0000      -0.602352       -16.3908
  55   2.0000      -0.599480       -16.3127
  56   2.0000      -0.594813       -16.1857
  57   2.0000      -0.586977       -15.9725
  58   2.0000      -0.576056       -15.6753
  59   2.0000      -0.569280       -15.4909
  60   2.0000      -0.562556       -15.3079
  61   2.0000      -0.551681       -15.0120
  62   2.0000      -0.546906       -14.8821
  63   2.0000      -0.521226       -14.1833
  64   2.0000      -0.519834       -14.1454
  65   2.0000      -0.512381       -13.9426
  66   2.0000      -0.501660       -13.6509
  67   2.0000      -0.496837       -13.5196
  68   2.0000      -0.483279       -13.1507
  69   2.0000      -0.463932       -12.6242
  70   2.0000      -0.457142       -12.4395
  71   2.0000      -0.453562       -12.3421
  72   2.0000      -0.354200        -9.6383
  73   2.0000      -0.348498        -9.4831
  74   2.0000      -0.328752        -8.9458
  75   2.0000      -0.319626        -8.6975
  76   2.0000      -0.318685        -8.6719
  77   0.0000       0.072641         1.9767
  78   0.0000       0.105438         2.8691
  79   0.0000       0.120336         3.2745
  80   0.0000       0.132754         3.6124
  81   0.0000       0.137190         3.7331

MULLIKEN ATOMIC CHARGES
-----------------------
   0 C :   -0.308259
   1 C :    0.041429
   2 O :   -0.373828
   3 C :    0.476730
   4 O :   -0.395419
   5 C :   -0.245830
   6 C :    0.167832
   7 C :   -0.284469
   8 N :   -0.128516
   9 C :    0.206335
  10 S :   -0.440266
  11 N :   -0.211982
  12 C :    0.055815
  13 C :    0.041949
  14 C :   -0.185396
  15 C :   -0.131159
  16 C :   -0.278454
  17 C :    0.323626
  18 O :   -0.358902
  19 C :   -0.282730
  20 H :    0.111997
  21 H :    0.112531
  22 H :    0.092658
  23 H :    0.103038
  24 H :    0.107802
  25 H :    0.125359
  26 H :    0.128195
  27 H :    0.104675
  28 H :    0.198362
  29 H :    0.199509
  30 H :    0.157495
  31 H :    0.165326
  32 H :    0.162255
  33 H :    0.130346
  34 H :    0.240631
  35 H :    0.171312
Sum of atomic charges:   -0.0000000

LOEWDIN ATOMIC CHARGES
----------------------
   0 C :    0.103199
   1 C :   -0.017930
   2 O :    0.295145
   3 C :   -0.420545
   4 O :    0.123747
   5 C :   -0.095794
   6 C :   -0.068024
   7 C :    0.127046
   8 N :    0.405812
   9 C :   -0.457560
  10 S :   -0.036209
  11 N :    0.395942
  12 C :   -0.048919
  13 C :   -0.042668
  14 C :    0.023870
  15 C :    0.042181
  16 C :   -0.000817
  17 C :   -0.193388
  18 O :    0.393779
  19 C :    0.028969
  20 H :   -0.029055
  21 H :   -0.024133
  22 H :   -0.031615
  23 H :   -0.025009
  24 H :   -0.023634
  25 H :   -0.012630
  26 H :   -0.007063
  27 H :   -0.019896
  28 H :   -0.058277
  29 H :   -0.063590
  30 H :   -0.006751
  31 H :   -0.022713
  32 H :   -0.020026
  33 H :   -0.035508
  34 H :   -0.154003
  35 H :   -0.023934

  Mayer bond orders larger than 0.100000
B(  0-C ,  1-C ) :   0.9647 B(  0-C , 20-H ) :   0.9679 B(  0-C , 21-H ) :   0.9785
B(  0-C , 22-H ) :   0.9786 B(  1-C ,  2-O ) :   0.8941 B(  1-C , 23-H ) :   0.9747
B(  1-C , 24-H ) :   0.9851 B(  2-O ,  3-C ) :   1.0883 B(  3-C ,  4-O ) :   2.0432
B(  3-C ,  5-C ) :   1.0023 B(  5-C ,  6-C ) :   1.6700 B(  5-C , 12-C ) :   0.9491
B(  6-C ,  7-C ) :   0.9533 B(  6-C ,  8-N ) :   1.1389 B(  7-C , 25-H ) :   0.9648
B(  7-C , 26-H ) :   0.9666 B(  7-C , 27-H ) :   0.9886 B(  8-N ,  9-C ) :   1.1860
B(  8-N , 28-H ) :   0.9474 B(  9-C , 10-S ) :   1.6122 B(  9-C , 11-N ) :   1.3007
B( 11-N , 12-C ) :   0.9833 B( 11-N , 29-H ) :   0.9488 B( 12-C , 13-C ) :   0.9680
B( 12-C , 30-H ) :   0.9945 B( 13-C , 14-C ) :   1.3816 B( 13-C , 19-C ) :   1.3515
B( 14-C , 15-C ) :   1.3956 B( 14-C , 31-H ) :   0.9613 B( 15-C , 16-C ) :   1.3606
B( 15-C , 32-H ) :   0.9706 B( 16-C , 17-C ) :   1.3323 B( 16-C , 33-H ) :   0.9850
B( 17-C , 18-O ) :   1.1061 B( 17-C , 19-C ) :   1.3585 B( 18-O , 34-H ) :   0.9802
B( 19-C , 35-H ) :   0.9593

MP2 TOTAL ENERGY:    -1274.327648935 Eh
FINAL SINGLE POINT ENERGY     -1274.327648934751

DIPOLE MOMENT
-------------
                                X             Y             Z
Electronic contribution:      9.69308       7.59223       7.64111
Nuclear contribution   :    -11.00990      -8.92884      -8.35846
                        -----------------------------------------
Total Dipole Moment    :     -1.31682      -1.33661      -0.71735
                        -----------------------------------------
Magnitude (a.u.)       :      2.00876
Magnitude (Debye)      :      5.10586

Rotational constants in cm-1:     0.011079     0.009249     0.006386
Rotational constants in MHz :   332.153689   277.278162   191.458205

                             ****ORCA TERMINATED NORMALLY****
TOTAL RUN TIME: 0 days 1 hours 56 minutes 39 seconds 108 msec
