                         Program Version 4.2.0 -  RELEASE  -
|  1> ! ri-mp2 cc-pvtz cc-pvtz/c TightSCF NoKeepInts
|  2>
|  3> %scf
|  4>   MaxCore 4096
|  5> end
|  6> *xyz  0  1
|  7>     C       14.4807243   16.6190167   16.1944455
|  8>     C       15.3131414   15.4200741   15.6884522
|  9>     O       16.6029495   15.7239891   15.0900827
| 10>     C       17.5355933   16.6925411   15.3802764
| 11>     O       18.6142555   16.7060607   14.8183342
| 12>     C       17.1953201   17.7229659   16.3920518
| 13>     C       16.8973129   18.9670892   15.9577529
| 14>     C       16.5572229   19.3414694   14.5313677
| 15>     N       16.9633846   20.0656434   16.8160960
| 16>     C       17.5537232   20.0325560   18.0529904
| 17>     S       17.7047268   21.3900086   18.9853067
| 18>     N       18.0403158   18.8162044   18.4693726
| 19>     C       17.8355017   17.5327126   17.7673628
| 20>     C       17.2153946   16.4195563   18.5999093
| 21>     C       17.6613175   15.0946227   18.4418472
| 22>     C       17.0850505   14.0530324   19.1876893
| 23>     C       16.0545803   14.3389425   20.0994613
| 24>     C       15.6094563   15.6581975   20.2606106
| 25>     O       14.6102346   15.9361497   21.1348913
| 26>     C       16.1845882   16.6933412   19.5164688
| 27>     H       14.8516051   17.0171934   17.1430256
| 28>     H       13.4488292   16.2948593   16.3768953
| 29>     H       14.4427742   17.4205654   15.4484765
| 30>     H       15.4719964   14.7415205   16.5370407
| 31>     H       14.7189287   14.8666262   14.9498075
| 32>     H       16.0536181   18.5219641   14.0042496
| 33>     H       17.4731836   19.5732935   13.9720062
| 34>     H       15.8968770   20.2155671   14.4805654
| 35>     H       16.6594310   20.9729988   16.5000989
| 36>     H       18.4748101   18.8219700   19.3837945
| 37>     H       18.8829555   17.2727892   17.5516140
| 38>     H       18.4550304   14.8707679   17.7321053
| 39>     H       17.4379965   13.0310224   19.0580556
| 40>     H       15.6065799   13.5374331   20.6778896
| 41>     H       14.3775111   15.1104951   21.5860397
| 42>     H       15.8200791   17.7067606   19.6515660
| 43> *
| 44>
| 45>                          ****END OF INPUT****

CARTESIAN COORDINATES (ANGSTROEM)
---------------------------------
  C     14.480724   16.619017   16.194446
  C     15.313141   15.420074   15.688452
  O     16.602950   15.723989   15.090083
  C     17.535593   16.692541   15.380276
  O     18.614255   16.706061   14.818334
  C     17.195320   17.722966   16.392052
  C     16.897313   18.967089   15.957753
  C     16.557223   19.341469   14.531368
  N     16.963385   20.065643   16.816096
  C     17.553723   20.032556   18.052990
  S     17.704727   21.390009   18.985307
  N     18.040316   18.816204   18.469373
  C     17.835502   17.532713   17.767363
  C     17.215395   16.419556   18.599909
  C     17.661317   15.094623   18.441847
  C     17.085051   14.053032   19.187689
  C     16.054580   14.338942   20.099461
  C     15.609456   15.658197   20.260611
  O     14.610235   15.936150   21.134891
  C     16.184588   16.693341   19.516469
  H     14.851605   17.017193   17.143026
  H     13.448829   16.294859   16.376895
  H     14.442774   17.420565   15.448476
  H     15.471996   14.741521   16.537041
  H     14.718929   14.866626   14.949807
  H     16.053618   18.521964   14.004250
  H     17.473184   19.573293   13.972006
  H     15.896877   20.215567   14.480565
  H     16.659431   20.972999   16.500099
  H     18.474810   18.821970   19.383794
  H     18.882956   17.272789   17.551614
  H     18.455030   14.870768   17.732105
  H     17.437997   13.031022   19.058056
  H     15.606580   13.537433   20.677890
  H     14.377511   15.110495   21.586040
  H     15.820079   17.706761   19.651566

 Total Charge           Charge          ....    0
 Multiplicity           Mult            ....    1
 Number of Electrons    NEL             ....  154
 Basis Dimension        Dim             ....  828

ORBITAL ENERGIES
----------------

  NO   OCC          E(Eh)            E(eV)
   0   2.0000     -91.888743     -2500.4198
   1   2.0000     -20.604890      -560.6876
   2   2.0000     -20.598496      -560.5136
   3   2.0000     -20.551367      -559.2311
   4   2.0000     -15.624225      -425.1568
   5   2.0000     -15.610579      -424.7855
   6   2.0000     -11.399991      -310.2095
   7   2.0000     -11.384819      -309.7967
   8   2.0000     -11.323528      -308.1289
   9   2.0000     -11.322541      -308.1020
  10   2.0000     -11.315523      -307.9110
  11   2.0000     -11.308622      -307.7233
  12   2.0000     -11.272094      -306.7293
  13   2.0000     -11.264790      -306.5305
  14   2.0000     -11.260195      -306.4055
  15   2.0000     -11.255969      -306.2905
  16   2.0000     -11.252353      -306.1921
  17   2.0000     -11.247866      -306.0700
  18   2.0000     -11.247611      -306.0631
  19   2.0000     -11.234384      -305.7031
  20   2.0000      -8.893842      -242.0137
  21   2.0000      -6.575425      -178.9264
  22   2.0000      -6.573413      -178.8717
  23   2.0000      -6.572834      -178.8559
  24   2.0000      -1.442455       -39.2512
  25   2.0000      -1.424595       -38.7652
  26   2.0000      -1.357591       -36.9419
  27   2.0000      -1.337738       -36.4017
  28   2.0000      -1.238153       -33.6919
  29   2.0000      -1.167087       -31.7581
  30   2.0000      -1.126394       -30.6507
  31   2.0000      -1.051789       -28.6206
  32   2.0000      -1.038179       -28.2503
  33   2.0000      -1.025500       -27.9053
  34   2.0000      -1.005013       -27.3478
  35   2.0000      -0.990368       -26.9493
  36   2.0000      -0.927493       -25.2384
  37   2.0000      -0.900965       -24.5165
  38   2.0000      -0.851737       -23.1769
  39   2.0000      -0.844884       -22.9905
  40   2.0000      -0.842078       -22.9141
  41   2.0000      -0.828850       -22.5542
  42   2.0000      -0.749767       -20.4022
  43   2.0000      -0.738834       -20.1047
  44   2.0000      -0.725575       -19.7439
  45   2.0000      -0.703412       -19.1408
  46   2.0000      -0.690423       -18.7874
  47   2.0000      -0.677777       -18.4432
  48   2.0000      -0.675922       -18.3928
  49   2.0000      -0.662288       -18.0218
  50   2.0000      -0.656393       -17.8614
  51   2.0000      -0.651264       -17.7218
  52   2.0000      -0.637411       -17.3448
  53   2.0000      -0.616344       -16.7716
  54   2.0000      -0.610099       -16.6016
  55   2.0000      -0.606577       -16.5058
  56   2.0000      -0.604059       -16.4373
  57   2.0000      -0.586015       -15.9463
  58   2.0000      -0.579838       -15.7782
  59   2.0000      -0.579169       -15.7600
  60   2.0000      -0.565908       -15.3991
  61   2.0000      -0.557876       -15.1806
  62   2.0000      -0.541284       -14.7291
  63   2.0000      -0.534083       -14.5332
  64   2.0000      -0.522241       -14.2109
  65   2.0000      -0.513661       -13.9774
  66   2.0000      -0.505087       -13.7441
  67   2.0000      -0.504044       -13.7157
  68   2.0000      -0.491772       -13.3818
  69   2.0000      -0.462623       -12.5886
  70   2.0000      -0.454570       -12.3695
  71   2.0000      -0.449776       -12.2390
  72   2.0000      -0.358201        -9.7471
  73   2.0000      -0.349138        -9.5005
  74   2.0000      -0.331572        -9.0225
  75   2.0000      -0.328087        -8.9277
  76   2.0000      -0.317645        -8.6436
  77   0.0000       0.090164         2.4535
  78   0.0000       0.100397         2.7319
  79   0.0000       0.120065         3.2671
  80   0.0000       0.124329         3.3832
  81   0.0000       0.127022         3.4565

MULLIKEN ATOMIC CHARGES
-----------------------
   0 C :   -0.326679
   1 C :    0.042330
   2 O :   -0.328470
   3 C :    0.413921
   4 O :   -0.381050
   5 C :   -0.214430
   6 C :    0.147474
   7 C :   -0.307178
   8 N :   -0.140943
   9 C :    0.216533
  10 S :   -0.444239
  11 N :   -0.238790
  12 C :    0.079434
  13 C :    0.037321
  14 C :   -0.258926
  15 C :   -0.126806
  16 C :   -0.276976
  17 C :    0.325076
  18 O :   -0.352722
  19 C :   -0.259350
  20 H :    0.119100
  21 H :    0.120867
  22 H :    0.098912
  23 H :    0.100522
  24 H :    0.123259
  25 H :    0.111955
  26 H :    0.149564
  27 H :    0.103212
  28 H :    0.196592
  29 H :    0.204868
  30 H :    0.170249
  31 H :    0.166874
  32 H :    0.168079
  33 H :    0.134878
  34 H :    0.241895
  35 H :    0.183645
Sum of atomic charges:   -0.0000000

LOEWDIN ATOMIC CHARGES
----------------------
   0 C :    0.101449
   1 C :   -0.010257
   2 O :    0.293032
   3 C :   -0.419015
   4 O :    0.125558
   5 C :   -0.084228
   6 C :   -0.094115
   7 C :    0.126956
   8 N :    0.403596
   9 C :   -0.453415
  10 S :   -0.039405
  11 N :    0.396028
  12 C :   -0.052763
  13 C :   -0.042357
  14 C :    0.017434
  15 C :    0.044368
  16 C :   -0.000204
  17 C :   -0.189781
  18 O :    0.397615
  19 C :    0.029856
  20 H :   -0.033352
  21 H :   -0.021825
  22 H :   -0.031414
  23 H :   -0.029581
  24 H :   -0.020755
  25 H :   -0.012658
  26 H :   -0.004098
  27 H :   -0.018506
  28 H :   -0.058838
  29 H :   -0.065081
  30 H :   -0.004656
  31 H :   -0.023533
  32 H :   -0.017824
  33 H :   -0.033753
  34 H :   -0.152199
  35 H :   -0.022278

  Mayer bond orders larger than 0.100000
B(  0-C ,  1-C ) :   0.9582 B(  0-C , 20-H ) :   0.9688 B(  0-C , 21-H ) :   0.9772
B(  0-C , 22-H ) :   0.9752 B(  1-C ,  2-O ) :   0.9051 B(  1-C , 23-H ) :   0.9728
B(  1-C , 24-H ) :   0.9807 B(  2-O ,  3-C ) :   1.1866 B(  3-C ,  4-O ) :   2.1137
B(  3-C ,  5-C ) :   0.9132 B(  5-C ,  6-C ) :   1.7253 B(  5-C , 12-C ) :   0.9328
B(  6-C ,  7-C ) :   0.9434 B(  6-C ,  8-N ) :   1.1107 B(  7-C , 25-H ) :   0.9797
B(  7-C , 26-H ) :   0.9607 B(  7-C , 27-H ) :   0.9808 B(  8-N ,  9-C ) :   1.2066
B(  8-N , 28-H ) :   0.9502 B(  9-C , 10-S ) :   1.6063 B(  9-C , 11-N ) :   1.2826
B( 11-N , 12-C ) :   0.9703 B( 11-N , 29-H ) :   0.9456 B( 12-C , 13-C ) :   0.9606
B( 12-C , 30-H ) :   0.9964 B( 13-C , 14-C ) :   1.3694 B( 13-C , 19-C ) :   1.3404
B( 14-C , 15-C ) :   1.3986 B( 14-C , 31-H ) :   0.9691 B( 15-C , 16-C ) :   1.3577
B( 15-C , 32-H ) :   0.9687 B( 16-C , 17-C ) :   1.3314 B( 16-C , 33-H ) :   0.9839
B( 17-C , 18-O ) :   1.1128 B( 17-C , 19-C ) :   1.3604 B( 18-O , 34-H ) :   0.9785
B( 19-C , 35-H ) :   0.9544

MP2 TOTAL ENERGY:    -1274.316746538 Eh
FINAL SINGLE POINT ENERGY     -1274.316746538091

DIPOLE MOMENT
-------------
                                X             Y             Z
Electronic contribution:      8.66856       6.65334       6.51280
Nuclear contribution   :    -10.31874      -8.41313      -6.56513
                        -----------------------------------------
Total Dipole Moment    :     -1.65017      -1.75978      -0.05233
                        -----------------------------------------
Magnitude (a.u.)       :      2.41302
Magnitude (Debye)      :      6.13340

Rotational constants in cm-1:     0.012210     0.009145     0.006419
Rotational constants in MHz :   366.045791   274.149092   192.433268

                             ****ORCA TERMINATED NORMALLY****
TOTAL RUN TIME: 0 days 1 hours 47 minutes 39 seconds 876 msec
