                         Program Version 4.2.0 -  RELEASE  -
|  1> ! ri-mp2 cc-pvtz cc-pvtz/c TightSCF NoKeepInts
|  2>
|  3> %scf
|  4>   MaxCore 4096
|  5> end
|  6> *xyz  0  1
|  7>     C       14.4967182   15.0197619   14.7917053
|  8>     C       15.5725318   15.0490492   15.8965731
|  9>     O       16.6285095   15.9866562   15.5932366
| 10>     C       16.3613376   17.3189343   15.4448362
| 11>     O       15.6897952   17.7426581   14.5212442
| 12>     C       16.9200962   18.1571538   16.5653757
| 13>     C       16.9294329   19.5128962   16.4788058
| 14>     C       16.1907578   20.3738104   15.4746953
| 15>     N       17.6799589   20.2867800   17.3669296
| 16>     C       18.6000233   19.7833578   18.2457703
| 17>     S       19.5273941   20.7638026   19.2019171
| 18>     N       18.7300134   18.4183353   18.2772851
| 19>     C       17.8757009   17.4605790   17.5507293
| 20>     C       17.2051659   16.4588056   18.4811158
| 21>     C       17.6851230   15.1394304   18.5752081
| 22>     C       17.0598277   14.2120744   19.4255375
| 23>     C       15.9498035   14.6093472   20.1907306
| 24>     C       15.4757473   15.9257693   20.1051142
| 25>     O       14.4047049   16.3121802   20.8425765
| 26>     C       16.0985955   16.8457976   19.2559706
| 27>     H       13.8816776   15.9278382   14.8104874
| 28>     H       13.8279327   14.1623034   14.9326855
| 29>     H       14.9600093   14.9336882   13.8007327
| 30>     H       15.1040005   15.3028546   16.8567463
| 31>     H       16.0096502   14.0471407   15.9945119
| 32>     H       15.1264378   20.1073627   15.4455200
| 33>     H       16.5939099   20.2221321   14.4651459
| 34>     H       16.2517671   21.4453263   15.6985055
| 35>     H       17.6122278   21.2915288   17.3355868
| 36>     H       19.3964098   18.0753100   18.9575184
| 37>     H       18.6301455   16.9620940   16.9253120
| 38>     H       18.5411712   14.8306198   17.9806820
| 39>     H       17.4366772   13.1926358   19.4915532
| 40>     H       15.4645999   13.8971305   20.8503144
| 41>     H       14.1473876   15.5627808   21.4006933
| 42>     H       15.7217583   17.8620747   19.2066478
| 43> *
| 44>
| 45>                          ****END OF INPUT****

CARTESIAN COORDINATES (ANGSTROEM)
---------------------------------
  C     14.496718   15.019762   14.791705
  C     15.572532   15.049049   15.896573
  O     16.628509   15.986656   15.593237
  C     16.361338   17.318934   15.444836
  O     15.689795   17.742658   14.521244
  C     16.920096   18.157154   16.565376
  C     16.929433   19.512896   16.478806
  C     16.190758   20.373810   15.474695
  N     17.679959   20.286780   17.366930
  C     18.600023   19.783358   18.245770
  S     19.527394   20.763803   19.201917
  N     18.730013   18.418335   18.277285
  C     17.875701   17.460579   17.550729
  C     17.205166   16.458806   18.481116
  C     17.685123   15.139430   18.575208
  C     17.059828   14.212074   19.425538
  C     15.949803   14.609347   20.190731
  C     15.475747   15.925769   20.105114
  O     14.404705   16.312180   20.842576
  C     16.098595   16.845798   19.255971
  H     13.881678   15.927838   14.810487
  H     13.827933   14.162303   14.932685
  H     14.960009   14.933688   13.800733
  H     15.104000   15.302855   16.856746
  H     16.009650   14.047141   15.994512
  H     15.126438   20.107363   15.445520
  H     16.593910   20.222132   14.465146
  H     16.251767   21.445326   15.698505
  H     17.612228   21.291529   17.335587
  H     19.396410   18.075310   18.957518
  H     18.630146   16.962094   16.925312
  H     18.541171   14.830620   17.980682
  H     17.436677   13.192636   19.491553
  H     15.464600   13.897130   20.850314
  H     14.147388   15.562781   21.400693
  H     15.721758   17.862075   19.206648

 Total Charge           Charge          ....    0
 Multiplicity           Mult            ....    1
 Number of Electrons    NEL             ....  154
 Basis Dimension        Dim             ....  828

ORBITAL ENERGIES
----------------

  NO   OCC          E(Eh)            E(eV)
   0   2.0000     -91.890070     -2500.4559
   1   2.0000     -20.601304      -560.5900
   2   2.0000     -20.584155      -560.1233
   3   2.0000     -20.545210      -559.0636
   4   2.0000     -15.630517      -425.3280
   5   2.0000     -15.608167      -424.7198
   6   2.0000     -11.393654      -310.0371
   7   2.0000     -11.384601      -309.7907
   8   2.0000     -11.338602      -308.5390
   9   2.0000     -11.319085      -308.0080
  10   2.0000     -11.309114      -307.7366
  11   2.0000     -11.297897      -307.4314
  12   2.0000     -11.265025      -306.5369
  13   2.0000     -11.260286      -306.4080
  14   2.0000     -11.258297      -306.3538
  15   2.0000     -11.252706      -306.2017
  16   2.0000     -11.248683      -306.0922
  17   2.0000     -11.243534      -305.9521
  18   2.0000     -11.243113      -305.9407
  19   2.0000     -11.217794      -305.2517
  20   2.0000      -8.895133      -242.0489
  21   2.0000      -6.576703      -178.9612
  22   2.0000      -6.574707      -178.9069
  23   2.0000      -6.574114      -178.8907
  24   2.0000      -1.444187       -39.2983
  25   2.0000      -1.421011       -38.6677
  26   2.0000      -1.353027       -36.8177
  27   2.0000      -1.341737       -36.5105
  28   2.0000      -1.239737       -33.7349
  29   2.0000      -1.162001       -31.6197
  30   2.0000      -1.121907       -30.5286
  31   2.0000      -1.046087       -28.4655
  32   2.0000      -1.030964       -28.0539
  33   2.0000      -1.019975       -27.7549
  34   2.0000      -0.997386       -27.1402
  35   2.0000      -0.985684       -26.8218
  36   2.0000      -0.924043       -25.1445
  37   2.0000      -0.887539       -24.1512
  38   2.0000      -0.848863       -23.0987
  39   2.0000      -0.841931       -22.9101
  40   2.0000      -0.838652       -22.8209
  41   2.0000      -0.824418       -22.4336
  42   2.0000      -0.750709       -20.4278
  43   2.0000      -0.735891       -20.0246
  44   2.0000      -0.718171       -19.5424
  45   2.0000      -0.699534       -19.0353
  46   2.0000      -0.689535       -18.7632
  47   2.0000      -0.678592       -18.4654
  48   2.0000      -0.669203       -18.2099
  49   2.0000      -0.661214       -17.9925
  50   2.0000      -0.648786       -17.6544
  51   2.0000      -0.646181       -17.5835
  52   2.0000      -0.637133       -17.3373
  53   2.0000      -0.611408       -16.6373
  54   2.0000      -0.606240       -16.4966
  55   2.0000      -0.602131       -16.3848
  56   2.0000      -0.598096       -16.2750
  57   2.0000      -0.580849       -15.8057
  58   2.0000      -0.572621       -15.5818
  59   2.0000      -0.569226       -15.4894
  60   2.0000      -0.562365       -15.3027
  61   2.0000      -0.541649       -14.7390
  62   2.0000      -0.535163       -14.5625
  63   2.0000      -0.527470       -14.3532
  64   2.0000      -0.520498       -14.1635
  65   2.0000      -0.514545       -14.0015
  66   2.0000      -0.501996       -13.6600
  67   2.0000      -0.494558       -13.4576
  68   2.0000      -0.482987       -13.1427
  69   2.0000      -0.463941       -12.6245
  70   2.0000      -0.455546       -12.3960
  71   2.0000      -0.441000       -12.0002
  72   2.0000      -0.355525        -9.6743
  73   2.0000      -0.352998        -9.6056
  74   2.0000      -0.329847        -8.9756
  75   2.0000      -0.326113        -8.8740
  76   2.0000      -0.319528        -8.6948
  77   0.0000       0.072213         1.9650
  78   0.0000       0.099672         2.7122
  79   0.0000       0.123475         3.3599
  80   0.0000       0.130102         3.5402
  81   0.0000       0.132646         3.6095

MULLIKEN ATOMIC CHARGES
-----------------------
   0 C :   -0.270994
   1 C :    0.027006
   2 O :   -0.383203
   3 C :    0.482353
   4 O :   -0.414655
   5 C :   -0.281265
   6 C :    0.186313
   7 C :   -0.265617
   8 N :   -0.127238
   9 C :    0.212103
  10 S :   -0.440695
  11 N :   -0.217391
  12 C :    0.076280
  13 C :   -0.011073
  14 C :   -0.148192
  15 C :   -0.136279
  16 C :   -0.274587
  17 C :    0.311120
  18 O :   -0.356281
  19 C :   -0.236283
  20 H :    0.103141
  21 H :    0.091670
  22 H :    0.104098
  23 H :    0.099080
  24 H :    0.103240
  25 H :    0.131380
  26 H :    0.131561
  27 H :    0.094634
  28 H :    0.199486
  29 H :    0.200964
  30 H :    0.151847
  31 H :    0.152167
  32 H :    0.163761
  33 H :    0.133558
  34 H :    0.241524
  35 H :    0.166465
Sum of atomic charges:   -0.0000000

LOEWDIN ATOMIC CHARGES
----------------------
   0 C :    0.104687
   1 C :   -0.020928
   2 O :    0.288830
   3 C :   -0.415466
   4 O :    0.117092
   5 C :   -0.100763
   6 C :   -0.054490
   7 C :    0.131234
   8 N :    0.407585
   9 C :   -0.456393
  10 S :   -0.035402
  11 N :    0.394378
  12 C :   -0.054719
  13 C :   -0.039655
  14 C :    0.019024
  15 C :    0.041018
  16 C :   -0.000764
  17 C :   -0.191175
  18 O :    0.396192
  19 C :    0.031385
  20 H :   -0.028743
  21 H :   -0.029855
  22 H :   -0.023313
  23 H :   -0.031607
  24 H :   -0.023676
  25 H :   -0.004844
  26 H :   -0.004221
  27 H :   -0.023532
  28 H :   -0.056901
  29 H :   -0.064556
  30 H :   -0.012323
  31 H :   -0.027849
  32 H :   -0.020100
  33 H :   -0.034452
  34 H :   -0.152894
  35 H :   -0.022804

  Mayer bond orders larger than 0.100000
B(  0-C ,  1-C ) :   0.9845 B(  0-C , 20-H ) :   0.9732 B(  0-C , 21-H ) :   0.9760
B(  0-C , 22-H ) :   0.9760 B(  1-C ,  2-O ) :   0.8930 B(  1-C , 23-H ) :   0.9674
B(  1-C , 24-H ) :   0.9804 B(  2-O ,  3-C ) :   1.0805 B(  3-C ,  4-O ) :   2.0030
B(  3-C ,  5-C ) :   1.0793 B(  5-C ,  6-C ) :   1.6320 B(  5-C , 12-C ) :   0.9532
B(  6-C ,  7-C ) :   0.9653 B(  6-C ,  8-N ) :   1.1566 B(  7-C , 25-H ) :   0.9619
B(  7-C , 26-H ) :   0.9574 B(  7-C , 27-H ) :   0.9902 B(  8-N ,  9-C ) :   1.1859
B(  8-N , 28-H ) :   0.9462 B(  9-C , 10-S ) :   1.6059 B(  9-C , 11-N ) :   1.3107
B( 11-N , 12-C ) :   0.9625 B( 11-N , 29-H ) :   0.9485 B( 12-C , 13-C ) :   0.9673
B( 12-C , 30-H ) :   0.9999 B( 13-C , 14-C ) :   1.3516 B( 13-C , 19-C ) :   1.3781
B( 14-C , 15-C ) :   1.3926 B( 14-C , 31-H ) :   0.9743 B( 15-C , 16-C ) :   1.3598
B( 15-C , 32-H ) :   0.9700 B( 16-C , 17-C ) :   1.3322 B( 16-C , 33-H ) :   0.9840
B( 17-C , 18-O ) :   1.1073 B( 17-C , 19-C ) :   1.3642 B( 18-O , 34-H ) :   0.9789
B( 19-C , 35-H ) :   0.9591

MP2 TOTAL ENERGY:    -1274.329137640 Eh
FINAL SINGLE POINT ENERGY     -1274.329137639728

DIPOLE MOMENT
-------------
                                X             Y             Z
Electronic contribution:      9.82909       9.64599       8.23432
Nuclear contribution   :    -10.84389     -11.28931      -8.16780
                        -----------------------------------------
Total Dipole Moment    :     -1.01480      -1.64333       0.06652
                        -----------------------------------------
Magnitude (a.u.)       :      1.93256
Magnitude (Debye)      :      4.91217

Rotational constants in cm-1:     0.011941     0.008628     0.006002
Rotational constants in MHz :   357.973722   258.666532   179.945321

                             ****ORCA TERMINATED NORMALLY****
TOTAL RUN TIME: 0 days 1 hours 39 minutes 36 seconds 993 msec
