                         Program Version 4.2.0 -  RELEASE  -
|  1> ! ri-mp2 cc-pvtz cc-pvtz/c TightSCF NoKeepInts
|  2>
|  3> %scf
|  4>   MaxCore 4096
|  5> end
|  6> *xyz  0  1
|  7>     C       14.5181719   15.5860990   16.2777547
|  8>     C       15.0277451   16.3336421   15.0317835
|  9>     O       16.4101900   15.9826632   14.8126429
| 10>     C       17.4870232   16.5195293   15.4762007
| 11>     O       18.5933527   16.0233019   15.3731258
| 12>     C       17.2209564   17.6421514   16.4248382
| 13>     C       16.9282236   18.8730716   15.9368435
| 14>     C       16.6091611   19.2403726   14.5002738
| 15>     N       17.0172261   20.0065873   16.7467648
| 16>     C       17.6499700   20.0335330   17.9613334
| 17>     S       17.8391852   21.4369723   18.8149855
| 18>     N       18.1488090   18.8379186   18.4159259
| 19>     C       17.8981091   17.5226277   17.7931659
| 20>     C       17.2529966   16.4891590   18.7043400
| 21>     C       17.6631107   15.1451907   18.6431200
| 22>     C       17.0590475   14.1760687   19.4610952
| 23>     C       16.0351796   14.5540797   20.3464916
| 24>     C       15.6220568   15.8920708   20.4070506
| 25>     O       14.6268462   16.2576568   21.2534486
| 26>     C       16.2241842   16.8551278   19.5907527
| 27>     H       14.9830186   15.9720666   17.1903583
| 28>     H       14.7402717   14.5138424   16.2050580
| 29>     H       13.4324946   15.7037785   16.3788478
| 30>     H       14.4421747   15.9976589   14.1661096
| 31>     H       14.8675334   17.4102216   15.1407041
| 32>     H       16.7945515   18.4187011   13.7981634
| 33>     H       17.2366035   20.0763159   14.1643928
| 34>     H       15.5612370   19.5456023   14.3924574
| 35>     H       16.6985919   20.8988245   16.4027015
| 36>     H       18.6156129   18.8829644   19.3132215
| 37>     H       18.9344817   17.2215109   17.5779718
| 38>     H       18.4486507   14.8500945   17.9498930
| 39>     H       17.3835895   13.1383394   19.4038879
| 40>     H       15.5651011   13.8081586   20.9789042
| 41>     H       14.3678892   15.4702090   21.7555726
| 42>     H       15.8836535   17.8838879   19.6478189
| 43> *
| 44>
| 45>                          ****END OF INPUT****

CARTESIAN COORDINATES (ANGSTROEM)
---------------------------------
  C     14.518172   15.586099   16.277755
  C     15.027745   16.333642   15.031783
  O     16.410190   15.982663   14.812643
  C     17.487023   16.519529   15.476201
  O     18.593353   16.023302   15.373126
  C     17.220956   17.642151   16.424838
  C     16.928224   18.873072   15.936844
  C     16.609161   19.240373   14.500274
  N     17.017226   20.006587   16.746765
  C     17.649970   20.033533   17.961333
  S     17.839185   21.436972   18.814985
  N     18.148809   18.837919   18.415926
  C     17.898109   17.522628   17.793166
  C     17.252997   16.489159   18.704340
  C     17.663111   15.145191   18.643120
  C     17.059047   14.176069   19.461095
  C     16.035180   14.554080   20.346492
  C     15.622057   15.892071   20.407051
  O     14.626846   16.257657   21.253449
  C     16.224184   16.855128   19.590753
  H     14.983019   15.972067   17.190358
  H     14.740272   14.513842   16.205058
  H     13.432495   15.703778   16.378848
  H     14.442175   15.997659   14.166110
  H     14.867533   17.410222   15.140704
  H     16.794552   18.418701   13.798163
  H     17.236604   20.076316   14.164393
  H     15.561237   19.545602   14.392457
  H     16.698592   20.898824   16.402701
  H     18.615613   18.882964   19.313222
  H     18.934482   17.221511   17.577972
  H     18.448651   14.850095   17.949893
  H     17.383589   13.138339   19.403888
  H     15.565101   13.808159   20.978904
  H     14.367889   15.470209   21.755573
  H     15.883653   17.883888   19.647819

 Total Charge           Charge          ....    0
 Multiplicity           Mult            ....    1
 Number of Electrons    NEL             ....  154
 Basis Dimension        Dim             ....  828

ORBITAL ENERGIES
----------------

  NO   OCC          E(Eh)            E(eV)
   0   2.0000     -91.890067     -2500.4558
   1   2.0000     -20.603861      -560.6596
   2   2.0000     -20.599725      -560.5470
   3   2.0000     -20.550657      -559.2118
   4   2.0000     -15.627687      -425.2510
   5   2.0000     -15.610038      -424.7707
   6   2.0000     -11.401270      -310.2443
   7   2.0000     -11.385959      -309.8277
   8   2.0000     -11.334273      -308.4213
   9   2.0000     -11.317399      -307.9621
  10   2.0000     -11.311430      -307.7996
  11   2.0000     -11.307588      -307.6951
  12   2.0000     -11.268889      -306.6421
  13   2.0000     -11.265878      -306.5601
  14   2.0000     -11.265364      -306.5461
  15   2.0000     -11.257897      -306.3430
  16   2.0000     -11.246233      -306.0256
  17   2.0000     -11.242040      -305.9115
  18   2.0000     -11.239469      -305.8415
  19   2.0000     -11.228356      -305.5391
  20   2.0000      -8.895171      -242.0499
  21   2.0000      -6.576753      -178.9626
  22   2.0000      -6.574739      -178.9077
  23   2.0000      -6.574157      -178.8919
  24   2.0000      -1.448377       -39.4123
  25   2.0000      -1.419451       -38.6252
  26   2.0000      -1.362262       -37.0690
  27   2.0000      -1.341502       -36.5041
  28   2.0000      -1.239919       -33.7399
  29   2.0000      -1.161632       -31.6096
  30   2.0000      -1.127028       -30.6680
  31   2.0000      -1.049013       -28.5451
  32   2.0000      -1.038019       -28.2459
  33   2.0000      -1.019832       -27.7510
  34   2.0000      -1.006995       -27.4017
  35   2.0000      -0.990544       -26.9541
  36   2.0000      -0.927207       -25.2306
  37   2.0000      -0.893197       -24.3051
  38   2.0000      -0.854773       -23.2595
  39   2.0000      -0.842263       -22.9191
  40   2.0000      -0.836836       -22.7715
  41   2.0000      -0.833425       -22.6787
  42   2.0000      -0.751136       -20.4395
  43   2.0000      -0.740810       -20.1585
  44   2.0000      -0.732234       -19.9251
  45   2.0000      -0.697133       -18.9700
  46   2.0000      -0.690187       -18.7810
  47   2.0000      -0.682610       -18.5748
  48   2.0000      -0.674864       -18.3640
  49   2.0000      -0.664144       -18.0723
  50   2.0000      -0.653153       -17.7732
  51   2.0000      -0.642525       -17.4840
  52   2.0000      -0.637812       -17.3557
  53   2.0000      -0.621198       -16.9037
  54   2.0000      -0.612861       -16.6768
  55   2.0000      -0.607510       -16.5312
  56   2.0000      -0.602963       -16.4075
  57   2.0000      -0.587741       -15.9932
  58   2.0000      -0.577818       -15.7232
  59   2.0000      -0.569086       -15.4856
  60   2.0000      -0.563822       -15.3424
  61   2.0000      -0.555223       -15.1084
  62   2.0000      -0.540280       -14.7018
  63   2.0000      -0.537241       -14.6191
  64   2.0000      -0.520432       -14.1617
  65   2.0000      -0.512262       -13.9394
  66   2.0000      -0.506365       -13.7789
  67   2.0000      -0.502137       -13.6638
  68   2.0000      -0.485525       -13.2118
  69   2.0000      -0.468041       -12.7360
  70   2.0000      -0.454742       -12.3742
  71   2.0000      -0.451445       -12.2845
  72   2.0000      -0.357873        -9.7382
  73   2.0000      -0.351200        -9.5566
  74   2.0000      -0.329634        -8.9698
  75   2.0000      -0.325173        -8.8484
  76   2.0000      -0.320489        -8.7210
  77   0.0000       0.086964         2.3664
  78   0.0000       0.104587         2.8460
  79   0.0000       0.115040         3.1304
  80   0.0000       0.126150         3.4327
  81   0.0000       0.129709         3.5296

MULLIKEN ATOMIC CHARGES
-----------------------
   0 C :   -0.292570
   1 C :    0.026156
   2 O :   -0.321824
   3 C :    0.430763
   4 O :   -0.383298
   5 C :   -0.210745
   6 C :    0.127741
   7 C :   -0.328962
   8 N :   -0.139429
   9 C :    0.209967
  10 S :   -0.442816
  11 N :   -0.230595
  12 C :    0.070186
  13 C :   -0.000959
  14 C :   -0.211008
  15 C :   -0.136885
  16 C :   -0.269064
  17 C :    0.315164
  18 O :   -0.356288
  19 C :   -0.240718
  20 H :    0.112169
  21 H :    0.109376
  22 H :    0.098595
  23 H :    0.122076
  24 H :    0.086956
  25 H :    0.131149
  26 H :    0.137133
  27 H :    0.123144
  28 H :    0.196818
  29 H :    0.205493
  30 H :    0.169352
  31 H :    0.179005
  32 H :    0.164902
  33 H :    0.132728
  34 H :    0.241154
  35 H :    0.175131
Sum of atomic charges:   -0.0000000

LOEWDIN ATOMIC CHARGES
----------------------
   0 C :    0.108057
   1 C :   -0.022509
   2 O :    0.305770
   3 C :   -0.415062
   4 O :    0.119577
   5 C :   -0.082810
   6 C :   -0.094341
   7 C :    0.123450
   8 N :    0.402694
   9 C :   -0.457370
  10 S :   -0.038049
  11 N :    0.396662
  12 C :   -0.048473
  13 C :   -0.045100
  14 C :    0.019501
  15 C :    0.045894
  16 C :    0.000119
  17 C :   -0.190869
  18 O :    0.396105
  19 C :    0.026378
  20 H :   -0.030204
  21 H :   -0.022729
  22 H :   -0.026303
  23 H :   -0.021748
  24 H :   -0.038769
  25 H :   -0.008007
  26 H :   -0.009009
  27 H :   -0.017879
  28 H :   -0.056877
  29 H :   -0.063393
  30 H :   -0.003664
  31 H :   -0.021457
  32 H :   -0.018247
  33 H :   -0.034658
  34 H :   -0.153067
  35 H :   -0.023613

  Mayer bond orders larger than 0.100000
B(  0-C ,  1-C ) :   0.9717 B(  0-C , 20-H ) :   0.9672 B(  0-C , 21-H ) :   0.9759
B(  0-C , 22-H ) :   0.9767 B(  1-C ,  2-O ) :   0.8976 B(  1-C , 23-H ) :   0.9824
B(  1-C , 24-H ) :   0.9653 B(  2-O ,  3-C ) :   1.1729 B(  3-C ,  4-O ) :   2.0895
B(  3-C ,  5-C ) :   0.9174 B(  5-C ,  6-C ) :   1.7275 B(  5-C , 12-C ) :   0.9341
B(  6-C ,  7-C ) :   0.9349 B(  6-C ,  8-N ) :   1.1053 B(  7-C , 25-H ) :   0.9765
B(  7-C , 26-H ) :   0.9727 B(  7-C , 27-H ) :   0.9666 B(  8-N ,  9-C ) :   1.1987
B(  8-N , 28-H ) :   0.9513 B(  9-C , 10-S ) :   1.6091 B(  9-C , 11-N ) :   1.2914
B( 11-N , 12-C ) :   0.9760 B( 11-N , 29-H ) :   0.9462 B( 12-C , 13-C ) :   0.9743
B( 12-C , 30-H ) :   0.9884 B( 13-C , 14-C ) :   1.3892 B( 13-C , 19-C ) :   1.3461
B( 14-C , 15-C ) :   1.3976 B( 14-C , 31-H ) :   0.9574 B( 15-C , 16-C ) :   1.3594
B( 15-C , 32-H ) :   0.9695 B( 16-C , 17-C ) :   1.3328 B( 16-C , 33-H ) :   0.9842
B( 17-C , 18-O ) :   1.1098 B( 17-C , 19-C ) :   1.3623 B( 18-O , 34-H ) :   0.9794
B( 19-C , 35-H ) :   0.9580

MP2 TOTAL ENERGY:    -1274.329751341 Eh
FINAL SINGLE POINT ENERGY     -1274.329751340826

DIPOLE MOMENT
-------------
                                X             Y             Z
Electronic contribution:      8.95338       7.58430       6.82366
Nuclear contribution   :    -10.61516      -8.71600      -7.33115
                        -----------------------------------------
Total Dipole Moment    :     -1.66178      -1.13169      -0.50749
                        -----------------------------------------
Magnitude (a.u.)       :      2.07359
Magnitude (Debye)      :      5.27065

Rotational constants in cm-1:     0.011560     0.009210     0.006359
Rotational constants in MHz :   346.571177   276.110331   190.633837

                             ****ORCA TERMINATED NORMALLY****
TOTAL RUN TIME: 0 days 1 hours 45 minutes 23 seconds 770 msec
