                         Program Version 4.2.0 -  RELEASE  -
|  1> ! ri-mp2 cc-pvtz cc-pvtz/c TightSCF NoKeepInts
|  2>
|  3> %scf
|  4>   MaxCore 4096
|  5> end
|  6> *xyz  0  1
|  7>     C       14.3420952   15.8018903   15.1053238
|  8>     C       15.4433586   15.3714157   16.0951145
|  9>     O       16.7377186   15.6972574   15.5450188
| 10>     C       17.0525796   16.9942068   15.2611093
| 11>     O       17.2768867   17.3402049   14.1157203
| 12>     C       17.0624849   17.9216671   16.4437971
| 13>     C       16.8845138   19.2503343   16.2353965
| 14>     C       16.2735474   19.8985897   15.0105650
| 15>     N       17.2566268   20.1923901   17.1958536
| 16>     C       18.0415192   19.9123162   18.2813192
| 17>     S       18.5559108   21.0920832   19.3196482
| 18>     N       18.4009961   18.5988276   18.4504574
| 19>     C       17.8772404   17.4617480   17.6683096
| 20>     C       17.2550284   16.3868299   18.5468178
| 21>     C       17.7398530   15.0662806   18.5165970
| 22>     C       17.1610436   14.0756404   19.3273972
| 23>     C       16.0949109   14.4101470   20.1800143
| 24>     C       15.6173948   15.7273523   20.2197424
| 25>     O       14.5869223   16.0528043   21.0395508
| 26>     C       16.1931777   16.7109001   19.4092188
| 27>     H       14.2940585   16.8935270   15.0109480
| 28>     H       13.3616773   15.4496420   15.4483223
| 29>     H       14.5291772   15.3760791   14.1111241
| 30>     H       15.2691430   15.8697754   17.0536035
| 31>     H       15.3837780   14.2880217   16.2612358
| 32>     H       15.4786317   19.2728925   14.5863592
| 33>     H       17.0335648   20.0324595   14.2295412
| 34>     H       15.8331253   20.8790156   15.2274063
| 35>     H       17.0345519   21.1654501   17.0569282
| 36>     H       18.9687972   18.4201117   19.2695164
| 37>     H       18.8230431   17.0911624   17.2471382
| 38>     H       18.5601666   14.8043323   17.8526153
| 39>     H       17.5394394   13.0550917   19.2937484
| 40>     H       15.6456885   13.6479382   20.8085544
| 41>     H       14.3652624   15.2650400   21.5590443
| 42>     H       15.8130861   17.7265748   19.4549428
| 43> *
| 44>
| 45>                          ****END OF INPUT****

CARTESIAN COORDINATES (ANGSTROEM)
---------------------------------
  C     14.342095   15.801890   15.105324
  C     15.443359   15.371416   16.095115
  O     16.737719   15.697257   15.545019
  C     17.052580   16.994207   15.261109
  O     17.276887   17.340205   14.115720
  C     17.062485   17.921667   16.443797
  C     16.884514   19.250334   16.235397
  C     16.273547   19.898590   15.010565
  N     17.256627   20.192390   17.195854
  C     18.041519   19.912316   18.281319
  S     18.555911   21.092083   19.319648
  N     18.400996   18.598828   18.450457
  C     17.877240   17.461748   17.668310
  C     17.255028   16.386830   18.546818
  C     17.739853   15.066281   18.516597
  C     17.161044   14.075640   19.327397
  C     16.094911   14.410147   20.180014
  C     15.617395   15.727352   20.219742
  O     14.586922   16.052804   21.039551
  C     16.193178   16.710900   19.409219
  H     14.294059   16.893527   15.010948
  H     13.361677   15.449642   15.448322
  H     14.529177   15.376079   14.111124
  H     15.269143   15.869775   17.053604
  H     15.383778   14.288022   16.261236
  H     15.478632   19.272893   14.586359
  H     17.033565   20.032460   14.229541
  H     15.833125   20.879016   15.227406
  H     17.034552   21.165450   17.056928
  H     18.968797   18.420112   19.269516
  H     18.823043   17.091162   17.247138
  H     18.560167   14.804332   17.852615
  H     17.539439   13.055092   19.293748
  H     15.645688   13.647938   20.808554
  H     14.365262   15.265040   21.559044
  H     15.813086   17.726575   19.454943

 Total Charge           Charge          ....    0
 Multiplicity           Mult            ....    1
 Number of Electrons    NEL             ....  154
 Basis Dimension        Dim             ....  828

ORBITAL ENERGIES
----------------

  NO   OCC          E(Eh)            E(eV)
   0   2.0000     -91.891383     -2500.4917
   1   2.0000     -20.602790      -560.6304
   2   2.0000     -20.586612      -560.1902
   3   2.0000     -20.550761      -559.2146
   4   2.0000     -15.629996      -425.3138
   5   2.0000     -15.610585      -424.7856
   6   2.0000     -11.393281      -310.0269
   7   2.0000     -11.386037      -309.8298
   8   2.0000     -11.335828      -308.4636
   9   2.0000     -11.320794      -308.0545
  10   2.0000     -11.315089      -307.8992
  11   2.0000     -11.298621      -307.4511
  12   2.0000     -11.267342      -306.6000
  13   2.0000     -11.261711      -306.4467
  14   2.0000     -11.258250      -306.3526
  15   2.0000     -11.255314      -306.2727
  16   2.0000     -11.250780      -306.1493
  17   2.0000     -11.245562      -306.0073
  18   2.0000     -11.244873      -305.9885
  19   2.0000     -11.229104      -305.5594
  20   2.0000      -8.896434      -242.0843
  21   2.0000      -6.578001      -178.9965
  22   2.0000      -6.576008      -178.9423
  23   2.0000      -6.575411      -178.9260
  24   2.0000      -1.445987       -39.3473
  25   2.0000      -1.422573       -38.7102
  26   2.0000      -1.356443       -36.9107
  27   2.0000      -1.342462       -36.5302
  28   2.0000      -1.241332       -33.7784
  29   2.0000      -1.163931       -31.6722
  30   2.0000      -1.123647       -30.5760
  31   2.0000      -1.048703       -28.5367
  32   2.0000      -1.032883       -28.1062
  33   2.0000      -1.021945       -27.8085
  34   2.0000      -1.002068       -27.2677
  35   2.0000      -0.988833       -26.9075
  36   2.0000      -0.926324       -25.2066
  37   2.0000      -0.890575       -24.2338
  38   2.0000      -0.851005       -23.1570
  39   2.0000      -0.843715       -22.9587
  40   2.0000      -0.840960       -22.8837
  41   2.0000      -0.830998       -22.6126
  42   2.0000      -0.753338       -20.4994
  43   2.0000      -0.737805       -20.0767
  44   2.0000      -0.717615       -19.5273
  45   2.0000      -0.700929       -19.0732
  46   2.0000      -0.690393       -18.7865
  47   2.0000      -0.680393       -18.5144
  48   2.0000      -0.674038       -18.3415
  49   2.0000      -0.667798       -18.1717
  50   2.0000      -0.650647       -17.7050
  51   2.0000      -0.648048       -17.6343
  52   2.0000      -0.635991       -17.3062
  53   2.0000      -0.616686       -16.7809
  54   2.0000      -0.612014       -16.6538
  55   2.0000      -0.605098       -16.4656
  56   2.0000      -0.602741       -16.4014
  57   2.0000      -0.581773       -15.8309
  58   2.0000      -0.576028       -15.6745
  59   2.0000      -0.567631       -15.4460
  60   2.0000      -0.554658       -15.0930
  61   2.0000      -0.549161       -14.9434
  62   2.0000      -0.543294       -14.7838
  63   2.0000      -0.530039       -14.4231
  64   2.0000      -0.527403       -14.3514
  65   2.0000      -0.517146       -14.0723
  66   2.0000      -0.504455       -13.7269
  67   2.0000      -0.497927       -13.5493
  68   2.0000      -0.480666       -13.0796
  69   2.0000      -0.467730       -12.7276
  70   2.0000      -0.455873       -12.4049
  71   2.0000      -0.449034       -12.2188
  72   2.0000      -0.357235        -9.7209
  73   2.0000      -0.352893        -9.6027
  74   2.0000      -0.330784        -9.0011
  75   2.0000      -0.328060        -8.9270
  76   2.0000      -0.321352        -8.7444
  77   0.0000       0.075857         2.0642
  78   0.0000       0.097494         2.6530
  79   0.0000       0.121959         3.3187
  80   0.0000       0.127930         3.4811
  81   0.0000       0.129655         3.5281

MULLIKEN ATOMIC CHARGES
-----------------------
   0 C :   -0.280461
   1 C :    0.022635
   2 O :   -0.357169
   3 C :    0.422910
   4 O :   -0.373183
   5 C :   -0.226430
   6 C :    0.154576
   7 C :   -0.273950
   8 N :   -0.129201
   9 C :    0.208882
  10 S :   -0.437291
  11 N :   -0.209002
  12 C :    0.036580
  13 C :   -0.012382
  14 C :   -0.150942
  15 C :   -0.143029
  16 C :   -0.271415
  17 C :    0.304992
  18 O :   -0.355448
  19 C :   -0.231005
  20 H :    0.083025
  21 H :    0.101379
  22 H :    0.113746
  23 H :    0.103427
  24 H :    0.121008
  25 H :    0.119769
  26 H :    0.140669
  27 H :    0.096187
  28 H :    0.199583
  29 H :    0.199940
  30 H :    0.154060
  31 H :    0.153688
  32 H :    0.165345
  33 H :    0.134856
  34 H :    0.241428
  35 H :    0.172223
Sum of atomic charges:    0.0000000

LOEWDIN ATOMIC CHARGES
----------------------
   0 C :    0.106316
   1 C :   -0.021164
   2 O :    0.295535
   3 C :   -0.427726
   4 O :    0.127731
   5 C :   -0.103059
   6 C :   -0.064220
   7 C :    0.129597
   8 N :    0.407034
   9 C :   -0.457333
  10 S :   -0.033225
  11 N :    0.395580
  12 C :   -0.053199
  13 C :   -0.044991
  14 C :    0.022468
  15 C :    0.043029
  16 C :    0.000797
  17 C :   -0.192521
  18 O :    0.396421
  19 C :    0.030835
  20 H :   -0.032493
  21 H :   -0.025433
  22 H :   -0.021501
  23 H :   -0.037665
  24 H :   -0.021045
  25 H :   -0.009721
  26 H :   -0.003893
  27 H :   -0.021894
  28 H :   -0.056442
  29 H :   -0.063342
  30 H :   -0.011053
  31 H :   -0.026151
  32 H :   -0.019020
  33 H :   -0.033890
  34 H :   -0.152569
  35 H :   -0.021795

  Mayer bond orders larger than 0.100000
B(  0-C ,  1-C ) :   0.9805 B(  0-C , 20-H ) :   0.9746 B(  0-C , 21-H ) :   0.9771
B(  0-C , 22-H ) :   0.9764 B(  1-C ,  2-O ) :   0.8855 B(  1-C , 23-H ) :   0.9600
B(  1-C , 24-H ) :   0.9788 B(  2-O ,  3-C ) :   1.1273 B(  3-C ,  4-O ) :   2.0998
B(  3-C ,  5-C ) :   0.9785 B(  5-C ,  6-C ) :   1.6547 B(  5-C , 12-C ) :   0.9575
B(  6-C ,  7-C ) :   0.9611 B(  6-C ,  8-N ) :   1.1446 B(  7-C , 25-H ) :   0.9727
B(  7-C , 26-H ) :   0.9544 B(  7-C , 27-H ) :   0.9850 B(  8-N ,  9-C ) :   1.1898
B(  8-N , 28-H ) :   0.9483 B(  9-C , 10-S ) :   1.6156 B(  9-C , 11-N ) :   1.2947
B( 11-N , 12-C ) :   0.9819 B( 11-N , 29-H ) :   0.9476 B( 12-C , 13-C ) :   0.9642
B( 12-C , 30-H ) :   1.0055 B( 13-C , 14-C ) :   1.3711 B( 13-C , 19-C ) :   1.3582
B( 14-C , 15-C ) :   1.3936 B( 14-C , 31-H ) :   0.9705 B( 15-C , 16-C ) :   1.3605
B( 15-C , 32-H ) :   0.9696 B( 16-C , 17-C ) :   1.3320 B( 16-C , 33-H ) :   0.9832
B( 17-C , 18-O ) :   1.1095 B( 17-C , 19-C ) :   1.3639 B( 18-O , 34-H ) :   0.9790
B( 19-C , 35-H ) :   0.9586

MP2 TOTAL ENERGY:    -1274.323456181 Eh
FINAL SINGLE POINT ENERGY     -1274.323456180545

DIPOLE MOMENT
-------------
                                X             Y             Z
Electronic contribution:      9.91777       7.72549       7.97717
Nuclear contribution   :    -11.26044      -9.33740      -7.76506
                        -----------------------------------------
Total Dipole Moment    :     -1.34267      -1.61190       0.21211
                        -----------------------------------------
Magnitude (a.u.)       :      2.10855
Magnitude (Debye)      :      5.35951

Rotational constants in cm-1:     0.011624     0.009186     0.006126
Rotational constants in MHz :   348.486296   275.375472   183.667199

                             ****ORCA TERMINATED NORMALLY****
TOTAL RUN TIME: 0 days 1 hours 45 minutes 44 seconds 949 msec
