                         Program Version 4.2.0 -  RELEASE  -
|  1> ! ri-mp2 cc-pvtz cc-pvtz/c TightSCF NoKeepInts
|  2>
|  3> %scf
|  4>   MaxCore 4096
|  5> end
|  6> *xyz  0  1
|  7>     C       15.3001798   13.8639079   15.5910595
|  8>     C       15.4354580   15.1833462   14.8123502
|  9>     O       16.0560658   16.1316942   15.6977878
| 10>     C       15.6827593   17.4470348   15.6786233
| 11>     O       14.8015536   17.8635211   14.9457106
| 12>     C       16.5002808   18.2918560   16.6198305
| 13>     C       16.4902997   19.6467516   16.5275877
| 14>     C       15.5339054   20.5039817   15.7243203
| 15>     N       17.4336057   20.4216866   17.2063163
| 16>     C       18.5317903   19.9179550   17.8490332
| 17>     S       19.6616068   20.8995531   18.5531275
| 18>     N       18.6591716   18.5521644   17.8609385
| 19>     C       17.6571878   17.5943567   17.3561481
| 20>     C       17.2077541   16.6019177   18.4207765
| 21>     C       17.5744994   15.2460173   18.3375813
| 22>     C       17.1571363   14.3322547   19.3199230
| 23>     C       16.3707786   14.7794970   20.3956131
| 24>     C       16.0086864   16.1310019   20.4829885
| 25>     O       15.2507210   16.5655290   21.5211646
| 26>     C       16.4252123   17.0378629   19.5033883
| 27>     H       16.2863561   13.4873471   15.8889865
| 28>     H       14.8113601   13.1003178   14.9739935
| 29>     H       14.6989814   14.0111844   16.4973145
| 30>     H       16.0418944   15.0465212   13.9077549
| 31>     H       14.4303227   15.5110357   14.5134690
| 32>     H       15.6792376   20.3422049   14.6486643
| 33>     H       15.6515670   21.5767156   15.9176302
| 34>     H       14.4934451   20.2435469   15.9576017
| 35>     H       17.3631794   21.4264918   17.1870642
| 36>     H       19.4616273   18.2085416   18.3731847
| 37>     H       18.2455997   17.0880531   16.5779615
| 38>     H       18.1765689   14.8986271   17.5023893
| 39>     H       17.4416685   13.2842425   19.2454543
| 40>     H       16.0459097   14.0778477   21.1567471
| 41>     H       15.0803897   15.8043666   22.0959242
| 42>     H       16.1402401   18.0810666   19.5895912
| 43> *
| 44>
| 45>                          ****END OF INPUT****

CARTESIAN COORDINATES (ANGSTROEM)
---------------------------------
  C     15.300180   13.863908   15.591059
  C     15.435458   15.183346   14.812350
  O     16.056066   16.131694   15.697788
  C     15.682759   17.447035   15.678623
  O     14.801554   17.863521   14.945711
  C     16.500281   18.291856   16.619830
  C     16.490300   19.646752   16.527588
  C     15.533905   20.503982   15.724320
  N     17.433606   20.421687   17.206316
  C     18.531790   19.917955   17.849033
  S     19.661607   20.899553   18.553127
  N     18.659172   18.552164   17.860938
  C     17.657188   17.594357   17.356148
  C     17.207754   16.601918   18.420776
  C     17.574499   15.246017   18.337581
  C     17.157136   14.332255   19.319923
  C     16.370779   14.779497   20.395613
  C     16.008686   16.131002   20.482989
  O     15.250721   16.565529   21.521165
  C     16.425212   17.037863   19.503388
  H     16.286356   13.487347   15.888986
  H     14.811360   13.100318   14.973994
  H     14.698981   14.011184   16.497315
  H     16.041894   15.046521   13.907755
  H     14.430323   15.511036   14.513469
  H     15.679238   20.342205   14.648664
  H     15.651567   21.576716   15.917630
  H     14.493445   20.243547   15.957602
  H     17.363179   21.426492   17.187064
  H     19.461627   18.208542   18.373185
  H     18.245600   17.088053   16.577962
  H     18.176569   14.898627   17.502389
  H     17.441668   13.284242   19.245454
  H     16.045910   14.077848   21.156747
  H     15.080390   15.804367   22.095924
  H     16.140240   18.081067   19.589591

 Total Charge           Charge          ....    0
 Multiplicity           Mult            ....    1
 Number of Electrons    NEL             ....  154
 Basis Dimension        Dim             ....  828

ORBITAL ENERGIES
----------------

  NO   OCC          E(Eh)            E(eV)
   0   2.0000     -91.888509     -2500.4134
   1   2.0000     -20.602378      -560.6192
   2   2.0000     -20.595749      -560.4388
   3   2.0000     -20.540826      -558.9443
   4   2.0000     -15.628775      -425.2806
   5   2.0000     -15.606743      -424.6811
   6   2.0000     -11.395373      -310.0839
   7   2.0000     -11.383179      -309.7520
   8   2.0000     -11.336951      -308.4941
   9   2.0000     -11.312835      -307.8379
  10   2.0000     -11.307265      -307.6863
  11   2.0000     -11.295835      -307.3753
  12   2.0000     -11.259943      -306.3986
  13   2.0000     -11.259477      -306.3860
  14   2.0000     -11.254211      -306.2427
  15   2.0000     -11.251255      -306.1622
  16   2.0000     -11.242972      -305.9368
  17   2.0000     -11.238275      -305.8090
  18   2.0000     -11.237999      -305.8015
  19   2.0000     -11.228961      -305.5556
  20   2.0000      -8.893585      -242.0068
  21   2.0000      -6.575160      -178.9192
  22   2.0000      -6.573159      -178.8648
  23   2.0000      -6.572570      -178.8487
  24   2.0000      -1.451704       -39.5029
  25   2.0000      -1.415425       -38.5157
  26   2.0000      -1.354710       -36.8635
  27   2.0000      -1.340015       -36.4637
  28   2.0000      -1.237936       -33.6859
  29   2.0000      -1.156920       -31.4814
  30   2.0000      -1.120796       -30.4984
  31   2.0000      -1.043044       -28.3827
  32   2.0000      -1.039886       -28.2968
  33   2.0000      -1.014340       -27.6016
  34   2.0000      -0.995916       -27.1003
  35   2.0000      -0.984401       -26.7869
  36   2.0000      -0.921362       -25.0715
  37   2.0000      -0.888913       -24.1885
  38   2.0000      -0.845893       -23.0179
  39   2.0000      -0.837254       -22.7828
  40   2.0000      -0.833471       -22.6799
  41   2.0000      -0.816423       -22.2160
  42   2.0000      -0.765531       -20.8312
  43   2.0000      -0.732630       -19.9359
  44   2.0000      -0.720512       -19.6061
  45   2.0000      -0.695158       -18.9162
  46   2.0000      -0.689131       -18.7522
  47   2.0000      -0.679235       -18.4829
  48   2.0000      -0.670430       -18.2433
  49   2.0000      -0.666033       -18.1237
  50   2.0000      -0.645355       -17.5610
  51   2.0000      -0.642956       -17.4957
  52   2.0000      -0.634823       -17.2744
  53   2.0000      -0.606223       -16.4962
  54   2.0000      -0.600801       -16.3486
  55   2.0000      -0.598390       -16.2830
  56   2.0000      -0.591928       -16.1072
  57   2.0000      -0.577573       -15.7166
  58   2.0000      -0.569191       -15.4885
  59   2.0000      -0.567597       -15.4451
  60   2.0000      -0.563139       -15.3238
  61   2.0000      -0.549703       -14.9582
  62   2.0000      -0.539422       -14.6784
  63   2.0000      -0.525729       -14.3058
  64   2.0000      -0.523573       -14.2471
  65   2.0000      -0.512726       -13.9520
  66   2.0000      -0.500429       -13.6174
  67   2.0000      -0.496576       -13.5125
  68   2.0000      -0.483740       -13.1632
  69   2.0000      -0.462534       -12.5862
  70   2.0000      -0.458878       -12.4867
  71   2.0000      -0.448032       -12.1916
  72   2.0000      -0.352844        -9.6014
  73   2.0000      -0.349215        -9.5026
  74   2.0000      -0.327672        -8.9164
  75   2.0000      -0.320160        -8.7120
  76   2.0000      -0.317641        -8.6434
  77   0.0000       0.078449         2.1347
  78   0.0000       0.105547         2.8721
  79   0.0000       0.123738         3.3671
  80   0.0000       0.133134         3.6228
  81   0.0000       0.137123         3.7313

MULLIKEN ATOMIC CHARGES
-----------------------
   0 C :   -0.275404
   1 C :    0.028124
   2 O :   -0.337756
   3 C :    0.438924
   4 O :   -0.436818
   5 C :   -0.224452
   6 C :    0.173129
   7 C :   -0.269527
   8 N :   -0.126242
   9 C :    0.210417
  10 S :   -0.442620
  11 N :   -0.214372
  12 C :    0.054563
  13 C :    0.050318
  14 C :   -0.185591
  15 C :   -0.129504
  16 C :   -0.276888
  17 C :    0.316903
  18 O :   -0.357033
  19 C :   -0.248744
  20 H :    0.086909
  21 H :    0.102144
  22 H :    0.106565
  23 H :    0.089180
  24 H :    0.113573
  25 H :    0.128914
  26 H :    0.094268
  27 H :    0.133455
  28 H :    0.199683
  29 H :    0.200221
  30 H :    0.151374
  31 H :    0.153292
  32 H :    0.160031
  33 H :    0.130173
  34 H :    0.240363
  35 H :    0.162429
Sum of atomic charges:   -0.0000000

LOEWDIN ATOMIC CHARGES
----------------------
   0 C :    0.105311
   1 C :   -0.012932
   2 O :    0.311520
   3 C :   -0.413326
   4 O :    0.094105
   5 C :   -0.094420
   6 C :   -0.057085
   7 C :    0.130874
   8 N :    0.406975
   9 C :   -0.456721
  10 S :   -0.037123
  11 N :    0.394707
  12 C :   -0.055107
  13 C :   -0.039875
  14 C :    0.018597
  15 C :    0.040179
  16 C :   -0.000470
  17 C :   -0.189669
  18 O :    0.394907
  19 C :    0.033571
  20 H :   -0.031579
  21 H :   -0.025625
  22 H :   -0.023098
  23 H :   -0.031952
  24 H :   -0.027481
  25 H :   -0.005234
  26 H :   -0.023718
  27 H :   -0.004228
  28 H :   -0.057173
  29 H :   -0.064352
  30 H :   -0.014626
  31 H :   -0.030841
  32 H :   -0.021745
  33 H :   -0.035431
  34 H :   -0.154163
  35 H :   -0.022774

  Mayer bond orders larger than 0.100000
B(  0-C ,  1-C ) :   0.9736 B(  0-C , 20-H ) :   0.9787 B(  0-C , 21-H ) :   0.9779
B(  0-C , 22-H ) :   0.9745 B(  1-C ,  2-O ) :   0.8994 B(  1-C , 23-H ) :   0.9816
B(  1-C , 24-H ) :   0.9755 B(  2-O ,  3-C ) :   1.1852 B(  3-C ,  4-O ) :   1.9625
B(  3-C ,  5-C ) :   1.0692 B(  5-C ,  6-C ) :   1.6471 B(  5-C , 12-C ) :   0.9536
B(  6-C ,  7-C ) :   0.9659 B(  6-C ,  8-N ) :   1.1536 B(  7-C , 25-H ) :   0.9586
B(  7-C , 26-H ) :   0.9903 B(  7-C , 27-H ) :   0.9617 B(  8-N ,  9-C ) :   1.1880
B(  8-N , 28-H ) :   0.9464 B(  9-C , 10-S ) :   1.6056 B(  9-C , 11-N ) :   1.3087
B( 11-N , 12-C ) :   0.9706 B( 11-N , 29-H ) :   0.9484 B( 12-C , 13-C ) :   0.9656
B( 12-C , 30-H ) :   1.0005 B( 13-C , 14-C ) :   1.3569 B( 13-C , 19-C ) :   1.3799
B( 14-C , 15-C ) :   1.3918 B( 14-C , 31-H ) :   0.9700 B( 15-C , 16-C ) :   1.3615
B( 15-C , 32-H ) :   0.9702 B( 16-C , 17-C ) :   1.3332 B( 16-C , 33-H ) :   0.9850
B( 17-C , 18-O ) :   1.1040 B( 17-C , 19-C ) :   1.3656 B( 18-O , 34-H ) :   0.9801
B( 19-C , 35-H ) :   0.9595

MP2 TOTAL ENERGY:    -1274.344382007 Eh
FINAL SINGLE POINT ENERGY     -1274.344382007018

DIPOLE MOMENT
-------------
                                X             Y             Z
Electronic contribution:      7.92899      12.22842       7.42171
Nuclear contribution   :     -8.81896     -14.01697      -7.83262
                        -----------------------------------------
Total Dipole Moment    :     -0.88997      -1.78855      -0.41091
                        -----------------------------------------
Magnitude (a.u.)       :      2.03956
Magnitude (Debye)      :      5.18415

Rotational constants in cm-1:     0.011448     0.008438     0.005885
Rotational constants in MHz :   343.201498   252.970253   176.417472

                             ****ORCA TERMINATED NORMALLY****
TOTAL RUN TIME: 0 days 1 hours 44 minutes 48 seconds 656 msec
