                         Program Version 4.2.0 -  RELEASE  -
|  1> ! ri-mp2 cc-pvtz cc-pvtz/c TightSCF NoKeepInts
|  2>
|  3> %scf
|  4>   MaxCore 4096
|  5> end
|  6> *xyz  0  1
|  7>     C       14.8483762   14.4270993   16.5121313
|  8>     C       15.0885525   15.7712050   15.8045086
|  9>     O       16.4486477   15.7989150   15.3366347
| 10>     C       17.0353528   17.0042938   15.0827424
| 11>     O       17.4263826   17.2665868   13.9603886
| 12>     C       17.1270642   17.9592238   16.2388754
| 13>     C       17.1465307   19.2898767   15.9739014
| 14>     C       16.6713068   19.9626972   14.7028210
| 15>     N       17.6155108   20.2121831   16.9103145
| 16>     C       18.3199435   19.8722169   18.0327245
| 17>     S       18.9660197   21.0118629   19.0420724
| 18>     N       18.4869453   18.5298263   18.2620703
| 19>     C       17.8313421   17.4442494   17.5072698
| 20>     C       17.0495759   16.5157604   18.4223641
| 21>     C       17.5915447   15.2754368   18.8073160
| 22>     C       16.9064819   14.4484230   19.7140447
| 23>     C       15.6712138   14.8660910   20.2391032
| 24>     C       15.1369204   16.1074367   19.8670509
| 25>     O       13.9479047   16.5165923   20.3757228
| 26>     C       15.8260425   16.9331942   18.9732635
| 27>     H       15.5970209   14.2457373   17.2875203
| 28>     H       14.9028661   13.6020147   15.7913090
| 29>     H       13.8568096   14.4091840   16.9801512
| 30>     H       14.3958877   15.8858568   14.9602805
| 31>     H       14.8955055   16.5850435   16.5132770
| 32>     H       17.4743139   19.9750985   13.9539797
| 33>     H       16.3466489   20.9966734   14.8696824
| 34>     H       15.8237094   19.4239892   14.2613486
| 35>     H       17.5382747   21.1997775   16.7254314
| 36>     H       18.9950123   18.3092670   19.1095402
| 37>     H       18.7266121   16.9279323   17.1315487
| 38>     H       18.5486277   14.9522870   18.4056792
| 39>     H       17.3317535   13.4891009   20.0048454
| 40>     H       15.1368921   14.2287580   20.9362306
| 41>     H       13.6628236   15.8524427   21.0218652
| 42>     H       15.4125831   17.9036667   18.7199904
| 43> *
| 44>
| 45>                          ****END OF INPUT****

CARTESIAN COORDINATES (ANGSTROEM)
---------------------------------
  C     14.848376   14.427099   16.512131
  C     15.088552   15.771205   15.804509
  O     16.448648   15.798915   15.336635
  C     17.035353   17.004294   15.082742
  O     17.426383   17.266587   13.960389
  C     17.127064   17.959224   16.238875
  C     17.146531   19.289877   15.973901
  C     16.671307   19.962697   14.702821
  N     17.615511   20.212183   16.910314
  C     18.319944   19.872217   18.032725
  S     18.966020   21.011863   19.042072
  N     18.486945   18.529826   18.262070
  C     17.831342   17.444249   17.507270
  C     17.049576   16.515760   18.422364
  C     17.591545   15.275437   18.807316
  C     16.906482   14.448423   19.714045
  C     15.671214   14.866091   20.239103
  C     15.136920   16.107437   19.867051
  O     13.947905   16.516592   20.375723
  C     15.826042   16.933194   18.973264
  H     15.597021   14.245737   17.287520
  H     14.902866   13.602015   15.791309
  H     13.856810   14.409184   16.980151
  H     14.395888   15.885857   14.960280
  H     14.895506   16.585044   16.513277
  H     17.474314   19.975099   13.953980
  H     16.346649   20.996673   14.869682
  H     15.823709   19.423989   14.261349
  H     17.538275   21.199777   16.725431
  H     18.995012   18.309267   19.109540
  H     18.726612   16.927932   17.131549
  H     18.548628   14.952287   18.405679
  H     17.331754   13.489101   20.004845
  H     15.136892   14.228758   20.936231
  H     13.662824   15.852443   21.021865
  H     15.412583   17.903667   18.719990

 Total Charge           Charge          ....    0
 Multiplicity           Mult            ....    1
 Number of Electrons    NEL             ....  154
 Basis Dimension        Dim             ....  828

ORBITAL ENERGIES
----------------

  NO   OCC          E(Eh)            E(eV)
   0   2.0000     -91.890827     -2500.4765
   1   2.0000     -20.605428      -560.7022
   2   2.0000     -20.588538      -560.2426
   3   2.0000     -20.550475      -559.2069
   4   2.0000     -15.629322      -425.2955
   5   2.0000     -15.610245      -424.7764
   6   2.0000     -11.392349      -310.0016
   7   2.0000     -11.385515      -309.8156
   8   2.0000     -11.334854      -308.4371
   9   2.0000     -11.323194      -308.1198
  10   2.0000     -11.315757      -307.9174
  11   2.0000     -11.297555      -307.4221
  12   2.0000     -11.269703      -306.6642
  13   2.0000     -11.263735      -306.5018
  14   2.0000     -11.258361      -306.3556
  15   2.0000     -11.255060      -306.2658
  16   2.0000     -11.252839      -306.2053
  17   2.0000     -11.248172      -306.0783
  18   2.0000     -11.248006      -306.0738
  19   2.0000     -11.223222      -305.3994
  20   2.0000      -8.895882      -242.0693
  21   2.0000      -6.577451      -178.9815
  22   2.0000      -6.575455      -178.9272
  23   2.0000      -6.574862      -178.9111
  24   2.0000      -1.447174       -39.3796
  25   2.0000      -1.425134       -38.7799
  26   2.0000      -1.357095       -36.9284
  27   2.0000      -1.342265       -36.5249
  28   2.0000      -1.241359       -33.7791
  29   2.0000      -1.166115       -31.7316
  30   2.0000      -1.124200       -30.5910
  31   2.0000      -1.050245       -28.5786
  32   2.0000      -1.033027       -28.1101
  33   2.0000      -1.024388       -27.8750
  34   2.0000      -1.002469       -27.2786
  35   2.0000      -0.988484       -26.8980
  36   2.0000      -0.927080       -25.2271
  37   2.0000      -0.876093       -23.8397
  38   2.0000      -0.852106       -23.1870
  39   2.0000      -0.845463       -23.0062
  40   2.0000      -0.842454       -22.9243
  41   2.0000      -0.835264       -22.7287
  42   2.0000      -0.761722       -20.7275
  43   2.0000      -0.740060       -20.1381
  44   2.0000      -0.726666       -19.7736
  45   2.0000      -0.704196       -19.1621
  46   2.0000      -0.692145       -18.8342
  47   2.0000      -0.681324       -18.5398
  48   2.0000      -0.674971       -18.3669
  49   2.0000      -0.659765       -17.9531
  50   2.0000      -0.649269       -17.6675
  51   2.0000      -0.642499       -17.4833
  52   2.0000      -0.634443       -17.2641
  53   2.0000      -0.619930       -16.8691
  54   2.0000      -0.615107       -16.7379
  55   2.0000      -0.606804       -16.5120
  56   2.0000      -0.603090       -16.4109
  57   2.0000      -0.584233       -15.8978
  58   2.0000      -0.575508       -15.6604
  59   2.0000      -0.567609       -15.4454
  60   2.0000      -0.555730       -15.1222
  61   2.0000      -0.544640       -14.8204
  62   2.0000      -0.536158       -14.5896
  63   2.0000      -0.531153       -14.4534
  64   2.0000      -0.525057       -14.2875
  65   2.0000      -0.516152       -14.0452
  66   2.0000      -0.505604       -13.7582
  67   2.0000      -0.497480       -13.5371
  68   2.0000      -0.487764       -13.2727
  69   2.0000      -0.464658       -12.6440
  70   2.0000      -0.457995       -12.4627
  71   2.0000      -0.450112       -12.2482
  72   2.0000      -0.358939        -9.7672
  73   2.0000      -0.353745        -9.6259
  74   2.0000      -0.332693        -9.0530
  75   2.0000      -0.328636        -8.9426
  76   2.0000      -0.320945        -8.7334
  77   0.0000       0.077119         2.0985
  78   0.0000       0.095488         2.5984
  79   0.0000       0.119066         3.2400
  80   0.0000       0.126460         3.4412
  81   0.0000       0.127414         3.4671

MULLIKEN ATOMIC CHARGES
-----------------------
   0 C :   -0.289518
   1 C :    0.019621
   2 O :   -0.337132
   3 C :    0.426438
   4 O :   -0.369259
   5 C :   -0.280304
   6 C :    0.173685
   7 C :   -0.272282
   8 N :   -0.130837
   9 C :    0.211635
  10 S :   -0.440159
  11 N :   -0.213754
  12 C :    0.052309
  13 C :    0.017554
  14 C :   -0.180704
  15 C :   -0.132831
  16 C :   -0.269018
  17 C :    0.318788
  18 O :   -0.359035
  19 C :   -0.249085
  20 H :    0.112449
  21 H :    0.111292
  22 H :    0.090865
  23 H :    0.111834
  24 H :    0.097362
  25 H :    0.140946
  26 H :    0.096136
  27 H :    0.118538
  28 H :    0.199272
  29 H :    0.201573
  30 H :    0.152856
  31 H :    0.153943
  32 H :    0.165829
  33 H :    0.134455
  34 H :    0.242869
  35 H :    0.173668
Sum of atomic charges:   -0.0000000

LOEWDIN ATOMIC CHARGES
----------------------
   0 C :    0.111194
   1 C :   -0.024193
   2 O :    0.300220
   3 C :   -0.424404
   4 O :    0.129644
   5 C :   -0.103483
   6 C :   -0.067386
   7 C :    0.128976
   8 N :    0.406807
   9 C :   -0.455793
  10 S :   -0.034527
  11 N :    0.395215
  12 C :   -0.054549
  13 C :   -0.040569
  14 C :    0.016680
  15 C :    0.044114
  16 C :    0.003847
  17 C :   -0.189920
  18 O :    0.396578
  19 C :    0.036133
  20 H :   -0.027584
  21 H :   -0.027121
  22 H :   -0.025808
  23 H :   -0.031968
  24 H :   -0.041697
  25 H :   -0.004032
  26 H :   -0.021860
  27 H :   -0.008372
  28 H :   -0.056375
  29 H :   -0.063900
  30 H :   -0.011167
  31 H :   -0.027417
  32 H :   -0.019062
  33 H :   -0.033475
  34 H :   -0.151765
  35 H :   -0.022980

  Mayer bond orders larger than 0.100000
B(  0-C ,  1-C ) :   0.9765 B(  0-C , 20-H ) :   0.9712 B(  0-C , 21-H ) :   0.9808
B(  0-C , 22-H ) :   0.9756 B(  1-C ,  2-O ) :   0.8986 B(  1-C , 23-H ) :   0.9790
B(  1-C , 24-H ) :   0.9613 B(  2-O ,  3-C ) :   1.1479 B(  3-C ,  4-O ) :   2.1136
B(  3-C ,  5-C ) :   0.9778 B(  5-C ,  6-C ) :   1.6523 B(  5-C , 12-C ) :   0.9708
B(  6-C ,  7-C ) :   0.9563 B(  6-C ,  8-N ) :   1.1478 B(  7-C , 25-H ) :   0.9547
B(  7-C , 26-H ) :   0.9849 B(  7-C , 27-H ) :   0.9737 B(  8-N ,  9-C ) :   1.1921
B(  8-N , 28-H ) :   0.9486 B(  9-C , 10-S ) :   1.6084 B(  9-C , 11-N ) :   1.3020
B( 11-N , 12-C ) :   0.9616 B( 11-N , 29-H ) :   0.9475 B( 12-C , 13-C ) :   0.9676
B( 12-C , 30-H ) :   1.0076 B( 13-C , 14-C ) :   1.3581 B( 13-C , 19-C ) :   1.3511
B( 14-C , 15-C ) :   1.3839 B( 14-C , 31-H ) :   0.9736 B( 15-C , 16-C ) :   1.3667
B( 15-C , 32-H ) :   0.9702 B( 16-C , 17-C ) :   1.3288 B( 16-C , 33-H ) :   0.9838
B( 17-C , 18-O ) :   1.1060 B( 17-C , 19-C ) :   1.3636 B( 18-O , 34-H ) :   0.9780
B( 19-C , 35-H ) :   0.9587

MP2 TOTAL ENERGY:    -1274.324958964 Eh
FINAL SINGLE POINT ENERGY     -1274.324958963663

DIPOLE MOMENT
-------------
                                X             Y             Z
Electronic contribution:      9.02447       9.88121       4.38280
Nuclear contribution   :    -10.51909     -11.22176      -3.91761
                        -----------------------------------------
Total Dipole Moment    :     -1.49462      -1.34055       0.46519
                        -----------------------------------------
Magnitude (a.u.)       :      2.06091
Magnitude (Debye)      :      5.23842

Rotational constants in cm-1:     0.012664     0.008699     0.006148
Rotational constants in MHz :   379.669188   260.788639   184.298561

                             ****ORCA TERMINATED NORMALLY****
TOTAL RUN TIME: 0 days 1 hours 49 minutes 12 seconds 22 msec
