                         Program Version 4.2.0 -  RELEASE  -
|  1> ! ri-mp2 cc-pvtz cc-pvtz/c TightSCF NoKeepInts
|  2>
|  3> %scf
|  4>   MaxCore 4096
|  5> end
|  6> *xyz  0  1
|  7>     C       14.8203081   14.8611988   16.5267696
|  8>     C       15.5835555   15.1790750   15.2320329
|  9>     O       16.8692320   15.7508559   15.5453328
| 10>     C       17.0615919   17.0458989   15.1712936
| 11>     O       17.0464126   17.3570771   13.9934349
| 12>     C       17.0734989   18.0163833   16.3205126
| 13>     C       16.9488120   19.3474420   16.0789098
| 14>     C       16.4091065   20.0031584   14.8243118
| 15>     N       17.3140295   20.2949035   17.0372519
| 16>     C       18.0395608   20.0116719   18.1617982
| 17>     S       18.5535474   21.1957657   19.1957130
| 18>     N       18.3422703   18.6907107   18.3727707
| 19>     C       17.8109919   17.5565614   17.5921411
| 20>     C       17.0986588   16.5429942   18.4751180
| 21>     C       17.6330016   15.2547008   18.6618435
| 22>     C       17.0063616   14.3410229   19.5263478
| 23>     C       15.8382773   14.7202079   20.2102190
| 24>     C       15.3098507   16.0064216   20.0322973
| 25>     O       14.1841760   16.3760228   20.6930911
| 26>     C       15.9387369   16.9155395   19.1756016
| 27>     H       15.4096782   14.2017997   17.1738500
| 28>     H       13.8749286   14.3548720   16.2980241
| 29>     H       14.5853186   15.7808312   17.0738307
| 30>     H       15.7353450   14.2486299   14.6697582
| 31>     H       14.9853857   15.8536397   14.6032722
| 32>     H       15.5443460   19.4511375   14.4352735
| 33>     H       17.1732083   20.0129695   14.0361728
| 34>     H       16.0834046   21.0368130   14.9905142
| 35>     H       17.1289611   21.2715137   16.8725403
| 36>     H       18.8585704   18.5085360   19.2243047
| 37>     H       18.7593442   17.1359232   17.2285648
| 38>     H       18.5358708   14.9603204   18.1331261
| 39>     H       17.4251211   13.3453531   19.6626096
| 40>     H       15.3498567   14.0173621   20.8771753
| 41>     H       13.9290583   15.6398157   21.2693451
| 42>     H       15.5266221   17.9128710   19.0628473
| 43> *
| 44>
| 45>                          ****END OF INPUT****

CARTESIAN COORDINATES (ANGSTROEM)
---------------------------------
  C     14.820308   14.861199   16.526770
  C     15.583555   15.179075   15.232033
  O     16.869232   15.750856   15.545333
  C     17.061592   17.045899   15.171294
  O     17.046413   17.357077   13.993435
  C     17.073499   18.016383   16.320513
  C     16.948812   19.347442   16.078910
  C     16.409107   20.003158   14.824312
  N     17.314030   20.294903   17.037252
  C     18.039561   20.011672   18.161798
  S     18.553547   21.195766   19.195713
  N     18.342270   18.690711   18.372771
  C     17.810992   17.556561   17.592141
  C     17.098659   16.542994   18.475118
  C     17.633002   15.254701   18.661843
  C     17.006362   14.341023   19.526348
  C     15.838277   14.720208   20.210219
  C     15.309851   16.006422   20.032297
  O     14.184176   16.376023   20.693091
  C     15.938737   16.915540   19.175602
  H     15.409678   14.201800   17.173850
  H     13.874929   14.354872   16.298024
  H     14.585319   15.780831   17.073831
  H     15.735345   14.248630   14.669758
  H     14.985386   15.853640   14.603272
  H     15.544346   19.451137   14.435273
  H     17.173208   20.012970   14.036173
  H     16.083405   21.036813   14.990514
  H     17.128961   21.271514   16.872540
  H     18.858570   18.508536   19.224305
  H     18.759344   17.135923   17.228565
  H     18.535871   14.960320   18.133126
  H     17.425121   13.345353   19.662610
  H     15.349857   14.017362   20.877175
  H     13.929058   15.639816   21.269345
  H     15.526622   17.912871   19.062847

 Total Charge           Charge          ....    0
 Multiplicity           Mult            ....    1
 Number of Electrons    NEL             ....  154
 Basis Dimension        Dim             ....  828

ORBITAL ENERGIES
----------------

  NO   OCC          E(Eh)            E(eV)
   0   2.0000     -91.890820     -2500.4763
   1   2.0000     -20.599503      -560.5410
   2   2.0000     -20.583995      -560.1190
   3   2.0000     -20.549097      -559.1694
   4   2.0000     -15.630658      -425.3318
   5   2.0000     -15.608928      -424.7405
   6   2.0000     -11.393014      -310.0197
   7   2.0000     -11.385073      -309.8036
   8   2.0000     -11.338399      -308.5335
   9   2.0000     -11.316561      -307.9393
  10   2.0000     -11.311762      -307.8087
  11   2.0000     -11.297052      -307.4084
  12   2.0000     -11.263531      -306.4963
  13   2.0000     -11.259353      -306.3826
  14   2.0000     -11.257476      -306.3315
  15   2.0000     -11.254063      -306.2386
  16   2.0000     -11.246654      -306.0370
  17   2.0000     -11.241435      -305.8950
  18   2.0000     -11.241111      -305.8862
  19   2.0000     -11.220247      -305.3184
  20   2.0000      -8.895863      -242.0687
  21   2.0000      -6.577428      -178.9809
  22   2.0000      -6.575437      -178.9268
  23   2.0000      -6.574839      -178.9105
  24   2.0000      -1.449585       -39.4452
  25   2.0000      -1.419236       -38.6194
  26   2.0000      -1.353839       -36.8398
  27   2.0000      -1.342555       -36.5328
  28   2.0000      -1.240650       -33.7598
  29   2.0000      -1.160061       -31.5669
  30   2.0000      -1.122699       -30.5502
  31   2.0000      -1.045294       -28.4439
  32   2.0000      -1.033324       -28.1182
  33   2.0000      -1.017983       -27.7007
  34   2.0000      -0.999820       -27.2065
  35   2.0000      -0.987054       -26.8591
  36   2.0000      -0.924366       -25.1533
  37   2.0000      -0.884614       -24.0716
  38   2.0000      -0.848307       -23.0836
  39   2.0000      -0.840963       -22.8838
  40   2.0000      -0.837096       -22.7785
  41   2.0000      -0.821312       -22.3490
  42   2.0000      -0.761489       -20.7212
  43   2.0000      -0.735780       -20.0216
  44   2.0000      -0.723166       -19.6783
  45   2.0000      -0.697887       -18.9905
  46   2.0000      -0.689015       -18.7491
  47   2.0000      -0.676771       -18.4159
  48   2.0000      -0.674107       -18.3434
  49   2.0000      -0.667649       -18.1676
  50   2.0000      -0.647726       -17.6255
  51   2.0000      -0.644657       -17.5420
  52   2.0000      -0.635748       -17.2996
  53   2.0000      -0.609610       -16.5883
  54   2.0000      -0.603517       -16.4225
  55   2.0000      -0.601576       -16.3697
  56   2.0000      -0.587837       -15.9959
  57   2.0000      -0.579404       -15.7664
  58   2.0000      -0.574943       -15.6450
  59   2.0000      -0.569985       -15.5101
  60   2.0000      -0.565716       -15.3939
  61   2.0000      -0.547742       -14.9048
  62   2.0000      -0.541308       -14.7297
  63   2.0000      -0.525560       -14.3012
  64   2.0000      -0.514776       -14.0078
  65   2.0000      -0.513666       -13.9776
  66   2.0000      -0.505262       -13.7489
  67   2.0000      -0.501159       -13.6372
  68   2.0000      -0.479981       -13.0609
  69   2.0000      -0.463476       -12.6118
  70   2.0000      -0.451659       -12.2903
  71   2.0000      -0.449697       -12.2369
  72   2.0000      -0.355277        -9.6676
  73   2.0000      -0.350767        -9.5449
  74   2.0000      -0.329781        -8.9738
  75   2.0000      -0.324096        -8.8191
  76   2.0000      -0.320435        -8.7195
  77   0.0000       0.071542         1.9468
  78   0.0000       0.100072         2.7231
  79   0.0000       0.121280         3.3002
  80   0.0000       0.130120         3.5407
  81   0.0000       0.132817         3.6141

MULLIKEN ATOMIC CHARGES
-----------------------
   0 C :   -0.308201
   1 C :    0.047928
   2 O :   -0.369935
   3 C :    0.441800
   4 O :   -0.394348
   5 C :   -0.229586
   6 C :    0.167497
   7 C :   -0.267996
   8 N :   -0.127679
   9 C :    0.207978
  10 S :   -0.437928
  11 N :   -0.210080
  12 C :    0.034598
  13 C :    0.043567
  14 C :   -0.163665
  15 C :   -0.150687
  16 C :   -0.267348
  17 C :    0.323749
  18 O :   -0.359369
  19 C :   -0.269506
  20 H :    0.107538
  21 H :    0.113443
  22 H :    0.103510
  23 H :    0.106373
  24 H :    0.091766
  25 H :    0.123540
  26 H :    0.136915
  27 H :    0.094695
  28 H :    0.200171
  29 H :    0.200856
  30 H :    0.151633
  31 H :    0.150538
  32 H :    0.165460
  33 H :    0.132734
  34 H :    0.241224
  35 H :    0.168816
Sum of atomic charges:   -0.0000000

LOEWDIN ATOMIC CHARGES
----------------------
   0 C :    0.104793
   1 C :   -0.015591
   2 O :    0.293120
   3 C :   -0.425975
   4 O :    0.118955
   5 C :   -0.102834
   6 C :   -0.056896
   7 C :    0.129698
   8 N :    0.407723
   9 C :   -0.457947
  10 S :   -0.033360
  11 N :    0.395813
  12 C :   -0.053660
  13 C :   -0.040288
  14 C :    0.019915
  15 C :    0.041166
  16 C :    0.000389
  17 C :   -0.190390
  18 O :    0.395958
  19 C :    0.034404
  20 H :   -0.025957
  21 H :   -0.027017
  22 H :   -0.030368
  23 H :   -0.026379
  24 H :   -0.028928
  25 H :   -0.006884
  26 H :   -0.004319
  27 H :   -0.022846
  28 H :   -0.056580
  29 H :   -0.063395
  30 H :   -0.012346
  31 H :   -0.027979
  32 H :   -0.020639
  33 H :   -0.034900
  34 H :   -0.153243
  35 H :   -0.023215

  Mayer bond orders larger than 0.100000
B(  0-C ,  1-C ) :   0.9719 B(  0-C , 20-H ) :   0.9711 B(  0-C , 21-H ) :   0.9783
B(  0-C , 22-H ) :   0.9729 B(  1-C ,  2-O ) :   0.8877 B(  1-C , 23-H ) :   0.9881
B(  1-C , 24-H ) :   0.9740 B(  2-O ,  3-C ) :   1.1127 B(  3-C ,  4-O ) :   2.0501
B(  3-C ,  5-C ) :   1.0423 B(  5-C ,  6-C ) :   1.6245 B(  5-C , 12-C ) :   0.9671
B(  6-C ,  7-C ) :   0.9637 B(  6-C ,  8-N ) :   1.1478 B(  7-C , 25-H ) :   0.9688
B(  7-C , 26-H ) :   0.9548 B(  7-C , 27-H ) :   0.9875 B(  8-N ,  9-C ) :   1.1866
B(  8-N , 28-H ) :   0.9475 B(  9-C , 10-S ) :   1.6125 B(  9-C , 11-N ) :   1.3036
B( 11-N , 12-C ) :   0.9736 B( 11-N , 29-H ) :   0.9482 B( 12-C , 13-C ) :   0.9572
B( 12-C , 30-H ) :   1.0050 B( 13-C , 14-C ) :   1.3580 B( 13-C , 19-C ) :   1.3598
B( 14-C , 15-C ) :   1.3928 B( 14-C , 31-H ) :   0.9718 B( 15-C , 16-C ) :   1.3552
B( 15-C , 32-H ) :   0.9706 B( 16-C , 17-C ) :   1.3330 B( 16-C , 33-H ) :   0.9842
B( 17-C , 18-O ) :   1.1049 B( 17-C , 19-C ) :   1.3571 B( 18-O , 34-H ) :   0.9793
B( 19-C , 35-H ) :   0.9614

MP2 TOTAL ENERGY:    -1274.323130350 Eh
FINAL SINGLE POINT ENERGY     -1274.323130349726

DIPOLE MOMENT
-------------
                                X             Y             Z
Electronic contribution:      8.56074      10.19267       5.73338
Nuclear contribution   :     -9.70056     -11.80443      -5.80658
                        -----------------------------------------
Total Dipole Moment    :     -1.13982      -1.61175      -0.07320
                        -----------------------------------------
Magnitude (a.u.)       :      1.97542
Magnitude (Debye)      :      5.02113

Rotational constants in cm-1:     0.012206     0.008957     0.006096
Rotational constants in MHz :   365.924813   268.536584   182.751373

                             ****ORCA TERMINATED NORMALLY****
TOTAL RUN TIME: 0 days 1 hours 44 minutes 11 seconds 776 msec
