                         Program Version 4.2.0 -  RELEASE  -
|  1> ! ri-mp2 cc-pvtz cc-pvtz/c TightSCF NoKeepInts
|  2>
|  3> %scf
|  4>   MaxCore 4096
|  5> end
|  6> *xyz  0  1
|  7>     C       14.4644506   15.1171045   14.9223725
|  8>     C       15.5970351   15.0984706   15.9689331
|  9>     O       16.7027715   15.9309178   15.5557904
| 10>     C       16.5119949   17.2680451   15.3553837
| 11>     O       15.9883641   17.6827818   14.3369646
| 12>     C       16.9491503   18.1204484   16.5198876
| 13>     C       16.9198828   19.4760042   16.4260493
| 14>     C       16.2068927   20.3104768   15.3816053
| 15>     N       17.5902410   20.2788395   17.3516871
| 16>     C       18.4873552   19.8126260   18.2732360
| 17>     S       19.3318600   20.8287949   19.2679704
| 18>     N       18.6685767   18.4539461   18.3127647
| 19>     C       17.8767682   17.4635447   17.5595591
| 20>     C       17.2086226   16.4472742   18.4744543
| 21>     C       17.7082463   15.1355328   18.5730312
| 22>     C       17.0867484   14.1975550   19.4144536
| 23>     C       15.9621041   14.5769874   20.1673414
| 24>     C       15.4699541   15.8865723   20.0790698
| 25>     O       14.3849064   16.2558277   20.8046300
| 26>     C       16.0886988   16.8171553   19.2384261
| 27>     H       13.9573273   16.0896573   14.9017513
| 28>     H       13.7137262   14.3532456   15.1577279
| 29>     H       14.8601692   14.9112409   13.9197340
| 30>     H       15.2003401   15.4344646   16.9352246
| 31>     H       15.9547203   14.0683750   16.0935521
| 32>     H       15.1718974   19.9691331   15.2522098
| 33>     H       16.7059165   20.2191947   14.4081876
| 34>     H       16.1667890   21.3760745   15.6363499
| 35>     H       17.4877996   21.2803809   17.3121071
| 36>     H       19.3179653   18.1374289   19.0218002
| 37>     H       18.6776827   16.9892473   16.9743528
| 38>     H       18.5760488   14.8405855   17.9884454
| 39>     H       17.4780059   13.1836942   19.4832602
| 40>     H       15.4799134   13.8563277   20.8199831
| 41>     H       14.1354037   15.5036237   21.3626390
| 42>     H       15.6986709   17.8284210   19.1870652
| 43> *
| 44>
| 45>                          ****END OF INPUT****

CARTESIAN COORDINATES (ANGSTROEM)
---------------------------------
  C     14.464451   15.117104   14.922372
  C     15.597035   15.098471   15.968933
  O     16.702772   15.930918   15.555790
  C     16.511995   17.268045   15.355384
  O     15.988364   17.682782   14.336965
  C     16.949150   18.120448   16.519888
  C     16.919883   19.476004   16.426049
  C     16.206893   20.310477   15.381605
  N     17.590241   20.278839   17.351687
  C     18.487355   19.812626   18.273236
  S     19.331860   20.828795   19.267970
  N     18.668577   18.453946   18.312765
  C     17.876768   17.463545   17.559559
  C     17.208623   16.447274   18.474454
  C     17.708246   15.135533   18.573031
  C     17.086748   14.197555   19.414454
  C     15.962104   14.576987   20.167341
  C     15.469954   15.886572   20.079070
  O     14.384906   16.255828   20.804630
  C     16.088699   16.817155   19.238426
  H     13.957327   16.089657   14.901751
  H     13.713726   14.353246   15.157728
  H     14.860169   14.911241   13.919734
  H     15.200340   15.434465   16.935225
  H     15.954720   14.068375   16.093552
  H     15.171897   19.969133   15.252210
  H     16.705917   20.219195   14.408188
  H     16.166789   21.376075   15.636350
  H     17.487800   21.280381   17.312107
  H     19.317965   18.137429   19.021800
  H     18.677683   16.989247   16.974353
  H     18.576049   14.840585   17.988445
  H     17.478006   13.183694   19.483260
  H     15.479913   13.856328   20.819983
  H     14.135404   15.503624   21.362639
  H     15.698671   17.828421   19.187065

 Total Charge           Charge          ....    0
 Multiplicity           Mult            ....    1
 Number of Electrons    NEL             ....  154
 Basis Dimension        Dim             ....  828

ORBITAL ENERGIES
----------------

  NO   OCC          E(Eh)            E(eV)
   0   2.0000     -91.890692     -2500.4729
   1   2.0000     -20.602114      -560.6120
   2   2.0000     -20.581938      -560.0630
   3   2.0000     -20.545915      -559.0828
   4   2.0000     -15.631087      -425.3435
   5   2.0000     -15.608789      -424.7367
   6   2.0000     -11.392953      -310.0180
   7   2.0000     -11.385039      -309.8027
   8   2.0000     -11.339408      -308.5610
   9   2.0000     -11.320006      -308.0330
  10   2.0000     -11.310386      -307.7712
  11   2.0000     -11.297068      -307.4089
  12   2.0000     -11.265723      -306.5559
  13   2.0000     -11.261152      -306.4315
  14   2.0000     -11.259036      -306.3739
  15   2.0000     -11.253138      -306.2135
  16   2.0000     -11.249733      -306.1208
  17   2.0000     -11.244359      -305.9746
  18   2.0000     -11.243930      -305.9629
  19   2.0000     -11.218806      -305.2792
  20   2.0000      -8.895748      -242.0656
  21   2.0000      -6.577315      -178.9779
  22   2.0000      -6.575322      -178.9236
  23   2.0000      -6.574726      -178.9074
  24   2.0000      -1.444206       -39.2988
  25   2.0000      -1.421841       -38.6902
  26   2.0000      -1.352460       -36.8023
  27   2.0000      -1.342588       -36.5337
  28   2.0000      -1.240608       -33.7587
  29   2.0000      -1.162873       -31.6434
  30   2.0000      -1.122347       -30.5406
  31   2.0000      -1.046926       -28.4883
  32   2.0000      -1.030174       -28.0325
  33   2.0000      -1.020876       -27.7795
  34   2.0000      -0.998399       -27.1678
  35   2.0000      -0.986537       -26.8450
  36   2.0000      -0.924833       -25.1660
  37   2.0000      -0.886571       -24.1248
  38   2.0000      -0.849621       -23.1194
  39   2.0000      -0.842830       -22.9346
  40   2.0000      -0.839610       -22.8469
  41   2.0000      -0.826079       -22.4788
  42   2.0000      -0.751185       -20.4408
  43   2.0000      -0.736750       -20.0480
  44   2.0000      -0.717570       -19.5261
  45   2.0000      -0.700288       -19.0558
  46   2.0000      -0.689837       -18.7714
  47   2.0000      -0.678635       -18.4666
  48   2.0000      -0.668789       -18.1987
  49   2.0000      -0.663865       -18.0647
  50   2.0000      -0.649525       -17.6745
  51   2.0000      -0.646155       -17.5828
  52   2.0000      -0.637828       -17.3562
  53   2.0000      -0.612175       -16.6581
  54   2.0000      -0.608207       -16.5501
  55   2.0000      -0.602673       -16.3996
  56   2.0000      -0.600155       -16.3311
  57   2.0000      -0.581300       -15.8180
  58   2.0000      -0.571791       -15.5592
  59   2.0000      -0.569037       -15.4843
  60   2.0000      -0.559749       -15.2315
  61   2.0000      -0.542659       -14.7665
  62   2.0000      -0.536034       -14.5862
  63   2.0000      -0.528109       -14.3706
  64   2.0000      -0.521495       -14.1906
  65   2.0000      -0.515469       -14.0266
  66   2.0000      -0.502784       -13.6814
  67   2.0000      -0.494659       -13.4604
  68   2.0000      -0.481125       -13.0921
  69   2.0000      -0.464123       -12.6294
  70   2.0000      -0.456396       -12.4192
  71   2.0000      -0.442056       -12.0290
  72   2.0000      -0.355825        -9.6825
  73   2.0000      -0.354069        -9.6347
  74   2.0000      -0.330501        -8.9934
  75   2.0000      -0.327037        -8.8991
  76   2.0000      -0.320239        -8.7141
  77   0.0000       0.071272         1.9394
  78   0.0000       0.098420         2.6781
  79   0.0000       0.122926         3.3450
  80   0.0000       0.129150         3.5144
  81   0.0000       0.131668         3.5829

MULLIKEN ATOMIC CHARGES
-----------------------
   0 C :   -0.271414
   1 C :    0.023177
   2 O :   -0.383580
   3 C :    0.484807
   4 O :   -0.405107
   5 C :   -0.285612
   6 C :    0.183936
   7 C :   -0.265808
   8 N :   -0.127265
   9 C :    0.210571
  10 S :   -0.439467
  11 N :   -0.214761
  12 C :    0.067090
  13 C :   -0.017271
  14 C :   -0.143433
  15 C :   -0.138053
  16 C :   -0.272633
  17 C :    0.309681
  18 O :   -0.356542
  19 C :   -0.234180
  20 H :    0.097769
  21 H :    0.093333
  22 H :    0.107089
  23 H :    0.101671
  24 H :    0.105952
  25 H :    0.129748
  26 H :    0.133327
  27 H :    0.094288
  28 H :    0.199813
  29 H :    0.200960
  30 H :    0.152427
  31 H :    0.152330
  32 H :    0.164567
  33 H :    0.134129
  34 H :    0.241620
  35 H :    0.166840
Sum of atomic charges:    0.0000000

LOEWDIN ATOMIC CHARGES
----------------------
   0 C :    0.105258
   1 C :   -0.022019
   2 O :    0.287283
   3 C :   -0.418407
   4 O :    0.119607
   5 C :   -0.102517
   6 C :   -0.053589
   7 C :    0.130986
   8 N :    0.407802
   9 C :   -0.457264
  10 S :   -0.034420
  11 N :    0.394755
  12 C :   -0.054604
  13 C :   -0.040959
  14 C :    0.020013
  15 C :    0.041838
  16 C :   -0.000229
  17 C :   -0.191610
  18 O :    0.396371
  19 C :    0.031370
  20 H :   -0.029397
  21 H :   -0.029166
  22 H :   -0.022772
  23 H :   -0.033121
  24 H :   -0.023185
  25 H :   -0.005201
  26 H :   -0.003988
  27 H :   -0.023447
  28 H :   -0.056665
  29 H :   -0.064151
  30 H :   -0.011834
  31 H :   -0.027352
  32 H :   -0.019785
  33 H :   -0.034180
  34 H :   -0.152683
  35 H :   -0.022737

  Mayer bond orders larger than 0.100000
B(  0-C ,  1-C ) :   0.9837 B(  0-C , 20-H ) :   0.9736 B(  0-C , 21-H ) :   0.9758
B(  0-C , 22-H ) :   0.9763 B(  1-C ,  2-O ) :   0.8916 B(  1-C , 23-H ) :   0.9660
B(  1-C , 24-H ) :   0.9796 B(  2-O ,  3-C ) :   1.0838 B(  3-C ,  4-O ) :   2.0217
B(  3-C ,  5-C ) :   1.0685 B(  5-C ,  6-C ) :   1.6304 B(  5-C , 12-C ) :   0.9542
B(  6-C ,  7-C ) :   0.9666 B(  6-C ,  8-N ) :   1.1561 B(  7-C , 25-H ) :   0.9637
B(  7-C , 26-H ) :   0.9559 B(  7-C , 27-H ) :   0.9894 B(  8-N ,  9-C ) :   1.1857
B(  8-N , 28-H ) :   0.9463 B(  9-C , 10-S ) :   1.6081 B(  9-C , 11-N ) :   1.3094
B( 11-N , 12-C ) :   0.9634 B( 11-N , 29-H ) :   0.9486 B( 12-C , 13-C ) :   0.9686
B( 12-C , 30-H ) :   1.0010 B( 13-C , 14-C ) :   1.3532 B( 13-C , 19-C ) :   1.3741
B( 14-C , 15-C ) :   1.3917 B( 14-C , 31-H ) :   0.9743 B( 15-C , 16-C ) :   1.3603
B( 15-C , 32-H ) :   0.9697 B( 16-C , 17-C ) :   1.3317 B( 16-C , 33-H ) :   0.9837
B( 17-C , 18-O ) :   1.1074 B( 17-C , 19-C ) :   1.3644 B( 18-O , 34-H ) :   0.9788
B( 19-C , 35-H ) :   0.9596

MP2 TOTAL ENERGY:    -1274.326890361 Eh
FINAL SINGLE POINT ENERGY     -1274.326890360841

DIPOLE MOMENT
-------------
                                X             Y             Z
Electronic contribution:      9.82676       9.38391       7.90677
Nuclear contribution   :    -10.87468     -10.99986      -7.73651
                        -----------------------------------------
Total Dipole Moment    :     -1.04793      -1.61595       0.17027
                        -----------------------------------------
Magnitude (a.u.)       :      1.93351
Magnitude (Debye)      :      4.91459

Rotational constants in cm-1:     0.011922     0.008765     0.006037
Rotational constants in MHz :   357.418631   262.770585   180.972416

                             ****ORCA TERMINATED NORMALLY****
TOTAL RUN TIME: 0 days 1 hours 44 minutes 16 seconds 742 msec
