                         Program Version 4.2.0 -  RELEASE  -
|  1> ! ri-mp2 cc-pvtz cc-pvtz/c TightSCF NoKeepInts
|  2>
|  3> %scf
|  4>   MaxCore 4096
|  5> end
|  6> *xyz  0  1
|  7>     C       14.2802027   16.4095830   15.4507227
|  8>     C       15.3520522   15.4602085   16.0231867
|  9>     O       16.6082256   15.6503358   15.3361898
| 10>     C       17.3170329   16.8232189   15.2983693
| 11>     O       18.0845191   17.0616442   14.3846413
| 12>     C       17.1048265   17.7825447   16.4240369
| 13>     C       16.8479144   19.0734966   16.1073049
| 14>     C       16.3786440   19.5791569   14.7594304
| 15>     N       17.0480981   20.1030374   17.0279368
| 16>     C       17.7515275   19.9580429   18.1938907
| 17>     S       18.0675735   21.2384999   19.1914250
| 18>     N       18.2066356   18.6941575   18.4789929
| 19>     C       17.8541055   17.4722440   17.7285403
| 20>     C       17.2751660   16.3644423   18.5927606
| 21>     C       17.7874674   15.0567515   18.5099231
| 22>     C       17.2439842   14.0275569   19.2967048
| 23>     C       16.1828416   14.3094168   20.1742635
| 24>     C       15.6734137   15.6123651   20.2609525
| 25>     O       14.6448856   15.8858126   21.1019121
| 26>     C       16.2140038   16.6347689   19.4745057
| 27>     H       14.4356575   17.4411323   15.7843564
| 28>     H       13.2839571   16.1008367   15.7904697
| 29>     H       14.2860427   16.3868195   14.3534900
| 30>     H       15.4384900   15.6088792   17.1014929
| 31>     H       15.0256648   14.4242494   15.8645358
| 32>     H       15.7817377   18.8276227   14.2289462
| 33>     H       17.2416364   19.8132383   14.1220242
| 34>     H       15.7631115   20.4825554   14.8457582
| 35>     H       16.7660888   21.0436196   16.8012965
| 36>     H       18.7195673   18.6153283   19.3484157
| 37>     H       18.8604462   17.1754000   17.3976716
| 38>     H       18.6033952   14.8351053   17.8257699
| 39>     H       17.6451362   13.0176942   19.2245702
| 40>     H       15.7606828   13.5170007   20.7839336
| 41>     H       14.4471074   15.0759624   21.5965052
| 42>     H       15.8051587   17.6372716   19.5530740
| 43> *
| 44>
| 45>                          ****END OF INPUT****

CARTESIAN COORDINATES (ANGSTROEM)
---------------------------------
  C     14.280203   16.409583   15.450723
  C     15.352052   15.460209   16.023187
  O     16.608226   15.650336   15.336190
  C     17.317033   16.823219   15.298369
  O     18.084519   17.061644   14.384641
  C     17.104827   17.782545   16.424037
  C     16.847914   19.073497   16.107305
  C     16.378644   19.579157   14.759430
  N     17.048098   20.103037   17.027937
  C     17.751528   19.958043   18.193891
  S     18.067574   21.238500   19.191425
  N     18.206636   18.694157   18.478993
  C     17.854105   17.472244   17.728540
  C     17.275166   16.364442   18.592761
  C     17.787467   15.056752   18.509923
  C     17.243984   14.027557   19.296705
  C     16.182842   14.309417   20.174263
  C     15.673414   15.612365   20.260952
  O     14.644886   15.885813   21.101912
  C     16.214004   16.634769   19.474506
  H     14.435657   17.441132   15.784356
  H     13.283957   16.100837   15.790470
  H     14.286043   16.386820   14.353490
  H     15.438490   15.608879   17.101493
  H     15.025665   14.424249   15.864536
  H     15.781738   18.827623   14.228946
  H     17.241636   19.813238   14.122024
  H     15.763112   20.482555   14.845758
  H     16.766089   21.043620   16.801296
  H     18.719567   18.615328   19.348416
  H     18.860446   17.175400   17.397672
  H     18.603395   14.835105   17.825770
  H     17.645136   13.017694   19.224570
  H     15.760683   13.517001   20.783934
  H     14.447107   15.075962   21.596505
  H     15.805159   17.637272   19.553074

 Total Charge           Charge          ....    0
 Multiplicity           Mult            ....    1
 Number of Electrons    NEL             ....  154
 Basis Dimension        Dim             ....  828

ORBITAL ENERGIES
----------------

  NO   OCC          E(Eh)            E(eV)
   0   2.0000     -91.890111     -2500.4571
   1   2.0000     -20.604960      -560.6895
   2   2.0000     -20.596688      -560.4644
   3   2.0000     -20.551405      -559.2321
   4   2.0000     -15.626628      -425.2222
   5   2.0000     -15.610982      -424.7964
   6   2.0000     -11.396952      -310.1268
   7   2.0000     -11.385474      -309.8145
   8   2.0000     -11.328841      -308.2734
   9   2.0000     -11.323633      -308.1317
  10   2.0000     -11.317034      -307.9521
  11   2.0000     -11.300628      -307.5057
  12   2.0000     -11.270486      -306.6855
  13   2.0000     -11.264666      -306.5271
  14   2.0000     -11.257453      -306.3309
  15   2.0000     -11.257411      -306.3297
  16   2.0000     -11.253156      -306.2140
  17   2.0000     -11.247963      -306.0726
  18   2.0000     -11.247808      -306.0684
  19   2.0000     -11.232828      -305.6608
  20   2.0000      -8.895187      -242.0503
  21   2.0000      -6.576761      -178.9628
  22   2.0000      -6.574759      -178.9083
  23   2.0000      -6.574171      -178.8923
  24   2.0000      -1.445202       -39.3260
  25   2.0000      -1.424714       -38.7684
  26   2.0000      -1.359278       -36.9878
  27   2.0000      -1.340234       -36.4696
  28   2.0000      -1.240080       -33.7443
  29   2.0000      -1.166897       -31.7529
  30   2.0000      -1.125535       -30.6274
  31   2.0000      -1.051463       -28.6118
  32   2.0000      -1.035999       -28.1910
  33   2.0000      -1.024933       -27.8898
  34   2.0000      -1.004056       -27.3217
  35   2.0000      -0.989958       -26.9381
  36   2.0000      -0.927441       -25.2369
  37   2.0000      -0.895931       -24.3795
  38   2.0000      -0.851537       -23.1715
  39   2.0000      -0.844673       -22.9847
  40   2.0000      -0.843283       -22.9469
  41   2.0000      -0.832112       -22.6429
  42   2.0000      -0.754391       -20.5280
  43   2.0000      -0.739638       -20.1266
  44   2.0000      -0.720740       -19.6123
  45   2.0000      -0.703301       -19.1378
  46   2.0000      -0.692952       -18.8562
  47   2.0000      -0.680129       -18.5073
  48   2.0000      -0.677259       -18.4291
  49   2.0000      -0.666032       -18.1236
  50   2.0000      -0.650896       -17.7118
  51   2.0000      -0.647559       -17.6210
  52   2.0000      -0.635382       -17.2896
  53   2.0000      -0.622133       -16.9291
  54   2.0000      -0.613520       -16.6947
  55   2.0000      -0.608069       -16.5464
  56   2.0000      -0.604405       -16.4467
  57   2.0000      -0.584365       -15.9014
  58   2.0000      -0.578754       -15.7487
  59   2.0000      -0.566923       -15.4268
  60   2.0000      -0.561972       -15.2920
  61   2.0000      -0.551026       -14.9942
  62   2.0000      -0.542735       -14.7686
  63   2.0000      -0.535577       -14.5738
  64   2.0000      -0.528904       -14.3922
  65   2.0000      -0.518017       -14.0960
  66   2.0000      -0.505807       -13.7637
  67   2.0000      -0.504241       -13.7211
  68   2.0000      -0.486418       -13.2361
  69   2.0000      -0.465466       -12.6660
  70   2.0000      -0.453887       -12.3509
  71   2.0000      -0.449396       -12.2287
  72   2.0000      -0.358218        -9.7476
  73   2.0000      -0.352600        -9.5947
  74   2.0000      -0.332097        -9.0368
  75   2.0000      -0.328938        -8.9509
  76   2.0000      -0.319908        -8.7051
  77   0.0000       0.085015         2.3134
  78   0.0000       0.096563         2.6276
  79   0.0000       0.121024         3.2932
  80   0.0000       0.126422         3.4401
  81   0.0000       0.128732         3.5030

MULLIKEN ATOMIC CHARGES
-----------------------
   0 C :   -0.325243
   1 C :    0.039561
   2 O :   -0.324682
   3 C :    0.419076
   4 O :   -0.373822
   5 C :   -0.216189
   6 C :    0.141390
   7 C :   -0.292781
   8 N :   -0.134740
   9 C :    0.212323
  10 S :   -0.440894
  11 N :   -0.218089
  12 C :    0.023219
  13 C :    0.009901
  14 C :   -0.197343
  15 C :   -0.132000
  16 C :   -0.270907
  17 C :    0.306020
  18 O :   -0.353936
  19 C :   -0.230094
  20 H :    0.102578
  21 H :    0.111542
  22 H :    0.112370
  23 H :    0.101973
  24 H :    0.122919
  25 H :    0.116506
  26 H :    0.149726
  27 H :    0.101971
  28 H :    0.198053
  29 H :    0.201711
  30 H :    0.163234
  31 H :    0.159900
  32 H :    0.165592
  33 H :    0.135411
  34 H :    0.241776
  35 H :    0.173969
Sum of atomic charges:   -0.0000000

LOEWDIN ATOMIC CHARGES
----------------------
   0 C :    0.102059
   1 C :   -0.016771
   2 O :    0.301865
   3 C :   -0.419728
   4 O :    0.126891
   5 C :   -0.093550
   6 C :   -0.083195
   7 C :    0.128498
   8 N :    0.405518
   9 C :   -0.455612
  10 S :   -0.036105
  11 N :    0.395896
  12 C :   -0.054789
  13 C :   -0.047233
  14 C :    0.019336
  15 C :    0.045329
  16 C :    0.001935
  17 C :   -0.191399
  18 O :    0.397439
  19 C :    0.029847
  20 H :   -0.035465
  21 H :   -0.023541
  22 H :   -0.025930
  23 H :   -0.037133
  24 H :   -0.020071
  25 H :   -0.011145
  26 H :   -0.003295
  27 H :   -0.019885
  28 H :   -0.057485
  29 H :   -0.063863
  30 H :   -0.008713
  31 H :   -0.025327
  32 H :   -0.017865
  33 H :   -0.033306
  34 H :   -0.152134
  35 H :   -0.021073

  Mayer bond orders larger than 0.100000
B(  0-C ,  1-C ) :   0.9612 B(  0-C , 20-H ) :   0.9732 B(  0-C , 21-H ) :   0.9778
B(  0-C , 22-H ) :   0.9755 B(  1-C ,  2-O ) :   0.8960 B(  1-C , 23-H ) :   0.9606
B(  1-C , 24-H ) :   0.9837 B(  2-O ,  3-C ) :   1.1772 B(  3-C ,  4-O ) :   2.1199
B(  3-C ,  5-C ) :   0.9155 B(  5-C ,  6-C ) :   1.7029 B(  5-C , 12-C ) :   0.9597
B(  6-C ,  7-C ) :   0.9469 B(  6-C ,  8-N ) :   1.1240 B(  7-C , 25-H ) :   0.9770
B(  7-C , 26-H ) :   0.9576 B(  7-C , 27-H ) :   0.9818 B(  8-N ,  9-C ) :   1.1994
B(  8-N , 28-H ) :   0.9494 B(  9-C , 10-S ) :   1.6123 B(  9-C , 11-N ) :   1.2866
B( 11-N , 12-C ) :   0.9793 B( 11-N , 29-H ) :   0.9462 B( 12-C , 13-C ) :   0.9592
B( 12-C , 30-H ) :   1.0033 B( 13-C , 14-C ) :   1.3764 B( 13-C , 19-C ) :   1.3559
B( 14-C , 15-C ) :   1.3943 B( 14-C , 31-H ) :   0.9685 B( 15-C , 16-C ) :   1.3631
B( 15-C , 32-H ) :   0.9692 B( 16-C , 17-C ) :   1.3304 B( 16-C , 33-H ) :   0.9831
B( 17-C , 18-O ) :   1.1121 B( 17-C , 19-C ) :   1.3609 B( 18-O , 34-H ) :   0.9786
B( 19-C , 35-H ) :   0.9579

MP2 TOTAL ENERGY:    -1274.322887505 Eh
FINAL SINGLE POINT ENERGY     -1274.322887505156

DIPOLE MOMENT
-------------
                                X             Y             Z
Electronic contribution:      9.44152       6.53949       7.59384
Nuclear contribution   :    -10.94793      -8.24791      -7.41134
                        -----------------------------------------
Total Dipole Moment    :     -1.50640      -1.70842       0.18250
                        -----------------------------------------
Magnitude (a.u.)       :      2.28501
Magnitude (Debye)      :      5.80803

Rotational constants in cm-1:     0.011817     0.009108     0.006297
Rotational constants in MHz :   354.271357   273.059883   188.775110

                             ****ORCA TERMINATED NORMALLY****
TOTAL RUN TIME: 0 days 1 hours 46 minutes 2 seconds 167 msec
