                         Program Version 4.2.0 -  RELEASE  -
|  1> ! ri-mp2 cc-pvtz cc-pvtz/c TightSCF NoKeepInts
|  2>
|  3> %scf
|  4>   MaxCore 4096
|  5> end
|  6> *xyz  0  1
|  7>     C       14.9721658   14.5250032   14.7985249
|  8>     C       14.6706971   16.0314970   14.6506836
|  9>     O       15.8334596   16.8861943   14.7773922
| 10>     C       16.8352422   16.6827957   15.6867665
| 11>     O       17.4321287   15.6260473   15.8008021
| 12>     C       17.0651247   17.8360837   16.6221531
| 13>     C       16.8889442   19.1319822   16.2508983
| 14>     C       16.2466720   19.6596648   14.9828428
| 15>     N       17.3670510   20.1736813   17.0501334
| 16>     C       18.2160201   20.0097152   18.1111961
| 17>     S       18.8281358   21.2994398   18.9462874
| 18>     N       18.5492891   18.7182444   18.4314927
| 19>     C       17.9547508   17.5096477   17.8283440
| 20>     C       17.2810296   16.5979365   18.8455677
| 21>     C       17.6407154   15.2416055   18.9415917
| 22>     C       17.0165145   14.4011142   19.8785096
| 23>     C       16.0247605   14.9218636   20.7273823
| 24>     C       15.6626972   16.2726571   20.6321006
| 25>     O       14.7017847   16.7768299   21.4467971
| 26>     C       16.2851866   17.1064915   19.6976445
| 27>     H       15.7918399   14.2235111   14.1339829
| 28>     H       14.0877172   13.9321849   14.5363741
| 29>     H       15.2456837   14.2731119   15.8310204
| 30>     H       14.2064095   16.2110844   13.6724720
| 31>     H       13.9365057   16.3109029   15.4176147
| 32>     H       15.1797601   19.4066213   14.9532924
| 33>     H       16.7232478   19.2258591   14.0945881
| 34>     H       16.3265661   20.7493932   14.8867597
| 35>     H       17.1505916   21.1285470   16.8129549
| 36>     H       19.1613166   18.6230444   19.2320763
| 37>     H       18.8556497   17.0315708   17.4165463
| 38>     H       18.3969114   14.8349832   18.2739333
| 39>     H       17.2991909   13.3516838   19.9392993
| 40>     H       15.5393241   14.2759276   21.4513164
| 41>     H       14.4201796   16.0631812   22.0386327
| 42>     H       15.9937366   18.1498984   19.6400260
| 43> *
| 44>
| 45>                          ****END OF INPUT****

CARTESIAN COORDINATES (ANGSTROEM)
---------------------------------
  C     14.972166   14.525003   14.798525
  C     14.670697   16.031497   14.650684
  O     15.833460   16.886194   14.777392
  C     16.835242   16.682796   15.686766
  O     17.432129   15.626047   15.800802
  C     17.065125   17.836084   16.622153
  C     16.888944   19.131982   16.250898
  C     16.246672   19.659665   14.982843
  N     17.367051   20.173681   17.050133
  C     18.216020   20.009715   18.111196
  S     18.828136   21.299440   18.946287
  N     18.549289   18.718244   18.431493
  C     17.954751   17.509648   17.828344
  C     17.281030   16.597936   18.845568
  C     17.640715   15.241606   18.941592
  C     17.016514   14.401114   19.878510
  C     16.024760   14.921864   20.727382
  C     15.662697   16.272657   20.632101
  O     14.701785   16.776830   21.446797
  C     16.285187   17.106492   19.697644
  H     15.791840   14.223511   14.133983
  H     14.087717   13.932185   14.536374
  H     15.245684   14.273112   15.831020
  H     14.206409   16.211084   13.672472
  H     13.936506   16.310903   15.417615
  H     15.179760   19.406621   14.953292
  H     16.723248   19.225859   14.094588
  H     16.326566   20.749393   14.886760
  H     17.150592   21.128547   16.812955
  H     19.161317   18.623044   19.232076
  H     18.855650   17.031571   17.416546
  H     18.396911   14.834983   18.273933
  H     17.299191   13.351684   19.939299
  H     15.539324   14.275928   21.451316
  H     14.420180   16.063181   22.038633
  H     15.993737   18.149898   19.640026

 Total Charge           Charge          ....    0
 Multiplicity           Mult            ....    1
 Number of Electrons    NEL             ....  154
 Basis Dimension        Dim             ....  828

ORBITAL ENERGIES
----------------

  NO   OCC          E(Eh)            E(eV)
   0   2.0000     -91.888066     -2500.4014
   1   2.0000     -20.593198      -560.3694
   2   2.0000     -20.591742      -560.3298
   3   2.0000     -20.548708      -559.1588
   4   2.0000     -15.628476      -425.2724
   5   2.0000     -15.605751      -424.6541
   6   2.0000     -11.396921      -310.1260
   7   2.0000     -11.382631      -309.7371
   8   2.0000     -11.337616      -308.5122
   9   2.0000     -11.309334      -307.7426
  10   2.0000     -11.307213      -307.6849
  11   2.0000     -11.304008      -307.5977
  12   2.0000     -11.259424      -306.3845
  13   2.0000     -11.258779      -306.3669
  14   2.0000     -11.256414      -306.3026
  15   2.0000     -11.249467      -306.1136
  16   2.0000     -11.239533      -305.8432
  17   2.0000     -11.235567      -305.7353
  18   2.0000     -11.232298      -305.6464
  19   2.0000     -11.223857      -305.4167
  20   2.0000      -8.893153      -241.9950
  21   2.0000      -6.574730      -178.9075
  22   2.0000      -6.572727      -178.8530
  23   2.0000      -6.572139      -178.8370
  24   2.0000      -1.446270       -39.3550
  25   2.0000      -1.412947       -38.4482
  26   2.0000      -1.357092       -36.9284
  27   2.0000      -1.339757       -36.4566
  28   2.0000      -1.236977       -33.6599
  29   2.0000      -1.153575       -31.3904
  30   2.0000      -1.120417       -30.4881
  31   2.0000      -1.042664       -28.3723
  32   2.0000      -1.033359       -28.1191
  33   2.0000      -1.011224       -27.5168
  34   2.0000      -0.998786       -27.1783
  35   2.0000      -0.983581       -26.7646
  36   2.0000      -0.921386       -25.0722
  37   2.0000      -0.893402       -24.3107
  38   2.0000      -0.848485       -23.0885
  39   2.0000      -0.836552       -22.7637
  40   2.0000      -0.829520       -22.5724
  41   2.0000      -0.821518       -22.3546
  42   2.0000      -0.744615       -20.2620
  43   2.0000      -0.728259       -19.8169
  44   2.0000      -0.725864       -19.7518
  45   2.0000      -0.691031       -18.8039
  46   2.0000      -0.684321       -18.6213
  47   2.0000      -0.679564       -18.4919
  48   2.0000      -0.673238       -18.3197
  49   2.0000      -0.666044       -18.1240
  50   2.0000      -0.646103       -17.5814
  51   2.0000      -0.643591       -17.5130
  52   2.0000      -0.633663       -17.2428
  53   2.0000      -0.608934       -16.5699
  54   2.0000      -0.603602       -16.4248
  55   2.0000      -0.599277       -16.3072
  56   2.0000      -0.596569       -16.2335
  57   2.0000      -0.575013       -15.6469
  58   2.0000      -0.572811       -15.5870
  59   2.0000      -0.570686       -15.5292
  60   2.0000      -0.558085       -15.1863
  61   2.0000      -0.547421       -14.8961
  62   2.0000      -0.537655       -14.6303
  63   2.0000      -0.526114       -14.3163
  64   2.0000      -0.516748       -14.0614
  65   2.0000      -0.510480       -13.8909
  66   2.0000      -0.497651       -13.5418
  67   2.0000      -0.493456       -13.4276
  68   2.0000      -0.479317       -13.0429
  69   2.0000      -0.462885       -12.5958
  70   2.0000      -0.456380       -12.4187
  71   2.0000      -0.446726       -12.1560
  72   2.0000      -0.352803        -9.6002
  73   2.0000      -0.345807        -9.4099
  74   2.0000      -0.327191        -8.9033
  75   2.0000      -0.317283        -8.6337
  76   2.0000      -0.316051        -8.6002
  77   0.0000       0.074624         2.0306
  78   0.0000       0.109224         2.9721
  79   0.0000       0.121647         3.3102
  80   0.0000       0.134740         3.6665
  81   0.0000       0.138074         3.7572

MULLIKEN ATOMIC CHARGES
-----------------------
   0 C :   -0.282605
   1 C :    0.042889
   2 O :   -0.378041
   3 C :    0.440858
   4 O :   -0.403539
   5 C :   -0.175889
   6 C :    0.156021
   7 C :   -0.281121
   8 N :   -0.128382
   9 C :    0.206999
  10 S :   -0.442514
  11 N :   -0.211677
  12 C :    0.043271
  13 C :    0.032246
  14 C :   -0.177938
  15 C :   -0.134292
  16 C :   -0.277769
  17 C :    0.314109
  18 O :   -0.358691
  19 C :   -0.253094
  20 H :    0.110677
  21 H :    0.095211
  22 H :    0.109413
  23 H :    0.100245
  24 H :    0.084903
  25 H :    0.124506
  26 H :    0.128166
  27 H :    0.102634
  28 H :    0.198779
  29 H :    0.199837
  30 H :    0.157122
  31 H :    0.162668
  32 H :    0.161183
  33 H :    0.128976
  34 H :    0.240133
  35 H :    0.164706
Sum of atomic charges:   -0.0000000

LOEWDIN ATOMIC CHARGES
----------------------
   0 C :    0.104686
   1 C :   -0.014598
   2 O :    0.288359
   3 C :   -0.413179
   4 O :    0.123034
   5 C :   -0.094980
   6 C :   -0.064746
   7 C :    0.125178
   8 N :    0.405453
   9 C :   -0.458568
  10 S :   -0.037812
  11 N :    0.396269
  12 C :   -0.048596
  13 C :   -0.041131
  14 C :    0.023679
  15 C :    0.040327
  16 C :   -0.001375
  17 C :   -0.192721
  18 O :    0.393206
  19 C :    0.029155
  20 H :   -0.022724
  21 H :   -0.028124
  22 H :   -0.025782
  23 H :   -0.023842
  24 H :   -0.032892
  25 H :   -0.010203
  26 H :   -0.007974
  27 H :   -0.021155
  28 H :   -0.058677
  29 H :   -0.063377
  30 H :   -0.008108
  31 H :   -0.023624
  32 H :   -0.020794
  33 H :   -0.036015
  34 H :   -0.154654
  35 H :   -0.023695

  Mayer bond orders larger than 0.100000
B(  0-C ,  1-C ) :   0.9816 B(  0-C , 20-H ) :   0.9729 B(  0-C , 21-H ) :   0.9727
B(  0-C , 22-H ) :   0.9726 B(  1-C ,  2-O ) :   0.9095 B(  1-C , 23-H ) :   0.9797
B(  1-C , 24-H ) :   0.9750 B(  2-O ,  3-C ) :   1.0692 B(  3-C ,  4-O ) :   2.0146
B(  3-C ,  5-C ) :   1.0314 B(  5-C ,  6-C ) :   1.6654 B(  5-C , 12-C ) :   0.9491
B(  6-C ,  7-C ) :   0.9534 B(  6-C ,  8-N ) :   1.1354 B(  7-C , 25-H ) :   0.9652
B(  7-C , 26-H ) :   0.9647 B(  7-C , 27-H ) :   0.9909 B(  8-N ,  9-C ) :   1.1860
B(  8-N , 28-H ) :   0.9470 B(  9-C , 10-S ) :   1.6084 B(  9-C , 11-N ) :   1.3054
B( 11-N , 12-C ) :   0.9760 B( 11-N , 29-H ) :   0.9486 B( 12-C , 13-C ) :   0.9701
B( 12-C , 30-H ) :   0.9964 B( 13-C , 14-C ) :   1.3762 B( 13-C , 19-C ) :   1.3650
B( 14-C , 15-C ) :   1.3961 B( 14-C , 31-H ) :   0.9627 B( 15-C , 16-C ) :   1.3591
B( 15-C , 32-H ) :   0.9708 B( 16-C , 17-C ) :   1.3330 B( 16-C , 33-H ) :   0.9857
B( 17-C , 18-O ) :   1.1043 B( 17-C , 19-C ) :   1.3668 B( 18-O , 34-H ) :   0.9804
B( 19-C , 35-H ) :   0.9598

MP2 TOTAL ENERGY:    -1274.325996025 Eh
FINAL SINGLE POINT ENERGY     -1274.325996024527

DIPOLE MOMENT
-------------
                                X             Y             Z
Electronic contribution:      9.28905      10.56091       9.91884
Nuclear contribution   :    -10.87975     -11.77922     -10.82439
                        -----------------------------------------
Total Dipole Moment    :     -1.59069      -1.21831      -0.90555
                        -----------------------------------------
Magnitude (a.u.)       :      2.19877
Magnitude (Debye)      :      5.58884

Rotational constants in cm-1:     0.010370     0.009158     0.005758
Rotational constants in MHz :   310.877567   274.550477   172.610003

                             ****ORCA TERMINATED NORMALLY****
TOTAL RUN TIME: 0 days 1 hours 41 minutes 33 seconds 962 msec
