                         Program Version 4.2.0 -  RELEASE  -
|  1> ! ri-mp2 cc-pvtz cc-pvtz/c TightSCF NoKeepInts
|  2>
|  3> %scf
|  4>   MaxCore 4096
|  5> end
|  6> *xyz  0  1
|  7>     C       15.2342407   14.6488646   13.9248554
|  8>     C       14.5243387   15.8990804   14.4891368
|  9>     O       15.4180627   16.8820655   15.0686336
| 10>     C       16.4865979   16.6118484   15.8837883
| 11>     O       16.9919634   15.5099067   16.0078378
| 12>     C       16.9026422   17.7713072   16.7466136
| 13>     C       16.7961931   19.0654387   16.3420096
| 14>     C       16.0713408   19.6079822   15.1255037
| 15>     N       17.4390302   20.0879739   17.0448043
| 16>     C       18.3813729   19.8874175   18.0167319
| 17>     S       19.1845336   21.1468195   18.7270382
| 18>     N       18.6411169   18.5835356   18.3532492
| 19>     C       17.8862486   17.4117053   17.8687844
| 20>     C       17.2577438   16.5974375   18.9921331
| 21>     C       17.5291675   15.2233542   19.1207302
| 22>     C       16.9508343   14.4746432   20.1594611
| 23>     C       16.0948827   15.1059363   21.0782624
| 24>     C       15.8211812   16.4748101   20.9511630
| 25>     O       14.9919832   17.0859064   21.8345671
| 26>     C       16.3979759   17.2171913   19.9157333
| 27>     H       16.1283460   14.9288063   13.3539589
| 28>     H       14.5607765   14.1012850   13.2547445
| 29>     H       15.5278624   13.9591109   14.7256774
| 30>     H       13.9544479   16.3798031   13.6837292
| 31>     H       13.8032452   15.5732242   15.2502318
| 32>     H       14.9907845   19.4381219   15.2106967
| 33>     H       16.4219661   19.1149430   14.2101732
| 34>     H       16.2215087   20.6854009   14.9851891
| 35>     H       17.2750517   21.0495643   16.7933837
| 36>     H       19.3247290   18.4626294   19.0898247
| 37>     H       18.6960230   16.8448303   17.3866831
| 38>     H       18.1790336   14.7317751   18.4005299
| 39>     H       17.1629617   13.4104550   20.2447472
| 40>     H       15.6449529   14.5311720   21.8808070
| 41>     H       14.7167325   16.4194174   22.4816658
| 42>     H       16.1771279   18.2762365   19.8349206
| 43> *
| 44>
| 45>                          ****END OF INPUT****

CARTESIAN COORDINATES (ANGSTROEM)
---------------------------------
  C     15.234241   14.648865   13.924855
  C     14.524339   15.899080   14.489137
  O     15.418063   16.882065   15.068634
  C     16.486598   16.611848   15.883788
  O     16.991963   15.509907   16.007838
  C     16.902642   17.771307   16.746614
  C     16.796193   19.065439   16.342010
  C     16.071341   19.607982   15.125504
  N     17.439030   20.087974   17.044804
  C     18.381373   19.887418   18.016732
  S     19.184534   21.146819   18.727038
  N     18.641117   18.583536   18.353249
  C     17.886249   17.411705   17.868784
  C     17.257744   16.597438   18.992133
  C     17.529167   15.223354   19.120730
  C     16.950834   14.474643   20.159461
  C     16.094883   15.105936   21.078262
  C     15.821181   16.474810   20.951163
  O     14.991983   17.085906   21.834567
  C     16.397976   17.217191   19.915733
  H     16.128346   14.928806   13.353959
  H     14.560776   14.101285   13.254744
  H     15.527862   13.959111   14.725677
  H     13.954448   16.379803   13.683729
  H     13.803245   15.573224   15.250232
  H     14.990785   19.438122   15.210697
  H     16.421966   19.114943   14.210173
  H     16.221509   20.685401   14.985189
  H     17.275052   21.049564   16.793384
  H     19.324729   18.462629   19.089825
  H     18.696023   16.844830   17.386683
  H     18.179034   14.731775   18.400530
  H     17.162962   13.410455   20.244747
  H     15.644953   14.531172   21.880807
  H     14.716733   16.419417   22.481666
  H     16.177128   18.276236   19.834921

 Total Charge           Charge          ....    0
 Multiplicity           Mult            ....    1
 Number of Electrons    NEL             ....  154
 Basis Dimension        Dim             ....  828

ORBITAL ENERGIES
----------------

  NO   OCC          E(Eh)            E(eV)
   0   2.0000     -91.887017     -2500.3728
   1   2.0000     -20.600682      -560.5730
   2   2.0000     -20.591249      -560.3164
   3   2.0000     -20.545225      -559.0640
   4   2.0000     -15.627062      -425.2340
   5   2.0000     -15.604775      -424.6275
   6   2.0000     -11.398428      -310.1670
   7   2.0000     -11.381497      -309.7063
   8   2.0000     -11.336132      -308.4718
   9   2.0000     -11.307241      -307.6857
  10   2.0000     -11.306236      -307.6583
  11   2.0000     -11.303323      -307.5791
  12   2.0000     -11.259652      -306.3907
  13   2.0000     -11.257982      -306.3453
  14   2.0000     -11.254423      -306.2484
  15   2.0000     -11.247412      -306.0576
  16   2.0000     -11.237539      -305.7890
  17   2.0000     -11.233515      -305.6795
  18   2.0000     -11.230399      -305.5947
  19   2.0000     -11.223884      -305.4174
  20   2.0000      -8.892112      -241.9667
  21   2.0000      -6.573693      -178.8793
  22   2.0000      -6.571687      -178.8247
  23   2.0000      -6.571102      -178.8088
  24   2.0000      -1.447308       -39.3833
  25   2.0000      -1.410991       -38.3950
  26   2.0000      -1.357840       -36.9487
  27   2.0000      -1.338678       -36.4273
  28   2.0000      -1.235957       -33.6321
  29   2.0000      -1.151643       -31.3378
  30   2.0000      -1.119399       -30.4604
  31   2.0000      -1.042004       -28.3544
  32   2.0000      -1.033941       -28.1350
  33   2.0000      -1.009241       -27.4629
  34   2.0000      -0.997285       -27.1375
  35   2.0000      -0.982200       -26.7270
  36   2.0000      -0.920204       -25.0400
  37   2.0000      -0.895391       -24.3648
  38   2.0000      -0.847123       -23.0514
  39   2.0000      -0.834704       -22.7135
  40   2.0000      -0.827531       -22.5183
  41   2.0000      -0.818285       -22.2667
  42   2.0000      -0.745564       -20.2878
  43   2.0000      -0.728770       -19.8308
  44   2.0000      -0.725006       -19.7284
  45   2.0000      -0.690055       -18.7773
  46   2.0000      -0.684331       -18.6216
  47   2.0000      -0.678866       -18.4729
  48   2.0000      -0.668324       -18.1860
  49   2.0000      -0.666910       -18.1475
  50   2.0000      -0.643846       -17.5199
  51   2.0000      -0.642652       -17.4875
  52   2.0000      -0.632558       -17.2128
  53   2.0000      -0.604235       -16.4421
  54   2.0000      -0.598358       -16.2821
  55   2.0000      -0.596844       -16.2409
  56   2.0000      -0.594282       -16.1712
  57   2.0000      -0.587668       -15.9913
  58   2.0000      -0.571882       -15.5617
  59   2.0000      -0.568913       -15.4809
  60   2.0000      -0.559220       -15.2172
  61   2.0000      -0.545053       -14.8316
  62   2.0000      -0.537661       -14.6305
  63   2.0000      -0.523350       -14.2411
  64   2.0000      -0.515158       -14.0182
  65   2.0000      -0.510125       -13.8812
  66   2.0000      -0.499262       -13.5856
  67   2.0000      -0.493315       -13.4238
  68   2.0000      -0.479594       -13.0504
  69   2.0000      -0.461803       -12.5663
  70   2.0000      -0.456460       -12.4209
  71   2.0000      -0.445610       -12.1257
  72   2.0000      -0.351827        -9.5737
  73   2.0000      -0.343865        -9.3570
  74   2.0000      -0.326174        -8.8756
  75   2.0000      -0.316210        -8.6045
  76   2.0000      -0.313930        -8.5425
  77   0.0000       0.078698         2.1415
  78   0.0000       0.112185         3.0527
  79   0.0000       0.121478         3.3056
  80   0.0000       0.136213         3.7066
  81   0.0000       0.139657         3.8003

MULLIKEN ATOMIC CHARGES
-----------------------
   0 C :   -0.290048
   1 C :    0.048451
   2 O :   -0.358197
   3 C :    0.414613
   4 O :   -0.422236
   5 C :   -0.143371
   6 C :    0.154029
   7 C :   -0.282104
   8 N :   -0.128909
   9 C :    0.207784
  10 S :   -0.444183
  11 N :   -0.210879
  12 C :    0.038019
  13 C :    0.033488
  14 C :   -0.169785
  15 C :   -0.134662
  16 C :   -0.277216
  17 C :    0.313956
  18 O :   -0.358949
  19 C :   -0.249967
  20 H :    0.098097
  21 H :    0.094589
  22 H :    0.121462
  23 H :    0.097230
  24 H :    0.089657
  25 H :    0.129353
  26 H :    0.123122
  27 H :    0.101944
  28 H :    0.198534
  29 H :    0.199756
  30 H :    0.155883
  31 H :    0.159448
  32 H :    0.159694
  33 H :    0.128026
  34 H :    0.239778
  35 H :    0.163594
Sum of atomic charges:    0.0000000

LOEWDIN ATOMIC CHARGES
----------------------
   0 C :    0.102504
   1 C :   -0.010036
   2 O :    0.294043
   3 C :   -0.412545
   4 O :    0.114635
   5 C :   -0.090224
   6 C :   -0.065425
   7 C :    0.124528
   8 N :    0.405013
   9 C :   -0.458838
  10 S :   -0.039040
  11 N :    0.396430
  12 C :   -0.048153
  13 C :   -0.040345
  14 C :    0.024175
  15 C :    0.040570
  16 C :   -0.001355
  17 C :   -0.192392
  18 O :    0.393124
  19 C :    0.030003
  20 H :   -0.025931
  21 H :   -0.029328
  22 H :   -0.025320
  23 H :   -0.025061
  24 H :   -0.028831
  25 H :   -0.009476
  26 H :   -0.010041
  27 H :   -0.021401
  28 H :   -0.059024
  29 H :   -0.063230
  30 H :   -0.008628
  31 H :   -0.024168
  32 H :   -0.021240
  33 H :   -0.036277
  34 H :   -0.154981
  35 H :   -0.023735

  Mayer bond orders larger than 0.100000
B(  0-C ,  1-C ) :   0.9717 B(  0-C , 20-H ) :   0.9754 B(  0-C , 21-H ) :   0.9752
B(  0-C , 22-H ) :   0.9719 B(  1-C ,  2-O ) :   0.9070 B(  1-C , 23-H ) :   0.9831
B(  1-C , 24-H ) :   0.9799 B(  2-O ,  3-C ) :   1.1225 B(  3-C ,  4-O ) :   1.9817
B(  3-C ,  5-C ) :   1.0497 B(  5-C ,  6-C ) :   1.6582 B(  5-C , 12-C ) :   0.9470
B(  6-C ,  7-C ) :   0.9543 B(  6-C ,  8-N ) :   1.1316 B(  7-C , 25-H ) :   0.9631
B(  7-C , 26-H ) :   0.9660 B(  7-C , 27-H ) :   0.9917 B(  8-N ,  9-C ) :   1.1870
B(  8-N , 28-H ) :   0.9472 B(  9-C , 10-S ) :   1.6065 B(  9-C , 11-N ) :   1.3061
B( 11-N , 12-C ) :   0.9763 B( 11-N , 29-H ) :   0.9486 B( 12-C , 13-C ) :   0.9741
B( 12-C , 30-H ) :   0.9969 B( 13-C , 14-C ) :   1.3761 B( 13-C , 19-C ) :   1.3667
B( 14-C , 15-C ) :   1.3972 B( 14-C , 31-H ) :   0.9637 B( 15-C , 16-C ) :   1.3589
B( 15-C , 32-H ) :   0.9713 B( 16-C , 17-C ) :   1.3332 B( 16-C , 33-H ) :   0.9861
B( 17-C , 18-O ) :   1.1034 B( 17-C , 19-C ) :   1.3673 B( 18-O , 34-H ) :   0.9808
B( 19-C , 35-H ) :   0.9600

MP2 TOTAL ENERGY:    -1274.331517229 Eh
FINAL SINGLE POINT ENERGY     -1274.331517229322

DIPOLE MOMENT
-------------
                                X             Y             Z
Electronic contribution:      8.83414      10.24551      12.01666
Nuclear contribution   :    -10.45758     -11.45856     -13.07472
                        -----------------------------------------
Total Dipole Moment    :     -1.62344      -1.21305      -1.05806
                        -----------------------------------------
Magnitude (a.u.)       :      2.28616
Magnitude (Debye)      :      5.81095

Rotational constants in cm-1:     0.009893     0.009018     0.005514
Rotational constants in MHz :   296.577053   270.366832   165.310354

                             ****ORCA TERMINATED NORMALLY****
TOTAL RUN TIME: 0 days 1 hours 54 minutes 28 seconds 181 msec
