                         Program Version 4.2.0 -  RELEASE  -
|  1> ! ri-mp2 cc-pvtz cc-pvtz/c TightSCF NoKeepInts
|  2>
|  3> %scf
|  4>   MaxCore 4096
|  5> end
|  6> *xyz  0  1
|  7>     C       13.9898908   15.8779073   15.3091148
|  8>     C       15.2686391   15.7147994   16.1473126
|  9>     O       16.3898159   15.9008989   15.2574410
| 10>     C       17.3042849   16.9196045   15.3433950
| 11>     O       18.1953091   17.0474557   14.5253226
| 12>     C       17.1358410   17.8746607   16.4730403
| 13>     C       16.8201266   19.1535718   16.1759846
| 14>     C       16.2723149   19.6271481   14.8477330
| 15>     N       17.0289046   20.1819639   17.0963007
| 16>     C       17.7719254   20.0417921   18.2397116
| 17>     S       18.0801313   21.3190067   19.2437783
| 18>     N       18.2683537   18.7865300   18.4999767
| 19>     C       17.9382877   17.5648384   17.7381430
| 20>     C       17.3858215   16.4180357   18.5702343
| 21>     C       17.8634278   15.1092769   18.3759889
| 22>     C       17.3363897   14.0402703   19.1195637
| 23>     C       16.3239819   14.2825821   20.0638347
| 24>     C       15.8463457   15.5858060   20.2587970
| 25>     O       14.8626319   15.8213739   21.1624448
| 26>     C       16.3707504   16.6480082   19.5152554
| 27>     H       13.9211637   16.8917930   14.8967754
| 28>     H       13.1006298   15.6965523   15.9250930
| 29>     H       13.9812227   15.1640711   14.4756495
| 30>     H       15.2426569   16.4258675   16.9795614
| 31>     H       15.3019976   14.7018763   16.5697173
| 32>     H       15.5068220   18.9396094   14.4676914
| 33>     H       17.0753026   19.6715675   14.0995074
| 34>     H       15.8170219   20.6227091   14.9118689
| 35>     H       16.7114071   21.1162770   16.8917252
| 36>     H       18.8106320   18.7132351   19.3519070
| 37>     H       18.9419289   17.2984804   17.3738932
| 38>     H       18.6405165   14.9185083   17.6390368
| 39>     H       17.7121948   13.0302980   18.9621573
| 40>     H       15.9142341   13.4593524   20.6402766
| 41>     H       14.6719009   14.9847472   21.6133973
| 42>     H       15.9841945   17.6495248   19.6763692
| 43> *
| 44>
| 45>                          ****END OF INPUT****

CARTESIAN COORDINATES (ANGSTROEM)
---------------------------------
  C     13.989891   15.877907   15.309115
  C     15.268639   15.714799   16.147313
  O     16.389816   15.900899   15.257441
  C     17.304285   16.919604   15.343395
  O     18.195309   17.047456   14.525323
  C     17.135841   17.874661   16.473040
  C     16.820127   19.153572   16.175985
  C     16.272315   19.627148   14.847733
  N     17.028905   20.181964   17.096301
  C     17.771925   20.041792   18.239712
  S     18.080131   21.319007   19.243778
  N     18.268354   18.786530   18.499977
  C     17.938288   17.564838   17.738143
  C     17.385821   16.418036   18.570234
  C     17.863428   15.109277   18.375989
  C     17.336390   14.040270   19.119564
  C     16.323982   14.282582   20.063835
  C     15.846346   15.585806   20.258797
  O     14.862632   15.821374   21.162445
  C     16.370750   16.648008   19.515255
  H     13.921164   16.891793   14.896775
  H     13.100630   15.696552   15.925093
  H     13.981223   15.164071   14.475649
  H     15.242657   16.425867   16.979561
  H     15.301998   14.701876   16.569717
  H     15.506822   18.939609   14.467691
  H     17.075303   19.671567   14.099507
  H     15.817022   20.622709   14.911869
  H     16.711407   21.116277   16.891725
  H     18.810632   18.713235   19.351907
  H     18.941929   17.298480   17.373893
  H     18.640517   14.918508   17.639037
  H     17.712195   13.030298   18.962157
  H     15.914234   13.459352   20.640277
  H     14.671901   14.984747   21.613397
  H     15.984194   17.649525   19.676369

 Total Charge           Charge          ....    0
 Multiplicity           Mult            ....    1
 Number of Electrons    NEL             ....  154
 Basis Dimension        Dim             ....  828

ORBITAL ENERGIES
----------------

  NO   OCC          E(Eh)            E(eV)
   0   2.0000     -91.889681     -2500.4454
   1   2.0000     -20.605454      -560.7029
   2   2.0000     -20.602272      -560.6163
   3   2.0000     -20.551388      -559.2317
   4   2.0000     -15.625870      -425.2015
   5   2.0000     -15.611166      -424.8014
   6   2.0000     -11.397947      -310.1539
   7   2.0000     -11.385564      -309.8169
   8   2.0000     -11.326265      -308.2033
   9   2.0000     -11.324105      -308.1446
  10   2.0000     -11.316725      -307.9437
  11   2.0000     -11.300429      -307.5003
  12   2.0000     -11.271400      -306.7104
  13   2.0000     -11.265263      -306.5434
  14   2.0000     -11.259281      -306.3806
  15   2.0000     -11.256612      -306.3080
  16   2.0000     -11.253224      -306.2158
  17   2.0000     -11.248313      -306.0822
  18   2.0000     -11.248023      -306.0743
  19   2.0000     -11.232666      -305.6564
  20   2.0000      -8.894767      -242.0389
  21   2.0000      -6.576345      -178.9514
  22   2.0000      -6.574338      -178.8968
  23   2.0000      -6.573754      -178.8809
  24   2.0000      -1.447015       -39.3753
  25   2.0000      -1.425172       -38.7809
  26   2.0000      -1.361722       -37.0543
  27   2.0000      -1.338967       -36.4351
  28   2.0000      -1.239159       -33.7192
  29   2.0000      -1.167515       -31.7697
  30   2.0000      -1.127010       -30.6675
  31   2.0000      -1.052449       -28.6386
  32   2.0000      -1.038421       -28.2569
  33   2.0000      -1.025579       -27.9074
  34   2.0000      -1.004431       -27.3320
  35   2.0000      -0.990117       -26.9424
  36   2.0000      -0.927787       -25.2464
  37   2.0000      -0.885946       -24.1078
  38   2.0000      -0.853155       -23.2155
  39   2.0000      -0.844986       -22.9932
  40   2.0000      -0.843483       -22.9523
  41   2.0000      -0.837560       -22.7912
  42   2.0000      -0.759376       -20.6637
  43   2.0000      -0.739872       -20.1329
  44   2.0000      -0.727639       -19.8001
  45   2.0000      -0.703680       -19.1481
  46   2.0000      -0.694314       -18.8933
  47   2.0000      -0.679201       -18.4820
  48   2.0000      -0.677630       -18.4392
  49   2.0000      -0.668433       -18.1890
  50   2.0000      -0.652480       -17.7549
  51   2.0000      -0.644500       -17.5377
  52   2.0000      -0.633839       -17.2476
  53   2.0000      -0.614903       -16.7324
  54   2.0000      -0.609885       -16.5958
  55   2.0000      -0.607947       -16.5431
  56   2.0000      -0.603715       -16.4279
  57   2.0000      -0.584562       -15.9067
  58   2.0000      -0.579351       -15.7649
  59   2.0000      -0.568508       -15.4699
  60   2.0000      -0.564574       -15.3628
  61   2.0000      -0.555656       -15.1202
  62   2.0000      -0.547364       -14.8945
  63   2.0000      -0.533525       -14.5180
  64   2.0000      -0.528427       -14.3792
  65   2.0000      -0.518386       -14.1060
  66   2.0000      -0.505367       -13.7517
  67   2.0000      -0.504612       -13.7312
  68   2.0000      -0.490088       -13.3360
  69   2.0000      -0.468252       -12.7418
  70   2.0000      -0.454602       -12.3703
  71   2.0000      -0.449542       -12.2327
  72   2.0000      -0.358436        -9.7536
  73   2.0000      -0.351783        -9.5725
  74   2.0000      -0.332476        -9.0471
  75   2.0000      -0.328736        -8.9454
  76   2.0000      -0.319051        -8.6818
  77   0.0000       0.088205         2.4002
  78   0.0000       0.096224         2.6184
  79   0.0000       0.120095         3.2679
  80   0.0000       0.126207         3.4343
  81   0.0000       0.128992         3.5101

MULLIKEN ATOMIC CHARGES
-----------------------
   0 C :   -0.264600
   1 C :    0.029427
   2 O :   -0.308983
   3 C :    0.408110
   4 O :   -0.383072
   5 C :   -0.217619
   6 C :    0.149581
   7 C :   -0.296962
   8 N :   -0.135368
   9 C :    0.215368
  10 S :   -0.441629
  11 N :   -0.225833
  12 C :    0.041690
  13 C :    0.005937
  14 C :   -0.198638
  15 C :   -0.142988
  16 C :   -0.269948
  17 C :    0.311824
  18 O :   -0.352705
  19 C :   -0.236005
  20 H :    0.086096
  21 H :    0.093665
  22 H :    0.107801
  23 H :    0.098835
  24 H :    0.115083
  25 H :    0.115264
  26 H :    0.145683
  27 H :    0.099593
  28 H :    0.197069
  29 H :    0.202211
  30 H :    0.166241
  31 H :    0.160400
  32 H :    0.166962
  33 H :    0.135631
  34 H :    0.241976
  35 H :    0.179906
Sum of atomic charges:   -0.0000000

LOEWDIN ATOMIC CHARGES
----------------------
   0 C :    0.105812
   1 C :   -0.018321
   2 O :    0.310901
   3 C :   -0.417965
   4 O :    0.123069
   5 C :   -0.093346
   6 C :   -0.091227
   7 C :    0.129665
   8 N :    0.403465
   9 C :   -0.453472
  10 S :   -0.037344
  11 N :    0.395400
  12 C :   -0.054340
  13 C :   -0.044078
  14 C :    0.018300
  15 C :    0.045500
  16 C :    0.000968
  17 C :   -0.190550
  18 O :    0.397458
  19 C :    0.030448
  20 H :   -0.032244
  21 H :   -0.025298
  22 H :   -0.023858
  23 H :   -0.039161
  24 H :   -0.025070
  25 H :   -0.012340
  26 H :   -0.003168
  27 H :   -0.019238
  28 H :   -0.059008
  29 H :   -0.064579
  30 H :   -0.006803
  31 H :   -0.024740
  32 H :   -0.017820
  33 H :   -0.033508
  34 H :   -0.152001
  35 H :   -0.021509

  Mayer bond orders larger than 0.100000
B(  0-C ,  1-C ) :   0.9792 B(  0-C , 20-H ) :   0.9786 B(  0-C , 21-H ) :   0.9767
B(  0-C , 22-H ) :   0.9795 B(  1-C ,  2-O ) :   0.8886 B(  1-C , 23-H ) :   0.9516
B(  1-C , 24-H ) :   0.9775 B(  2-O ,  3-C ) :   1.2035 B(  3-C ,  4-O ) :   2.1236
B(  3-C ,  5-C ) :   0.9053 B(  5-C ,  6-C ) :   1.7247 B(  5-C , 12-C ) :   0.9493
B(  6-C ,  7-C ) :   0.9359 B(  6-C ,  8-N ) :   1.1145 B(  7-C , 25-H ) :   0.9771
B(  7-C , 26-H ) :   0.9601 B(  7-C , 27-H ) :   0.9864 B(  8-N ,  9-C ) :   1.2017
B(  8-N , 28-H ) :   0.9492 B(  9-C , 10-S ) :   1.6112 B(  9-C , 11-N ) :   1.2836
B( 11-N , 12-C ) :   0.9792 B( 11-N , 29-H ) :   0.9462 B( 12-C , 13-C ) :   0.9627
B( 12-C , 30-H ) :   0.9995 B( 13-C , 14-C ) :   1.3712 B( 13-C , 19-C ) :   1.3465
B( 14-C , 15-C ) :   1.3999 B( 14-C , 31-H ) :   0.9713 B( 15-C , 16-C ) :   1.3615
B( 15-C , 32-H ) :   0.9691 B( 16-C , 17-C ) :   1.3288 B( 16-C , 33-H ) :   0.9831
B( 17-C , 18-O ) :   1.1134 B( 17-C , 19-C ) :   1.3629 B( 18-O , 34-H ) :   0.9784
B( 19-C , 35-H ) :   0.9552

MP2 TOTAL ENERGY:    -1274.325889802 Eh
FINAL SINGLE POINT ENERGY     -1274.325889801804

DIPOLE MOMENT
-------------
                                X             Y             Z
Electronic contribution:     10.25022       7.74126       7.88024
Nuclear contribution   :    -11.78360      -9.46296      -7.72097
                        -----------------------------------------
Total Dipole Moment    :     -1.53338      -1.72171       0.15928
                        -----------------------------------------
Magnitude (a.u.)       :      2.31104
Magnitude (Debye)      :      5.87419

Rotational constants in cm-1:     0.011605     0.009003     0.006241
Rotational constants in MHz :   347.896290   269.913873   187.100907

                             ****ORCA TERMINATED NORMALLY****
TOTAL RUN TIME: 0 days 1 hours 56 minutes 53 seconds 560 msec
