                         Program Version 4.2.0 -  RELEASE  -
|  1> ! ri-mp2 cc-pvtz cc-pvtz/c TightSCF NoKeepInts
|  2>
|  3> %scf
|  4>   MaxCore 4096
|  5> end
|  6> *xyz  0  1
|  7>     C       14.5584954   14.5182969   15.9390785
|  8>     C       15.0377405   15.9775728   16.0008246
|  9>     O       16.3093602   16.0401492   15.3291215
| 10>     C       16.9251907   17.2455541   15.1537421
| 11>     O       17.3456979   17.5810436   14.0621415
| 12>     C       17.0221881   18.1070448   16.3761605
| 13>     C       16.9192275   19.4496179   16.2274181
| 14>     C       16.3154934   20.1711252   15.0412578
| 15>     N       17.3864623   20.3273875   17.2067690
| 16>     C       18.1969729   19.9536005   18.2449878
| 17>     S       18.8227212   21.0545080   19.3084118
| 18>     N       18.4841069   18.6145959   18.3439265
| 19>     C       17.8627963   17.5458426   17.5365113
| 20>     C       17.2280239   16.4495325   18.3785829
| 21>     C       17.5752798   15.1014337   18.1751663
| 22>     C       16.9874686   14.0886263   18.9513262
| 23>     C       16.0473812   14.4270724   19.9396928
| 24>     C       15.7046279   15.7699677   20.1485275
| 25>     O       14.7946831   16.0995398   21.0989276
| 26>     C       16.2912387   16.7764903   19.3746792
| 27>     H       13.5758085   14.4146858   16.4146879
| 28>     H       15.2632060   13.8589534   16.4604673
| 29>     H       14.4756243   14.1819756   14.8979474
| 30>     H       14.3116852   16.6178502   15.4823262
| 31>     H       15.0960074   16.3051349   17.0424770
| 32>     H       15.4897184   19.5963111   14.6041417
| 33>     H       17.0690605   20.3072447   14.2541682
| 34>     H       15.9198319   21.1584950   15.3076092
| 35>     H       17.2208311   21.3172747   17.1157343
| 36>     H       19.0765732   18.3669407   19.1268494
| 37>     H       18.7660818   17.1482079   17.0510482
| 38>     H       18.2949617   14.8365157   17.4042200
| 39>     H       17.2595526   13.0476481   18.7838576
| 40>     H       15.5901234   13.6474712   20.5403965
| 41>     H       14.5470913   15.2850528   21.5624829
| 42>     H       16.0156866   17.8112364   19.5523328
| 43> *
| 44>
| 45>                          ****END OF INPUT****

CARTESIAN COORDINATES (ANGSTROEM)
---------------------------------
  C     14.558495   14.518297   15.939079
  C     15.037740   15.977573   16.000825
  O     16.309360   16.040149   15.329121
  C     16.925191   17.245554   15.153742
  O     17.345698   17.581044   14.062141
  C     17.022188   18.107045   16.376161
  C     16.919228   19.449618   16.227418
  C     16.315493   20.171125   15.041258
  N     17.386462   20.327388   17.206769
  C     18.196973   19.953601   18.244988
  S     18.822721   21.054508   19.308412
  N     18.484107   18.614596   18.343926
  C     17.862796   17.545843   17.536511
  C     17.228024   16.449533   18.378583
  C     17.575280   15.101434   18.175166
  C     16.987469   14.088626   18.951326
  C     16.047381   14.427072   19.939693
  C     15.704628   15.769968   20.148528
  O     14.794683   16.099540   21.098928
  C     16.291239   16.776490   19.374679
  H     13.575809   14.414686   16.414688
  H     15.263206   13.858953   16.460467
  H     14.475624   14.181976   14.897947
  H     14.311685   16.617850   15.482326
  H     15.096007   16.305135   17.042477
  H     15.489718   19.596311   14.604142
  H     17.069060   20.307245   14.254168
  H     15.919832   21.158495   15.307609
  H     17.220831   21.317275   17.115734
  H     19.076573   18.366941   19.126849
  H     18.766082   17.148208   17.051048
  H     18.294962   14.836516   17.404220
  H     17.259553   13.047648   18.783858
  H     15.590123   13.647471   20.540396
  H     14.547091   15.285053   21.562483
  H     16.015687   17.811236   19.552333

 Total Charge           Charge          ....    0
 Multiplicity           Mult            ....    1
 Number of Electrons    NEL             ....  154
 Basis Dimension        Dim             ....  828

ORBITAL ENERGIES
----------------

  NO   OCC          E(Eh)            E(eV)
   0   2.0000     -91.890982     -2500.4807
   1   2.0000     -20.603782      -560.6574
   2   2.0000     -20.592684      -560.3554
   3   2.0000     -20.552488      -559.2616
   4   2.0000     -15.628493      -425.2729
   5   2.0000     -15.611091      -424.7994
   6   2.0000     -11.393630      -310.0364
   7   2.0000     -11.386026      -309.8295
   8   2.0000     -11.332325      -308.3683
   9   2.0000     -11.322089      -308.0897
  10   2.0000     -11.316527      -307.9383
  11   2.0000     -11.298024      -307.4349
  12   2.0000     -11.269222      -306.6511
  13   2.0000     -11.263042      -306.4830
  14   2.0000     -11.257203      -306.3241
  15   2.0000     -11.255970      -306.2905
  16   2.0000     -11.251917      -306.1802
  17   2.0000     -11.246783      -306.0405
  18   2.0000     -11.246535      -306.0338
  19   2.0000     -11.228671      -305.5477
  20   2.0000      -8.896043      -242.0736
  21   2.0000      -6.577612      -178.9859
  22   2.0000      -6.575615      -178.9316
  23   2.0000      -6.575021      -178.9154
  24   2.0000      -1.448316       -39.4107
  25   2.0000      -1.423573       -38.7374
  26   2.0000      -1.360014       -37.0079
  27   2.0000      -1.341354       -36.5001
  28   2.0000      -1.240817       -33.7644
  29   2.0000      -1.165437       -31.7132
  30   2.0000      -1.124507       -30.5994
  31   2.0000      -1.050097       -28.5746
  32   2.0000      -1.035967       -28.1901
  33   2.0000      -1.023672       -27.8555
  34   2.0000      -1.002257       -27.2728
  35   2.0000      -0.989061       -26.9137
  36   2.0000      -0.926887       -25.2219
  37   2.0000      -0.876260       -23.8442
  38   2.0000      -0.852172       -23.1888
  39   2.0000      -0.844136       -22.9701
  40   2.0000      -0.842229       -22.9182
  41   2.0000      -0.837629       -22.7930
  42   2.0000      -0.761974       -20.7344
  43   2.0000      -0.739392       -20.1199
  44   2.0000      -0.727855       -19.8059
  45   2.0000      -0.702292       -19.1103
  46   2.0000      -0.691703       -18.8222
  47   2.0000      -0.681656       -18.5488
  48   2.0000      -0.675675       -18.3860
  49   2.0000      -0.659522       -17.9465
  50   2.0000      -0.651373       -17.7248
  51   2.0000      -0.649114       -17.6633
  52   2.0000      -0.639384       -17.3985
  53   2.0000      -0.614910       -16.7326
  54   2.0000      -0.609212       -16.5775
  55   2.0000      -0.604031       -16.4365
  56   2.0000      -0.600953       -16.3528
  57   2.0000      -0.582674       -15.8554
  58   2.0000      -0.575908       -15.6712
  59   2.0000      -0.566225       -15.4078
  60   2.0000      -0.556745       -15.1498
  61   2.0000      -0.548831       -14.9345
  62   2.0000      -0.544414       -14.8143
  63   2.0000      -0.529669       -14.4130
  64   2.0000      -0.521511       -14.1910
  65   2.0000      -0.517483       -14.0814
  66   2.0000      -0.508258       -13.8304
  67   2.0000      -0.502876       -13.6839
  68   2.0000      -0.485961       -13.2237
  69   2.0000      -0.467080       -12.7099
  70   2.0000      -0.457027       -12.4363
  71   2.0000      -0.452793       -12.3211
  72   2.0000      -0.357875        -9.7383
  73   2.0000      -0.352140        -9.5822
  74   2.0000      -0.330903        -9.0043
  75   2.0000      -0.328959        -8.9514
  76   2.0000      -0.320958        -8.7337
  77   0.0000       0.079832         2.1724
  78   0.0000       0.096610         2.6289
  79   0.0000       0.121028         3.2933
  80   0.0000       0.125424         3.4130
  81   0.0000       0.128053         3.4845

MULLIKEN ATOMIC CHARGES
-----------------------
   0 C :   -0.264810
   1 C :    0.012127
   2 O :   -0.324590
   3 C :    0.399547
   4 O :   -0.366722
   5 C :   -0.218889
   6 C :    0.144987
   7 C :   -0.276469
   8 N :   -0.131647
   9 C :    0.210346
  10 S :   -0.438430
  11 N :   -0.213886
  12 C :    0.035551
  13 C :   -0.006224
  14 C :   -0.157037
  15 C :   -0.161827
  16 C :   -0.262918
  17 C :    0.305238
  18 O :   -0.354626
  19 C :   -0.230600
  20 H :    0.089197
  21 H :    0.097487
  22 H :    0.107522
  23 H :    0.103336
  24 H :    0.112061
  25 H :    0.116790
  26 H :    0.141748
  27 H :    0.097539
  28 H :    0.198749
  29 H :    0.200881
  30 H :    0.157104
  31 H :    0.156081
  32 H :    0.170839
  33 H :    0.135462
  34 H :    0.241535
  35 H :    0.174550
Sum of atomic charges:   -0.0000000

LOEWDIN ATOMIC CHARGES
----------------------
   0 C :    0.111774
   1 C :   -0.024308
   2 O :    0.304206
   3 C :   -0.424976
   4 O :    0.129746
   5 C :   -0.099851
   6 C :   -0.073024
   7 C :    0.129365
   8 N :    0.406018
   9 C :   -0.456040
  10 S :   -0.034191
  11 N :    0.395511
  12 C :   -0.053470
  13 C :   -0.045040
  14 C :    0.021370
  15 C :    0.045058
  16 C :    0.001864
  17 C :   -0.192094
  18 O :    0.396913
  19 C :    0.031182
  20 H :   -0.025340
  21 H :   -0.028451
  22 H :   -0.024816
  23 H :   -0.034440
  24 H :   -0.038641
  25 H :   -0.009457
  26 H :   -0.003940
  27 H :   -0.021235
  28 H :   -0.056934
  29 H :   -0.063588
  30 H :   -0.010565
  31 H :   -0.026142
  32 H :   -0.019031
  33 H :   -0.033653
  34 H :   -0.152393
  35 H :   -0.021386

  Mayer bond orders larger than 0.100000
B(  0-C ,  1-C ) :   0.9826 B(  0-C , 20-H ) :   0.9768 B(  0-C , 21-H ) :   0.9756
B(  0-C , 22-H ) :   0.9783 B(  1-C ,  2-O ) :   0.8880 B(  1-C , 23-H ) :   0.9821
B(  1-C , 24-H ) :   0.9570 B(  2-O ,  3-C ) :   1.1656 B(  3-C ,  4-O ) :   2.1291
B(  3-C ,  5-C ) :   0.9438 B(  5-C ,  6-C ) :   1.6804 B(  5-C , 12-C ) :   0.9558
B(  6-C ,  7-C ) :   0.9519 B(  6-C ,  8-N ) :   1.1351 B(  7-C , 25-H ) :   0.9754
B(  7-C , 26-H ) :   0.9554 B(  7-C , 27-H ) :   0.9846 B(  8-N ,  9-C ) :   1.1944
B(  8-N , 28-H ) :   0.9489 B(  9-C , 10-S ) :   1.6148 B(  9-C , 11-N ) :   1.2903
B( 11-N , 12-C ) :   0.9807 B( 11-N , 29-H ) :   0.9467 B( 12-C , 13-C ) :   0.9630
B( 12-C , 30-H ) :   1.0052 B( 13-C , 14-C ) :   1.3718 B( 13-C , 19-C ) :   1.3525
B( 14-C , 15-C ) :   1.3901 B( 14-C , 31-H ) :   0.9692 B( 15-C , 16-C ) :   1.3568
B( 15-C , 32-H ) :   0.9685 B( 16-C , 17-C ) :   1.3319 B( 16-C , 33-H ) :   0.9829
B( 17-C , 18-O ) :   1.1107 B( 17-C , 19-C ) :   1.3647 B( 18-O , 34-H ) :   0.9788
B( 19-C , 35-H ) :   0.9580

MP2 TOTAL ENERGY:    -1274.325214272 Eh
FINAL SINGLE POINT ENERGY     -1274.325214271694

DIPOLE MOMENT
-------------
                                X             Y             Z
Electronic contribution:      9.95366       9.91436       6.22356
Nuclear contribution   :    -11.47696     -11.44188      -6.00464
                        -----------------------------------------
Total Dipole Moment    :     -1.52330      -1.52753       0.21893
                        -----------------------------------------
Magnitude (a.u.)       :      2.16835
Magnitude (Debye)      :      5.51150

Rotational constants in cm-1:     0.012440     0.008793     0.005985
Rotational constants in MHz :   372.934632   263.610791   179.416354

                             ****ORCA TERMINATED NORMALLY****
TOTAL RUN TIME: 0 days 1 hours 46 minutes 10 seconds 705 msec
