                         Program Version 4.2.0 -  RELEASE  -
|  1> ! ri-mp2 cc-pvtz cc-pvtz/c TightSCF NoKeepInts
|  2>
|  3> %scf
|  4>   MaxCore 4096
|  5> end
|  6> *xyz  0  1
|  7>     C       14.1108821   15.1890321   15.6570533
|  8>     C       15.0107026   16.3817123   15.2954430
|  9>     O       16.3517013   15.8686588   15.1724460
| 10>     C       17.4868707   16.5291942   15.5692254
| 11>     O       18.5952843   16.0974825   15.3143255
| 12>     C       17.2926391   17.6784418   16.4969545
| 13>     C       16.9894145   18.8975624   15.9936583
| 14>     C       16.5475642   19.2063620   14.5776138
| 15>     N       17.1273947   20.0474290   16.7727542
| 16>     C       17.7938805   20.0849154   17.9699418
| 17>     S       18.0221444   21.4996133   18.7950082
| 18>     N       18.2825459   18.8887304   18.4377908
| 19>     C       18.0096063   17.5661506   17.8393079
| 20>     C       17.3533125   16.5554516   18.7667124
| 21>     C       17.8018850   15.2227626   18.7868962
| 22>     C       17.1833488   14.2742782   19.6183370
| 23>     C       16.1048898   14.6614976   20.4322567
| 24>     C       15.6511245   15.9875099   20.4074076
| 25>     O       14.6030093   16.3612461   21.1836177
| 26>     C       16.2681953   16.9298257   19.5782501
| 27>     H       14.4271750   14.7428462   16.6088121
| 28>     H       14.1619788   14.4160944   14.8798524
| 29>     H       13.0664116   15.5081006   15.7575872
| 30>     H       14.6859892   16.8377509   14.3513250
| 31>     H       14.9153338   17.1215137   16.0993581
| 32>     H       16.8282512   18.4160794   13.8700949
| 33>     H       17.0160940   20.1281484   14.2091093
| 34>     H       15.4602611   19.3388033   14.5244390
| 35>     H       16.8083271   20.9373363   16.4230628
| 36>     H       18.7671076   18.9433225   19.3250860
| 37>     H       19.0349747   17.2459446   17.6000291
| 38>     H       18.6271593   14.9195599   18.1456335
| 39>     H       17.5375130   13.2447272   19.6252536
| 40>     H       15.6232362   13.9313268   21.0742482
| 41>     H       14.3415661   15.5904001   21.7096771
| 42>     H       15.8992257   17.9501892   19.5694311
| 43> *
| 44>
| 45>                          ****END OF INPUT****

CARTESIAN COORDINATES (ANGSTROEM)
---------------------------------
  C     14.110882   15.189032   15.657053
  C     15.010703   16.381712   15.295443
  O     16.351701   15.868659   15.172446
  C     17.486871   16.529194   15.569225
  O     18.595284   16.097483   15.314325
  C     17.292639   17.678442   16.496955
  C     16.989414   18.897562   15.993658
  C     16.547564   19.206362   14.577614
  N     17.127395   20.047429   16.772754
  C     17.793880   20.084915   17.969942
  S     18.022144   21.499613   18.795008
  N     18.282546   18.888730   18.437791
  C     18.009606   17.566151   17.839308
  C     17.353313   16.555452   18.766712
  C     17.801885   15.222763   18.786896
  C     17.183349   14.274278   19.618337
  C     16.104890   14.661498   20.432257
  C     15.651124   15.987510   20.407408
  O     14.603009   16.361246   21.183618
  C     16.268195   16.929826   19.578250
  H     14.427175   14.742846   16.608812
  H     14.161979   14.416094   14.879852
  H     13.066412   15.508101   15.757587
  H     14.685989   16.837751   14.351325
  H     14.915334   17.121514   16.099358
  H     16.828251   18.416079   13.870095
  H     17.016094   20.128148   14.209109
  H     15.460261   19.338803   14.524439
  H     16.808327   20.937336   16.423063
  H     18.767108   18.943323   19.325086
  H     19.034975   17.245945   17.600029
  H     18.627159   14.919560   18.145633
  H     17.537513   13.244727   19.625254
  H     15.623236   13.931327   21.074248
  H     14.341566   15.590400   21.709677
  H     15.899226   17.950189   19.569431

 Total Charge           Charge          ....    0
 Multiplicity           Mult            ....    1
 Number of Electrons    NEL             ....  154
 Basis Dimension        Dim             ....  828

ORBITAL ENERGIES
----------------

  NO   OCC          E(Eh)            E(eV)
   0   2.0000     -91.889104     -2500.4296
   1   2.0000     -20.605738      -560.7106
   2   2.0000     -20.600023      -560.5551
   3   2.0000     -20.551718      -559.2407
   4   2.0000     -15.626246      -425.2118
   5   2.0000     -15.609684      -424.7611
   6   2.0000     -11.399789      -310.2040
   7   2.0000     -11.385329      -309.8105
   8   2.0000     -11.329756      -308.2983
   9   2.0000     -11.317554      -307.9663
  10   2.0000     -11.311663      -307.8060
  11   2.0000     -11.306715      -307.6714
  12   2.0000     -11.268797      -306.6396
  13   2.0000     -11.265542      -306.5510
  14   2.0000     -11.262196      -306.4599
  15   2.0000     -11.258065      -306.3475
  16   2.0000     -11.246518      -306.0333
  17   2.0000     -11.242594      -305.9265
  18   2.0000     -11.240663      -305.8740
  19   2.0000     -11.232930      -305.6636
  20   2.0000      -8.894220      -242.0240
  21   2.0000      -6.575804      -178.9367
  22   2.0000      -6.573788      -178.8819
  23   2.0000      -6.573210      -178.8661
  24   2.0000      -1.449757       -39.4499
  25   2.0000      -1.419716       -38.6324
  26   2.0000      -1.363801       -37.1109
  27   2.0000      -1.339657       -36.4539
  28   2.0000      -1.238631       -33.7049
  29   2.0000      -1.161984       -31.6192
  30   2.0000      -1.126947       -30.6658
  31   2.0000      -1.049266       -28.5520
  32   2.0000      -1.042271       -28.3616
  33   2.0000      -1.019737       -27.7485
  34   2.0000      -1.006207       -27.3803
  35   2.0000      -0.989676       -26.9304
  36   2.0000      -0.926803       -25.2196
  37   2.0000      -0.884441       -24.0669
  38   2.0000      -0.855352       -23.2753
  39   2.0000      -0.841975       -22.9113
  40   2.0000      -0.837930       -22.8012
  41   2.0000      -0.836513       -22.7627
  42   2.0000      -0.758299       -20.6344
  43   2.0000      -0.740036       -20.1374
  44   2.0000      -0.732116       -19.9219
  45   2.0000      -0.698060       -18.9952
  46   2.0000      -0.691148       -18.8071
  47   2.0000      -0.684674       -18.6309
  48   2.0000      -0.674613       -18.3572
  49   2.0000      -0.663300       -18.0493
  50   2.0000      -0.655413       -17.8347
  51   2.0000      -0.645817       -17.5736
  52   2.0000      -0.637996       -17.3608
  53   2.0000      -0.613396       -16.6914
  54   2.0000      -0.610797       -16.6206
  55   2.0000      -0.603808       -16.4305
  56   2.0000      -0.602535       -16.3958
  57   2.0000      -0.584241       -15.8980
  58   2.0000      -0.578736       -15.7482
  59   2.0000      -0.568400       -15.4670
  60   2.0000      -0.560777       -15.2595
  61   2.0000      -0.557180       -15.1616
  62   2.0000      -0.549334       -14.9481
  63   2.0000      -0.532661       -14.4944
  64   2.0000      -0.520694       -14.1688
  65   2.0000      -0.514096       -13.9893
  66   2.0000      -0.506484       -13.7821
  67   2.0000      -0.501870       -13.6566
  68   2.0000      -0.488917       -13.3041
  69   2.0000      -0.470170       -12.7940
  70   2.0000      -0.456757       -12.4290
  71   2.0000      -0.452282       -12.3072
  72   2.0000      -0.355143        -9.6639
  73   2.0000      -0.352144        -9.5823
  74   2.0000      -0.328726        -8.9451
  75   2.0000      -0.325154        -8.8479
  76   2.0000      -0.318738        -8.6733
  77   0.0000       0.089731         2.4417
  78   0.0000       0.103194         2.8080
  79   0.0000       0.114860         3.1255
  80   0.0000       0.128724         3.5028
  81   0.0000       0.130107         3.5404

MULLIKEN ATOMIC CHARGES
-----------------------
   0 C :   -0.257065
   1 C :    0.027594
   2 O :   -0.306479
   3 C :    0.408631
   4 O :   -0.381636
   5 C :   -0.198118
   6 C :    0.146721
   7 C :   -0.330881
   8 N :   -0.140276
   9 C :    0.211281
  10 S :   -0.444086
  11 N :   -0.223775
  12 C :    0.050104
  13 C :    0.034606
  14 C :   -0.221434
  15 C :   -0.127522
  16 C :   -0.278508
  17 C :    0.316014
  18 O :   -0.355601
  19 C :   -0.256510
  20 H :    0.107295
  21 H :    0.102325
  22 H :    0.085514
  23 H :    0.096395
  24 H :    0.097963
  25 H :    0.128883
  26 H :    0.131487
  27 H :    0.125550
  28 H :    0.197587
  29 H :    0.202444
  30 H :    0.168853
  31 H :    0.171384
  32 H :    0.164633
  33 H :    0.131794
  34 H :    0.241383
  35 H :    0.173453
Sum of atomic charges:   -0.0000000

LOEWDIN ATOMIC CHARGES
----------------------
   0 C :    0.110739
   1 C :   -0.022683
   2 O :    0.313265
   3 C :   -0.417849
   4 O :    0.120556
   5 C :   -0.082961
   6 C :   -0.097369
   7 C :    0.126252
   8 N :    0.401693
   9 C :   -0.455249
  10 S :   -0.039307
  11 N :    0.396066
  12 C :   -0.050327
  13 C :   -0.043339
  14 C :    0.019595
  15 C :    0.045488
  16 C :   -0.000068
  17 C :   -0.190578
  18 O :    0.395309
  19 C :    0.027349
  20 H :   -0.021918
  21 H :   -0.025094
  22 H :   -0.025973
  23 H :   -0.034875
  24 H :   -0.037108
  25 H :   -0.007613
  26 H :   -0.010364
  27 H :   -0.016556
  28 H :   -0.058149
  29 H :   -0.063926
  30 H :   -0.003660
  31 H :   -0.021898
  32 H :   -0.018416
  33 H :   -0.034702
  34 H :   -0.153130
  35 H :   -0.023199

  Mayer bond orders larger than 0.100000
B(  0-C ,  1-C ) :   0.9812 B(  0-C , 20-H ) :   0.9758 B(  0-C , 21-H ) :   0.9803
B(  0-C , 22-H ) :   0.9760 B(  1-C ,  2-O ) :   0.9150 B(  1-C , 23-H ) :   0.9732
B(  1-C , 24-H ) :   0.9570 B(  2-O ,  3-C ) :   1.1791 B(  3-C ,  4-O ) :   2.1076
B(  3-C ,  5-C ) :   0.9148 B(  5-C ,  6-C ) :   1.7254 B(  5-C , 12-C ) :   0.9431
B(  6-C ,  7-C ) :   0.9313 B(  6-C ,  8-N ) :   1.1028 B(  7-C , 25-H ) :   0.9778
B(  7-C , 26-H ) :   0.9774 B(  7-C , 27-H ) :   0.9660 B(  8-N ,  9-C ) :   1.2000
B(  8-N , 28-H ) :   0.9515 B(  9-C , 10-S ) :   1.6086 B(  9-C , 11-N ) :   1.2887
B( 11-N , 12-C ) :   0.9833 B( 11-N , 29-H ) :   0.9470 B( 12-C , 13-C ) :   0.9679
B( 12-C , 30-H ) :   0.9895 B( 13-C , 14-C ) :   1.3811 B( 13-C , 19-C ) :   1.3539
B( 14-C , 15-C ) :   1.3954 B( 14-C , 31-H ) :   0.9623 B( 15-C , 16-C ) :   1.3623
B( 15-C , 32-H ) :   0.9694 B( 16-C , 17-C ) :   1.3297 B( 16-C , 33-H ) :   0.9851
B( 17-C , 18-O ) :   1.1094 B( 17-C , 19-C ) :   1.3660 B( 18-O , 34-H ) :   0.9792
B( 19-C , 35-H ) :   0.9561

MP2 TOTAL ENERGY:    -1274.328458030 Eh
FINAL SINGLE POINT ENERGY     -1274.328458030028

DIPOLE MOMENT
-------------
                                X             Y             Z
Electronic contribution:     10.22626       8.41985       7.95813
Nuclear contribution   :    -11.95291      -9.58564      -8.40107
                        -----------------------------------------
Total Dipole Moment    :     -1.72665      -1.16579      -0.44294
                        -----------------------------------------
Magnitude (a.u.)       :      2.12992
Magnitude (Debye)      :      5.41384

Rotational constants in cm-1:     0.011202     0.008980     0.006291
Rotational constants in MHz :   335.842097   269.216741   188.586346

                             ****ORCA TERMINATED NORMALLY****
TOTAL RUN TIME: 0 days 1 hours 39 minutes 47 seconds 735 msec
