                         Program Version 4.2.0 -  RELEASE  -
|  1> ! ri-mp2 cc-pvtz cc-pvtz/c TightSCF NoKeepInts
|  2>
|  3> %scf
|  4>   MaxCore 4096
|  5> end
|  6> *xyz  0  1
|  7>     C       14.3855442   14.9429077   15.3423981
|  8>     C       15.8976448   14.8370641   15.0434736
|  9>     O       16.6347970   15.8985026   15.6854014
| 10>     C       16.3195622   17.2198676   15.5155847
| 11>     O       15.6274157   17.6138806   14.5925011
| 12>     C       16.9401891   18.0997782   16.5678601
| 13>     C       17.0168002   19.4447576   16.3973513
| 14>     C       16.3190227   20.2755995   15.3402652
| 15>     N       17.8105209   20.2322846   17.2345008
| 16>     C       18.6984130   19.7371757   18.1507692
| 17>     S       19.6744515   20.7263264   19.0478511
| 18>     N       18.7521381   18.3718689   18.2733220
| 19>     C       17.8552866   17.4153943   17.5972972
| 20>     C       17.1147156   16.5137041   18.5765205
| 21>     C       17.4300345   15.1456536   18.6706631
| 22>     C       16.7420563   14.3152305   19.5714050
| 23>     C       15.7334337   14.8583466   20.3857925
| 24>     C       15.4207782   16.2219651   20.2964293
| 25>     O       14.4479101   16.7488886   21.0818530
| 26>     C       16.1071885   17.0457971   19.3989106
| 27>     H       14.2120818   15.0716888   16.4183064
| 28>     H       13.8723345   14.0280070   15.0230270
| 29>     H       13.9214804   15.7819329   14.8105588
| 30>     H       16.2727531   13.8716016   15.4062529
| 31>     H       16.0559351   14.8758557   13.9574347
| 32>     H       16.6930987   20.0224862   14.3400640
| 33>     H       16.4543504   21.3542988   15.4817626
| 34>     H       15.2392125   20.0787869   15.3457749
| 35>     H       17.7960254   21.2351783   17.1399289
| 36>     H       19.3926689   18.0375953   18.9820882
| 37>     H       18.5859068   16.8379155   17.0133592
| 38>     H       18.2054398   14.7241236   18.0366610
| 39>     H       16.9904702   13.2573574   19.6360014
| 40>     H       15.1993618   14.2212123   21.0829890
| 41>     H       14.1122023   16.0371073   21.6470649
| 42>     H       15.8557754   18.0998587   19.3465761
| 43> *
| 44>
| 45>                          ****END OF INPUT****

CARTESIAN COORDINATES (ANGSTROEM)
---------------------------------
  C     14.385544   14.942908   15.342398
  C     15.897645   14.837064   15.043474
  O     16.634797   15.898503   15.685401
  C     16.319562   17.219868   15.515585
  O     15.627416   17.613881   14.592501
  C     16.940189   18.099778   16.567860
  C     17.016800   19.444758   16.397351
  C     16.319023   20.275599   15.340265
  N     17.810521   20.232285   17.234501
  C     18.698413   19.737176   18.150769
  S     19.674451   20.726326   19.047851
  N     18.752138   18.371869   18.273322
  C     17.855287   17.415394   17.597297
  C     17.114716   16.513704   18.576521
  C     17.430035   15.145654   18.670663
  C     16.742056   14.315231   19.571405
  C     15.733434   14.858347   20.385793
  C     15.420778   16.221965   20.296429
  O     14.447910   16.748889   21.081853
  C     16.107188   17.045797   19.398911
  H     14.212082   15.071689   16.418306
  H     13.872334   14.028007   15.023027
  H     13.921480   15.781933   14.810559
  H     16.272753   13.871602   15.406253
  H     16.055935   14.875856   13.957435
  H     16.693099   20.022486   14.340064
  H     16.454350   21.354299   15.481763
  H     15.239213   20.078787   15.345775
  H     17.796025   21.235178   17.139929
  H     19.392669   18.037595   18.982088
  H     18.585907   16.837916   17.013359
  H     18.205440   14.724124   18.036661
  H     16.990470   13.257357   19.636001
  H     15.199362   14.221212   21.082989
  H     14.112202   16.037107   21.647065
  H     15.855775   18.099859   19.346576

 Total Charge           Charge          ....    0
 Multiplicity           Mult            ....    1
 Number of Electrons    NEL             ....  154
 Basis Dimension        Dim             ....  828

ORBITAL ENERGIES
----------------

  NO   OCC          E(Eh)            E(eV)
   0   2.0000     -91.888546     -2500.4144
   1   2.0000     -20.598382      -560.5105
   2   2.0000     -20.596709      -560.4650
   3   2.0000     -20.541090      -558.9515
   4   2.0000     -15.628886      -425.2836
   5   2.0000     -15.606699      -424.6799
   6   2.0000     -11.395803      -310.0956
   7   2.0000     -11.383238      -309.7537
   8   2.0000     -11.336957      -308.4943
   9   2.0000     -11.313898      -307.8668
  10   2.0000     -11.306996      -307.6790
  11   2.0000     -11.299858      -307.4848
  12   2.0000     -11.260764      -306.4210
  13   2.0000     -11.259043      -306.3741
  14   2.0000     -11.255285      -306.2719
  15   2.0000     -11.251458      -306.1677
  16   2.0000     -11.243780      -305.9588
  17   2.0000     -11.239054      -305.8302
  18   2.0000     -11.238772      -305.8225
  19   2.0000     -11.222407      -305.3772
  20   2.0000      -8.893619      -242.0077
  21   2.0000      -6.575193      -178.9201
  22   2.0000      -6.573194      -178.8657
  23   2.0000      -6.572605      -178.8497
  24   2.0000      -1.448205       -39.4077
  25   2.0000      -1.416389       -38.5419
  26   2.0000      -1.353631       -36.8342
  27   2.0000      -1.340002       -36.4633
  28   2.0000      -1.237898       -33.6849
  29   2.0000      -1.157660       -31.5015
  30   2.0000      -1.120815       -30.4989
  31   2.0000      -1.042705       -28.3734
  32   2.0000      -1.035124       -28.1672
  33   2.0000      -1.015085       -27.6219
  34   2.0000      -0.995752       -27.0958
  35   2.0000      -0.984180       -26.7809
  36   2.0000      -0.921616       -25.0785
  37   2.0000      -0.896463       -24.3940
  38   2.0000      -0.846455       -23.0332
  39   2.0000      -0.838119       -22.8064
  40   2.0000      -0.834278       -22.7019
  41   2.0000      -0.816353       -22.2141
  42   2.0000      -0.750552       -20.4236
  43   2.0000      -0.733374       -19.9561
  44   2.0000      -0.721566       -19.6348
  45   2.0000      -0.695479       -18.9250
  46   2.0000      -0.688611       -18.7381
  47   2.0000      -0.678207       -18.4550
  48   2.0000      -0.671367       -18.2688
  49   2.0000      -0.656880       -17.8746
  50   2.0000      -0.647933       -17.6312
  51   2.0000      -0.639692       -17.4069
  52   2.0000      -0.633258       -17.2318
  53   2.0000      -0.615369       -16.7450
  54   2.0000      -0.606704       -16.5093
  55   2.0000      -0.600515       -16.3408
  56   2.0000      -0.599071       -16.3015
  57   2.0000      -0.577342       -15.7103
  58   2.0000      -0.570025       -15.5112
  59   2.0000      -0.567676       -15.4473
  60   2.0000      -0.558788       -15.2054
  61   2.0000      -0.543491       -14.7891
  62   2.0000      -0.534892       -14.5552
  63   2.0000      -0.525212       -14.2917
  64   2.0000      -0.522937       -14.2298
  65   2.0000      -0.512943       -13.9579
  66   2.0000      -0.500972       -13.6322
  67   2.0000      -0.497963       -13.5503
  68   2.0000      -0.483374       -13.1533
  69   2.0000      -0.462932       -12.5970
  70   2.0000      -0.455403       -12.3921
  71   2.0000      -0.444308       -12.0902
  72   2.0000      -0.352723        -9.5981
  73   2.0000      -0.349833        -9.5194
  74   2.0000      -0.327775        -8.9192
  75   2.0000      -0.321243        -8.7415
  76   2.0000      -0.317731        -8.6459
  77   0.0000       0.077536         2.1099
  78   0.0000       0.104924         2.8551
  79   0.0000       0.125025         3.4021
  80   0.0000       0.132785         3.6133
  81   0.0000       0.137501         3.7416

MULLIKEN ATOMIC CHARGES
-----------------------
   0 C :   -0.315074
   1 C :    0.035375
   2 O :   -0.356879
   3 C :    0.451507
   4 O :   -0.440646
   5 C :   -0.227957
   6 C :    0.171381
   7 C :   -0.268342
   8 N :   -0.125567
   9 C :    0.210703
  10 S :   -0.442467
  11 N :   -0.215347
  12 C :    0.064548
  13 C :    0.044287
  14 C :   -0.183286
  15 C :   -0.132110
  16 C :   -0.277259
  17 C :    0.317108
  18 O :   -0.356716
  19 C :   -0.251231
  20 H :    0.103947
  21 H :    0.096064
  22 H :    0.125601
  23 H :    0.107998
  24 H :    0.107415
  25 H :    0.129312
  26 H :    0.094658
  27 H :    0.133144
  28 H :    0.199599
  29 H :    0.200210
  30 H :    0.152813
  31 H :    0.153009
  32 H :    0.160412
  33 H :    0.130298
  34 H :    0.240552
  35 H :    0.162941
Sum of atomic charges:   -0.0000000

LOEWDIN ATOMIC CHARGES
----------------------
   0 C :    0.105257
   1 C :   -0.014533
   2 O :    0.302862
   3 C :   -0.412842
   4 O :    0.097965
   5 C :   -0.094400
   6 C :   -0.056814
   7 C :    0.131004
   8 N :    0.407069
   9 C :   -0.456454
  10 S :   -0.037017
  11 N :    0.394674
  12 C :   -0.054478
  13 C :   -0.039670
  14 C :    0.016930
  15 C :    0.038769
  16 C :   -0.000939
  17 C :   -0.190141
  18 O :    0.395125
  19 C :    0.032877
  20 H :   -0.026801
  21 H :   -0.027433
  22 H :   -0.026127
  23 H :   -0.024979
  24 H :   -0.028600
  25 H :   -0.005049
  26 H :   -0.023691
  27 H :   -0.004495
  28 H :   -0.057205
  29 H :   -0.064460
  30 H :   -0.013752
  31 H :   -0.029137
  32 H :   -0.021411
  33 H :   -0.035390
  34 H :   -0.153977
  35 H :   -0.022737

  Mayer bond orders larger than 0.100000
B(  0-C ,  1-C ) :   0.9586 B(  0-C , 20-H ) :   0.9741 B(  0-C , 21-H ) :   0.9773
B(  0-C , 22-H ) :   0.9730 B(  1-C ,  2-O ) :   0.9007 B(  1-C , 23-H ) :   0.9838
B(  1-C , 24-H ) :   0.9836 B(  2-O ,  3-C ) :   1.1561 B(  3-C ,  4-O ) :   1.9564
B(  3-C ,  5-C ) :   1.0655 B(  5-C ,  6-C ) :   1.6425 B(  5-C , 12-C ) :   0.9562
B(  6-C ,  7-C ) :   0.9648 B(  6-C ,  8-N ) :   1.1547 B(  7-C , 25-H ) :   0.9590
B(  7-C , 26-H ) :   0.9903 B(  7-C , 27-H ) :   0.9616 B(  8-N ,  9-C ) :   1.1874
B(  8-N , 28-H ) :   0.9464 B(  9-C , 10-S ) :   1.6055 B(  9-C , 11-N ) :   1.3091
B( 11-N , 12-C ) :   0.9701 B( 11-N , 29-H ) :   0.9485 B( 12-C , 13-C ) :   0.9619
B( 12-C , 30-H ) :   1.0000 B( 13-C , 14-C ) :   1.3539 B( 13-C , 19-C ) :   1.3795
B( 14-C , 15-C ) :   1.3940 B( 14-C , 31-H ) :   0.9710 B( 15-C , 16-C ) :   1.3599
B( 15-C , 32-H ) :   0.9708 B( 16-C , 17-C ) :   1.3336 B( 16-C , 33-H ) :   0.9850
B( 17-C , 18-O ) :   1.1049 B( 17-C , 19-C ) :   1.3645 B( 18-O , 34-H ) :   0.9799
B( 19-C , 35-H ) :   0.9596

MP2 TOTAL ENERGY:    -1274.341459702 Eh
FINAL SINGLE POINT ENERGY     -1274.341459701890

DIPOLE MOMENT
-------------
                                X             Y             Z
Electronic contribution:      9.78154       9.95053       8.39996
Nuclear contribution   :    -10.78154     -11.71451      -8.79704
                        -----------------------------------------
Total Dipole Moment    :     -1.00000      -1.76398      -0.39709
                        -----------------------------------------
Magnitude (a.u.)       :      2.06623
Magnitude (Debye)      :      5.25194

Rotational constants in cm-1:     0.011579     0.008621     0.005955
Rotational constants in MHz :   347.143801   258.443148   178.514665

                             ****ORCA TERMINATED NORMALLY****
TOTAL RUN TIME: 0 days 1 hours 50 minutes 44 seconds 199 msec
