                         Program Version 4.2.0 -  RELEASE  -
|  1> ! ri-mp2 cc-pvtz cc-pvtz/c TightSCF NoKeepInts
|  2>
|  3> %scf
|  4>   MaxCore 4096
|  5> end
|  6> *xyz  0  1
|  7>     C       14.5934102   15.6341295   16.6059470
|  8>     C       15.3098042   15.6947666   15.2471366
|  9>     O       16.7387739   15.6046896   15.4122518
| 10>     C       17.4938182   16.7376568   15.3208018
| 11>     O       18.3209852   16.8888417   14.4413840
| 12>     C       17.1864072   17.7814164   16.3402889
| 13>     C       16.9749454   19.0476292   15.9138623
| 14>     C       16.6369078   19.4553141   14.4958495
| 15>     N       17.0961609   20.1351017   16.7804432
| 16>     C       17.6777795   20.0628920   18.0185623
| 17>     S       17.9085360   21.4052497   18.9563688
| 18>     N       18.0863784   18.8178824   18.4306529
| 19>     C       17.7955427   17.5504040   17.7300059
| 20>     C       17.1323317   16.4910879   18.5988583
| 21>     C       17.5673348   15.1542938   18.5392948
| 22>     C       16.9747264   14.1730089   19.3515252
| 23>     C       15.9406533   14.5318737   20.2329847
| 24>     C       15.5088765   15.8636921   20.2987265
| 25>     O       14.5086019   16.2123208   21.1461593
| 26>     C       16.1018748   16.8392393   19.4907282
| 27>     H       14.9820530   14.8107136   17.2173401
| 28>     H       13.5185541   15.4707374   16.4625000
| 29>     H       14.7137882   16.5744867   17.1538585
| 30>     H       14.9806431   14.8336125   14.6510298
| 31>     H       15.0242625   16.6023766   14.6992626
| 32>     H       17.5513168   19.5141445   13.8902122
| 33>     H       16.1375424   20.4305170   14.4485698
| 34>     H       15.9744885   18.7257093   14.0161100
| 35>     H       16.8472519   21.0601540   16.4678238
| 36>     H       18.5092119   18.7929847   19.3503177
| 37>     H       18.8265601   17.2289895   17.5206298
| 38>     H       18.3628446   14.8729117   17.8533253
| 39>     H       17.3159428   13.1406675   19.2939292
| 40>     H       15.4790789   13.7767784   20.8608466
| 41>     H       14.2565927   15.4189909   21.6424972
| 42>     H       15.7530194   17.8647352   19.5579151
| 43> *
| 44>
| 45>                          ****END OF INPUT****

CARTESIAN COORDINATES (ANGSTROEM)
---------------------------------
  C     14.593410   15.634130   16.605947
  C     15.309804   15.694767   15.247137
  O     16.738774   15.604690   15.412252
  C     17.493818   16.737657   15.320802
  O     18.320985   16.888842   14.441384
  C     17.186407   17.781416   16.340289
  C     16.974945   19.047629   15.913862
  C     16.636908   19.455314   14.495850
  N     17.096161   20.135102   16.780443
  C     17.677779   20.062892   18.018562
  S     17.908536   21.405250   18.956369
  N     18.086378   18.817882   18.430653
  C     17.795543   17.550404   17.730006
  C     17.132332   16.491088   18.598858
  C     17.567335   15.154294   18.539295
  C     16.974726   14.173009   19.351525
  C     15.940653   14.531874   20.232985
  C     15.508876   15.863692   20.298727
  O     14.508602   16.212321   21.146159
  C     16.101875   16.839239   19.490728
  H     14.982053   14.810714   17.217340
  H     13.518554   15.470737   16.462500
  H     14.713788   16.574487   17.153858
  H     14.980643   14.833612   14.651030
  H     15.024263   16.602377   14.699263
  H     17.551317   19.514145   13.890212
  H     16.137542   20.430517   14.448570
  H     15.974488   18.725709   14.016110
  H     16.847252   21.060154   16.467824
  H     18.509212   18.792985   19.350318
  H     18.826560   17.228990   17.520630
  H     18.362845   14.872912   17.853325
  H     17.315943   13.140667   19.293929
  H     15.479079   13.776778   20.860847
  H     14.256593   15.418991   21.642497
  H     15.753019   17.864735   19.557915

 Total Charge           Charge          ....    0
 Multiplicity           Mult            ....    1
 Number of Electrons    NEL             ....  154
 Basis Dimension        Dim             ....  828

ORBITAL ENERGIES
----------------

  NO   OCC          E(Eh)            E(eV)
   0   2.0000     -91.890183     -2500.4590
   1   2.0000     -20.600486      -560.5677
   2   2.0000     -20.589227      -560.2614
   3   2.0000     -20.560856      -559.4893
   4   2.0000     -15.627130      -425.2358
   5   2.0000     -15.610567      -424.7851
   6   2.0000     -11.396635      -310.1182
   7   2.0000     -11.385550      -309.8166
   8   2.0000     -11.329568      -308.2932
   9   2.0000     -11.318139      -307.9822
  10   2.0000     -11.315721      -307.9164
  11   2.0000     -11.305659      -307.6426
  12   2.0000     -11.266531      -306.5779
  13   2.0000     -11.259825      -306.3954
  14   2.0000     -11.259239      -306.3795
  15   2.0000     -11.256781      -306.3126
  16   2.0000     -11.248057      -306.0752
  17   2.0000     -11.243072      -305.9395
  18   2.0000     -11.242934      -305.9358
  19   2.0000     -11.223886      -305.4175
  20   2.0000      -8.895249      -242.0520
  21   2.0000      -6.576822      -178.9644
  22   2.0000      -6.574821      -178.9100
  23   2.0000      -6.574232      -178.8939
  24   2.0000      -1.450564       -39.4719
  25   2.0000      -1.420261       -38.6473
  26   2.0000      -1.363481       -37.1022
  27   2.0000      -1.340092       -36.4658
  28   2.0000      -1.239518       -33.7290
  29   2.0000      -1.162222       -31.6257
  30   2.0000      -1.125389       -30.6234
  31   2.0000      -1.048398       -28.5284
  32   2.0000      -1.035614       -28.1805
  33   2.0000      -1.020331       -27.7646
  34   2.0000      -1.003584       -27.3089
  35   2.0000      -0.989591       -26.9281
  36   2.0000      -0.926065       -25.1995
  37   2.0000      -0.887920       -24.1615
  38   2.0000      -0.850657       -23.1475
  39   2.0000      -0.842408       -22.9231
  40   2.0000      -0.838330       -22.8121
  41   2.0000      -0.831302       -22.6209
  42   2.0000      -0.758346       -20.6356
  43   2.0000      -0.737197       -20.0602
  44   2.0000      -0.729895       -19.8615
  45   2.0000      -0.698874       -19.0173
  46   2.0000      -0.692625       -18.8473
  47   2.0000      -0.681649       -18.5486
  48   2.0000      -0.675766       -18.3885
  49   2.0000      -0.665548       -18.1105
  50   2.0000      -0.651059       -17.7162
  51   2.0000      -0.643308       -17.5053
  52   2.0000      -0.632846       -17.2206
  53   2.0000      -0.611520       -16.6403
  54   2.0000      -0.604919       -16.4607
  55   2.0000      -0.604779       -16.4569
  56   2.0000      -0.602369       -16.3913
  57   2.0000      -0.582759       -15.8577
  58   2.0000      -0.582160       -15.8414
  59   2.0000      -0.577674       -15.7193
  60   2.0000      -0.565445       -15.3865
  61   2.0000      -0.557396       -15.1675
  62   2.0000      -0.539623       -14.6839
  63   2.0000      -0.525156       -14.2902
  64   2.0000      -0.520303       -14.1582
  65   2.0000      -0.514370       -13.9967
  66   2.0000      -0.502993       -13.6871
  67   2.0000      -0.498889       -13.5755
  68   2.0000      -0.487216       -13.2578
  69   2.0000      -0.465520       -12.6674
  70   2.0000      -0.458326       -12.4717
  71   2.0000      -0.452598       -12.3158
  72   2.0000      -0.356513        -9.7012
  73   2.0000      -0.348662        -9.4876
  74   2.0000      -0.329403        -8.9635
  75   2.0000      -0.325786        -8.8651
  76   2.0000      -0.320032        -8.7085
  77   0.0000       0.083045         2.2598
  78   0.0000       0.100880         2.7451
  79   0.0000       0.121682         3.3111
  80   0.0000       0.128246         3.4897
  81   0.0000       0.130279         3.5451

MULLIKEN ATOMIC CHARGES
-----------------------
   0 C :   -0.310659
   1 C :    0.033771
   2 O :   -0.340550
   3 C :    0.406701
   4 O :   -0.358393
   5 C :   -0.196169
   6 C :    0.140319
   7 C :   -0.289896
   8 N :   -0.133632
   9 C :    0.214656
  10 S :   -0.440152
  11 N :   -0.231597
  12 C :    0.042810
  13 C :    0.029608
  14 C :   -0.195670
  15 C :   -0.145517
  16 C :   -0.272961
  17 C :    0.322980
  18 O :   -0.355966
  19 C :   -0.246269
  20 H :    0.115465
  21 H :    0.113674
  22 H :    0.103100
  23 H :    0.122339
  24 H :    0.078493
  25 H :    0.145351
  26 H :    0.100501
  27 H :    0.113199
  28 H :    0.197090
  29 H :    0.205521
  30 H :    0.161425
  31 H :    0.152243
  32 H :    0.164645
  33 H :    0.133304
  34 H :    0.241241
  35 H :    0.178994
Sum of atomic charges:   -0.0000000

LOEWDIN ATOMIC CHARGES
----------------------
   0 C :    0.104346
   1 C :   -0.020545
   2 O :    0.295477
   3 C :   -0.423479
   4 O :    0.138904
   5 C :   -0.092400
   6 C :   -0.083625
   7 C :    0.128943
   8 N :    0.404855
   9 C :   -0.455064
  10 S :   -0.035765
  11 N :    0.396424
  12 C :   -0.052997
  13 C :   -0.041373
  14 C :    0.020609
  15 C :    0.042716
  16 C :   -0.000017
  17 C :   -0.190685
  18 O :    0.396659
  19 C :    0.032267
  20 H :   -0.021719
  21 H :   -0.026960
  22 H :   -0.034059
  23 H :   -0.021881
  24 H :   -0.035279
  25 H :   -0.003373
  26 H :   -0.019726
  27 H :   -0.014941
  28 H :   -0.058455
  29 H :   -0.063881
  30 H :   -0.008985
  31 H :   -0.026291
  32 H :   -0.019153
  33 H :   -0.034447
  34 H :   -0.153051
  35 H :   -0.023049

  Mayer bond orders larger than 0.100000
B(  0-C ,  1-C ) :   0.9698 B(  0-C , 20-H ) :   0.9700 B(  0-C , 21-H ) :   0.9774
B(  0-C , 22-H ) :   0.9711 B(  1-C ,  2-O ) :   0.8968 B(  1-C , 23-H ) :   0.9845
B(  1-C , 24-H ) :   0.9758 B(  2-O ,  3-C ) :   1.1285 B(  3-C ,  4-O ) :   2.1414
B(  3-C ,  5-C ) :   0.9244 B(  5-C ,  6-C ) :   1.6928 B(  5-C , 12-C ) :   0.9533
B(  6-C ,  7-C ) :   0.9425 B(  6-C ,  8-N ) :   1.1231 B(  7-C , 25-H ) :   0.9580
B(  7-C , 26-H ) :   0.9850 B(  7-C , 27-H ) :   0.9779 B(  8-N ,  9-C ) :   1.1986
B(  8-N , 28-H ) :   0.9496 B(  9-C , 10-S ) :   1.6113 B(  9-C , 11-N ) :   1.2882
B( 11-N , 12-C ) :   0.9730 B( 11-N , 29-H ) :   0.9448 B( 12-C , 13-C ) :   0.9613
B( 12-C , 30-H ) :   1.0003 B( 13-C , 14-C ) :   1.3719 B( 13-C , 19-C ) :   1.3433
B( 14-C , 15-C ) :   1.4038 B( 14-C , 31-H ) :   0.9722 B( 15-C , 16-C ) :   1.3546
B( 15-C , 32-H ) :   0.9702 B( 16-C , 17-C ) :   1.3331 B( 16-C , 33-H ) :   0.9843
B( 17-C , 18-O ) :   1.1087 B( 17-C , 19-C ) :   1.3590 B( 18-O , 34-H ) :   0.9792
B( 19-C , 35-H ) :   0.9563

MP2 TOTAL ENERGY:    -1274.314910291 Eh
FINAL SINGLE POINT ENERGY     -1274.314910291124

DIPOLE MOMENT
-------------
                                X             Y             Z
Electronic contribution:      8.76840       8.21806       6.19932
Nuclear contribution   :    -10.26079      -9.79035      -6.46940
                        -----------------------------------------
Total Dipole Moment    :     -1.49239      -1.57229      -0.27008
                        -----------------------------------------
Magnitude (a.u.)       :      2.18455
Magnitude (Debye)      :      5.55269

Rotational constants in cm-1:     0.012144     0.009145     0.006205
Rotational constants in MHz :   364.073028   274.152680   186.023875

                             ****ORCA TERMINATED NORMALLY****
TOTAL RUN TIME: 0 days 1 hours 46 minutes 16 seconds 919 msec
