                         Program Version 4.2.0 -  RELEASE  -
|  1> ! ri-mp2 cc-pvtz cc-pvtz/c TightSCF NoKeepInts
|  2>
|  3> %scf
|  4>   MaxCore 4096
|  5> end
|  6> *xyz  0  1
|  7>     C       15.3694296   14.8808228   13.6158175
|  8>     C       14.5054276   15.8259734   14.4804585
|  9>     O       15.2914572   16.8310224   15.1610778
| 10>     C       16.3614373   16.5476448   15.9671613
| 11>     O       16.8210449   15.4273527   16.1078197
| 12>     C       16.8423057   17.7127155   16.7875535
| 13>     C       16.7652305   18.9998545   16.3549531
| 14>     C       16.0168287   19.5384905   15.1510632
| 15>     N       17.4647973   20.0161423   17.0110794
| 16>     C       18.4317800   19.8065487   17.9565326
| 17>     S       19.3001357   21.0541445   18.6085628
| 18>     N       18.6588567   18.5028924   18.3167235
| 19>     C       17.8496516   17.3463739   17.8862012
| 20>     C       17.2325223   16.5809728   19.0495004
| 21>     C       17.4646803   15.2025002   19.2052110
| 22>     C       16.8974650   14.4991715   20.2811360
| 23>     C       16.0925028   15.1806583   21.2101083
| 24>     C       15.8580810   16.5540593   21.0561799
| 25>     O       15.0782137   17.2136572   21.9495780
| 26>     C       16.4237198   17.2512094   19.9838170
| 27>     H       16.1236273   15.4447495   13.0532854
| 28>     H       14.7384158   14.3457660   12.8960396
| 29>     H       15.8782867   14.1246291   14.2254191
| 30>     H       13.7738626   16.3304197   13.8363552
| 31>     H       13.9476041   15.2302797   15.2152350
| 32>     H       14.9356586   19.3956256   15.2715269
| 33>     H       16.3281157   19.0216862   14.2346753
| 34>     H       16.1869040   20.6096387   14.9874754
| 35>     H       17.3244134   20.9766023   16.7416958
| 36>     H       19.3617059   18.3763144   19.0339993
| 37>     H       18.6237536   16.7411042   17.3923728
| 38>     H       18.0746027   14.6721967   18.4776350
| 39>     H       17.0784328   13.4311164   20.3872526
| 40>     H       15.6512021   14.6410383   22.0413255
| 41>     H       14.8010063   16.5721379   22.6206192
| 42>     H       16.2338410   18.3144882   19.8825530
| 43> *
| 44>
| 45>                          ****END OF INPUT****

CARTESIAN COORDINATES (ANGSTROEM)
---------------------------------
  C     15.369430   14.880823   13.615818
  C     14.505428   15.825973   14.480458
  O     15.291457   16.831022   15.161078
  C     16.361437   16.547645   15.967161
  O     16.821045   15.427353   16.107820
  C     16.842306   17.712716   16.787554
  C     16.765231   18.999855   16.354953
  C     16.016829   19.538491   15.151063
  N     17.464797   20.016142   17.011079
  C     18.431780   19.806549   17.956533
  S     19.300136   21.054144   18.608563
  N     18.658857   18.502892   18.316723
  C     17.849652   17.346374   17.886201
  C     17.232522   16.580973   19.049500
  C     17.464680   15.202500   19.205211
  C     16.897465   14.499171   20.281136
  C     16.092503   15.180658   21.210108
  C     15.858081   16.554059   21.056180
  O     15.078214   17.213657   21.949578
  C     16.423720   17.251209   19.983817
  H     16.123627   15.444749   13.053285
  H     14.738416   14.345766   12.896040
  H     15.878287   14.124629   14.225419
  H     13.773863   16.330420   13.836355
  H     13.947604   15.230280   15.215235
  H     14.935659   19.395626   15.271527
  H     16.328116   19.021686   14.234675
  H     16.186904   20.609639   14.987475
  H     17.324413   20.976602   16.741696
  H     19.361706   18.376314   19.033999
  H     18.623754   16.741104   17.392373
  H     18.074603   14.672197   18.477635
  H     17.078433   13.431116   20.387253
  H     15.651202   14.641038   22.041325
  H     14.801006   16.572138   22.620619
  H     16.233841   18.314488   19.882553

 Total Charge           Charge          ....    0
 Multiplicity           Mult            ....    1
 Number of Electrons    NEL             ....  154
 Basis Dimension        Dim             ....  828

ORBITAL ENERGIES
----------------

  NO   OCC          E(Eh)            E(eV)
   0   2.0000     -91.887238     -2500.3789
   1   2.0000     -20.602649      -560.6266
   2   2.0000     -20.590878      -560.3063
   3   2.0000     -20.545203      -559.0634
   4   2.0000     -15.627430      -425.2440
   5   2.0000     -15.604967      -424.6327
   6   2.0000     -11.397798      -310.1498
   7   2.0000     -11.381726      -309.7125
   8   2.0000     -11.336755      -308.4888
   9   2.0000     -11.306861      -307.6753
  10   2.0000     -11.305031      -307.6255
  11   2.0000     -11.303530      -307.5847
  12   2.0000     -11.260297      -306.4083
  13   2.0000     -11.258415      -306.3570
  14   2.0000     -11.254145      -306.2409
  15   2.0000     -11.247018      -306.0469
  16   2.0000     -11.237175      -305.7791
  17   2.0000     -11.233210      -305.6712
  18   2.0000     -11.230086      -305.5862
  19   2.0000     -11.224805      -305.4425
  20   2.0000      -8.892330      -241.9726
  21   2.0000      -6.573910      -178.8852
  22   2.0000      -6.571905      -178.8306
  23   2.0000      -6.571319      -178.8147
  24   2.0000      -1.449895       -39.4536
  25   2.0000      -1.410620       -38.3849
  26   2.0000      -1.357900       -36.9503
  27   2.0000      -1.338995       -36.4359
  28   2.0000      -1.236216       -33.6391
  29   2.0000      -1.151446       -31.3324
  30   2.0000      -1.119730       -30.4694
  31   2.0000      -1.041953       -28.3530
  32   2.0000      -1.034079       -28.1387
  33   2.0000      -1.008979       -27.4557
  34   2.0000      -0.997445       -27.1419
  35   2.0000      -0.982471       -26.7344
  36   2.0000      -0.920270       -25.0418
  37   2.0000      -0.895581       -24.3700
  38   2.0000      -0.847245       -23.0547
  39   2.0000      -0.834474       -22.7072
  40   2.0000      -0.827196       -22.5091
  41   2.0000      -0.817738       -22.2518
  42   2.0000      -0.748216       -20.3600
  43   2.0000      -0.731239       -19.8980
  44   2.0000      -0.725167       -19.7328
  45   2.0000      -0.690162       -18.7803
  46   2.0000      -0.684668       -18.6308
  47   2.0000      -0.679265       -18.4837
  48   2.0000      -0.668659       -18.1951
  49   2.0000      -0.664333       -18.0774
  50   2.0000      -0.644669       -17.5423
  51   2.0000      -0.641246       -17.4492
  52   2.0000      -0.632177       -17.2024
  53   2.0000      -0.606880       -16.5140
  54   2.0000      -0.600630       -16.3440
  55   2.0000      -0.597318       -16.2538
  56   2.0000      -0.593919       -16.1614
  57   2.0000      -0.586945       -15.9716
  58   2.0000      -0.571885       -15.5618
  59   2.0000      -0.567101       -15.4316
  60   2.0000      -0.559655       -15.2290
  61   2.0000      -0.545464       -14.8428
  62   2.0000      -0.537324       -14.6213
  63   2.0000      -0.522694       -14.2232
  64   2.0000      -0.514738       -14.0067
  65   2.0000      -0.510715       -13.8973
  66   2.0000      -0.500686       -13.6244
  67   2.0000      -0.493389       -13.4258
  68   2.0000      -0.479977       -13.0608
  69   2.0000      -0.462700       -12.5907
  70   2.0000      -0.456575       -12.4240
  71   2.0000      -0.448339       -12.1999
  72   2.0000      -0.352211        -9.5841
  73   2.0000      -0.343619        -9.3504
  74   2.0000      -0.326363        -8.8808
  75   2.0000      -0.316409        -8.6099
  76   2.0000      -0.313531        -8.5316
  77   0.0000       0.078818         2.1447
  78   0.0000       0.112609         3.0642
  79   0.0000       0.120474         3.2783
  80   0.0000       0.136503         3.7144
  81   0.0000       0.140525         3.8239

MULLIKEN ATOMIC CHARGES
-----------------------
   0 C :   -0.301691
   1 C :    0.044866
   2 O :   -0.349603
   3 C :    0.418812
   4 O :   -0.427472
   5 C :   -0.160226
   6 C :    0.162956
   7 C :   -0.282272
   8 N :   -0.129146
   9 C :    0.207799
  10 S :   -0.443784
  11 N :   -0.210598
  12 C :    0.039330
  13 C :    0.032864
  14 C :   -0.167005
  15 C :   -0.134504
  16 C :   -0.276966
  17 C :    0.314225
  18 O :   -0.359032
  19 C :   -0.249922
  20 H :    0.091280
  21 H :    0.095881
  22 H :    0.128903
  23 H :    0.102877
  24 H :    0.094402
  25 H :    0.131019
  26 H :    0.122158
  27 H :    0.102287
  28 H :    0.198631
  29 H :    0.199763
  30 H :    0.155171
  31 H :    0.158608
  32 H :    0.159469
  33 H :    0.127903
  34 H :    0.239750
  35 H :    0.163271
Sum of atomic charges:   -0.0000000

LOEWDIN ATOMIC CHARGES
----------------------
   0 C :    0.103414
   1 C :   -0.011557
   2 O :    0.298262
   3 C :   -0.413238
   4 O :    0.110323
   5 C :   -0.089752
   6 C :   -0.064946
   7 C :    0.124493
   8 N :    0.405107
   9 C :   -0.458828
  10 S :   -0.038712
  11 N :    0.396483
  12 C :   -0.048115
  13 C :   -0.040300
  14 C :    0.024539
  15 C :    0.040754
  16 C :   -0.001188
  17 C :   -0.192287
  18 O :    0.393115
  19 C :    0.030109
  20 H :   -0.028987
  21 H :   -0.028687
  22 H :   -0.025395
  23 H :   -0.024717
  24 H :   -0.027536
  25 H :   -0.009068
  26 H :   -0.010540
  27 H :   -0.021365
  28 H :   -0.058982
  29 H :   -0.063136
  30 H :   -0.008645
  31 H :   -0.024280
  32 H :   -0.021254
  33 H :   -0.036277
  34 H :   -0.155007
  35 H :   -0.023800

  Mayer bond orders larger than 0.100000
B(  0-C ,  1-C ) :   0.9658 B(  0-C , 20-H ) :   0.9762 B(  0-C , 21-H ) :   0.9770
B(  0-C , 22-H ) :   0.9707 B(  1-C ,  2-O ) :   0.9070 B(  1-C , 23-H ) :   0.9845
B(  1-C , 24-H ) :   0.9804 B(  2-O ,  3-C ) :   1.1445 B(  3-C ,  4-O ) :   1.9685
B(  3-C ,  5-C ) :   1.0561 B(  5-C ,  6-C ) :   1.6522 B(  5-C , 12-C ) :   0.9483
B(  6-C ,  7-C ) :   0.9529 B(  6-C ,  8-N ) :   1.1339 B(  7-C , 25-H ) :   0.9626
B(  7-C , 26-H ) :   0.9663 B(  7-C , 27-H ) :   0.9920 B(  8-N ,  9-C ) :   1.1865
B(  8-N , 28-H ) :   0.9471 B(  9-C , 10-S ) :   1.6068 B(  9-C , 11-N ) :   1.3061
B( 11-N , 12-C ) :   0.9772 B( 11-N , 29-H ) :   0.9485 B( 12-C , 13-C ) :   0.9750
B( 12-C , 30-H ) :   0.9972 B( 13-C , 14-C ) :   1.3757 B( 13-C , 19-C ) :   1.3675
B( 14-C , 15-C ) :   1.3973 B( 14-C , 31-H ) :   0.9640 B( 15-C , 16-C ) :   1.3589
B( 15-C , 32-H ) :   0.9713 B( 16-C , 17-C ) :   1.3333 B( 16-C , 33-H ) :   0.9861
B( 17-C , 18-O ) :   1.1031 B( 17-C , 19-C ) :   1.3675 B( 18-O , 34-H ) :   0.9808
B( 19-C , 35-H ) :   0.9600

MP2 TOTAL ENERGY:    -1274.336066462 Eh
FINAL SINGLE POINT ENERGY     -1274.336066462130

DIPOLE MOMENT
-------------
                                X             Y             Z
Electronic contribution:      8.51507       9.69239      12.67645
Nuclear contribution   :    -10.12919     -10.86153     -13.73707
                        -----------------------------------------
Total Dipole Moment    :     -1.61412      -1.16914      -1.06062
                        -----------------------------------------
Magnitude (a.u.)       :      2.25770
Magnitude (Debye)      :      5.73861

Rotational constants in cm-1:     0.009953     0.008880     0.005473
Rotational constants in MHz :   298.380970   266.208555   164.071875

                             ****ORCA TERMINATED NORMALLY****
TOTAL RUN TIME: 0 days 1 hours 59 minutes 32 seconds 788 msec
