                         Program Version 4.2.0 -  RELEASE  -
|  1> ! ri-mp2 cc-pvtz cc-pvtz/c TightSCF NoKeepInts
|  2>
|  3> %scf
|  4>   MaxCore 4096
|  5> end
|  6> *xyz  0  1
|  7>     C       14.3170927   15.6410487   15.0783494
|  8>     C       15.4248556   15.4204666   16.1263256
|  9>     O       16.6968245   15.7475357   15.5304941
| 10>     C       16.9941250   17.0497588   15.2534948
| 11>     O       17.1688721   17.4126206   14.1047651
| 12>     C       17.0496773   17.9596153   16.4494143
| 13>     C       16.8863765   19.2941335   16.2673248
| 14>     C       16.2532880   19.9720421   15.0701095
| 15>     N       17.2946740   20.2142081   17.2344001
| 16>     C       18.0983857   19.9042182   18.2977157
| 17>     S       18.6533735   21.0585756   19.3436645
| 18>     N       18.4406864   18.5827758   18.4378091
| 19>     C       17.8835234   17.4669356   17.6483752
| 20>     C       17.2621061   16.3884124   18.5234744
| 21>     C       17.7423587   15.0664626   18.4826069
| 22>     C       17.1644930   14.0727795   19.2903659
| 23>     C       16.1040764   14.4056384   20.1507134
| 24>     C       15.6317088   15.7243105   20.2015370
| 25>     O       14.6070126   16.0483719   21.0290762
| 26>     C       16.2066976   16.7109128   19.3941941
| 27>     H       14.2351028   16.7001251   14.8042943
| 28>     H       13.3465423   15.3157126   15.4721348
| 29>     H       14.5277537   15.0650201   14.1682440
| 30>     H       15.2126798   16.0355477   17.0072984
| 31>     H       15.4282260   14.3674339   16.4364253
| 32>     H       15.4325762   19.3685668   14.6627689
| 33>     H       16.9919997   20.1004790   14.2680263
| 34>     H       15.8405448   20.9584945   15.3125366
| 35>     H       17.0843470   21.1926602   17.1166236
| 36>     H       19.0226212   18.3819803   19.2416949
| 37>     H       18.8142129   17.0887655   17.2011099
| 38>     H       18.5582660   14.8058462   17.8127128
| 39>     H       17.5391854   13.0511579   19.2484285
| 40>     H       15.6555248   13.6410752   20.7768873
| 41>     H       14.3859007   15.2584383   21.5455362
| 42>     H       15.8313088   17.7278744   19.4490680
| 43> *
| 44>
| 45>                          ****END OF INPUT****

CARTESIAN COORDINATES (ANGSTROEM)
---------------------------------
  C     14.317093   15.641049   15.078349
  C     15.424856   15.420467   16.126326
  O     16.696825   15.747536   15.530494
  C     16.994125   17.049759   15.253495
  O     17.168872   17.412621   14.104765
  C     17.049677   17.959615   16.449414
  C     16.886377   19.294134   16.267325
  C     16.253288   19.972042   15.070109
  N     17.294674   20.214208   17.234400
  C     18.098386   19.904218   18.297716
  S     18.653373   21.058576   19.343664
  N     18.440686   18.582776   18.437809
  C     17.883523   17.466936   17.648375
  C     17.262106   16.388412   18.523474
  C     17.742359   15.066463   18.482607
  C     17.164493   14.072779   19.290366
  C     16.104076   14.405638   20.150713
  C     15.631709   15.724310   20.201537
  O     14.607013   16.048372   21.029076
  C     16.206698   16.710913   19.394194
  H     14.235103   16.700125   14.804294
  H     13.346542   15.315713   15.472135
  H     14.527754   15.065020   14.168244
  H     15.212680   16.035548   17.007298
  H     15.428226   14.367434   16.436425
  H     15.432576   19.368567   14.662769
  H     16.992000   20.100479   14.268026
  H     15.840545   20.958494   15.312537
  H     17.084347   21.192660   17.116624
  H     19.022621   18.381980   19.241695
  H     18.814213   17.088766   17.201110
  H     18.558266   14.805846   17.812713
  H     17.539185   13.051158   19.248428
  H     15.655525   13.641075   20.776887
  H     14.385901   15.258438   21.545536
  H     15.831309   17.727874   19.449068

 Total Charge           Charge          ....    0
 Multiplicity           Mult            ....    1
 Number of Electrons    NEL             ....  154
 Basis Dimension        Dim             ....  828

ORBITAL ENERGIES
----------------

  NO   OCC          E(Eh)            E(eV)
   0   2.0000     -91.891496     -2500.4947
   1   2.0000     -20.602967      -560.6352
   2   2.0000     -20.587051      -560.2021
   3   2.0000     -20.550266      -559.2012
   4   2.0000     -15.630240      -425.3205
   5   2.0000     -15.610671      -424.7879
   6   2.0000     -11.393157      -310.0236
   7   2.0000     -11.386145      -309.8328
   8   2.0000     -11.336218      -308.4742
   9   2.0000     -11.320951      -308.0587
  10   2.0000     -11.315140      -307.9006
  11   2.0000     -11.298009      -307.4345
  12   2.0000     -11.267490      -306.6040
  13   2.0000     -11.261872      -306.4511
  14   2.0000     -11.258560      -306.3610
  15   2.0000     -11.255197      -306.2695
  16   2.0000     -11.250974      -306.1546
  17   2.0000     -11.245647      -306.0096
  18   2.0000     -11.245134      -305.9956
  19   2.0000     -11.227260      -305.5093
  20   2.0000      -8.896547      -242.0874
  21   2.0000      -6.578113      -178.9996
  22   2.0000      -6.576121      -178.9453
  23   2.0000      -6.575523      -178.9291
  24   2.0000      -1.446599       -39.3640
  25   2.0000      -1.422747       -38.7149
  26   2.0000      -1.356704       -36.9178
  27   2.0000      -1.342637       -36.5350
  28   2.0000      -1.241479       -33.7824
  29   2.0000      -1.164081       -31.6763
  30   2.0000      -1.123701       -30.5775
  31   2.0000      -1.048802       -28.5394
  32   2.0000      -1.032519       -28.0963
  33   2.0000      -1.022117       -27.8132
  34   2.0000      -1.001882       -27.2626
  35   2.0000      -0.988808       -26.9068
  36   2.0000      -0.926413       -25.2090
  37   2.0000      -0.887855       -24.1598
  38   2.0000      -0.851307       -23.1652
  39   2.0000      -0.843851       -22.9623
  40   2.0000      -0.841175       -22.8895
  41   2.0000      -0.832216       -22.6458
  42   2.0000      -0.754677       -20.5358
  43   2.0000      -0.737960       -20.0809
  44   2.0000      -0.718226       -19.5439
  45   2.0000      -0.701203       -19.0807
  46   2.0000      -0.690914       -18.8007
  47   2.0000      -0.679874       -18.5003
  48   2.0000      -0.673363       -18.3231
  49   2.0000      -0.668908       -18.2019
  50   2.0000      -0.650186       -17.6925
  51   2.0000      -0.648203       -17.6385
  52   2.0000      -0.636402       -17.3174
  53   2.0000      -0.613261       -16.6877
  54   2.0000      -0.611153       -16.6303
  55   2.0000      -0.604229       -16.4419
  56   2.0000      -0.602864       -16.4048
  57   2.0000      -0.581881       -15.8338
  58   2.0000      -0.575830       -15.6691
  59   2.0000      -0.568330       -15.4650
  60   2.0000      -0.556912       -15.1544
  61   2.0000      -0.549364       -14.9490
  62   2.0000      -0.543206       -14.7814
  63   2.0000      -0.528829       -14.3902
  64   2.0000      -0.526030       -14.3140
  65   2.0000      -0.517177       -14.0731
  66   2.0000      -0.504554       -13.7296
  67   2.0000      -0.498071       -13.5532
  68   2.0000      -0.482129       -13.1194
  69   2.0000      -0.467368       -12.7177
  70   2.0000      -0.455985       -12.4080
  71   2.0000      -0.448575       -12.2064
  72   2.0000      -0.357501        -9.7281
  73   2.0000      -0.352752        -9.5989
  74   2.0000      -0.330942        -9.0054
  75   2.0000      -0.328219        -8.9313
  76   2.0000      -0.321504        -8.7486
  77   0.0000       0.075470         2.0536
  78   0.0000       0.096717         2.6318
  79   0.0000       0.121566         3.3080
  80   0.0000       0.127946         3.4816
  81   0.0000       0.129157         3.5145

MULLIKEN ATOMIC CHARGES
-----------------------
   0 C :   -0.269354
   1 C :    0.016513
   2 O :   -0.354940
   3 C :    0.427210
   4 O :   -0.374585
   5 C :   -0.234993
   6 C :    0.154722
   7 C :   -0.271836
   8 N :   -0.129232
   9 C :    0.208670
  10 S :   -0.437179
  11 N :   -0.208667
  12 C :    0.039107
  13 C :   -0.010756
  14 C :   -0.147157
  15 C :   -0.148633
  16 C :   -0.269811
  17 C :    0.306202
  18 O :   -0.355288
  19 C :   -0.233640
  20 H :    0.085226
  21 H :    0.096545
  22 H :    0.110083
  23 H :    0.103036
  24 H :    0.120983
  25 H :    0.120383
  26 H :    0.140006
  27 H :    0.096112
  28 H :    0.199648
  29 H :    0.199926
  30 H :    0.154046
  31 H :    0.152407
  32 H :    0.165809
  33 H :    0.134993
  34 H :    0.241520
  35 H :    0.172923
Sum of atomic charges:    0.0000000

LOEWDIN ATOMIC CHARGES
----------------------
   0 C :    0.106626
   1 C :   -0.023848
   2 O :    0.297781
   3 C :   -0.427335
   4 O :    0.126902
   5 C :   -0.103778
   6 C :   -0.063735
   7 C :    0.129615
   8 N :    0.407028
   9 C :   -0.457310
  10 S :   -0.033083
  11 N :    0.395461
  12 C :   -0.053151
  13 C :   -0.044268
  14 C :    0.022534
  15 C :    0.042743
  16 C :    0.000701
  17 C :   -0.192395
  18 O :    0.396390
  19 C :    0.031527
  20 H :   -0.031380
  21 H :   -0.026653
  22 H :   -0.022075
  23 H :   -0.037764
  24 H :   -0.021360
  25 H :   -0.008796
  26 H :   -0.003911
  27 H :   -0.022039
  28 H :   -0.056392
  29 H :   -0.063324
  30 H :   -0.011115
  31 H :   -0.026186
  32 H :   -0.019113
  33 H :   -0.033877
  34 H :   -0.152522
  35 H :   -0.021900

  Mayer bond orders larger than 0.100000
B(  0-C ,  1-C ) :   0.9828 B(  0-C , 20-H ) :   0.9747 B(  0-C , 21-H ) :   0.9771
B(  0-C , 22-H ) :   0.9779 B(  1-C ,  2-O ) :   0.8832 B(  1-C , 23-H ) :   0.9593
B(  1-C , 24-H ) :   0.9779 B(  2-O ,  3-C ) :   1.1316 B(  3-C ,  4-O ) :   2.0981
B(  3-C ,  5-C ) :   0.9797 B(  5-C ,  6-C ) :   1.6564 B(  5-C , 12-C ) :   0.9572
B(  6-C ,  7-C ) :   0.9604 B(  6-C ,  8-N ) :   1.1450 B(  7-C , 25-H ) :   0.9722
B(  7-C , 26-H ) :   0.9543 B(  7-C , 27-H ) :   0.9851 B(  8-N ,  9-C ) :   1.1894
B(  8-N , 28-H ) :   0.9481 B(  9-C , 10-S ) :   1.6154 B(  9-C , 11-N ) :   1.2957
B( 11-N , 12-C ) :   0.9808 B( 11-N , 29-H ) :   0.9477 B( 12-C , 13-C ) :   0.9645
B( 12-C , 30-H ) :   1.0058 B( 13-C , 14-C ) :   1.3634 B( 13-C , 19-C ) :   1.3577
B( 14-C , 15-C ) :   1.3961 B( 14-C , 31-H ) :   0.9724 B( 15-C , 16-C ) :   1.3597
B( 15-C , 32-H ) :   0.9697 B( 16-C , 17-C ) :   1.3313 B( 16-C , 33-H ) :   0.9831
B( 17-C , 18-O ) :   1.1096 B( 17-C , 19-C ) :   1.3646 B( 18-O , 34-H ) :   0.9789
B( 19-C , 35-H ) :   0.9585

MP2 TOTAL ENERGY:    -1274.324220214 Eh
FINAL SINGLE POINT ENERGY     -1274.324220214232

DIPOLE MOMENT
-------------
                                X             Y             Z
Electronic contribution:     10.06270       7.99774       7.94798
Nuclear contribution   :    -11.38650      -9.59258      -7.70683
                        -----------------------------------------
Total Dipole Moment    :     -1.32380      -1.59484       0.24115
                        -----------------------------------------
Magnitude (a.u.)       :      2.08666
Magnitude (Debye)      :      5.30386

Rotational constants in cm-1:     0.011642     0.009145     0.006096
Rotational constants in MHz :   349.008980   274.166726   182.748746

                             ****ORCA TERMINATED NORMALLY****
TOTAL RUN TIME: 0 days 1 hours 48 minutes 10 seconds 100 msec
