                         Program Version 4.2.0 -  RELEASE  -
|  1> ! ri-mp2 cc-pvtz cc-pvtz/c TightSCF NoKeepInts
|  2>
|  3> %scf
|  4>   MaxCore 4096
|  5> end
|  6> *xyz  0  1
|  7>     C       14.6896524   15.2654078   16.1003623
|  8>     C       14.8518017   16.3788205   15.0437063
|  9>     O       16.2195132   16.4481111   14.5846631
| 10>     C       17.2478510   16.5196408   15.4815409
| 11>     O       18.1049345   15.6564779   15.5346551
| 12>     C       17.2020729   17.6817712   16.4274539
| 13>     C       16.9392040   18.9397593   15.9895346
| 14>     C       16.4829485   19.3591393   14.6051405
| 15>     N       17.1766456   20.0444976   16.8106299
| 16>     C       17.8992413   20.0002835   17.9729926
| 17>     S       18.2434288   21.3670479   18.8377974
| 18>     N       18.3440094   18.7636398   18.3687292
| 19>     C       17.9670505   17.4825788   17.7394699
| 20>     C       17.2880329   16.5024845   18.6849762
| 21>     C       17.7119030   15.1629509   18.7463423
| 22>     C       17.0720978   14.2497448   19.6008254
| 23>     C       15.9988035   14.6797900   20.3998031
| 24>     C       15.5722267   16.0134780   20.3379475
| 25>     O       14.5298964   16.4291042   21.1004761
| 26>     C       16.2100505   16.9201473   19.4851948
| 27>     H       15.1953329   15.5211231   17.0383369
| 28>     H       15.1033223   14.3178940   15.7317455
| 29>     H       13.6286291   15.1070880   16.3281383
| 30>     H       14.1967993   16.1683257   14.1882894
| 31>     H       14.5379837   17.3345042   15.4815633
| 32>     H       16.9907762   18.7782779   13.8245862
| 33>     H       16.7078130   20.4127433   14.3968205
| 34>     H       15.4027891   19.2232432   14.4818595
| 35>     H       16.8855729   20.9631687   16.5159122
| 36>     H       18.8675459   18.7563161   19.2352344
| 37>     H       18.9606543   17.1079271   17.4515556
| 38>     H       18.5321369   14.8257873   18.1158346
| 39>     H       17.4062509   13.2141775   19.6364909
| 40>     H       15.5008673   13.9769056   21.0595407
| 41>     H       14.2555652   15.6798893   21.6506610
| 42>     H       15.8635966   17.9477536   19.4491898
| 43> *
| 44>
| 45>                          ****END OF INPUT****

CARTESIAN COORDINATES (ANGSTROEM)
---------------------------------
  C     14.689652   15.265408   16.100362
  C     14.851802   16.378820   15.043706
  O     16.219513   16.448111   14.584663
  C     17.247851   16.519641   15.481541
  O     18.104934   15.656478   15.534655
  C     17.202073   17.681771   16.427454
  C     16.939204   18.939759   15.989535
  C     16.482948   19.359139   14.605140
  N     17.176646   20.044498   16.810630
  C     17.899241   20.000283   17.972993
  S     18.243429   21.367048   18.837797
  N     18.344009   18.763640   18.368729
  C     17.967050   17.482579   17.739470
  C     17.288033   16.502485   18.684976
  C     17.711903   15.162951   18.746342
  C     17.072098   14.249745   19.600825
  C     15.998803   14.679790   20.399803
  C     15.572227   16.013478   20.337947
  O     14.529896   16.429104   21.100476
  C     16.210051   16.920147   19.485195
  H     15.195333   15.521123   17.038337
  H     15.103322   14.317894   15.731746
  H     13.628629   15.107088   16.328138
  H     14.196799   16.168326   14.188289
  H     14.537984   17.334504   15.481563
  H     16.990776   18.778278   13.824586
  H     16.707813   20.412743   14.396821
  H     15.402789   19.223243   14.481859
  H     16.885573   20.963169   16.515912
  H     18.867546   18.756316   19.235234
  H     18.960654   17.107927   17.451556
  H     18.532137   14.825787   18.115835
  H     17.406251   13.214177   19.636491
  H     15.500867   13.976906   21.059541
  H     14.255565   15.679889   21.650661
  H     15.863597   17.947754   19.449190

 Total Charge           Charge          ....    0
 Multiplicity           Mult            ....    1
 Number of Electrons    NEL             ....  154
 Basis Dimension        Dim             ....  828

ORBITAL ENERGIES
----------------

  NO   OCC          E(Eh)            E(eV)
   0   2.0000     -91.890396     -2500.4648
   1   2.0000     -20.597817      -560.4951
   2   2.0000     -20.592593      -560.3530
   3   2.0000     -20.552749      -559.2687
   4   2.0000     -15.630213      -425.3197
   5   2.0000     -15.608696      -424.7342
   6   2.0000     -11.396256      -310.1079
   7   2.0000     -11.385524      -309.8159
   8   2.0000     -11.338994      -308.5497
   9   2.0000     -11.314768      -307.8905
  10   2.0000     -11.308402      -307.7173
  11   2.0000     -11.307610      -307.6957
  12   2.0000     -11.264127      -306.5125
  13   2.0000     -11.262370      -306.4647
  14   2.0000     -11.261543      -306.4422
  15   2.0000     -11.254692      -306.2557
  16   2.0000     -11.244462      -305.9774
  17   2.0000     -11.240345      -305.8653
  18   2.0000     -11.236716      -305.7666
  19   2.0000     -11.229007      -305.5568
  20   2.0000      -8.895482      -242.0584
  21   2.0000      -6.577058      -178.9708
  22   2.0000      -6.575053      -178.9163
  23   2.0000      -6.574464      -178.9003
  24   2.0000      -1.448688       -39.4208
  25   2.0000      -1.417593       -38.5747
  26   2.0000      -1.360322       -37.0162
  27   2.0000      -1.342147       -36.5217
  28   2.0000      -1.239607       -33.7314
  29   2.0000      -1.158945       -31.5365
  30   2.0000      -1.124382       -30.5960
  31   2.0000      -1.046508       -28.4769
  32   2.0000      -1.034301       -28.1448
  33   2.0000      -1.016701       -27.6658
  34   2.0000      -1.004418       -27.3316
  35   2.0000      -0.988813       -26.9070
  36   2.0000      -0.925480       -25.1836
  37   2.0000      -0.894483       -24.3401
  38   2.0000      -0.853085       -23.2136
  39   2.0000      -0.840951       -22.8834
  40   2.0000      -0.834491       -22.7077
  41   2.0000      -0.829632       -22.5754
  42   2.0000      -0.745536       -20.2871
  43   2.0000      -0.734053       -19.9746
  44   2.0000      -0.730977       -19.8909
  45   2.0000      -0.695206       -18.9175
  46   2.0000      -0.686149       -18.6711
  47   2.0000      -0.682717       -18.5777
  48   2.0000      -0.677306       -18.4304
  49   2.0000      -0.663296       -18.0492
  50   2.0000      -0.654946       -17.8220
  51   2.0000      -0.646799       -17.6003
  52   2.0000      -0.637219       -17.3396
  53   2.0000      -0.621815       -16.9205
  54   2.0000      -0.608542       -16.5593
  55   2.0000      -0.604198       -16.4411
  56   2.0000      -0.601195       -16.3593
  57   2.0000      -0.581832       -15.8325
  58   2.0000      -0.575555       -15.6616
  59   2.0000      -0.565872       -15.3982
  60   2.0000      -0.559594       -15.2273
  61   2.0000      -0.547363       -14.8945
  62   2.0000      -0.544855       -14.8263
  63   2.0000      -0.533851       -14.5268
  64   2.0000      -0.520378       -14.1602
  65   2.0000      -0.511937       -13.9305
  66   2.0000      -0.500033       -13.6066
  67   2.0000      -0.494340       -13.4517
  68   2.0000      -0.486539       -13.2394
  69   2.0000      -0.468927       -12.7602
  70   2.0000      -0.459826       -12.5125
  71   2.0000      -0.449385       -12.2284
  72   2.0000      -0.356811        -9.7093
  73   2.0000      -0.350339        -9.5332
  74   2.0000      -0.329632        -8.9698
  75   2.0000      -0.322121        -8.7654
  76   2.0000      -0.320135        -8.7113
  77   0.0000       0.075738         2.0609
  78   0.0000       0.104631         2.8471
  79   0.0000       0.118942         3.2366
  80   0.0000       0.130995         3.5646
  81   0.0000       0.134795         3.6679

MULLIKEN ATOMIC CHARGES
-----------------------
   0 C :   -0.301726
   1 C :    0.026547
   2 O :   -0.359950
   3 C :    0.459820
   4 O :   -0.382327
   5 C :   -0.242038
   6 C :    0.152756
   7 C :   -0.303337
   8 N :   -0.132021
   9 C :    0.206005
  10 S :   -0.440287
  11 N :   -0.216552
  12 C :    0.064636
  13 C :   -0.022333
  14 C :   -0.176654
  15 C :   -0.138003
  16 C :   -0.268939
  17 C :    0.304278
  18 O :   -0.358003
  19 C :   -0.221125
  20 H :    0.117736
  21 H :    0.113704
  22 H :    0.101231
  23 H :    0.121039
  24 H :    0.081362
  25 H :    0.139581
  26 H :    0.113940
  27 H :    0.121184
  28 H :    0.198077
  29 H :    0.201059
  30 H :    0.161905
  31 H :    0.172870
  32 H :    0.162903
  33 H :    0.132097
  34 H :    0.240912
  35 H :    0.169653
Sum of atomic charges:   -0.0000000

LOEWDIN ATOMIC CHARGES
----------------------
   0 C :    0.110178
   1 C :   -0.022820
   2 O :    0.294219
   3 C :   -0.421377
   4 O :    0.126145
   5 C :   -0.094115
   6 C :   -0.073988
   7 C :    0.128028
   8 N :    0.404619
   9 C :   -0.458413
  10 S :   -0.036191
  11 N :    0.396225
  12 C :   -0.049001
  13 C :   -0.045550
  14 C :    0.022837
  15 C :    0.043336
  16 C :   -0.000230
  17 C :   -0.192834
  18 O :    0.394662
  19 C :    0.027006
  20 H :   -0.026803
  21 H :   -0.020803
  22 H :   -0.024670
  23 H :   -0.021379
  24 H :   -0.040577
  25 H :   -0.006061
  26 H :   -0.016628
  27 H :   -0.015830
  28 H :   -0.057932
  29 H :   -0.063267
  30 H :   -0.005741
  31 H :   -0.021806
  32 H :   -0.019168
  33 H :   -0.034948
  34 H :   -0.153569
  35 H :   -0.023553

  Mayer bond orders larger than 0.100000
B(  0-C ,  1-C ) :   0.9729 B(  0-C , 20-H ) :   0.9647 B(  0-C , 21-H ) :   0.9745
B(  0-C , 22-H ) :   0.9767 B(  1-C ,  2-O ) :   0.9002 B(  1-C , 23-H ) :   0.9784
B(  1-C , 24-H ) :   0.9710 B(  2-O ,  3-C ) :   1.1073 B(  3-C ,  4-O ) :   2.0733
B(  3-C ,  5-C ) :   0.9668 B(  5-C ,  6-C ) :   1.6980 B(  5-C , 12-C ) :   0.9395
B(  6-C ,  7-C ) :   0.9405 B(  6-C ,  8-N ) :   1.1296 B(  7-C , 25-H ) :   0.9663
B(  7-C , 26-H ) :   0.9870 B(  7-C , 27-H ) :   0.9668 B(  8-N ,  9-C ) :   1.1882
B(  8-N , 28-H ) :   0.9485 B(  9-C , 10-S ) :   1.6122 B(  9-C , 11-N ) :   1.2974
B( 11-N , 12-C ) :   0.9843 B( 11-N , 29-H ) :   0.9484 B( 12-C , 13-C ) :   0.9689
B( 12-C , 30-H ) :   0.9930 B( 13-C , 14-C ) :   1.3911 B( 13-C , 19-C ) :   1.3604
B( 14-C , 15-C ) :   1.3946 B( 14-C , 31-H ) :   0.9580 B( 15-C , 16-C ) :   1.3603
B( 15-C , 32-H ) :   0.9708 B( 16-C , 17-C ) :   1.3325 B( 16-C , 33-H ) :   0.9843
B( 17-C , 18-O ) :   1.1085 B( 17-C , 19-C ) :   1.3653 B( 18-O , 34-H ) :   0.9797
B( 19-C , 35-H ) :   0.9584

MP2 TOTAL ENERGY:    -1274.330051695 Eh
FINAL SINGLE POINT ENERGY     -1274.330051694553

DIPOLE MOMENT
-------------
                                X             Y             Z
Electronic contribution:      9.20566       8.33297       6.64827
Nuclear contribution   :    -10.80987      -9.37720      -7.13515
                        -----------------------------------------
Total Dipole Moment    :     -1.60421      -1.04423      -0.48689
                        -----------------------------------------
Magnitude (a.u.)       :      1.97509
Magnitude (Debye)      :      5.02027

Rotational constants in cm-1:     0.011483     0.009275     0.006337
Rotational constants in MHz :   344.262303   278.052113   189.981858

                             ****ORCA TERMINATED NORMALLY****
TOTAL RUN TIME: 0 days 1 hours 57 minutes 42 seconds 948 msec
