                         Program Version 4.2.0 -  RELEASE  -
|  1> ! ri-mp2 cc-pvtz cc-pvtz/c TightSCF NoKeepInts
|  2>
|  3> %scf
|  4>   MaxCore 4096
|  5> end
|  6> *xyz  0  1
|  7>     C       14.3497970   15.0966599   15.6894050
|  8>     C       14.9138860   16.4606560   15.2579036
|  9>     O       16.2582386   16.2367404   14.7848788
| 10>     C       17.3553717   16.4981759   15.5625595
| 11>     O       18.3279668   15.7665704   15.5422755
| 12>     C       17.2657199   17.6770704   16.4795486
| 13>     C       16.9742539   18.9112417   15.9998024
| 14>     C       16.5071398   19.2612631   14.6008610
| 15>     N       17.1716400   20.0471174   16.7874970
| 16>     C       17.8734299   20.0541649   17.9641899
| 17>     S       18.1645392   21.4534242   18.7957438
| 18>     N       18.3412766   18.8407127   18.4057263
| 19>     C       18.0165880   17.5323659   17.8028525
| 20>     C       17.3415729   16.5482273   18.7467150
| 21>     C       17.7743068   15.2114451   18.8046213
| 22>     C       17.1370239   14.2906235   19.6528095
| 23>     C       16.0557690   14.7098183   20.4468533
| 24>     C       15.6182417   16.0400309   20.3856142
| 25>     O       14.5676432   16.4449186   21.1426011
| 26>     C       16.2538013   16.9544212   19.5393633
| 27>     H       14.9265779   14.6890080   16.5298914
| 28>     H       14.3940960   14.3788439   14.8605489
| 29>     H       13.3042931   15.1929496   16.0063941
| 30>     H       14.3007177   16.8495196   14.4346967
| 31>     H       14.8565893   17.1700492   16.0924801
| 32>     H       16.9257073   18.5794023   13.8496927
| 33>     H       16.8235629   20.2701816   14.3069520
| 34>     H       15.4143180   19.2211248   14.5260132
| 35>     H       16.8641035   20.9490913   16.4593040
| 36>     H       18.8497150   18.8724386   19.2806835
| 37>     H       19.0251899   17.1794867   17.5402063
| 38>     H       18.6010003   14.8828675   18.1777767
| 39>     H       17.4792608   13.2576268   19.6876047
| 40>     H       15.5597735   14.0011046   21.1018301
| 41>     H       14.2956528   15.6917478   21.6885801
| 42>     H       15.8982356   17.9789096   19.5035238
| 43> *
| 44>
| 45>                          ****END OF INPUT****

CARTESIAN COORDINATES (ANGSTROEM)
---------------------------------
  C     14.349797   15.096660   15.689405
  C     14.913886   16.460656   15.257904
  O     16.258239   16.236740   14.784879
  C     17.355372   16.498176   15.562559
  O     18.327967   15.766570   15.542275
  C     17.265720   17.677070   16.479549
  C     16.974254   18.911242   15.999802
  C     16.507140   19.261263   14.600861
  N     17.171640   20.047117   16.787497
  C     17.873430   20.054165   17.964190
  S     18.164539   21.453424   18.795744
  N     18.341277   18.840713   18.405726
  C     18.016588   17.532366   17.802852
  C     17.341573   16.548227   18.746715
  C     17.774307   15.211445   18.804621
  C     17.137024   14.290623   19.652810
  C     16.055769   14.709818   20.446853
  C     15.618242   16.040031   20.385614
  O     14.567643   16.444919   21.142601
  C     16.253801   16.954421   19.539363
  H     14.926578   14.689008   16.529891
  H     14.394096   14.378844   14.860549
  H     13.304293   15.192950   16.006394
  H     14.300718   16.849520   14.434697
  H     14.856589   17.170049   16.092480
  H     16.925707   18.579402   13.849693
  H     16.823563   20.270182   14.306952
  H     15.414318   19.221125   14.526013
  H     16.864103   20.949091   16.459304
  H     18.849715   18.872439   19.280683
  H     19.025190   17.179487   17.540206
  H     18.601000   14.882867   18.177777
  H     17.479261   13.257627   19.687605
  H     15.559774   14.001105   21.101830
  H     14.295653   15.691748   21.688580
  H     15.898236   17.978910   19.503524

 Total Charge           Charge          ....    0
 Multiplicity           Mult            ....    1
 Number of Electrons    NEL             ....  154
 Basis Dimension        Dim             ....  828

ORBITAL ENERGIES
----------------

  NO   OCC          E(Eh)            E(eV)
   0   2.0000     -91.890398     -2500.4649
   1   2.0000     -20.601800      -560.6035
   2   2.0000     -20.598664      -560.5181
   3   2.0000     -20.549898      -559.1911
   4   2.0000     -15.629559      -425.3019
   5   2.0000     -15.609498      -424.7560
   6   2.0000     -11.397999      -310.1553
   7   2.0000     -11.386052      -309.8302
   8   2.0000     -11.336278      -308.4758
   9   2.0000     -11.315746      -307.9171
  10   2.0000     -11.308896      -307.7307
  11   2.0000     -11.306697      -307.6709
  12   2.0000     -11.266432      -306.5752
  13   2.0000     -11.263203      -306.4873
  14   2.0000     -11.263130      -306.4854
  15   2.0000     -11.255799      -306.2859
  16   2.0000     -11.245057      -305.9936
  17   2.0000     -11.241364      -305.8931
  18   2.0000     -11.237974      -305.8008
  19   2.0000     -11.230387      -305.5944
  20   2.0000      -8.895494      -242.0587
  21   2.0000      -6.577072      -178.9712
  22   2.0000      -6.575063      -178.9166
  23   2.0000      -6.574478      -178.9006
  24   2.0000      -1.449811       -39.4514
  25   2.0000      -1.418395       -38.5965
  26   2.0000      -1.361810       -37.0567
  27   2.0000      -1.341730       -36.5103
  28   2.0000      -1.239629       -33.7320
  29   2.0000      -1.160157       -31.5695
  30   2.0000      -1.125924       -30.6379
  31   2.0000      -1.047750       -28.5107
  32   2.0000      -1.038674       -28.2638
  33   2.0000      -1.017861       -27.6974
  34   2.0000      -1.005311       -27.3559
  35   2.0000      -0.989576       -26.9277
  36   2.0000      -0.926137       -25.2015
  37   2.0000      -0.886816       -24.1315
  38   2.0000      -0.855200       -23.2712
  39   2.0000      -0.842203       -22.9175
  40   2.0000      -0.836194       -22.7540
  41   2.0000      -0.834677       -22.7127
  42   2.0000      -0.752693       -20.4818
  43   2.0000      -0.740017       -20.1369
  44   2.0000      -0.731384       -19.9020
  45   2.0000      -0.696495       -18.9526
  46   2.0000      -0.688443       -18.7335
  47   2.0000      -0.681754       -18.5515
  48   2.0000      -0.676267       -18.4022
  49   2.0000      -0.661255       -17.9937
  50   2.0000      -0.657383       -17.8883
  51   2.0000      -0.646145       -17.5825
  52   2.0000      -0.638500       -17.3745
  53   2.0000      -0.612134       -16.6570
  54   2.0000      -0.606072       -16.4921
  55   2.0000      -0.605277       -16.4704
  56   2.0000      -0.601938       -16.3796
  57   2.0000      -0.582456       -15.8494
  58   2.0000      -0.577168       -15.7055
  59   2.0000      -0.569514       -15.4973
  60   2.0000      -0.561695       -15.2845
  61   2.0000      -0.557643       -15.1742
  62   2.0000      -0.549055       -14.9405
  63   2.0000      -0.528806       -14.3895
  64   2.0000      -0.518739       -14.1156
  65   2.0000      -0.514091       -13.9891
  66   2.0000      -0.503373       -13.6975
  67   2.0000      -0.500776       -13.6268
  68   2.0000      -0.488420       -13.2906
  69   2.0000      -0.470664       -12.8074
  70   2.0000      -0.456969       -12.4348
  71   2.0000      -0.449745       -12.2382
  72   2.0000      -0.356300        -9.6954
  73   2.0000      -0.351181        -9.5561
  74   2.0000      -0.329729        -8.9724
  75   2.0000      -0.323173        -8.7940
  76   2.0000      -0.319873        -8.7042
  77   0.0000       0.079493         2.1631
  78   0.0000       0.103555         2.8179
  79   0.0000       0.117387         3.1943
  80   0.0000       0.130212         3.5433
  81   0.0000       0.132563         3.6072

MULLIKEN ATOMIC CHARGES
-----------------------
   0 C :   -0.260479
   1 C :    0.009154
   2 O :   -0.329447
   3 C :    0.424536
   4 O :   -0.382324
   5 C :   -0.244384
   6 C :    0.170093
   7 C :   -0.315555
   8 N :   -0.135990
   9 C :    0.207023
  10 S :   -0.441114
  11 N :   -0.220181
  12 C :    0.065777
  13 C :    0.023920
  14 C :   -0.212832
  15 C :   -0.129180
  16 C :   -0.277816
  17 C :    0.314367
  18 O :   -0.356747
  19 C :   -0.253376
  20 H :    0.105169
  21 H :    0.104142
  22 H :    0.089681
  23 H :    0.107275
  24 H :    0.107123
  25 H :    0.141146
  26 H :    0.120830
  27 H :    0.120658
  28 H :    0.198566
  29 H :    0.201550
  30 H :    0.165055
  31 H :    0.174562
  32 H :    0.164619
  33 H :    0.131405
  34 H :    0.241243
  35 H :    0.171534
Sum of atomic charges:   -0.0000000

LOEWDIN ATOMIC CHARGES
----------------------
   0 C :    0.108407
   1 C :   -0.024541
   2 O :    0.306920
   3 C :   -0.418055
   4 O :    0.120790
   5 C :   -0.090975
   6 C :   -0.082867
   7 C :    0.128745
   8 N :    0.403415
   9 C :   -0.457059
  10 S :   -0.036888
  11 N :    0.396062
  12 C :   -0.049557
  13 C :   -0.043988
  14 C :    0.021365
  15 C :    0.043508
  16 C :   -0.000418
  17 C :   -0.191870
  18 O :    0.394471
  19 C :    0.026604
  20 H :   -0.023528
  21 H :   -0.023350
  22 H :   -0.026653
  23 H :   -0.029271
  24 H :   -0.037271
  25 H :   -0.005967
  26 H :   -0.013937
  27 H :   -0.015580
  28 H :   -0.057805
  29 H :   -0.063498
  30 H :   -0.004898
  31 H :   -0.021364
  32 H :   -0.018897
  33 H :   -0.034959
  34 H :   -0.153364
  35 H :   -0.023726

  Mayer bond orders larger than 0.100000
B(  0-C ,  1-C ) :   0.9862 B(  0-C , 20-H ) :   0.9734 B(  0-C , 21-H ) :   0.9784
B(  0-C , 22-H ) :   0.9762 B(  1-C ,  2-O ) :   0.8920 B(  1-C , 23-H ) :   0.9780
B(  1-C , 24-H ) :   0.9577 B(  2-O ,  3-C ) :   1.1624 B(  3-C ,  4-O ) :   2.0877
B(  3-C ,  5-C ) :   0.9400 B(  5-C ,  6-C ) :   1.7051 B(  5-C , 12-C ) :   0.9403
B(  6-C ,  7-C ) :   0.9355 B(  6-C ,  8-N ) :   1.1189 B(  7-C , 25-H ) :   0.9703
B(  7-C , 26-H ) :   0.9841 B(  7-C , 27-H ) :   0.9647 B(  8-N ,  9-C ) :   1.1922
B(  8-N , 28-H ) :   0.9493 B(  9-C , 10-S ) :   1.6112 B(  9-C , 11-N ) :   1.2942
B( 11-N , 12-C ) :   0.9849 B( 11-N , 29-H ) :   0.9481 B( 12-C , 13-C ) :   0.9675
B( 12-C , 30-H ) :   0.9910 B( 13-C , 14-C ) :   1.3836 B( 13-C , 19-C ) :   1.3555
B( 14-C , 15-C ) :   1.3934 B( 14-C , 31-H ) :   0.9595 B( 15-C , 16-C ) :   1.3609
B( 15-C , 32-H ) :   0.9698 B( 16-C , 17-C ) :   1.3308 B( 16-C , 33-H ) :   0.9851
B( 17-C , 18-O ) :   1.1080 B( 17-C , 19-C ) :   1.3667 B( 18-O , 34-H ) :   0.9795
B( 19-C , 35-H ) :   0.9570

MP2 TOTAL ENERGY:    -1274.332121409 Eh
FINAL SINGLE POINT ENERGY     -1274.332121408956

DIPOLE MOMENT
-------------
                                X             Y             Z
Electronic contribution:      9.90348       8.69901       7.51387
Nuclear contribution   :    -11.55988      -9.71711      -7.95109
                        -----------------------------------------
Total Dipole Moment    :     -1.65640      -1.01809      -0.43722
                        -----------------------------------------
Magnitude (a.u.)       :      1.99282
Magnitude (Debye)      :      5.06534

Rotational constants in cm-1:     0.011225     0.009121     0.006289
Rotational constants in MHz :   336.526542   273.442824   188.525014

                             ****ORCA TERMINATED NORMALLY****
TOTAL RUN TIME: 0 days 1 hours 40 minutes 25 seconds 544 msec
