                         Program Version 4.2.0 -  RELEASE  -
|  1> ! ri-mp2 cc-pvtz cc-pvtz/c TightSCF NoKeepInts
|  2>
|  3> %scf
|  4>   MaxCore 4096
|  5> end
|  6> *xyz  0  1
|  7>     C       14.5175642   14.6790870   15.1187230
|  8>     C       15.3289133   15.5013692   16.1333447
|  9>     O       16.4781983   16.0205987   15.4408176
| 10>     C       16.5540225   17.3679415   15.2504377
| 11>     O       16.2907905   17.8363414   14.1585251
| 12>     C       16.9134092   18.1735031   16.4740067
| 13>     C       16.8526136   19.5304708   16.4236062
| 14>     C       16.1125600   20.3782908   15.4090831
| 15>     N       17.4918798   20.3213667   17.3803746
| 16>     C       18.4087244   19.8521922   18.2802355
| 17>     S       19.2265047   20.8584670   19.3066770
| 18>     N       18.6345187   18.4998011   18.2676830
| 19>     C       17.8608960   17.5109033   17.4935733
| 20>     C       17.2531250   16.4449215   18.3912350
| 21>     C       17.8334183   15.1657610   18.4756384
| 22>     C       17.2761182   14.1851159   19.3135541
| 23>     C       16.1358589   14.4892435   20.0772283
| 24>     C       15.5654579   15.7676132   20.0050616
| 25>     O       14.4651939   16.0645619   20.7405774
| 26>     C       16.1209414   16.7414485   19.1692189
| 27>     H       14.1825872   15.3137423   14.2882849
| 28>     H       13.6329169   14.2405106   15.5958967
| 29>     H       15.1263559   13.8648932   14.7061384
| 30>     H       14.7100214   16.3047287   16.5561419
| 31>     H       15.6430056   14.8356798   16.9457989
| 32>     H       15.1349994   19.9403559   15.1708659
| 33>     H       16.6804332   20.4394888   14.4715049
| 34>     H       15.9304828   21.4013155   15.7589636
| 35>     H       17.3613588   21.3204888   17.3724460
| 36>     H       19.3009068   18.1797493   18.9593244
| 37>     H       18.6726251   17.0835180   16.8873525
| 38>     H       18.7140314   14.9285523   17.8838665
| 39>     H       17.7281064   13.1959580   19.3699992
| 40>     H       15.7026443   13.7345739   20.7258560
| 41>     H       14.2718314   15.2978579   21.3014919
| 42>     H       15.6739845   17.7295883   19.1344670
| 43> *
| 44>
| 45>                          ****END OF INPUT****

CARTESIAN COORDINATES (ANGSTROEM)
---------------------------------
  C     14.517564   14.679087   15.118723
  C     15.328913   15.501369   16.133345
  O     16.478198   16.020599   15.440818
  C     16.554022   17.367942   15.250438
  O     16.290790   17.836341   14.158525
  C     16.913409   18.173503   16.474007
  C     16.852614   19.530471   16.423606
  C     16.112560   20.378291   15.409083
  N     17.491880   20.321367   17.380375
  C     18.408724   19.852192   18.280235
  S     19.226505   20.858467   19.306677
  N     18.634519   18.499801   18.267683
  C     17.860896   17.510903   17.493573
  C     17.253125   16.444921   18.391235
  C     17.833418   15.165761   18.475638
  C     17.276118   14.185116   19.313554
  C     16.135859   14.489244   20.077228
  C     15.565458   15.767613   20.005062
  O     14.465194   16.064562   20.740577
  C     16.120941   16.741449   19.169219
  H     14.182587   15.313742   14.288285
  H     13.632917   14.240511   15.595897
  H     15.126356   13.864893   14.706138
  H     14.710021   16.304729   16.556142
  H     15.643006   14.835680   16.945799
  H     15.134999   19.940356   15.170866
  H     16.680433   20.439489   14.471505
  H     15.930483   21.401315   15.758964
  H     17.361359   21.320489   17.372446
  H     19.300907   18.179749   18.959324
  H     18.672625   17.083518   16.887352
  H     18.714031   14.928552   17.883866
  H     17.728106   13.195958   19.369999
  H     15.702644   13.734574   20.725856
  H     14.271831   15.297858   21.301492
  H     15.673984   17.729588   19.134467

 Total Charge           Charge          ....    0
 Multiplicity           Mult            ....    1
 Number of Electrons    NEL             ....  154
 Basis Dimension        Dim             ....  828

ORBITAL ENERGIES
----------------

  NO   OCC          E(Eh)            E(eV)
   0   2.0000     -91.891529     -2500.4956
   1   2.0000     -20.604260      -560.6704
   2   2.0000     -20.582476      -560.0776
   3   2.0000     -20.547320      -559.1210
   4   2.0000     -15.631428      -425.3528
   5   2.0000     -15.610031      -424.7705
   6   2.0000     -11.392159      -309.9964
   7   2.0000     -11.385819      -309.8239
   8   2.0000     -11.339432      -308.5616
   9   2.0000     -11.322172      -308.0920
  10   2.0000     -11.313417      -307.8537
  11   2.0000     -11.295115      -307.3557
  12   2.0000     -11.267670      -306.6089
  13   2.0000     -11.263405      -306.4928
  14   2.0000     -11.259922      -306.3980
  15   2.0000     -11.253938      -306.2352
  16   2.0000     -11.252282      -306.1902
  17   2.0000     -11.246486      -306.0324
  18   2.0000     -11.246320      -306.0279
  19   2.0000     -11.221287      -305.3467
  20   2.0000      -8.896577      -242.0882
  21   2.0000      -6.578143      -179.0004
  22   2.0000      -6.576151      -178.9462
  23   2.0000      -6.575553      -178.9299
  24   2.0000      -1.446687       -39.3663
  25   2.0000      -1.423988       -38.7487
  26   2.0000      -1.354168       -36.8488
  27   2.0000      -1.343580       -36.5607
  28   2.0000      -1.241950       -33.7952
  29   2.0000      -1.165119       -31.7045
  30   2.0000      -1.123462       -30.5710
  31   2.0000      -1.049010       -28.5450
  32   2.0000      -1.031394       -28.0657
  33   2.0000      -1.023141       -27.8411
  34   2.0000      -1.000569       -27.2269
  35   2.0000      -0.987967       -26.8839
  36   2.0000      -0.926545       -25.2126
  37   2.0000      -0.876901       -23.8617
  38   2.0000      -0.851600       -23.1732
  39   2.0000      -0.844629       -22.9835
  40   2.0000      -0.841659       -22.9027
  41   2.0000      -0.833732       -22.6870
  42   2.0000      -0.759403       -20.6644
  43   2.0000      -0.739263       -20.1164
  44   2.0000      -0.722108       -19.6496
  45   2.0000      -0.703050       -19.1310
  46   2.0000      -0.691596       -18.8193
  47   2.0000      -0.677283       -18.4298
  48   2.0000      -0.672678       -18.3045
  49   2.0000      -0.663937       -18.0666
  50   2.0000      -0.648794       -17.6546
  51   2.0000      -0.647915       -17.6307
  52   2.0000      -0.639607       -17.4046
  53   2.0000      -0.614244       -16.7144
  54   2.0000      -0.608444       -16.5566
  55   2.0000      -0.604290       -16.4436
  56   2.0000      -0.586475       -15.9588
  57   2.0000      -0.582826       -15.8595
  58   2.0000      -0.576009       -15.6740
  59   2.0000      -0.572732       -15.5848
  60   2.0000      -0.565911       -15.3992
  61   2.0000      -0.544631       -14.8202
  62   2.0000      -0.540663       -14.7122
  63   2.0000      -0.530792       -14.4436
  64   2.0000      -0.518607       -14.1120
  65   2.0000      -0.511775       -13.9261
  66   2.0000      -0.504718       -13.7341
  67   2.0000      -0.496050       -13.4982
  68   2.0000      -0.487574       -13.2676
  69   2.0000      -0.467026       -12.7084
  70   2.0000      -0.453281       -12.3344
  71   2.0000      -0.444746       -12.1021
  72   2.0000      -0.357727        -9.7343
  73   2.0000      -0.355267        -9.6673
  74   2.0000      -0.332295        -9.0422
  75   2.0000      -0.328754        -8.9459
  76   2.0000      -0.321443        -8.7469
  77   0.0000       0.072541         1.9739
  78   0.0000       0.096229         2.6185
  79   0.0000       0.120243         3.2720
  80   0.0000       0.127900         3.4803
  81   0.0000       0.128642         3.5005

MULLIKEN ATOMIC CHARGES
-----------------------
   0 C :   -0.254326
   1 C :    0.009349
   2 O :   -0.364466
   3 C :    0.455493
   4 O :   -0.386637
   5 C :   -0.287461
   6 C :    0.186909
   7 C :   -0.266934
   8 N :   -0.127696
   9 C :    0.210310
  10 S :   -0.438606
  11 N :   -0.213435
  12 C :    0.051990
  13 C :   -0.009274
  14 C :   -0.157343
  15 C :   -0.138937
  16 C :   -0.270274
  17 C :    0.301201
  18 O :   -0.356241
  19 C :   -0.213155
  20 H :    0.104018
  21 H :    0.085477
  22 H :    0.096424
  23 H :    0.094186
  24 H :    0.118956
  25 H :    0.124747
  26 H :    0.137096
  27 H :    0.094135
  28 H :    0.199699
  29 H :    0.200882
  30 H :    0.151583
  31 H :    0.152904
  32 H :    0.164842
  33 H :    0.134933
  34 H :    0.242354
  35 H :    0.167297
Sum of atomic charges:   -0.0000000

LOEWDIN ATOMIC CHARGES
----------------------
   0 C :    0.107055
   1 C :   -0.025307
   2 O :    0.296684
   3 C :   -0.428268
   4 O :    0.122400
   5 C :   -0.105004
   6 C :   -0.055921
   7 C :    0.130026
   8 N :    0.407843
   9 C :   -0.457366
  10 S :   -0.033379
  11 N :    0.395015
  12 C :   -0.054434
  13 C :   -0.041222
  14 C :    0.017459
  15 C :    0.041764
  16 C :    0.000709
  17 C :   -0.191405
  18 O :    0.396481
  19 C :    0.035867
  20 H :   -0.024510
  21 H :   -0.029404
  22 H :   -0.025718
  23 H :   -0.033211
  24 H :   -0.026838
  25 H :   -0.006103
  26 H :   -0.003841
  27 H :   -0.023039
  28 H :   -0.056180
  29 H :   -0.063884
  30 H :   -0.011508
  31 H :   -0.027174
  32 H :   -0.019019
  33 H :   -0.033506
  34 H :   -0.152058
  35 H :   -0.023001

  Mayer bond orders larger than 0.100000
B(  0-C ,  1-C ) :   0.9856 B(  0-C , 20-H ) :   0.9778 B(  0-C , 21-H ) :   0.9776
B(  0-C , 22-H ) :   0.9798 B(  1-C ,  2-O ) :   0.8772 B(  1-C , 23-H ) :   0.9683
B(  1-C , 24-H ) :   0.9728 B(  2-O ,  3-C ) :   1.1148 B(  3-C ,  4-O ) :   2.0635
B(  3-C ,  5-C ) :   1.0400 B(  5-C ,  6-C ) :   1.6301 B(  5-C , 12-C ) :   0.9589
B(  6-C ,  7-C ) :   0.9653 B(  6-C ,  8-N ) :   1.1570 B(  7-C , 25-H ) :   0.9674
B(  7-C , 26-H ) :   0.9542 B(  7-C , 27-H ) :   0.9876 B(  8-N ,  9-C ) :   1.1868
B(  8-N , 28-H ) :   0.9470 B(  9-C , 10-S ) :   1.6090 B(  9-C , 11-N ) :   1.3077
B( 11-N , 12-C ) :   0.9603 B( 11-N , 29-H ) :   0.9484 B( 12-C , 13-C ) :   0.9735
B( 12-C , 30-H ) :   1.0046 B( 13-C , 14-C ) :   1.3519 B( 13-C , 19-C ) :   1.3645
B( 14-C , 15-C ) :   1.3953 B( 14-C , 31-H ) :   0.9732 B( 15-C , 16-C ) :   1.3600
B( 15-C , 32-H ) :   0.9699 B( 16-C , 17-C ) :   1.3306 B( 16-C , 33-H ) :   0.9834
B( 17-C , 18-O ) :   1.1083 B( 17-C , 19-C ) :   1.3659 B( 18-O , 34-H ) :   0.9783
B( 19-C , 35-H ) :   0.9610

MP2 TOTAL ENERGY:    -1274.324280798 Eh
FINAL SINGLE POINT ENERGY     -1274.324280797917

DIPOLE MOMENT
-------------
                                X             Y             Z
Electronic contribution:      9.82445       9.87053       7.10869
Nuclear contribution   :    -10.95483     -11.39589      -6.69412
                        -----------------------------------------
Total Dipole Moment    :     -1.13038      -1.52535       0.41457
                        -----------------------------------------
Magnitude (a.u.)       :      1.94328
Magnitude (Debye)      :      4.93942

Rotational constants in cm-1:     0.012080     0.008705     0.006007
Rotational constants in MHz :   362.153967   260.983747   180.087601

                             ****ORCA TERMINATED NORMALLY****
TOTAL RUN TIME: 0 days 1 hours 51 minutes 47 seconds 407 msec
