                         Program Version 4.2.0 -  RELEASE  -
|  1> ! ri-mp2 cc-pvtz cc-pvtz/c TightSCF NoKeepInts
|  2>
|  3> %scf
|  4>   MaxCore 4096
|  5> end
|  6> *xyz  0  1
|  7>     C       14.7826498   15.3175061   16.1007279
|  8>     C       14.9184175   16.2285912   14.8597575
|  9>     O       16.2973763   16.5198082   14.5318830
| 10>     C       17.2657685   16.5486982   15.4937171
| 11>     O       18.0788700   15.6482846   15.5999466
| 12>     C       17.1968096   17.7066733   16.4452550
| 13>     C       16.9148883   18.9654546   16.0204605
| 14>     C       16.4464952   19.3957812   14.6439351
| 15>     N       17.1299070   20.0642428   16.8559216
| 16>     C       17.8446405   20.0189774   18.0228175
| 17>     S       18.1614706   21.3815317   18.9046699
| 18>     N       18.3048513   18.7852674   18.4089348
| 19>     C       17.9519721   17.5052292   17.7639544
| 20>     C       17.2771568   16.5109869   18.6989423
| 21>     C       17.7190217   15.1773269   18.7622474
| 22>     C       17.0848711   14.2536512   19.6096609
| 23>     C       15.9995313   14.6672500   20.4009021
| 24>     C       15.5557957   15.9952442   20.3385623
| 25>     O       14.5024519   16.3953060   21.0942931
| 26>     C       16.1881712   16.9122916   19.4929093
| 27>     H       15.4112882   14.4227807   16.0020343
| 28>     H       13.7434003   14.9868406   16.2161881
| 29>     H       15.0637258   15.8433956   17.0200849
| 30>     H       14.4420138   15.7456149   13.9966607
| 31>     H       14.3774052   17.1624355   15.0563699
| 32>     H       17.0177054   18.8893361   13.8553757
| 33>     H       16.5760149   20.4722221   14.4758112
| 34>     H       15.3854652   19.1663811   14.4965879
| 35>     H       16.8250856   20.9811580   16.5701302
| 36>     H       18.8204391   18.7765743   19.2801388
| 37>     H       18.9536967   17.1475253   17.4830135
| 38>     H       18.5494127   14.8526163   18.1387581
| 39>     H       17.4329975   13.2227703   19.6459537
| 40>     H       15.5059421   13.9563036   21.0551917
| 41>     H       14.2329445   15.6406561   21.6393349
| 42>     H       15.8283463   17.9352869   19.4568680
| 43> *
| 44>
| 45>                          ****END OF INPUT****

CARTESIAN COORDINATES (ANGSTROEM)
---------------------------------
  C     14.782650   15.317506   16.100728
  C     14.918418   16.228591   14.859757
  O     16.297376   16.519808   14.531883
  C     17.265769   16.548698   15.493717
  O     18.078870   15.648285   15.599947
  C     17.196810   17.706673   16.445255
  C     16.914888   18.965455   16.020460
  C     16.446495   19.395781   14.643935
  N     17.129907   20.064243   16.855922
  C     17.844641   20.018977   18.022817
  S     18.161471   21.381532   18.904670
  N     18.304851   18.785267   18.408935
  C     17.951972   17.505229   17.763954
  C     17.277157   16.510987   18.698942
  C     17.719022   15.177327   18.762247
  C     17.084871   14.253651   19.609661
  C     15.999531   14.667250   20.400902
  C     15.555796   15.995244   20.338562
  O     14.502452   16.395306   21.094293
  C     16.188171   16.912292   19.492909
  H     15.411288   14.422781   16.002034
  H     13.743400   14.986841   16.216188
  H     15.063726   15.843396   17.020085
  H     14.442014   15.745615   13.996661
  H     14.377405   17.162436   15.056370
  H     17.017705   18.889336   13.855376
  H     16.576015   20.472222   14.475811
  H     15.385465   19.166381   14.496588
  H     16.825086   20.981158   16.570130
  H     18.820439   18.776574   19.280139
  H     18.953697   17.147525   17.483013
  H     18.549413   14.852616   18.138758
  H     17.432997   13.222770   19.645954
  H     15.505942   13.956304   21.055192
  H     14.232945   15.640656   21.639335
  H     15.828346   17.935287   19.456868

 Total Charge           Charge          ....    0
 Multiplicity           Mult            ....    1
 Number of Electrons    NEL             ....  154
 Basis Dimension        Dim             ....  828

ORBITAL ENERGIES
----------------

  NO   OCC          E(Eh)            E(eV)
   0   2.0000     -91.890248     -2500.4608
   1   2.0000     -20.596866      -560.4692
   2   2.0000     -20.587907      -560.2254
   3   2.0000     -20.552843      -559.2713
   4   2.0000     -15.630401      -425.3248
   5   2.0000     -15.608183      -424.7203
   6   2.0000     -11.395693      -310.0926
   7   2.0000     -11.385145      -309.8056
   8   2.0000     -11.339631      -308.5670
   9   2.0000     -11.313572      -307.8579
  10   2.0000     -11.309122      -307.7369
  11   2.0000     -11.306881      -307.6759
  12   2.0000     -11.263029      -306.4826
  13   2.0000     -11.261653      -306.4452
  14   2.0000     -11.260412      -306.4114
  15   2.0000     -11.253458      -306.2222
  16   2.0000     -11.243325      -305.9464
  17   2.0000     -11.239199      -305.8341
  18   2.0000     -11.235373      -305.7300
  19   2.0000     -11.229974      -305.5831
  20   2.0000      -8.895328      -242.0542
  21   2.0000      -6.576903      -178.9666
  22   2.0000      -6.574900      -178.9121
  23   2.0000      -6.574310      -178.8961
  24   2.0000      -1.447160       -39.3792
  25   2.0000      -1.416658       -38.5492
  26   2.0000      -1.358236       -36.9595
  27   2.0000      -1.342074       -36.5197
  28   2.0000      -1.239354       -33.7245
  29   2.0000      -1.157643       -31.5011
  30   2.0000      -1.123485       -30.5716
  31   2.0000      -1.045558       -28.4511
  32   2.0000      -1.033865       -28.1329
  33   2.0000      -1.015536       -27.6342
  34   2.0000      -1.003614       -27.3097
  35   2.0000      -0.988215       -26.8907
  36   2.0000      -0.924865       -25.1669
  37   2.0000      -0.896993       -24.4084
  38   2.0000      -0.852046       -23.1853
  39   2.0000      -0.840008       -22.8578
  40   2.0000      -0.833297       -22.6752
  41   2.0000      -0.825974       -22.4759
  42   2.0000      -0.744326       -20.2541
  43   2.0000      -0.730614       -19.8810
  44   2.0000      -0.730049       -19.8656
  45   2.0000      -0.693932       -18.8828
  46   2.0000      -0.686010       -18.6673
  47   2.0000      -0.681563       -18.5463
  48   2.0000      -0.676776       -18.4160
  49   2.0000      -0.664096       -18.0710
  50   2.0000      -0.653074       -17.7710
  51   2.0000      -0.647450       -17.6180
  52   2.0000      -0.636511       -17.3204
  53   2.0000      -0.624846       -17.0029
  54   2.0000      -0.607708       -16.5366
  55   2.0000      -0.603038       -16.4095
  56   2.0000      -0.600428       -16.3385
  57   2.0000      -0.580599       -15.7989
  58   2.0000      -0.575251       -15.6534
  59   2.0000      -0.565026       -15.3751
  60   2.0000      -0.557738       -15.1768
  61   2.0000      -0.545731       -14.8501
  62   2.0000      -0.541339       -14.7306
  63   2.0000      -0.534541       -14.5456
  64   2.0000      -0.519998       -14.1499
  65   2.0000      -0.511525       -13.9193
  66   2.0000      -0.499333       -13.5875
  67   2.0000      -0.490540       -13.3483
  68   2.0000      -0.487791       -13.2735
  69   2.0000      -0.468791       -12.7565
  70   2.0000      -0.458186       -12.4679
  71   2.0000      -0.449124       -12.2213
  72   2.0000      -0.356247        -9.6940
  73   2.0000      -0.348995        -9.4966
  74   2.0000      -0.329419        -8.9640
  75   2.0000      -0.320984        -8.7344
  76   2.0000      -0.319654        -8.6982
  77   0.0000       0.074288         2.0215
  78   0.0000       0.105384         2.8676
  79   0.0000       0.119704         3.2573
  80   0.0000       0.131666         3.5828
  81   0.0000       0.136027         3.7015

MULLIKEN ATOMIC CHARGES
-----------------------
   0 C :   -0.320754
   1 C :    0.043472
   2 O :   -0.374725
   3 C :    0.485963
   4 O :   -0.386302
   5 C :   -0.248682
   6 C :    0.152302
   7 C :   -0.300898
   8 N :   -0.130323
   9 C :    0.205076
  10 S :   -0.440032
  11 N :   -0.216671
  12 C :    0.063882
  13 C :   -0.005499
  14 C :   -0.181041
  15 C :   -0.138231
  16 C :   -0.271070
  17 C :    0.313316
  18 O :   -0.358519
  19 C :   -0.237383
  20 H :    0.118123
  21 H :    0.108585
  22 H :    0.116681
  23 H :    0.118071
  24 H :    0.077018
  25 H :    0.137671
  26 H :    0.110720
  27 H :    0.121552
  28 H :    0.198291
  29 H :    0.200948
  30 H :    0.160546
  31 H :    0.172601
  32 H :    0.163071
  33 H :    0.131443
  34 H :    0.240677
  35 H :    0.170122
Sum of atomic charges:   -0.0000000

LOEWDIN ATOMIC CHARGES
----------------------
   0 C :    0.108885
   1 C :   -0.016783
   2 O :    0.288783
   3 C :   -0.423043
   4 O :    0.127005
   5 C :   -0.095881
   6 C :   -0.070416
   7 C :    0.127877
   8 N :    0.405122
   9 C :   -0.458766
  10 S :   -0.035988
  11 N :    0.396284
  12 C :   -0.048485
  13 C :   -0.043931
  14 C :    0.024144
  15 C :    0.043052
  16 C :   -0.000599
  17 C :   -0.193382
  18 O :    0.394383
  19 C :    0.026955
  20 H :   -0.020597
  21 H :   -0.023368
  22 H :   -0.028325
  23 H :   -0.021853
  24 H :   -0.039728
  25 H :   -0.006018
  26 H :   -0.017965
  27 H :   -0.015143
  28 H :   -0.058112
  29 H :   -0.063257
  30 H :   -0.006184
  31 H :   -0.022263
  32 H :   -0.019509
  33 H :   -0.035223
  34 H :   -0.153799
  35 H :   -0.023873

  Mayer bond orders larger than 0.100000
B(  0-C ,  1-C ) :   0.9665 B(  0-C , 20-H ) :   0.9707 B(  0-C , 21-H ) :   0.9759
B(  0-C , 22-H ) :   0.9663 B(  1-C ,  2-O ) :   0.9032 B(  1-C , 23-H ) :   0.9798
B(  1-C , 24-H ) :   0.9749 B(  2-O ,  3-C ) :   1.0924 B(  3-C ,  4-O ) :   2.0599
B(  3-C ,  5-C ) :   0.9852 B(  5-C ,  6-C ) :   1.6897 B(  5-C , 12-C ) :   0.9414
B(  6-C ,  7-C ) :   0.9440 B(  6-C ,  8-N ) :   1.1325 B(  7-C , 25-H ) :   0.9649
B(  7-C , 26-H ) :   0.9882 B(  7-C , 27-H ) :   0.9677 B(  8-N ,  9-C ) :   1.1872
B(  8-N , 28-H ) :   0.9480 B(  9-C , 10-S ) :   1.6120 B(  9-C , 11-N ) :   1.2995
B( 11-N , 12-C ) :   0.9816 B( 11-N , 29-H ) :   0.9485 B( 12-C , 13-C ) :   0.9689
B( 12-C , 30-H ) :   0.9937 B( 13-C , 14-C ) :   1.3893 B( 13-C , 19-C ) :   1.3540
B( 14-C , 15-C ) :   1.3969 B( 14-C , 31-H ) :   0.9578 B( 15-C , 16-C ) :   1.3598
B( 15-C , 32-H ) :   0.9704 B( 16-C , 17-C ) :   1.3322 B( 16-C , 33-H ) :   0.9846
B( 17-C , 18-O ) :   1.1073 B( 17-C , 19-C ) :   1.3625 B( 18-O , 34-H ) :   0.9799
B( 19-C , 35-H ) :   0.9597

MP2 TOTAL ENERGY:    -1274.326230161 Eh
FINAL SINGLE POINT ENERGY     -1274.326230160588

DIPOLE MOMENT
-------------
                                X             Y             Z
Electronic contribution:      8.96891       8.48079       6.92259
Nuclear contribution   :    -10.52337      -9.60262      -7.51226
                        -----------------------------------------
Total Dipole Moment    :     -1.55446      -1.12183      -0.58967
                        -----------------------------------------
Magnitude (a.u.)       :      2.00563
Magnitude (Debye)      :      5.09791

Rotational constants in cm-1:     0.011374     0.009341     0.006303
Rotational constants in MHz :   340.995556   280.049769   188.971084

                             ****ORCA TERMINATED NORMALLY****
TOTAL RUN TIME: 0 days 2 hours 2 minutes 54 seconds 622 msec
