                         Program Version 4.2.0 -  RELEASE  -
|  1> ! ri-mp2 cc-pvtz cc-pvtz/c TightSCF NoKeepInts
|  2>
|  3> %scf
|  4>   MaxCore 4096
|  5> end
|  6> *xyz  0  1
|  7>     C       14.6118454   15.5571890   16.5941423
|  8>     C       15.4019363   15.4742371   15.2783430
|  9>     O       16.8174875   15.6024364   15.5161580
| 10>     C       17.3851409   16.8116717   15.2520477
| 11>     O       17.8927245   17.0462965   14.1706995
| 12>     C       17.1672401   17.8387914   16.3183776
| 13>     C       16.9747763   19.1294493   15.9538494
| 14>     C       16.5445875   19.6183991   14.5870746
| 15>     N       17.1648064   20.1749614   16.8587854
| 16>     C       17.7911944   20.0356156   18.0681924
| 17>     S       18.1016548   21.3308868   19.0483096
| 18>     N       18.1724982   18.7631112   18.4150671
| 19>     C       17.8126763   17.5335178   17.6803159
| 20>     C       17.1350314   16.4864064   18.5530286
| 21>     C       17.5997304   15.1582049   18.5626706
| 22>     C       16.9999409   14.1974123   19.3941398
| 23>     C       15.9303088   14.5689489   20.2267440
| 24>     C       15.4704068   15.8930360   20.2251111
| 25>     O       14.4371977   16.2543016   21.0264929
| 26>     C       16.0704519   16.8478650   19.3978681
| 27>     H       14.9896077   14.8287644   17.3210518
| 28>     H       13.5524541   15.3367044   16.4163229
| 29>     H       14.6749152   16.5614557   17.0275204
| 30>     H       15.2141321   14.4914152   14.8267828
| 31>     H       15.0484049   16.2355584   14.5692563
| 32>     H       17.4168970   19.7283249   13.9292800
| 33>     H       16.0275257   20.5843843   14.6303700
| 34>     H       15.8629251   18.9055651   14.1073619
| 35>     H       16.9299616   21.1184753   16.5942053
| 36>     H       18.6215675   18.6884019   19.3194705
| 37>     H       18.8241336   17.1830002   17.4286094
| 38>     H       18.4241803   14.8675623   17.9162613
| 39>     H       17.3636742   13.1712199   19.3899038
| 40>     H       15.4635239   13.8298674   20.8696251
| 41>     H       14.1870741   15.4771954   21.5487348
| 42>     H       15.7043866   17.8693665   19.4158261
| 43> *
| 44>
| 45>                          ****END OF INPUT****

CARTESIAN COORDINATES (ANGSTROEM)
---------------------------------
  C     14.611845   15.557189   16.594142
  C     15.401936   15.474237   15.278343
  O     16.817487   15.602436   15.516158
  C     17.385141   16.811672   15.252048
  O     17.892724   17.046297   14.170699
  C     17.167240   17.838791   16.318378
  C     16.974776   19.129449   15.953849
  C     16.544587   19.618399   14.587075
  N     17.164806   20.174961   16.858785
  C     17.791194   20.035616   18.068192
  S     18.101655   21.330887   19.048310
  N     18.172498   18.763111   18.415067
  C     17.812676   17.533518   17.680316
  C     17.135031   16.486406   18.553029
  C     17.599730   15.158205   18.562671
  C     16.999941   14.197412   19.394140
  C     15.930309   14.568949   20.226744
  C     15.470407   15.893036   20.225111
  O     14.437198   16.254302   21.026493
  C     16.070452   16.847865   19.397868
  H     14.989608   14.828764   17.321052
  H     13.552454   15.336704   16.416323
  H     14.674915   16.561456   17.027520
  H     15.214132   14.491415   14.826783
  H     15.048405   16.235558   14.569256
  H     17.416897   19.728325   13.929280
  H     16.027526   20.584384   14.630370
  H     15.862925   18.905565   14.107362
  H     16.929962   21.118475   16.594205
  H     18.621567   18.688402   19.319471
  H     18.824134   17.183000   17.428609
  H     18.424180   14.867562   17.916261
  H     17.363674   13.171220   19.389904
  H     15.463524   13.829867   20.869625
  H     14.187074   15.477195   21.548735
  H     15.704387   17.869366   19.415826

 Total Charge           Charge          ....    0
 Multiplicity           Mult            ....    1
 Number of Electrons    NEL             ....  154
 Basis Dimension        Dim             ....  828

ORBITAL ENERGIES
----------------

  NO   OCC          E(Eh)            E(eV)
   0   2.0000     -91.890823     -2500.4764
   1   2.0000     -20.599582      -560.5431
   2   2.0000     -20.583049      -560.0932
   3   2.0000     -20.558737      -559.4317
   4   2.0000     -15.628865      -425.2830
   5   2.0000     -15.610174      -424.7744
   6   2.0000     -11.394637      -310.0638
   7   2.0000     -11.385723      -309.8213
   8   2.0000     -11.333382      -308.3970
   9   2.0000     -11.316897      -307.9484
  10   2.0000     -11.314575      -307.8852
  11   2.0000     -11.303306      -307.5786
  12   2.0000     -11.264798      -306.5307
  13   2.0000     -11.257994      -306.3456
  14   2.0000     -11.257397      -306.3294
  15   2.0000     -11.257061      -306.3202
  16   2.0000     -11.247365      -306.0564
  17   2.0000     -11.242212      -305.9161
  18   2.0000     -11.241958      -305.9092
  19   2.0000     -11.222758      -305.3868
  20   2.0000      -8.895876      -242.0691
  21   2.0000      -6.577444      -178.9813
  22   2.0000      -6.575449      -178.9271
  23   2.0000      -6.574854      -178.9109
  24   2.0000      -1.450453       -39.4688
  25   2.0000      -1.419384       -38.6234
  26   2.0000      -1.359865       -37.0038
  27   2.0000      -1.341339       -36.4997
  28   2.0000      -1.240234       -33.7485
  29   2.0000      -1.160942       -31.5908
  30   2.0000      -1.124078       -30.5877
  31   2.0000      -1.046835       -28.4858
  32   2.0000      -1.034262       -28.1437
  33   2.0000      -1.018818       -27.7235
  34   2.0000      -1.002282       -27.2735
  35   2.0000      -0.988790       -26.9063
  36   2.0000      -0.925329       -25.1795
  37   2.0000      -0.886906       -24.1340
  38   2.0000      -0.849391       -23.1131
  39   2.0000      -0.841751       -22.9052
  40   2.0000      -0.837590       -22.7920
  41   2.0000      -0.827437       -22.5157
  42   2.0000      -0.759454       -20.6658
  43   2.0000      -0.736368       -20.0376
  44   2.0000      -0.727241       -19.7892
  45   2.0000      -0.698089       -18.9960
  46   2.0000      -0.690978       -18.8025
  47   2.0000      -0.679644       -18.4941
  48   2.0000      -0.675368       -18.3777
  49   2.0000      -0.666488       -18.1361
  50   2.0000      -0.649462       -17.6728
  51   2.0000      -0.645618       -17.5682
  52   2.0000      -0.634065       -17.2538
  53   2.0000      -0.610212       -16.6047
  54   2.0000      -0.604045       -16.4369
  55   2.0000      -0.602394       -16.3920
  56   2.0000      -0.593344       -16.1457
  57   2.0000      -0.584080       -15.8936
  58   2.0000      -0.579956       -15.7814
  59   2.0000      -0.575719       -15.6661
  60   2.0000      -0.565636       -15.3917
  61   2.0000      -0.553716       -15.0674
  62   2.0000      -0.540192       -14.6994
  63   2.0000      -0.524580       -14.2745
  64   2.0000      -0.516312       -14.0496
  65   2.0000      -0.513749       -13.9798
  66   2.0000      -0.503529       -13.7017
  67   2.0000      -0.502259       -13.6672
  68   2.0000      -0.480912       -13.0863
  69   2.0000      -0.464691       -12.6449
  70   2.0000      -0.456388       -12.4189
  71   2.0000      -0.452614       -12.3163
  72   2.0000      -0.356637        -9.7046
  73   2.0000      -0.348522        -9.4838
  74   2.0000      -0.329843        -8.9755
  75   2.0000      -0.324675        -8.8348
  76   2.0000      -0.320681        -8.7262
  77   0.0000       0.076608         2.0846
  78   0.0000       0.101132         2.7519
  79   0.0000       0.120094         3.2679
  80   0.0000       0.128934         3.5085
  81   0.0000       0.129914         3.5351

MULLIKEN ATOMIC CHARGES
-----------------------
   0 C :   -0.310447
   1 C :    0.040711
   2 O :   -0.359266
   3 C :    0.418830
   4 O :   -0.363876
   5 C :   -0.203039
   6 C :    0.144634
   7 C :   -0.278379
   8 N :   -0.130871
   9 C :    0.210085
  10 S :   -0.438088
  11 N :   -0.220390
  12 C :    0.034398
  13 C :    0.029743
  14 C :   -0.178690
  15 C :   -0.143153
  16 C :   -0.276021
  17 C :    0.321810
  18 O :   -0.357487
  19 C :   -0.248193
  20 H :    0.113273
  21 H :    0.115124
  22 H :    0.101639
  23 H :    0.116981
  24 H :    0.083908
  25 H :    0.141689
  26 H :    0.098447
  27 H :    0.115750
  28 H :    0.198701
  29 H :    0.203122
  30 H :    0.155688
  31 H :    0.150381
  32 H :    0.163549
  33 H :    0.132863
  34 H :    0.241082
  35 H :    0.175491
Sum of atomic charges:   -0.0000000

LOEWDIN ATOMIC CHARGES
----------------------
   0 C :    0.103822
   1 C :   -0.018169
   2 O :    0.291363
   3 C :   -0.426319
   4 O :    0.136516
   5 C :   -0.097067
   6 C :   -0.072215
   7 C :    0.128731
   8 N :    0.406304
   9 C :   -0.456403
  10 S :   -0.034017
  11 N :    0.396138
  12 C :   -0.053361
  13 C :   -0.041670
  14 C :    0.021225
  15 C :    0.040722
  16 C :   -0.000457
  17 C :   -0.191665
  18 O :    0.396245
  19 C :    0.033972
  20 H :   -0.022426
  21 H :   -0.026872
  22 H :   -0.033983
  23 H :   -0.022046
  24 H :   -0.032346
  25 H :   -0.004271
  26 H :   -0.021121
  27 H :   -0.011012
  28 H :   -0.057221
  29 H :   -0.063507
  30 H :   -0.011270
  31 H :   -0.027073
  32 H :   -0.019785
  33 H :   -0.034631
  34 H :   -0.153290
  35 H :   -0.022844

  Mayer bond orders larger than 0.100000
B(  0-C ,  1-C ) :   0.9703 B(  0-C , 20-H ) :   0.9707 B(  0-C , 21-H ) :   0.9771
B(  0-C , 22-H ) :   0.9708 B(  1-C ,  2-O ) :   0.8883 B(  1-C , 23-H ) :   0.9852
B(  1-C , 24-H ) :   0.9775 B(  2-O ,  3-C ) :   1.1145 B(  3-C ,  4-O ) :   2.1190
B(  3-C ,  5-C ) :   0.9629 B(  5-C ,  6-C ) :   1.6649 B(  5-C , 12-C ) :   0.9584
B(  6-C ,  7-C ) :   0.9530 B(  6-C ,  8-N ) :   1.1342 B(  7-C , 25-H ) :   0.9564
B(  7-C , 26-H ) :   0.9845 B(  7-C , 27-H ) :   0.9751 B(  8-N ,  9-C ) :   1.1930
B(  8-N , 28-H ) :   0.9489 B(  9-C , 10-S ) :   1.6142 B(  9-C , 11-N ) :   1.2926
B( 11-N , 12-C ) :   0.9774 B( 11-N , 29-H ) :   0.9459 B( 12-C , 13-C ) :   0.9576
B( 12-C , 30-H ) :   1.0044 B( 13-C , 14-C ) :   1.3706 B( 13-C , 19-C ) :   1.3492
B( 14-C , 15-C ) :   1.4014 B( 14-C , 31-H ) :   0.9710 B( 15-C , 16-C ) :   1.3543
B( 15-C , 32-H ) :   0.9706 B( 16-C , 17-C ) :   1.3337 B( 16-C , 33-H ) :   0.9845
B( 17-C , 18-O ) :   1.1074 B( 17-C , 19-C ) :   1.3579 B( 18-O , 34-H ) :   0.9794
B( 19-C , 35-H ) :   0.9578

MP2 TOTAL ENERGY:    -1274.314845805 Eh
FINAL SINGLE POINT ENERGY     -1274.314845805163

DIPOLE MOMENT
-------------
                                X             Y             Z
Electronic contribution:      8.93866       8.52704       5.99838
Nuclear contribution   :    -10.29183     -10.11046      -6.18090
                        -----------------------------------------
Total Dipole Moment    :     -1.35317      -1.58342      -0.18252
                        -----------------------------------------
Magnitude (a.u.)       :      2.09084
Magnitude (Debye)      :      5.31449

Rotational constants in cm-1:     0.012136     0.009167     0.006178
Rotational constants in MHz :   363.815494   274.808966   185.210385

                             ****ORCA TERMINATED NORMALLY****
TOTAL RUN TIME: 0 days 1 hours 45 minutes 48 seconds 475 msec
