                         Program Version 4.2.0 -  RELEASE  -
|  1> ! ri-mp2 cc-pvtz cc-pvtz/c TightSCF NoKeepInts
|  2>
|  3> %scf
|  4>   MaxCore 4096
|  5> end
|  6> *xyz  0  1
|  7>     C       14.5598215   15.1359714   15.9834338
|  8>     C       14.8755433   16.4493609   15.2440125
|  9>     O       16.2083159   16.3513486   14.7013127
| 10>     C       17.2970482   16.5232818   15.5115799
| 11>     O       18.2214772   15.7312681   15.5065638
| 12>     C       17.2448875   17.6931924   16.4433953
| 13>     C       16.9711508   18.9404120   15.9870792
| 14>     C       16.4981732   19.3212504   14.5980305
| 15>     N       17.1975252   20.0589206   16.7918650
| 16>     C       17.9059727   20.0325214   17.9642386
| 17>     S       18.2288099   21.4116169   18.8175389
| 18>     N       18.3523276   18.8030436   18.3829297
| 19>     C       18.0013961   17.5115666   17.7590790
| 20>     C       17.3117668   16.5267549   18.6914626
| 21>     C       17.7417659   15.1893866   18.7552480
| 22>     C       17.0884092   14.2683710   19.5908940
| 23>     C       15.9939800   14.6880733   20.3664060
| 24>     C       15.5597894   16.0191052   20.2997279
| 25>     O       14.4963358   16.4244016   21.0382668
| 26>     C       16.2114525   16.9336385   19.4660576
| 27>     H       15.2173588   15.0066339   16.8528311
| 28>     H       14.6964426   14.2743734   15.3176699
| 29>     H       13.5225513   15.1337311   16.3395484
| 30>     H       14.1614710   16.5676399   14.4187348
| 31>     H       14.7555330   17.3051989   15.9198226
| 32>     H       16.9689859   18.6959083   13.8285880
| 33>     H       16.7510401   20.3592032   14.3473745
| 34>     H       15.4115024   19.2130307   14.5044414
| 35>     H       16.9049481   20.9720042   16.4813582
| 36>     H       18.8646535   18.8103321   19.2561370
| 37>     H       19.0013447   17.1438470   17.4841841
| 38>     H       18.5776367   14.8601372   18.1411617
| 39>     H       17.4281164   13.2346831   19.6297813
| 40>     H       15.4853394   13.9790929   21.0113315
| 41>     H       14.2155058   15.6718207   21.5806013
| 42>     H       15.8586219   17.9588771   19.4253124
| 43> *
| 44>
| 45>                          ****END OF INPUT****

CARTESIAN COORDINATES (ANGSTROEM)
---------------------------------
  C     14.559821   15.135971   15.983434
  C     14.875543   16.449361   15.244013
  O     16.208316   16.351349   14.701313
  C     17.297048   16.523282   15.511580
  O     18.221477   15.731268   15.506564
  C     17.244888   17.693192   16.443395
  C     16.971151   18.940412   15.987079
  C     16.498173   19.321250   14.598031
  N     17.197525   20.058921   16.791865
  C     17.905973   20.032521   17.964239
  S     18.228810   21.411617   18.817539
  N     18.352328   18.803044   18.382930
  C     18.001396   17.511567   17.759079
  C     17.311767   16.526755   18.691463
  C     17.741766   15.189387   18.755248
  C     17.088409   14.268371   19.590894
  C     15.993980   14.688073   20.366406
  C     15.559789   16.019105   20.299728
  O     14.496336   16.424402   21.038267
  C     16.211453   16.933639   19.466058
  H     15.217359   15.006634   16.852831
  H     14.696443   14.274373   15.317670
  H     13.522551   15.133731   16.339548
  H     14.161471   16.567640   14.418735
  H     14.755533   17.305199   15.919823
  H     16.968986   18.695908   13.828588
  H     16.751040   20.359203   14.347374
  H     15.411502   19.213031   14.504441
  H     16.904948   20.972004   16.481358
  H     18.864653   18.810332   19.256137
  H     19.001345   17.143847   17.484184
  H     18.577637   14.860137   18.141162
  H     17.428116   13.234683   19.629781
  H     15.485339   13.979093   21.011332
  H     14.215506   15.671821   21.580601
  H     15.858622   17.958877   19.425312

 Total Charge           Charge          ....    0
 Multiplicity           Mult            ....    1
 Number of Electrons    NEL             ....  154
 Basis Dimension        Dim             ....  828

ORBITAL ENERGIES
----------------

  NO   OCC          E(Eh)            E(eV)
   0   2.0000     -91.890469     -2500.4668
   1   2.0000     -20.598785      -560.5214
   2   2.0000     -20.597999      -560.5001
   3   2.0000     -20.551573      -559.2367
   4   2.0000     -15.629933      -425.3121
   5   2.0000     -15.609337      -424.7516
   6   2.0000     -11.396818      -310.1232
   7   2.0000     -11.386002      -309.8289
   8   2.0000     -11.336939      -308.4938
   9   2.0000     -11.315863      -307.9203
  10   2.0000     -11.308442      -307.7183
  11   2.0000     -11.306560      -307.6671
  12   2.0000     -11.265416      -306.5475
  13   2.0000     -11.262878      -306.4785
  14   2.0000     -11.262125      -306.4580
  15   2.0000     -11.255837      -306.2869
  16   2.0000     -11.245343      -306.0013
  17   2.0000     -11.241463      -305.8958
  18   2.0000     -11.238046      -305.8028
  19   2.0000     -11.228793      -305.5510
  20   2.0000      -8.895560      -242.0605
  21   2.0000      -6.577136      -178.9730
  22   2.0000      -6.575130      -178.9184
  23   2.0000      -6.574542      -178.9024
  24   2.0000      -1.449981       -39.4560
  25   2.0000      -1.418533       -38.6002
  26   2.0000      -1.361721       -37.0543
  27   2.0000      -1.341792       -36.5120
  28   2.0000      -1.239592       -33.7310
  29   2.0000      -1.160214       -31.5710
  30   2.0000      -1.125559       -30.6280
  31   2.0000      -1.047621       -28.5072
  32   2.0000      -1.035725       -28.1835
  33   2.0000      -1.017797       -27.6957
  34   2.0000      -1.004976       -27.3468
  35   2.0000      -0.989426       -26.9236
  36   2.0000      -0.926017       -25.1982
  37   2.0000      -0.889683       -24.2095
  38   2.0000      -0.854166       -23.2430
  39   2.0000      -0.841868       -22.9084
  40   2.0000      -0.835818       -22.7438
  41   2.0000      -0.833540       -22.6818
  42   2.0000      -0.748792       -20.3757
  43   2.0000      -0.738366       -20.0920
  44   2.0000      -0.731472       -19.9044
  45   2.0000      -0.696483       -18.9523
  46   2.0000      -0.687804       -18.7161
  47   2.0000      -0.681735       -18.5509
  48   2.0000      -0.677234       -18.4285
  49   2.0000      -0.662024       -18.0146
  50   2.0000      -0.656513       -17.8646
  51   2.0000      -0.646359       -17.5883
  52   2.0000      -0.637845       -17.3566
  53   2.0000      -0.615093       -16.7375
  54   2.0000      -0.608582       -16.5604
  55   2.0000      -0.605340       -16.4721
  56   2.0000      -0.601898       -16.3785
  57   2.0000      -0.582634       -15.8543
  58   2.0000      -0.576798       -15.6955
  59   2.0000      -0.567895       -15.4532
  60   2.0000      -0.560804       -15.2602
  61   2.0000      -0.553443       -15.0600
  62   2.0000      -0.547214       -14.8904
  63   2.0000      -0.530649       -14.4397
  64   2.0000      -0.519926       -14.1479
  65   2.0000      -0.512872       -13.9560
  66   2.0000      -0.500869       -13.6293
  67   2.0000      -0.499658       -13.5964
  68   2.0000      -0.487565       -13.2673
  69   2.0000      -0.469635       -12.7794
  70   2.0000      -0.459413       -12.5013
  71   2.0000      -0.449237       -12.2243
  72   2.0000      -0.356402        -9.6982
  73   2.0000      -0.351473        -9.5641
  74   2.0000      -0.329755        -8.9731
  75   2.0000      -0.323259        -8.7963
  76   2.0000      -0.319948        -8.7062
  77   0.0000       0.077673         2.1136
  78   0.0000       0.103518         2.8169
  79   0.0000       0.117848         3.2068
  80   0.0000       0.130099         3.5402
  81   0.0000       0.133423         3.6306

MULLIKEN ATOMIC CHARGES
-----------------------
   0 C :   -0.275089
   1 C :    0.010230
   2 O :   -0.341981
   3 C :    0.429880
   4 O :   -0.380628
   5 C :   -0.244017
   6 C :    0.167023
   7 C :   -0.306536
   8 N :   -0.133402
   9 C :    0.207216
  10 S :   -0.440572
  11 N :   -0.218182
  12 C :    0.066334
  13 C :    0.005680
  14 C :   -0.203343
  15 C :   -0.128559
  16 C :   -0.276268
  17 C :    0.309038
  18 O :   -0.357138
  19 C :   -0.236242
  20 H :    0.109784
  21 H :    0.108827
  22 H :    0.093109
  23 H :    0.117737
  24 H :    0.096635
  25 H :    0.140285
  26 H :    0.116376
  27 H :    0.120506
  28 H :    0.198261
  29 H :    0.200873
  30 H :    0.163592
  31 H :    0.172708
  32 H :    0.163820
  33 H :    0.131904
  34 H :    0.241229
  35 H :    0.170909
Sum of atomic charges:    0.0000000

LOEWDIN ATOMIC CHARGES
----------------------
   0 C :    0.108987
   1 C :   -0.026497
   2 O :    0.302048
   3 C :   -0.419323
   4 O :    0.123857
   5 C :   -0.092480
   6 C :   -0.079877
   7 C :    0.128740
   8 N :    0.403855
   9 C :   -0.457041
  10 S :   -0.036511
  11 N :    0.395997
  12 C :   -0.049538
  13 C :   -0.044825
  14 C :    0.021548
  15 C :    0.043178
  16 C :   -0.000299
  17 C :   -0.192079
  18 O :    0.394629
  19 C :    0.027291
  20 H :   -0.024392
  21 H :   -0.022270
  22 H :   -0.026182
  23 H :   -0.024552
  24 H :   -0.039167
  25 H :   -0.005650
  26 H :   -0.015494
  27 H :   -0.014867
  28 H :   -0.058009
  29 H :   -0.063550
  30 H :   -0.005295
  31 H :   -0.021545
  32 H :   -0.018961
  33 H :   -0.034846
  34 H :   -0.153343
  35 H :   -0.023540

  Mayer bond orders larger than 0.100000
B(  0-C ,  1-C ) :   0.9825 B(  0-C , 20-H ) :   0.9680 B(  0-C , 21-H ) :   0.9774
B(  0-C , 22-H ) :   0.9763 B(  1-C ,  2-O ) :   0.8950 B(  1-C , 23-H ) :   0.9787
B(  1-C , 24-H ) :   0.9629 B(  2-O ,  3-C ) :   1.1358 B(  3-C ,  4-O ) :   2.0877
B(  3-C ,  5-C ) :   0.9442 B(  5-C ,  6-C ) :   1.7007 B(  5-C , 12-C ) :   0.9400
B(  6-C ,  7-C ) :   0.9384 B(  6-C ,  8-N ) :   1.1239 B(  7-C , 25-H ) :   0.9682
B(  7-C , 26-H ) :   0.9858 B(  7-C , 27-H ) :   0.9656 B(  8-N ,  9-C ) :   1.1901
B(  8-N , 28-H ) :   0.9487 B(  9-C , 10-S ) :   1.6119 B(  9-C , 11-N ) :   1.2952
B( 11-N , 12-C ) :   0.9858 B( 11-N , 29-H ) :   0.9484 B( 12-C , 13-C ) :   0.9661
B( 12-C , 30-H ) :   0.9921 B( 13-C , 14-C ) :   1.3871 B( 13-C , 19-C ) :   1.3584
B( 14-C , 15-C ) :   1.3918 B( 14-C , 31-H ) :   0.9600 B( 15-C , 16-C ) :   1.3608
B( 15-C , 32-H ) :   0.9705 B( 16-C , 17-C ) :   1.3316 B( 16-C , 33-H ) :   0.9848
B( 17-C , 18-O ) :   1.1085 B( 17-C , 19-C ) :   1.3669 B( 18-O , 34-H ) :   0.9795
B( 19-C , 35-H ) :   0.9571

MP2 TOTAL ENERGY:    -1274.332872822 Eh
FINAL SINGLE POINT ENERGY     -1274.332872822191

DIPOLE MOMENT
-------------
                                X             Y             Z
Electronic contribution:      9.50161       8.62692       6.77149
Nuclear contribution   :    -11.13364      -9.64813      -7.18876
                        -----------------------------------------
Total Dipole Moment    :     -1.63203      -1.02121      -0.41727
                        -----------------------------------------
Magnitude (a.u.)       :      1.96990
Magnitude (Debye)      :      5.00708

Rotational constants in cm-1:     0.011592     0.009147     0.006366
Rotational constants in MHz :   347.526839   274.208569   190.856741

                             ****ORCA TERMINATED NORMALLY****
TOTAL RUN TIME: 0 days 1 hours 43 minutes 56 seconds 731 msec
