                         Program Version 4.2.0 -  RELEASE  -
|  1> ! ri-mp2 cc-pvtz cc-pvtz/c TightSCF NoKeepInts
|  2>
|  3> %scf
|  4>   MaxCore 4096
|  5> end
|  6> *xyz  0  1
|  7>     C       14.5048410   16.0010737   15.8959103
|  8>     C       15.7160172   15.0389156   15.9346027
|  9>     O       16.9665604   15.6485907   15.5228646
| 10>     C       17.0631663   16.9675841   15.1853747
| 11>     O       17.0596312   17.2983784   14.0137729
| 12>     C       17.0932999   17.9193962   16.3529541
| 13>     C       16.9342084   19.2507364   16.1372647
| 14>     C       16.3493349   19.9121058   14.9063982
| 15>     N       17.2977274   20.1899234   17.1042159
| 16>     C       18.0436772   19.9025372   18.2144492
| 17>     S       18.5465936   21.0789404   19.2623840
| 18>     N       18.3751495   18.5845614   18.4002735
| 19>     C       17.8621780   17.4533725   17.6040679
| 20>     C       17.1812103   16.4067517   18.4724505
| 21>     C       17.7876137   15.1562960   18.6941343
| 22>     C       17.1628631   14.1958063   19.5075260
| 23>     C       15.9271668   14.4915762   20.1087107
| 24>     C       15.3296550   15.7425434   19.9014365
| 25>     O       14.1378778   16.0319227   20.4809989
| 26>     C       15.9543336   16.6968797   19.0926728
| 27>     H       14.6089561   16.8185812   16.6176394
| 28>     H       13.5876260   15.4559272   16.1498732
| 29>     H       14.3707898   16.4265602   14.8929530
| 30>     H       15.8147425   14.6236048   16.9440992
| 31>     H       15.5085242   14.1947561   15.2643449
| 32>     H       15.4957027   19.3395400   14.5222762
| 33>     H       17.0973527   19.9607082   14.1043057
| 34>     H       15.9941916   20.9314011   15.0987149
| 35>     H       17.0922895   21.1653985   16.9574687
| 36>     H       18.9079733   18.4000937   19.2410665
| 37>     H       18.8134727   17.0608395   17.2170930
| 38>     H       18.7414404   14.9249364   18.2266197
| 39>     H       17.6362259   13.2286852   19.6700007
| 40>     H       15.4409945   13.7524642   20.7373150
| 41>     H       13.8991270   15.2837587   21.0491904
| 42>     H       15.4844858   17.6648531   18.9525770
| 43> *
| 44>
| 45>                          ****END OF INPUT****

CARTESIAN COORDINATES (ANGSTROEM)
---------------------------------
  C     14.504841   16.001074   15.895910
  C     15.716017   15.038916   15.934603
  O     16.966560   15.648591   15.522865
  C     17.063166   16.967584   15.185375
  O     17.059631   17.298378   14.013773
  C     17.093300   17.919396   16.352954
  C     16.934208   19.250736   16.137265
  C     16.349335   19.912106   14.906398
  N     17.297727   20.189923   17.104216
  C     18.043677   19.902537   18.214449
  S     18.546594   21.078940   19.262384
  N     18.375149   18.584561   18.400274
  C     17.862178   17.453373   17.604068
  C     17.181210   16.406752   18.472451
  C     17.787614   15.156296   18.694134
  C     17.162863   14.195806   19.507526
  C     15.927167   14.491576   20.108711
  C     15.329655   15.742543   19.901436
  O     14.137878   16.031923   20.480999
  C     15.954334   16.696880   19.092673
  H     14.608956   16.818581   16.617639
  H     13.587626   15.455927   16.149873
  H     14.370790   16.426560   14.892953
  H     15.814742   14.623605   16.944099
  H     15.508524   14.194756   15.264345
  H     15.495703   19.339540   14.522276
  H     17.097353   19.960708   14.104306
  H     15.994192   20.931401   15.098715
  H     17.092289   21.165398   16.957469
  H     18.907973   18.400094   19.241066
  H     18.813473   17.060840   17.217093
  H     18.741440   14.924936   18.226620
  H     17.636226   13.228685   19.670001
  H     15.440994   13.752464   20.737315
  H     13.899127   15.283759   21.049190
  H     15.484486   17.664853   18.952577

 Total Charge           Charge          ....    0
 Multiplicity           Mult            ....    1
 Number of Electrons    NEL             ....  154
 Basis Dimension        Dim             ....  828

ORBITAL ENERGIES
----------------

  NO   OCC          E(Eh)            E(eV)
   0   2.0000     -91.891032     -2500.4821
   1   2.0000     -20.603946      -560.6619
   2   2.0000     -20.579109      -559.9860
   3   2.0000     -20.547933      -559.1377
   4   2.0000     -15.630243      -425.3205
   5   2.0000     -15.609710      -424.7618
   6   2.0000     -11.392509      -310.0059
   7   2.0000     -11.385450      -309.8139
   8   2.0000     -11.336860      -308.4916
   9   2.0000     -11.321768      -308.0810
  10   2.0000     -11.313117      -307.8456
  11   2.0000     -11.299128      -307.4649
  12   2.0000     -11.267496      -306.6042
  13   2.0000     -11.262398      -306.4654
  14   2.0000     -11.258057      -306.3473
  15   2.0000     -11.253545      -306.2245
  16   2.0000     -11.251709      -306.1746
  17   2.0000     -11.246554      -306.0343
  18   2.0000     -11.245648      -306.0097
  19   2.0000     -11.230674      -305.6022
  20   2.0000      -8.896085      -242.0748
  21   2.0000      -6.577652      -178.9870
  22   2.0000      -6.575659      -178.9328
  23   2.0000      -6.575063      -178.9166
  24   2.0000      -1.441315       -39.2202
  25   2.0000      -1.423690       -38.7406
  26   2.0000      -1.350679       -36.7538
  27   2.0000      -1.342486       -36.5309
  28   2.0000      -1.241121       -33.7726
  29   2.0000      -1.164605       -31.6905
  30   2.0000      -1.122848       -30.5542
  31   2.0000      -1.048567       -28.5329
  32   2.0000      -1.031259       -28.0620
  33   2.0000      -1.022583       -27.8259
  34   2.0000      -1.001988       -27.2655
  35   2.0000      -0.988278       -26.8924
  36   2.0000      -0.925935       -25.1960
  37   2.0000      -0.897062       -24.4103
  38   2.0000      -0.849737       -23.1225
  39   2.0000      -0.844376       -22.9766
  40   2.0000      -0.841532       -22.8993
  41   2.0000      -0.822316       -22.3763
  42   2.0000      -0.746188       -20.3048
  43   2.0000      -0.738396       -20.0928
  44   2.0000      -0.719045       -19.5662
  45   2.0000      -0.701925       -19.1003
  46   2.0000      -0.690059       -18.7775
  47   2.0000      -0.676830       -18.4175
  48   2.0000      -0.672122       -18.2894
  49   2.0000      -0.659456       -17.9447
  50   2.0000      -0.655217       -17.8294
  51   2.0000      -0.645065       -17.5531
  52   2.0000      -0.638916       -17.3858
  53   2.0000      -0.625355       -17.0168
  54   2.0000      -0.613690       -16.6993
  55   2.0000      -0.605978       -16.4895
  56   2.0000      -0.602548       -16.3962
  57   2.0000      -0.582426       -15.8486
  58   2.0000      -0.573233       -15.5985
  59   2.0000      -0.566983       -15.4284
  60   2.0000      -0.547844       -14.9076
  61   2.0000      -0.545025       -14.8309
  62   2.0000      -0.541371       -14.7314
  63   2.0000      -0.533531       -14.5181
  64   2.0000      -0.530048       -14.4233
  65   2.0000      -0.516089       -14.0435
  66   2.0000      -0.504315       -13.7231
  67   2.0000      -0.492134       -13.3917
  68   2.0000      -0.481561       -13.1039
  69   2.0000      -0.469099       -12.7648
  70   2.0000      -0.452169       -12.3041
  71   2.0000      -0.444765       -12.1027
  72   2.0000      -0.357776        -9.7356
  73   2.0000      -0.353106        -9.6085
  74   2.0000      -0.331453        -9.0193
  75   2.0000      -0.328304        -8.9336
  76   2.0000      -0.320830        -8.7302
  77   0.0000       0.072854         1.9825
  78   0.0000       0.098328         2.6756
  79   0.0000       0.120730         3.2852
  80   0.0000       0.126968         3.4550
  81   0.0000       0.130188         3.5426

MULLIKEN ATOMIC CHARGES
-----------------------
   0 C :   -0.337199
   1 C :    0.031046
   2 O :   -0.378189
   3 C :    0.479347
   4 O :   -0.387840
   5 C :   -0.298908
   6 C :    0.179944
   7 C :   -0.270567
   8 N :   -0.127303
   9 C :    0.207957
  10 S :   -0.438849
  11 N :   -0.211371
  12 C :    0.061854
  13 C :    0.012614
  14 C :   -0.152223
  15 C :   -0.135479
  16 C :   -0.274394
  17 C :    0.316634
  18 O :   -0.357497
  19 C :   -0.272093
  20 H :    0.108693
  21 H :    0.115559
  22 H :    0.117629
  23 H :    0.110222
  24 H :    0.121835
  25 H :    0.124315
  26 H :    0.138849
  27 H :    0.094328
  28 H :    0.199066
  29 H :    0.200564
  30 H :    0.151059
  31 H :    0.152646
  32 H :    0.164626
  33 H :    0.134582
  34 H :    0.242200
  35 H :    0.176344
Sum of atomic charges:   -0.0000000

LOEWDIN ATOMIC CHARGES
----------------------
   0 C :    0.104157
   1 C :   -0.009772
   2 O :    0.283519
   3 C :   -0.427481
   4 O :    0.124051
   5 C :   -0.101464
   6 C :   -0.060185
   7 C :    0.129881
   8 N :    0.407361
   9 C :   -0.457218
  10 S :   -0.033996
  11 N :    0.395153
  12 C :   -0.054487
  13 C :   -0.042031
  14 C :    0.020080
  15 C :    0.041398
  16 C :   -0.000110
  17 C :   -0.191831
  18 O :    0.396480
  19 C :    0.035267
  20 H :   -0.035589
  21 H :   -0.020834
  22 H :   -0.026276
  23 H :   -0.030232
  24 H :   -0.026003
  25 H :   -0.007086
  26 H :   -0.003915
  27 H :   -0.022952
  28 H :   -0.056601
  29 H :   -0.063799
  30 H :   -0.011130
  31 H :   -0.026545
  32 H :   -0.019209
  33 H :   -0.033731
  34 H :   -0.152301
  35 H :   -0.022570

  Mayer bond orders larger than 0.100000
B(  0-C ,  1-C ) :   0.9620 B(  0-C , 20-H ) :   0.9678 B(  0-C , 21-H ) :   0.9755
B(  0-C , 22-H ) :   0.9730 B(  1-C ,  2-O ) :   0.8946 B(  1-C , 23-H ) :   0.9699
B(  1-C , 24-H ) :   0.9857 B(  2-O ,  3-C ) :   1.1149 B(  3-C ,  4-O ) :   2.0690
B(  3-C ,  5-C ) :   1.0146 B(  5-C ,  6-C ) :   1.6385 B(  5-C , 12-C ) :   0.9624
B(  6-C ,  7-C ) :   0.9606 B(  6-C ,  8-N ) :   1.1496 B(  7-C , 25-H ) :   0.9690
B(  7-C , 26-H ) :   0.9549 B(  7-C , 27-H ) :   0.9871 B(  8-N ,  9-C ) :   1.1887
B(  8-N , 28-H ) :   0.9477 B(  9-C , 10-S ) :   1.6116 B(  9-C , 11-N ) :   1.3033
B( 11-N , 12-C ) :   0.9693 B( 11-N , 29-H ) :   0.9484 B( 12-C , 13-C ) :   0.9636
B( 12-C , 30-H ) :   1.0033 B( 13-C , 14-C ) :   1.3537 B( 13-C , 19-C ) :   1.3602
B( 14-C , 15-C ) :   1.3966 B( 14-C , 31-H ) :   0.9723 B( 15-C , 16-C ) :   1.3576
B( 15-C , 32-H ) :   0.9702 B( 16-C , 17-C ) :   1.3317 B( 16-C , 33-H ) :   0.9837
B( 17-C , 18-O ) :   1.1075 B( 17-C , 19-C ) :   1.3610 B( 18-O , 34-H ) :   0.9787
B( 19-C , 35-H ) :   0.9554

MP2 TOTAL ENERGY:    -1274.320933104 Eh
FINAL SINGLE POINT ENERGY     -1274.320933103831

DIPOLE MOMENT
-------------
                                X             Y             Z
Electronic contribution:      9.10679       7.69413       6.08739
Nuclear contribution   :    -10.32541      -9.30817      -5.79403
                        -----------------------------------------
Total Dipole Moment    :     -1.21862      -1.61404       0.29336
                        -----------------------------------------
Magnitude (a.u.)       :      2.04358
Magnitude (Debye)      :      5.19437

Rotational constants in cm-1:     0.012395     0.009024     0.006375
Rotational constants in MHz :   371.602686   270.534752   191.117368

                             ****ORCA TERMINATED NORMALLY****
TOTAL RUN TIME: 0 days 2 hours 10 minutes 14 seconds 279 msec
