                         Program Version 4.2.0 -  RELEASE  -
|  1> ! ri-mp2 cc-pvtz cc-pvtz/c TightSCF NoKeepInts
|  2>
|  3> %scf
|  4>   MaxCore 4096
|  5> end
|  6> *xyz  0  1
|  7>     C       13.9220119   15.4034235   14.9132953
|  8>     C       15.2635492   15.6353043   14.1965256
|  9>     O       15.8838990   16.7865266   14.7983362
| 10>     C       16.8787618   16.6239827   15.7197619
| 11>     O       17.5045306   15.5825183   15.8307793
| 12>     C       17.0636567   17.7818782   16.6607452
| 13>     C       16.7910646   19.0681157   16.3134526
| 14>     C       16.0623781   19.5695966   15.0819293
| 15>     N       17.2301891   20.1296465   17.1090449
| 16>     C       18.1248453   20.0096739   18.1377697
| 17>     S       18.6844394   21.3273862   18.9660784
| 18>     N       18.5502305   18.7390258   18.4303351
| 19>     C       18.0128628   17.5011727   17.8331722
| 20>     C       17.4363759   16.5403534   18.8648466
| 21>     C       17.9064148   15.2178010   18.9553519
| 22>     C       17.3740440   14.3337608   19.9088006
| 23>     C       16.3639753   14.7766821   20.7799872
| 24>     C       15.8924419   16.0936876   20.6905282
| 25>     O       14.9143220   16.5226418   21.5275766
| 26>     C       16.4240515   16.9710750   19.7400191
| 27>     H       14.0866880   15.1704694   15.9730806
| 28>     H       13.3835505   14.5630150   14.4586665
| 29>     H       13.2865906   16.2953295   14.8481901
| 30>     H       15.8955752   14.7385149   14.2522880
| 31>     H       15.0670574   15.8434338   13.1369805
| 32>     H       16.5528831   19.2147099   14.1669065
| 33>     H       16.0275865   20.6642568   15.0228920
| 34>     H       15.0254996   19.2107936   15.0723673
| 35>     H       16.9436324   21.0708455   16.8926583
| 36>     H       19.1925830   18.6749231   19.2099575
| 37>     H       18.9277590   17.0863598   17.3855430
| 38>     H       18.6764896   14.8704330   18.2705932
| 39>     H       17.7408731   13.3104861   19.9648162
| 40>     H       15.9489669   14.0967827   21.5164613
| 41>     H       14.6982778   15.7877504   22.1208694
| 42>     H       16.0489428   17.9876439   19.6873936
| 43> *
| 44>
| 45>                          ****END OF INPUT****

CARTESIAN COORDINATES (ANGSTROEM)
---------------------------------
  C     13.922012   15.403424   14.913295
  C     15.263549   15.635304   14.196526
  O     15.883899   16.786527   14.798336
  C     16.878762   16.623983   15.719762
  O     17.504531   15.582518   15.830779
  C     17.063657   17.781878   16.660745
  C     16.791065   19.068116   16.313453
  C     16.062378   19.569597   15.081929
  N     17.230189   20.129646   17.109045
  C     18.124845   20.009674   18.137770
  S     18.684439   21.327386   18.966078
  N     18.550231   18.739026   18.430335
  C     18.012863   17.501173   17.833172
  C     17.436376   16.540353   18.864847
  C     17.906415   15.217801   18.955352
  C     17.374044   14.333761   19.908801
  C     16.363975   14.776682   20.779987
  C     15.892442   16.093688   20.690528
  O     14.914322   16.522642   21.527577
  C     16.424052   16.971075   19.740019
  H     14.086688   15.170469   15.973081
  H     13.383551   14.563015   14.458666
  H     13.286591   16.295330   14.848190
  H     15.895575   14.738515   14.252288
  H     15.067057   15.843434   13.136980
  H     16.552883   19.214710   14.166906
  H     16.027587   20.664257   15.022892
  H     15.025500   19.210794   15.072367
  H     16.943632   21.070846   16.892658
  H     19.192583   18.674923   19.209958
  H     18.927759   17.086360   17.385543
  H     18.676490   14.870433   18.270593
  H     17.740873   13.310486   19.964816
  H     15.948967   14.096783   21.516461
  H     14.698278   15.787750   22.120869
  H     16.048943   17.987644   19.687394

 Total Charge           Charge          ....    0
 Multiplicity           Mult            ....    1
 Number of Electrons    NEL             ....  154
 Basis Dimension        Dim             ....  828

ORBITAL ENERGIES
----------------

  NO   OCC          E(Eh)            E(eV)
   0   2.0000     -91.887882     -2500.3964
   1   2.0000     -20.602824      -560.6313
   2   2.0000     -20.591726      -560.3294
   3   2.0000     -20.545291      -559.0658
   4   2.0000     -15.628420      -425.2709
   5   2.0000     -15.605558      -424.6488
   6   2.0000     -11.396359      -310.1107
   7   2.0000     -11.382412      -309.7312
   8   2.0000     -11.338082      -308.5249
   9   2.0000     -11.307719      -307.6987
  10   2.0000     -11.304095      -307.6001
  11   2.0000     -11.298964      -307.4604
  12   2.0000     -11.260926      -306.4254
  13   2.0000     -11.258921      -306.3708
  14   2.0000     -11.254908      -306.2616
  15   2.0000     -11.247763      -306.0672
  16   2.0000     -11.237995      -305.8014
  17   2.0000     -11.234109      -305.6957
  18   2.0000     -11.230834      -305.6065
  19   2.0000     -11.230739      -305.6039
  20   2.0000      -8.892966      -241.9899
  21   2.0000      -6.574544      -178.9024
  22   2.0000      -6.572540      -178.8479
  23   2.0000      -6.571953      -178.8319
  24   2.0000      -1.453751       -39.5586
  25   2.0000      -1.411478       -38.4083
  26   2.0000      -1.357432       -36.9376
  27   2.0000      -1.339763       -36.4568
  28   2.0000      -1.236925       -33.6584
  29   2.0000      -1.152320       -31.3562
  30   2.0000      -1.120636       -30.4941
  31   2.0000      -1.043581       -28.3973
  32   2.0000      -1.035619       -28.1806
  33   2.0000      -1.009845       -27.4793
  34   2.0000      -0.998758       -27.1776
  35   2.0000      -0.983682       -26.7674
  36   2.0000      -0.920713       -25.0539
  37   2.0000      -0.892351       -24.2821
  38   2.0000      -0.847280       -23.0557
  39   2.0000      -0.834721       -22.7139
  40   2.0000      -0.827980       -22.5305
  41   2.0000      -0.815521       -22.1915
  42   2.0000      -0.759339       -20.6627
  43   2.0000      -0.736434       -20.0394
  44   2.0000      -0.726029       -19.7562
  45   2.0000      -0.690975       -18.8024
  46   2.0000      -0.685405       -18.6508
  47   2.0000      -0.679404       -18.4875
  48   2.0000      -0.669829       -18.2270
  49   2.0000      -0.658781       -17.9263
  50   2.0000      -0.649067       -17.6620
  51   2.0000      -0.644361       -17.5340
  52   2.0000      -0.632376       -17.2078
  53   2.0000      -0.605209       -16.4686
  54   2.0000      -0.600354       -16.3365
  55   2.0000      -0.597562       -16.2605
  56   2.0000      -0.594723       -16.1832
  57   2.0000      -0.582188       -15.8421
  58   2.0000      -0.573509       -15.6060
  59   2.0000      -0.561858       -15.2889
  60   2.0000      -0.558746       -15.2042
  61   2.0000      -0.555787       -15.1237
  62   2.0000      -0.538126       -14.6431
  63   2.0000      -0.530240       -14.4286
  64   2.0000      -0.515758       -14.0345
  65   2.0000      -0.508719       -13.8429
  66   2.0000      -0.498582       -13.5671
  67   2.0000      -0.494023       -13.4430
  68   2.0000      -0.481492       -13.1021
  69   2.0000      -0.464336       -12.6352
  70   2.0000      -0.458038       -12.4638
  71   2.0000      -0.452009       -12.2998
  72   2.0000      -0.353075        -9.6077
  73   2.0000      -0.344513        -9.3747
  74   2.0000      -0.326963        -8.8971
  75   2.0000      -0.317078        -8.6281
  76   2.0000      -0.314330        -8.5534
  77   0.0000       0.077399         2.1061
  78   0.0000       0.111495         3.0339
  79   0.0000       0.119880         3.2621
  80   0.0000       0.135982         3.7003
  81   0.0000       0.140517         3.8237

MULLIKEN ATOMIC CHARGES
-----------------------
   0 C :   -0.271861
   1 C :    0.012854
   2 O :   -0.348520
   3 C :    0.429183
   4 O :   -0.422820
   5 C :   -0.173906
   6 C :    0.157962
   7 C :   -0.281387
   8 N :   -0.128994
   9 C :    0.207474
  10 S :   -0.442620
  11 N :   -0.210635
  12 C :    0.042582
  13 C :    0.031363
  14 C :   -0.166771
  15 C :   -0.134498
  16 C :   -0.277349
  17 C :    0.313937
  18 O :   -0.359043
  19 C :   -0.251407
  20 H :    0.103975
  21 H :    0.095270
  22 H :    0.091259
  23 H :    0.122039
  24 H :    0.101321
  25 H :    0.125712
  26 H :    0.101618
  27 H :    0.128899
  28 H :    0.198779
  29 H :    0.199883
  30 H :    0.155501
  31 H :    0.158745
  32 H :    0.159927
  33 H :    0.128261
  34 H :    0.239913
  35 H :    0.163355
Sum of atomic charges:   -0.0000000

LOEWDIN ATOMIC CHARGES
----------------------
   0 C :    0.104474
   1 C :   -0.015120
   2 O :    0.307462
   3 C :   -0.415354
   4 O :    0.103707
   5 C :   -0.091789
   6 C :   -0.064301
   7 C :    0.125088
   8 N :    0.405422
   9 C :   -0.458632
  10 S :   -0.037815
  11 N :    0.396511
  12 C :   -0.048274
  13 C :   -0.040586
  14 C :    0.025012
  15 C :    0.040862
  16 C :   -0.001280
  17 C :   -0.192682
  18 O :    0.393054
  19 C :    0.029586
  20 H :   -0.024364
  21 H :   -0.025561
  22 H :   -0.029158
  23 H :   -0.027170
  24 H :   -0.028588
  25 H :   -0.009183
  26 H :   -0.021265
  27 H :   -0.009893
  28 H :   -0.058779
  29 H :   -0.063116
  30 H :   -0.008278
  31 H :   -0.023973
  32 H :   -0.021084
  33 H :   -0.036185
  34 H :   -0.154900
  35 H :   -0.023853

  Mayer bond orders larger than 0.100000
B(  0-C ,  1-C ) :   0.9689 B(  0-C , 20-H ) :   0.9772 B(  0-C , 21-H ) :   0.9759
B(  0-C , 22-H ) :   0.9785 B(  1-C ,  2-O ) :   0.8884 B(  1-C , 23-H ) :   0.9730
B(  1-C , 24-H ) :   0.9840 B(  2-O ,  3-C ) :   1.1443 B(  3-C ,  4-O ) :   1.9876
B(  3-C ,  5-C ) :   1.0353 B(  5-C ,  6-C ) :   1.6579 B(  5-C , 12-C ) :   0.9505
B(  6-C ,  7-C ) :   0.9550 B(  6-C ,  8-N ) :   1.1349 B(  7-C , 25-H ) :   0.9653
B(  7-C , 26-H ) :   0.9908 B(  7-C , 27-H ) :   0.9635 B(  8-N ,  9-C ) :   1.1855
B(  8-N , 28-H ) :   0.9469 B(  9-C , 10-S ) :   1.6080 B(  9-C , 11-N ) :   1.3065
B( 11-N , 12-C ) :   0.9765 B( 11-N , 29-H ) :   0.9486 B( 12-C , 13-C ) :   0.9736
B( 12-C , 30-H ) :   0.9971 B( 13-C , 14-C ) :   1.3766 B( 13-C , 19-C ) :   1.3656
B( 14-C , 15-C ) :   1.3974 B( 14-C , 31-H ) :   0.9638 B( 15-C , 16-C ) :   1.3586
B( 15-C , 32-H ) :   0.9712 B( 16-C , 17-C ) :   1.3334 B( 16-C , 33-H ) :   0.9860
B( 17-C , 18-O ) :   1.1034 B( 17-C , 19-C ) :   1.3674 B( 18-O , 34-H ) :   0.9807
B( 19-C , 35-H ) :   0.9602

MP2 TOTAL ENERGY:    -1274.340402097 Eh
FINAL SINGLE POINT ENERGY     -1274.340402097010

DIPOLE MOMENT
-------------
                                X             Y             Z
Electronic contribution:     10.61320       9.22426      10.27176
Nuclear contribution   :    -11.99889     -10.53632     -11.40433
                        -----------------------------------------
Total Dipole Moment    :     -1.38569      -1.31207      -1.13258
                        -----------------------------------------
Magnitude (a.u.)       :      2.21909
Magnitude (Debye)      :      5.64049

Rotational constants in cm-1:     0.009848     0.009275     0.005734
Rotational constants in MHz :   295.250310   278.048485   171.906979

                             ****ORCA TERMINATED NORMALLY****
TOTAL RUN TIME: 0 days 1 hours 53 minutes 0 seconds 356 msec
