                         Program Version 4.2.0 -  RELEASE  -
|  1> ! ri-mp2 cc-pvtz cc-pvtz/c TightSCF NoKeepInts
|  2>
|  3> %scf
|  4>   MaxCore 4096
|  5> end
|  6> *xyz  0  1
|  7>     C       14.0477388   15.1547253   15.2523690
|  8>     C       14.9839910   16.3552957   15.4641476
|  9>     O       16.3106252   15.9216635   15.1064909
| 10>     C       17.4566439   16.4780519   15.6163208
| 11>     O       18.5450672   15.9646698   15.4371137
| 12>     C       17.2806578   17.6539551   16.5176194
| 13>     C       16.9680881   18.8641686   15.9960057
| 14>     C       16.5361982   19.1629351   14.5746480
| 15>     N       17.1160037   20.0281459   16.7520601
| 16>     C       17.7984099   20.0899825   17.9388765
| 17>     S       18.0376725   21.5208829   18.7321795
| 18>     N       18.2955016   18.9039959   18.4222429
| 19>     C       18.0158112   17.5700953   17.8534061
| 20>     C       17.3726693   16.5801442   18.8120637
| 21>     C       17.8230520   15.2487080   18.8571399
| 22>     C       17.2184036   14.3197252   19.7201994
| 23>     C       16.1520900   14.7252759   20.5411695
| 24>     C       15.6964472   16.0499362   20.4918232
| 25>     O       14.6600405   16.4413509   21.2749521
| 26>     C       16.2994606   16.9727147   19.6309057
| 27>     H       14.3576612   14.3090093   15.8793951
| 28>     H       14.0644546   14.8310153   14.2040804
| 29>     H       13.0159425   15.4173465   15.5156616
| 30>     H       14.6618443   17.1994975   14.8432736
| 31>     H       14.9318184   16.6442297   16.5227683
| 32>     H       16.6986635   18.3171357   13.8953879
| 33>     H       17.1096168   20.0025330   14.1606396
| 34>     H       15.4735943   19.4309827   14.5327650
| 35>     H       16.7937349   20.9112763   16.3882631
| 36>     H       18.7931467   18.9762295   19.3010325
| 37>     H       19.0384935   17.2455878   17.6085051
| 38>     H       18.6394361   14.9312601   18.2111982
| 39>     H       17.5742175   13.2910270   19.7463985
| 40>     H       15.6813531   14.0101901   21.2078039
| 41>     H       14.4086078   15.6836689   21.8245697
| 42>     H       15.9298426   17.9925881   19.6045238
| 43> *
| 44>
| 45>                          ****END OF INPUT****

CARTESIAN COORDINATES (ANGSTROEM)
---------------------------------
  C     14.047739   15.154725   15.252369
  C     14.983991   16.355296   15.464148
  O     16.310625   15.921663   15.106491
  C     17.456644   16.478052   15.616321
  O     18.545067   15.964670   15.437114
  C     17.280658   17.653955   16.517619
  C     16.968088   18.864169   15.996006
  C     16.536198   19.162935   14.574648
  N     17.116004   20.028146   16.752060
  C     17.798410   20.089983   17.938876
  S     18.037672   21.520883   18.732180
  N     18.295502   18.903996   18.422243
  C     18.015811   17.570095   17.853406
  C     17.372669   16.580144   18.812064
  C     17.823052   15.248708   18.857140
  C     17.218404   14.319725   19.720199
  C     16.152090   14.725276   20.541169
  C     15.696447   16.049936   20.491823
  O     14.660040   16.441351   21.274952
  C     16.299461   16.972715   19.630906
  H     14.357661   14.309009   15.879395
  H     14.064455   14.831015   14.204080
  H     13.015942   15.417347   15.515662
  H     14.661844   17.199497   14.843274
  H     14.931818   16.644230   16.522768
  H     16.698663   18.317136   13.895388
  H     17.109617   20.002533   14.160640
  H     15.473594   19.430983   14.532765
  H     16.793735   20.911276   16.388263
  H     18.793147   18.976229   19.301033
  H     19.038494   17.245588   17.608505
  H     18.639436   14.931260   18.211198
  H     17.574217   13.291027   19.746399
  H     15.681353   14.010190   21.207804
  H     14.408608   15.683669   21.824570
  H     15.929843   17.992588   19.604524

 Total Charge           Charge          ....    0
 Multiplicity           Mult            ....    1
 Number of Electrons    NEL             ....  154
 Basis Dimension        Dim             ....  828

ORBITAL ENERGIES
----------------

  NO   OCC          E(Eh)            E(eV)
   0   2.0000     -91.889422     -2500.4383
   1   2.0000     -20.605845      -560.7135
   2   2.0000     -20.600084      -560.5568
   3   2.0000     -20.550502      -559.2076
   4   2.0000     -15.626834      -425.2278
   5   2.0000     -15.609681      -424.7610
   6   2.0000     -11.399414      -310.1938
   7   2.0000     -11.385562      -309.8169
   8   2.0000     -11.331858      -308.3555
   9   2.0000     -11.317590      -307.9673
  10   2.0000     -11.311026      -307.7887
  11   2.0000     -11.306477      -307.6649
  12   2.0000     -11.268286      -306.6257
  13   2.0000     -11.265487      -306.5495
  14   2.0000     -11.263433      -306.4936
  15   2.0000     -11.257981      -306.3452
  16   2.0000     -11.246512      -306.0331
  17   2.0000     -11.242706      -305.9296
  18   2.0000     -11.240392      -305.8666
  19   2.0000     -11.234076      -305.6948
  20   2.0000      -8.894537      -242.0327
  21   2.0000      -6.576121      -178.9453
  22   2.0000      -6.574105      -178.8905
  23   2.0000      -6.573526      -178.8747
  24   2.0000      -1.449910       -39.4541
  25   2.0000      -1.419784       -38.6343
  26   2.0000      -1.363442       -37.1012
  27   2.0000      -1.340329       -36.4722
  28   2.0000      -1.239073       -33.7169
  29   2.0000      -1.161939       -31.6180
  30   2.0000      -1.126684       -30.6586
  31   2.0000      -1.049096       -28.5473
  32   2.0000      -1.042127       -28.3577
  33   2.0000      -1.019762       -27.7491
  34   2.0000      -1.006416       -27.3860
  35   2.0000      -0.989608       -26.9286
  36   2.0000      -0.926814       -25.2199
  37   2.0000      -0.882358       -24.0102
  38   2.0000      -0.856235       -23.2993
  39   2.0000      -0.842423       -22.9235
  40   2.0000      -0.838259       -22.8102
  41   2.0000      -0.836756       -22.7693
  42   2.0000      -0.757837       -20.6218
  43   2.0000      -0.740264       -20.1436
  44   2.0000      -0.732461       -19.9313
  45   2.0000      -0.697880       -18.9903
  46   2.0000      -0.690181       -18.7808
  47   2.0000      -0.683732       -18.6053
  48   2.0000      -0.674893       -18.3648
  49   2.0000      -0.661641       -18.0042
  50   2.0000      -0.660744       -17.9798
  51   2.0000      -0.648330       -17.6420
  52   2.0000      -0.638638       -17.3782
  53   2.0000      -0.613409       -16.6917
  54   2.0000      -0.608350       -16.5541
  55   2.0000      -0.603489       -16.4218
  56   2.0000      -0.596435       -16.2298
  57   2.0000      -0.580577       -15.7983
  58   2.0000      -0.578373       -15.7383
  59   2.0000      -0.572339       -15.5741
  60   2.0000      -0.561974       -15.2921
  61   2.0000      -0.559168       -15.2157
  62   2.0000      -0.553971       -15.0743
  63   2.0000      -0.529138       -14.3986
  64   2.0000      -0.519217       -14.1286
  65   2.0000      -0.514961       -14.0128
  66   2.0000      -0.507290       -13.8041
  67   2.0000      -0.501958       -13.6590
  68   2.0000      -0.488828       -13.3017
  69   2.0000      -0.471065       -12.8183
  70   2.0000      -0.456350       -12.4179
  71   2.0000      -0.452193       -12.3048
  72   2.0000      -0.355997        -9.6872
  73   2.0000      -0.352201        -9.5839
  74   2.0000      -0.329021        -8.9531
  75   2.0000      -0.325185        -8.8487
  76   2.0000      -0.319426        -8.6920
  77   0.0000       0.087560         2.3826
  78   0.0000       0.103164         2.8072
  79   0.0000       0.115599         3.1456
  80   0.0000       0.128858         3.5064
  81   0.0000       0.129968         3.5366

MULLIKEN ATOMIC CHARGES
-----------------------
   0 C :   -0.254769
   1 C :    0.024544
   2 O :   -0.303751
   3 C :    0.409534
   4 O :   -0.382774
   5 C :   -0.218583
   6 C :    0.166720
   7 C :   -0.343008
   8 N :   -0.140980
   9 C :    0.209957
  10 S :   -0.443581
  11 N :   -0.223191
  12 C :    0.060503
  13 C :    0.030945
  14 C :   -0.223515
  15 C :   -0.127354
  16 C :   -0.276786
  17 C :    0.316107
  18 O :   -0.355617
  19 C :   -0.258056
  20 H :    0.105618
  21 H :    0.101032
  22 H :    0.088383
  23 H :    0.085391
  24 H :    0.105766
  25 H :    0.131752
  26 H :    0.136232
  27 H :    0.124935
  28 H :    0.197529
  29 H :    0.202481
  30 H :    0.168025
  31 H :    0.174562
  32 H :    0.164744
  33 H :    0.131738
  34 H :    0.241428
  35 H :    0.174040
Sum of atomic charges:   -0.0000000

LOEWDIN ATOMIC CHARGES
----------------------
   0 C :    0.111557
   1 C :   -0.023854
   2 O :    0.309257
   3 C :   -0.415740
   4 O :    0.118683
   5 C :   -0.083338
   6 C :   -0.093173
   7 C :    0.123909
   8 N :    0.402325
   9 C :   -0.455980
  10 S :   -0.038802
  11 N :    0.396003
  12 C :   -0.049955
  13 C :   -0.044012
  14 C :    0.019506
  15 C :    0.045414
  16 C :    0.000264
  17 C :   -0.191072
  18 O :    0.395193
  19 C :    0.026979
  20 H :   -0.022198
  21 H :   -0.025610
  22 H :   -0.025273
  23 H :   -0.036835
  24 H :   -0.032110
  25 H :   -0.007987
  26 H :   -0.009742
  27 H :   -0.017957
  28 H :   -0.057224
  29 H :   -0.063766
  30 H :   -0.003655
  31 H :   -0.021400
  32 H :   -0.018421
  33 H :   -0.034715
  34 H :   -0.153046
  35 H :   -0.023222

  Mayer bond orders larger than 0.100000
B(  0-C ,  1-C ) :   0.9836 B(  0-C , 20-H ) :   0.9783 B(  0-C , 21-H ) :   0.9786
B(  0-C , 22-H ) :   0.9771 B(  1-C ,  2-O ) :   0.9118 B(  1-C , 23-H ) :   0.9707
B(  1-C , 24-H ) :   0.9593 B(  2-O ,  3-C ) :   1.1926 B(  3-C ,  4-O ) :   2.1000
B(  3-C ,  5-C ) :   0.9159 B(  5-C ,  6-C ) :   1.7151 B(  5-C , 12-C ) :   0.9397
B(  6-C ,  7-C ) :   0.9348 B(  6-C ,  8-N ) :   1.1068 B(  7-C , 25-H ) :   0.9773
B(  7-C , 26-H ) :   0.9724 B(  7-C , 27-H ) :   0.9672 B(  8-N ,  9-C ) :   1.1988
B(  8-N , 28-H ) :   0.9514 B(  9-C , 10-S ) :   1.6094 B(  9-C , 11-N ) :   1.2900
B( 11-N , 12-C ) :   0.9842 B( 11-N , 29-H ) :   0.9473 B( 12-C , 13-C ) :   0.9675
B( 12-C , 30-H ) :   0.9894 B( 13-C , 14-C ) :   1.3846 B( 13-C , 19-C ) :   1.3522
B( 14-C , 15-C ) :   1.3940 B( 14-C , 31-H ) :   0.9604 B( 15-C , 16-C ) :   1.3623
B( 15-C , 32-H ) :   0.9695 B( 16-C , 17-C ) :   1.3309 B( 16-C , 33-H ) :   0.9849
B( 17-C , 18-O ) :   1.1095 B( 17-C , 19-C ) :   1.3639 B( 18-O , 34-H ) :   0.9792
B( 19-C , 35-H ) :   0.9565

MP2 TOTAL ENERGY:    -1274.331418710 Eh
FINAL SINGLE POINT ENERGY     -1274.331418709940

DIPOLE MOMENT
-------------
                                X             Y             Z
Electronic contribution:     10.30519       8.56914       8.48931
Nuclear contribution   :    -12.00538      -9.72603      -8.85059
                        -----------------------------------------
Total Dipole Moment    :     -1.70019      -1.15689      -0.36128
                        -----------------------------------------
Magnitude (a.u.)       :      2.08796
Magnitude (Debye)      :      5.30716

Rotational constants in cm-1:     0.010853     0.009039     0.006215
Rotational constants in MHz :   325.358999   270.982984   186.332556

                             ****ORCA TERMINATED NORMALLY****
TOTAL RUN TIME: 0 days 1 hours 41 minutes 11 seconds 331 msec
