                         Program Version 4.2.0 -  RELEASE  -
|  1> ! ri-mp2 cc-pvtz cc-pvtz/c TightSCF NoKeepInts
|  2>
|  3> %scf
|  4>   MaxCore 4096
|  5> end
|  6> *xyz  0  1
|  7>     C       14.1635199   16.5463281   15.4690640
|  8>     C       15.2652959   15.5943782   15.9722248
|  9>     O       16.4620719   15.7682401   15.1850200
| 10>     C       17.3817655   16.7725295   15.3520625
| 11>     O       18.3572160   16.8684790   14.6318968
| 12>     C       17.1264773   17.7433693   16.4518968
| 13>     C       16.8116042   19.0116563   16.1039115
| 14>     C       16.3639873   19.4664905   14.7309472
| 15>     N       16.9617240   20.0688760   17.0024815
| 16>     C       17.6616692   19.9781814   18.1768743
| 17>     S       17.9117718   21.2918195   19.1496489
| 18>     N       18.1714436   18.7417633   18.4914698
| 19>     C       17.8847356   17.4920961   17.7586174
| 20>     C       17.3335419   16.3628334   18.6136052
| 21>     C       17.8442872   15.0591718   18.4781804
| 22>     C       17.3213488   14.0055760   19.2462772
| 23>     C       16.2798151   14.2582915   20.1555892
| 24>     C       15.7686324   15.5563719   20.2911173
| 25>     O       14.7570971   15.8013344   21.1610073
| 26>     C       16.2890024   16.6032082   19.5233402
| 27>     H       14.3567614   17.5797572   15.7751809
| 28>     H       13.1926583   16.2543274   15.8879365
| 29>     H       14.0863274   16.5089698   14.3750388
| 30>     H       15.4405900   15.7353248   17.0425307
| 31>     H       14.9136888   14.5636426   15.8344423
| 32>     H       15.8706266   18.6626966   14.1712987
| 33>     H       17.2303617   19.7871761   14.1375447
| 34>     H       15.6587879   20.3046115   14.7853867
| 35>     H       16.6414797   20.9916772   16.7543201
| 36>     H       18.6844098   18.7032877   19.3635553
| 37>     H       18.9054494   17.2338191   17.4384252
| 38>     H       18.6448092   14.8604423   17.7688893
| 39>     H       17.7229246   12.9994450   19.1348833
| 40>     H       15.8733002   13.4469514   20.7508065
| 41>     H       14.5713470   14.9761796   21.6345098
| 42>     H       15.8764709   17.6006972   19.6380188
| 43> *
| 44>
| 45>                          ****END OF INPUT****

CARTESIAN COORDINATES (ANGSTROEM)
---------------------------------
  C     14.163520   16.546328   15.469064
  C     15.265296   15.594378   15.972225
  O     16.462072   15.768240   15.185020
  C     17.381766   16.772530   15.352063
  O     18.357216   16.868479   14.631897
  C     17.126477   17.743369   16.451897
  C     16.811604   19.011656   16.103911
  C     16.363987   19.466490   14.730947
  N     16.961724   20.068876   17.002481
  C     17.661669   19.978181   18.176874
  S     17.911772   21.291819   19.149649
  N     18.171444   18.741763   18.491470
  C     17.884736   17.492096   17.758617
  C     17.333542   16.362833   18.613605
  C     17.844287   15.059172   18.478180
  C     17.321349   14.005576   19.246277
  C     16.279815   14.258292   20.155589
  C     15.768632   15.556372   20.291117
  O     14.757097   15.801334   21.161007
  C     16.289002   16.603208   19.523340
  H     14.356761   17.579757   15.775181
  H     13.192658   16.254327   15.887936
  H     14.086327   16.508970   14.375039
  H     15.440590   15.735325   17.042531
  H     14.913689   14.563643   15.834442
  H     15.870627   18.662697   14.171299
  H     17.230362   19.787176   14.137545
  H     15.658788   20.304611   14.785387
  H     16.641480   20.991677   16.754320
  H     18.684410   18.703288   19.363555
  H     18.905449   17.233819   17.438425
  H     18.644809   14.860442   17.768889
  H     17.722925   12.999445   19.134883
  H     15.873300   13.446951   20.750806
  H     14.571347   14.976180   21.634510
  H     15.876471   17.600697   19.638019

 Total Charge           Charge          ....    0
 Multiplicity           Mult            ....    1
 Number of Electrons    NEL             ....  154
 Basis Dimension        Dim             ....  828

ORBITAL ENERGIES
----------------

  NO   OCC          E(Eh)            E(eV)
   0   2.0000     -91.889474     -2500.4397
   1   2.0000     -20.605335      -560.6997
   2   2.0000     -20.600923      -560.5796
   3   2.0000     -20.552045      -559.2496
   4   2.0000     -15.625470      -425.1907
   5   2.0000     -15.610891      -424.7939
   6   2.0000     -11.398558      -310.1705
   7   2.0000     -11.385305      -309.8099
   8   2.0000     -11.326871      -308.2198
   9   2.0000     -11.324143      -308.1456
  10   2.0000     -11.316440      -307.9360
  11   2.0000     -11.302011      -307.5433
  12   2.0000     -11.271387      -306.7100
  13   2.0000     -11.265316      -306.5448
  14   2.0000     -11.260206      -306.4058
  15   2.0000     -11.258228      -306.3520
  16   2.0000     -11.253182      -306.2147
  17   2.0000     -11.248271      -306.0810
  18   2.0000     -11.248148      -306.0777
  19   2.0000     -11.233272      -305.6729
  20   2.0000      -8.894563      -242.0334
  21   2.0000      -6.576142      -178.9459
  22   2.0000      -6.574134      -178.8913
  23   2.0000      -6.573551      -178.8754
  24   2.0000      -1.446780       -39.3689
  25   2.0000      -1.425049       -38.7776
  26   2.0000      -1.361669       -37.0529
  27   2.0000      -1.339349       -36.4455
  28   2.0000      -1.239357       -33.7246
  29   2.0000      -1.167583       -31.7715
  30   2.0000      -1.126932       -30.6654
  31   2.0000      -1.052361       -28.6362
  32   2.0000      -1.037642       -28.2357
  33   2.0000      -1.025560       -27.9069
  34   2.0000      -1.005129       -27.3510
  35   2.0000      -0.990410       -26.9504
  36   2.0000      -0.927930       -25.2503
  37   2.0000      -0.894098       -24.3296
  38   2.0000      -0.852452       -23.1964
  39   2.0000      -0.844917       -22.9913
  40   2.0000      -0.843326       -22.9481
  41   2.0000      -0.834560       -22.7095
  42   2.0000      -0.756491       -20.5852
  43   2.0000      -0.739673       -20.1275
  44   2.0000      -0.725418       -19.7396
  45   2.0000      -0.703582       -19.1454
  46   2.0000      -0.694198       -18.8901
  47   2.0000      -0.680493       -18.5172
  48   2.0000      -0.677516       -18.4361
  49   2.0000      -0.666531       -18.1372
  50   2.0000      -0.652554       -17.7569
  51   2.0000      -0.643090       -17.4994
  52   2.0000      -0.633276       -17.2323
  53   2.0000      -0.621884       -16.9223
  54   2.0000      -0.614023       -16.7084
  55   2.0000      -0.608609       -16.5611
  56   2.0000      -0.606105       -16.4930
  57   2.0000      -0.585049       -15.9200
  58   2.0000      -0.579956       -15.7814
  59   2.0000      -0.569569       -15.4988
  60   2.0000      -0.566960       -15.4278
  61   2.0000      -0.554519       -15.0892
  62   2.0000      -0.540941       -14.7198
  63   2.0000      -0.536675       -14.6037
  64   2.0000      -0.528466       -14.3803
  65   2.0000      -0.518254       -14.1024
  66   2.0000      -0.505593       -13.7579
  67   2.0000      -0.504284       -13.7223
  68   2.0000      -0.489539       -13.3210
  69   2.0000      -0.464980       -12.6527
  70   2.0000      -0.454785       -12.3753
  71   2.0000      -0.450805       -12.2670
  72   2.0000      -0.358228        -9.7479
  73   2.0000      -0.353052        -9.6070
  74   2.0000      -0.332553        -9.0492
  75   2.0000      -0.328610        -8.9419
  76   2.0000      -0.319384        -8.6909
  77   0.0000       0.089301         2.4300
  78   0.0000       0.097649         2.6572
  79   0.0000       0.120449         3.2776
  80   0.0000       0.126120         3.4319
  81   0.0000       0.128167         3.4876

MULLIKEN ATOMIC CHARGES
-----------------------
   0 C :   -0.318522
   1 C :    0.038605
   2 O :   -0.314161
   3 C :    0.420913
   4 O :   -0.381146
   5 C :   -0.201288
   6 C :    0.129324
   7 C :   -0.305457
   8 N :   -0.137194
   9 C :    0.213590
  10 S :   -0.442813
  11 N :   -0.224013
  12 C :    0.030029
  13 C :    0.013044
  14 C :   -0.212292
  15 C :   -0.132389
  16 C :   -0.271133
  17 C :    0.309120
  18 O :   -0.353211
  19 C :   -0.232807
  20 H :    0.100352
  21 H :    0.111555
  22 H :    0.109706
  23 H :    0.104704
  24 H :    0.121725
  25 H :    0.117354
  26 H :    0.150252
  27 H :    0.104823
  28 H :    0.197178
  29 H :    0.202639
  30 H :    0.167164
  31 H :    0.165099
  32 H :    0.165885
  33 H :    0.135376
  34 H :    0.241893
  35 H :    0.176099
Sum of atomic charges:    0.0000000

LOEWDIN ATOMIC CHARGES
----------------------
   0 C :    0.102158
   1 C :   -0.017690
   2 O :    0.305548
   3 C :   -0.417495
   4 O :    0.124290
   5 C :   -0.089176
   6 C :   -0.092610
   7 C :    0.127730
   8 N :    0.404265
   9 C :   -0.454594
  10 S :   -0.037757
  11 N :    0.395836
  12 C :   -0.054475
  13 C :   -0.046961
  14 C :    0.016823
  15 C :    0.046224
  16 C :    0.001804
  17 C :   -0.190536
  18 O :    0.397637
  19 C :    0.029016
  20 H :   -0.034720
  21 H :   -0.023629
  22 H :   -0.026175
  23 H :   -0.035256
  24 H :   -0.020349
  25 H :   -0.010523
  26 H :   -0.004131
  27 H :   -0.018307
  28 H :   -0.057972
  29 H :   -0.064278
  30 H :   -0.006261
  31 H :   -0.024348
  32 H :   -0.017506
  33 H :   -0.033358
  34 H :   -0.152032
  35 H :   -0.021192

  Mayer bond orders larger than 0.100000
B(  0-C ,  1-C ) :   0.9606 B(  0-C , 20-H ) :   0.9754 B(  0-C , 21-H ) :   0.9778
B(  0-C , 22-H ) :   0.9754 B(  1-C ,  2-O ) :   0.8969 B(  1-C , 23-H ) :   0.9600
B(  1-C , 24-H ) :   0.9845 B(  2-O ,  3-C ) :   1.1919 B(  3-C ,  4-O ) :   2.1204
B(  3-C ,  5-C ) :   0.8954 B(  5-C ,  6-C ) :   1.7289 B(  5-C , 12-C ) :   0.9538
B(  6-C ,  7-C ) :   0.9456 B(  6-C ,  8-N ) :   1.1106 B(  7-C , 25-H ) :   0.9788
B(  7-C , 26-H ) :   0.9601 B(  7-C , 27-H ) :   0.9789 B(  8-N ,  9-C ) :   1.2025
B(  8-N , 28-H ) :   0.9496 B(  9-C , 10-S ) :   1.6103 B(  9-C , 11-N ) :   1.2850
B( 11-N , 12-C ) :   0.9783 B( 11-N , 29-H ) :   0.9461 B( 12-C , 13-C ) :   0.9660
B( 12-C , 30-H ) :   0.9978 B( 13-C , 14-C ) :   1.3784 B( 13-C , 19-C ) :   1.3527
B( 14-C , 15-C ) :   1.3956 B( 14-C , 31-H ) :   0.9673 B( 15-C , 16-C ) :   1.3644
B( 15-C , 32-H ) :   0.9690 B( 16-C , 17-C ) :   1.3302 B( 16-C , 33-H ) :   0.9832
B( 17-C , 18-O ) :   1.1133 B( 17-C , 19-C ) :   1.3604 B( 18-O , 34-H ) :   0.9785
B( 19-C , 35-H ) :   0.9569

MP2 TOTAL ENERGY:    -1274.325262679 Eh
FINAL SINGLE POINT ENERGY     -1274.325262679277

DIPOLE MOMENT
-------------
                                X             Y             Z
Electronic contribution:      9.56228       6.25420       7.69548
Nuclear contribution   :    -11.10801      -7.96506      -7.59017
                        -----------------------------------------
Total Dipole Moment    :     -1.54573      -1.71086       0.10531
                        -----------------------------------------
Magnitude (a.u.)       :      2.30812
Magnitude (Debye)      :      5.86677

Rotational constants in cm-1:     0.011699     0.009068     0.006366
Rotational constants in MHz :   350.725713   271.864967   190.845589

                             ****ORCA TERMINATED NORMALLY****
TOTAL RUN TIME: 0 days 1 hours 42 minutes 12 seconds 804 msec
