                         Program Version 4.2.0 -  RELEASE  -
|  1> ! ri-mp2 cc-pvtz cc-pvtz/c TightSCF NoKeepInts
|  2>
|  3> %scf
|  4>   MaxCore 4096
|  5> end
|  6> *xyz  0  1
|  7>     C       13.7495650   15.8165181   13.8756041
|  8>     C       15.1058028   15.4313405   14.4898708
|  9>     O       15.7030241   16.6328323   15.0027589
| 10>     C       16.7535428   16.5209673   15.8653146
| 11>     O       17.4035121   15.4926282   15.9605700
| 12>     C       16.9737417   17.7085524   16.7607976
| 13>     C       16.6342280   18.9764779   16.4046138
| 14>     C       15.7928115   19.4232887   15.2248429
| 15>     N       17.1019225   20.0716682   17.1356888
| 16>     C       18.0796396   20.0061839   18.0910847
| 17>     S       18.6626275   21.3618868   18.8379154
| 18>     N       18.5667221   18.7570198   18.3797991
| 19>     C       18.0216949   17.4880640   17.8599027
| 20>     C       17.5620281   16.5398567   18.9596796
| 21>     C       18.0814333   15.2356174   19.0463535
| 22>     C       17.6584432   14.3640259   20.0639215
| 23>     C       16.7091537   14.8011533   21.0036871
| 24>     C       16.1887467   16.0999141   20.9185162
| 25>     O       15.2693262   16.5232526   21.8222999
| 26>     C       16.6114073   16.9649094   19.9040909
| 27>     H       13.0963480   16.2684802   14.6323838
| 28>     H       13.2451824   14.9300927   13.4719787
| 29>     H       13.8853566   16.5362343   13.0588260
| 30>     H       14.9435954   14.7080918   15.3011489
| 31>     H       15.7573987   14.9702921   13.7355202
| 32>     H       16.2250460   19.0685225   14.2808065
| 33>     H       15.7088421   20.5142337   15.1491643
| 34>     H       14.7736369   19.0241920   15.3022503
| 35>     H       16.7697267   20.9978419   16.9196875
| 36>     H       19.2711763   18.7331912   19.1062618
| 37>     H       18.9103688   17.0882493   17.3501222
| 38>     H       18.8041977   14.8921902   18.3099991
| 39>     H       18.0622684   13.3546086   20.1168115
| 40>     H       16.3786279   14.1308004   21.7899926
| 41>     H       15.1255745   15.7991384   22.4497778
| 42>     H       16.2002804   17.9676830   19.8559569
| 43> *
| 44>
| 45>                          ****END OF INPUT****

CARTESIAN COORDINATES (ANGSTROEM)
---------------------------------
  C     13.749565   15.816518   13.875604
  C     15.105803   15.431340   14.489871
  O     15.703024   16.632832   15.002759
  C     16.753543   16.520967   15.865315
  O     17.403512   15.492628   15.960570
  C     16.973742   17.708552   16.760798
  C     16.634228   18.976478   16.404614
  C     15.792811   19.423289   15.224843
  N     17.101923   20.071668   17.135689
  C     18.079640   20.006184   18.091085
  S     18.662627   21.361887   18.837915
  N     18.566722   18.757020   18.379799
  C     18.021695   17.488064   17.859903
  C     17.562028   16.539857   18.959680
  C     18.081433   15.235617   19.046353
  C     17.658443   14.364026   20.063921
  C     16.709154   14.801153   21.003687
  C     16.188747   16.099914   20.918516
  O     15.269326   16.523253   21.822300
  C     16.611407   16.964909   19.904091
  H     13.096348   16.268480   14.632384
  H     13.245182   14.930093   13.471979
  H     13.885357   16.536234   13.058826
  H     14.943595   14.708092   15.301149
  H     15.757399   14.970292   13.735520
  H     16.225046   19.068523   14.280806
  H     15.708842   20.514234   15.149164
  H     14.773637   19.024192   15.302250
  H     16.769727   20.997842   16.919687
  H     19.271176   18.733191   19.106262
  H     18.910369   17.088249   17.350122
  H     18.804198   14.892190   18.309999
  H     18.062268   13.354609   20.116812
  H     16.378628   14.130800   21.789993
  H     15.125574   15.799138   22.449778
  H     16.200280   17.967683   19.855957

 Total Charge           Charge          ....    0
 Multiplicity           Mult            ....    1
 Number of Electrons    NEL             ....  154
 Basis Dimension        Dim             ....  828

ORBITAL ENERGIES
----------------

  NO   OCC          E(Eh)            E(eV)
   0   2.0000     -91.887877     -2500.3963
   1   2.0000     -20.603447      -560.6483
   2   2.0000     -20.591342      -560.3189
   3   2.0000     -20.545338      -559.0671
   4   2.0000     -15.628491      -425.2729
   5   2.0000     -15.605489      -424.6469
   6   2.0000     -11.394780      -310.0677
   7   2.0000     -11.382380      -309.7303
   8   2.0000     -11.338265      -308.5299
   9   2.0000     -11.307260      -307.6862
  10   2.0000     -11.304008      -307.5977
  11   2.0000     -11.299914      -307.4863
  12   2.0000     -11.261023      -306.4280
  13   2.0000     -11.259063      -306.3747
  14   2.0000     -11.254516      -306.2509
  15   2.0000     -11.247291      -306.0543
  16   2.0000     -11.237549      -305.7892
  17   2.0000     -11.235587      -305.7359
  18   2.0000     -11.233695      -305.6844
  19   2.0000     -11.230404      -305.5948
  20   2.0000      -8.892962      -241.9898
  21   2.0000      -6.574540      -178.9023
  22   2.0000      -6.572536      -178.8478
  23   2.0000      -6.571949      -178.8318
  24   2.0000      -1.455743       -39.6128
  25   2.0000      -1.411088       -38.3976
  26   2.0000      -1.357156       -36.9301
  27   2.0000      -1.339798       -36.4578
  28   2.0000      -1.236917       -33.6582
  29   2.0000      -1.151941       -31.3459
  30   2.0000      -1.120610       -30.4933
  31   2.0000      -1.045188       -28.4410
  32   2.0000      -1.036873       -28.2147
  33   2.0000      -1.009474       -27.4692
  34   2.0000      -0.998677       -27.1754
  35   2.0000      -0.983772       -26.7698
  36   2.0000      -0.920393       -25.0452
  37   2.0000      -0.888354       -24.1733
  38   2.0000      -0.846885       -23.0449
  39   2.0000      -0.834430       -22.7060
  40   2.0000      -0.827546       -22.5187
  41   2.0000      -0.818255       -22.2659
  42   2.0000      -0.762528       -20.7494
  43   2.0000      -0.736058       -20.0292
  44   2.0000      -0.725759       -19.7489
  45   2.0000      -0.690238       -18.7823
  46   2.0000      -0.684108       -18.6155
  47   2.0000      -0.681502       -18.5446
  48   2.0000      -0.676006       -18.3951
  49   2.0000      -0.659928       -17.9576
  50   2.0000      -0.649595       -17.6764
  51   2.0000      -0.641642       -17.4600
  52   2.0000      -0.633271       -17.2322
  53   2.0000      -0.603172       -16.4131
  54   2.0000      -0.598952       -16.2983
  55   2.0000      -0.596242       -16.2246
  56   2.0000      -0.594658       -16.1815
  57   2.0000      -0.579096       -15.7580
  58   2.0000      -0.572579       -15.5807
  59   2.0000      -0.564668       -15.3654
  60   2.0000      -0.561949       -15.2914
  61   2.0000      -0.554853       -15.0983
  62   2.0000      -0.542326       -14.7574
  63   2.0000      -0.519167       -14.1272
  64   2.0000      -0.515520       -14.0280
  65   2.0000      -0.511297       -13.9131
  66   2.0000      -0.504833       -13.7372
  67   2.0000      -0.493923       -13.4403
  68   2.0000      -0.480891       -13.0857
  69   2.0000      -0.465288       -12.6611
  70   2.0000      -0.459879       -12.5139
  71   2.0000      -0.453807       -12.3487
  72   2.0000      -0.353010        -9.6059
  73   2.0000      -0.344119        -9.3640
  74   2.0000      -0.326947        -8.8967
  75   2.0000      -0.317014        -8.6264
  76   2.0000      -0.313844        -8.5401
  77   0.0000       0.077362         2.1051
  78   0.0000       0.112065         3.0494
  79   0.0000       0.120203         3.2709
  80   0.0000       0.135835         3.6963
  81   0.0000       0.138429         3.7668

MULLIKEN ATOMIC CHARGES
-----------------------
   0 C :   -0.273931
   1 C :    0.045586
   2 O :   -0.335260
   3 C :    0.408225
   4 O :   -0.420202
   5 C :   -0.169353
   6 C :    0.161126
   7 C :   -0.283299
   8 N :   -0.128919
   9 C :    0.207372
  10 S :   -0.442653
  11 N :   -0.210832
  12 C :    0.042681
  13 C :    0.032042
  14 C :   -0.165525
  15 C :   -0.134584
  16 C :   -0.277123
  17 C :    0.314071
  18 O :   -0.359250
  19 C :   -0.251377
  20 H :    0.096159
  21 H :    0.101268
  22 H :    0.094364
  23 H :    0.091756
  24 H :    0.096442
  25 H :    0.125589
  26 H :    0.103533
  27 H :    0.129356
  28 H :    0.198835
  29 H :    0.199993
  30 H :    0.154950
  31 H :    0.158220
  32 H :    0.159789
  33 H :    0.128056
  34 H :    0.239874
  35 H :    0.163018
Sum of atomic charges:   -0.0000000

LOEWDIN ATOMIC CHARGES
----------------------
   0 C :    0.106995
   1 C :   -0.018053
   2 O :    0.306528
   3 C :   -0.415868
   4 O :    0.104815
   5 C :   -0.091891
   6 C :   -0.064239
   7 C :    0.124986
   8 N :    0.405429
   9 C :   -0.458698
  10 S :   -0.037783
  11 N :    0.396519
  12 C :   -0.048249
  13 C :   -0.040444
  14 C :    0.025306
  15 C :    0.040969
  16 C :   -0.001219
  17 C :   -0.192604
  18 O :    0.392958
  19 C :    0.029605
  20 H :   -0.027281
  21 H :   -0.022796
  22 H :   -0.028328
  23 H :   -0.026587
  24 H :   -0.029087
  25 H :   -0.009640
  26 H :   -0.021233
  27 H :   -0.009643
  28 H :   -0.058798
  29 H :   -0.063061
  30 H :   -0.008328
  31 H :   -0.024017
  32 H :   -0.021105
  33 H :   -0.036234
  34 H :   -0.154945
  35 H :   -0.023979

  Mayer bond orders larger than 0.100000
B(  0-C ,  1-C ) :   0.9705 B(  0-C , 20-H ) :   0.9769 B(  0-C , 21-H ) :   0.9789
B(  0-C , 22-H ) :   0.9777 B(  1-C ,  2-O ) :   0.9090 B(  1-C , 23-H ) :   0.9745
B(  1-C , 24-H ) :   0.9800 B(  2-O ,  3-C ) :   1.1530 B(  3-C ,  4-O ) :   1.9893
B(  3-C ,  5-C ) :   1.0437 B(  5-C ,  6-C ) :   1.6546 B(  5-C , 12-C ) :   0.9506
B(  6-C ,  7-C ) :   0.9535 B(  6-C ,  8-N ) :   1.1345 B(  7-C , 25-H ) :   0.9650
B(  7-C , 26-H ) :   0.9917 B(  7-C , 27-H ) :   0.9633 B(  8-N ,  9-C ) :   1.1853
B(  8-N , 28-H ) :   0.9469 B(  9-C , 10-S ) :   1.6078 B(  9-C , 11-N ) :   1.3070
B( 11-N , 12-C ) :   0.9760 B( 11-N , 29-H ) :   0.9485 B( 12-C , 13-C ) :   0.9742
B( 12-C , 30-H ) :   0.9972 B( 13-C , 14-C ) :   1.3758 B( 13-C , 19-C ) :   1.3659
B( 14-C , 15-C ) :   1.3975 B( 14-C , 31-H ) :   0.9640 B( 15-C , 16-C ) :   1.3585
B( 15-C , 32-H ) :   0.9712 B( 16-C , 17-C ) :   1.3335 B( 16-C , 33-H ) :   0.9860
B( 17-C , 18-O ) :   1.1031 B( 17-C , 19-C ) :   1.3676 B( 18-O , 34-H ) :   0.9807
B( 19-C , 35-H ) :   0.9604

MP2 TOTAL ENERGY:    -1274.341614441 Eh
FINAL SINGLE POINT ENERGY     -1274.341614440907

DIPOLE MOMENT
-------------
                                X             Y             Z
Electronic contribution:     11.06576       8.57744      12.07575
Nuclear contribution   :    -12.49823      -9.92398     -13.11404
                        -----------------------------------------
Total Dipole Moment    :     -1.43248      -1.34654      -1.03829
                        -----------------------------------------
Magnitude (a.u.)       :      2.22333
Magnitude (Debye)      :      5.65126

Rotational constants in cm-1:     0.009767     0.008843     0.005516
Rotational constants in MHz :   292.793582   265.091712   165.374840

                             ****ORCA TERMINATED NORMALLY****
TOTAL RUN TIME: 0 days 1 hours 34 minutes 47 seconds 993 msec
