                         Program Version 4.2.0 -  RELEASE  -
|  1> ! ri-mp2 cc-pvtz cc-pvtz/c TightSCF NoKeepInts
|  2>
|  3> %scf
|  4>   MaxCore 4096
|  5> end
|  6> *xyz  0  1
|  7>     C       14.4610248   16.3154374   16.0894583
|  8>     C       15.1420230   15.8105446   14.7990576
|  9>     O       16.4131260   16.4414187   14.5170317
| 10>     C       17.3795074   16.5643073   15.4750196
| 11>     O       18.2618130   15.7318612   15.5801880
| 12>     C       17.1916992   17.6761555   16.4641287
| 13>     C       16.8018950   18.9122152   16.0603336
| 14>     C       16.3118242   19.3160014   14.6832879
| 15>     N       16.9093870   20.0097350   16.9175358
| 16>     C       17.6142879   20.0046962   18.0914548
| 17>     S       17.8005496   21.3721596   19.0025304
| 18>     N       18.1798889   18.8093953   18.4591574
| 19>     C       17.9492308   17.5155011   17.7865301
| 20>     C       17.3602651   16.4444106   18.6944704
| 21>     C       17.9157274   15.1528796   18.7290196
| 22>     C       17.3648472   14.1596784   19.5558780
| 23>     C       16.2485253   14.4605099   20.3549493
| 24>     C       15.6914236   15.7461444   20.3209476
| 25>     O       14.6082881   16.0372452   21.0843791
| 26>     C       16.2417319   16.7326872   19.4964785
| 27>     H       15.0318064   16.0245542   16.9791398
| 28>     H       13.4644958   15.8671860   16.1849516
| 29>     H       14.3346976   17.4036824   16.0824754
| 30>     H       15.2963113   14.7267695   14.8891106
| 31>     H       14.4686002   15.9745860   13.9479403
| 32>     H       15.3161838   18.9052239   14.4802197
| 33>     H       16.9914452   18.9482914   13.9037895
| 34>     H       16.2497955   20.4042183   14.5597714
| 35>     H       16.5272473   20.9012870   16.6448840
| 36>     H       18.6860065   18.8297236   19.3356768
| 37>     H       18.9818608   17.2566590   17.5092260
| 38>     H       18.7714111   14.9153229   18.1004684
| 39>     H       17.8012670   13.1624145   19.5705998
| 40>     H       15.8190515   13.6955842   20.9933900
| 41>     H       14.4047882   15.2501143   21.6117971
| 42>     H       15.7949662   17.7213989   19.4827233
| 43> *
| 44>
| 45>                          ****END OF INPUT****

CARTESIAN COORDINATES (ANGSTROEM)
---------------------------------
  C     14.461025   16.315437   16.089458
  C     15.142023   15.810545   14.799058
  O     16.413126   16.441419   14.517032
  C     17.379507   16.564307   15.475020
  O     18.261813   15.731861   15.580188
  C     17.191699   17.676155   16.464129
  C     16.801895   18.912215   16.060334
  C     16.311824   19.316001   14.683288
  N     16.909387   20.009735   16.917536
  C     17.614288   20.004696   18.091455
  S     17.800550   21.372160   19.002530
  N     18.179889   18.809395   18.459157
  C     17.949231   17.515501   17.786530
  C     17.360265   16.444411   18.694470
  C     17.915727   15.152880   18.729020
  C     17.364847   14.159678   19.555878
  C     16.248525   14.460510   20.354949
  C     15.691424   15.746144   20.320948
  O     14.608288   16.037245   21.084379
  C     16.241732   16.732687   19.496478
  H     15.031806   16.024554   16.979140
  H     13.464496   15.867186   16.184952
  H     14.334698   17.403682   16.082475
  H     15.296311   14.726769   14.889111
  H     14.468600   15.974586   13.947940
  H     15.316184   18.905224   14.480220
  H     16.991445   18.948291   13.903789
  H     16.249796   20.404218   14.559771
  H     16.527247   20.901287   16.644884
  H     18.686006   18.829724   19.335677
  H     18.981861   17.256659   17.509226
  H     18.771411   14.915323   18.100468
  H     17.801267   13.162415   19.570600
  H     15.819052   13.695584   20.993390
  H     14.404788   15.250114   21.611797
  H     15.794966   17.721399   19.482723

 Total Charge           Charge          ....    0
 Multiplicity           Mult            ....    1
 Number of Electrons    NEL             ....  154
 Basis Dimension        Dim             ....  828

ORBITAL ENERGIES
----------------

  NO   OCC          E(Eh)            E(eV)
   0   2.0000     -91.890070     -2500.4559
   1   2.0000     -20.596713      -560.4651
   2   2.0000     -20.586419      -560.1849
   3   2.0000     -20.552648      -559.2660
   4   2.0000     -15.630085      -425.3162
   5   2.0000     -15.608108      -424.7182
   6   2.0000     -11.394880      -310.0704
   7   2.0000     -11.384970      -309.8008
   8   2.0000     -11.337389      -308.5060
   9   2.0000     -11.313336      -307.8515
  10   2.0000     -11.308955      -307.7323
  11   2.0000     -11.306994      -307.6789
  12   2.0000     -11.262526      -306.4689
  13   2.0000     -11.260505      -306.4139
  14   2.0000     -11.260047      -306.4014
  15   2.0000     -11.253363      -306.2196
  16   2.0000     -11.243193      -305.9428
  17   2.0000     -11.239058      -305.8303
  18   2.0000     -11.235553      -305.7350
  19   2.0000     -11.233890      -305.6897
  20   2.0000      -8.895150      -242.0493
  21   2.0000      -6.576725      -178.9618
  22   2.0000      -6.574723      -178.9073
  23   2.0000      -6.574132      -178.8912
  24   2.0000      -1.446706       -39.3669
  25   2.0000      -1.416507       -38.5451
  26   2.0000      -1.356839       -36.9215
  27   2.0000      -1.341574       -36.5061
  28   2.0000      -1.238971       -33.7141
  29   2.0000      -1.157515       -31.4976
  30   2.0000      -1.123401       -30.5693
  31   2.0000      -1.045453       -28.4482
  32   2.0000      -1.036141       -28.1948
  33   2.0000      -1.015325       -27.6284
  34   2.0000      -1.003292       -27.3010
  35   2.0000      -0.988841       -26.9077
  36   2.0000      -0.924646       -25.1609
  37   2.0000      -0.897211       -24.4143
  38   2.0000      -0.850503       -23.1434
  39   2.0000      -0.839618       -22.8472
  40   2.0000      -0.833239       -22.6736
  41   2.0000      -0.822278       -22.3753
  42   2.0000      -0.749966       -20.4076
  43   2.0000      -0.734723       -19.9928
  44   2.0000      -0.728766       -19.8307
  45   2.0000      -0.694278       -18.8923
  46   2.0000      -0.687309       -18.7026
  47   2.0000      -0.676648       -18.4125
  48   2.0000      -0.672866       -18.3096
  49   2.0000      -0.664866       -18.0919
  50   2.0000      -0.652681       -17.7603
  51   2.0000      -0.648613       -17.6497
  52   2.0000      -0.638564       -17.3762
  53   2.0000      -0.614674       -16.7261
  54   2.0000      -0.603860       -16.4319
  55   2.0000      -0.602602       -16.3976
  56   2.0000      -0.600515       -16.3409
  57   2.0000      -0.584733       -15.9114
  58   2.0000      -0.576085       -15.6761
  59   2.0000      -0.565371       -15.3845
  60   2.0000      -0.563098       -15.3227
  61   2.0000      -0.551300       -15.0016
  62   2.0000      -0.548560       -14.9271
  63   2.0000      -0.529604       -14.4113
  64   2.0000      -0.520825       -14.1724
  65   2.0000      -0.512355       -13.9419
  66   2.0000      -0.499251       -13.5853
  67   2.0000      -0.490608       -13.3501
  68   2.0000      -0.484669       -13.1885
  69   2.0000      -0.466109       -12.6835
  70   2.0000      -0.458729       -12.4827
  71   2.0000      -0.450490       -12.2584
  72   2.0000      -0.354740        -9.6530
  73   2.0000      -0.348224        -9.4757
  74   2.0000      -0.329238        -8.9590
  75   2.0000      -0.320901        -8.7322
  76   2.0000      -0.319305        -8.6887
  77   0.0000       0.073822         2.0088
  78   0.0000       0.106152         2.8885
  79   0.0000       0.118110         3.2139
  80   0.0000       0.132009         3.5922
  81   0.0000       0.133011         3.6194

MULLIKEN ATOMIC CHARGES
-----------------------
   0 C :   -0.332832
   1 C :    0.034080
   2 O :   -0.376192
   3 C :    0.462614
   4 O :   -0.382407
   5 C :   -0.236276
   6 C :    0.145712
   7 C :   -0.286796
   8 N :   -0.130613
   9 C :    0.205386
  10 S :   -0.440195
  11 N :   -0.216817
  12 C :    0.075287
  13 C :    0.014280
  14 C :   -0.191910
  15 C :   -0.133634
  16 C :   -0.276898
  17 C :    0.322132
  18 O :   -0.358577
  19 C :   -0.263774
  20 H :    0.125591
  21 H :    0.122305
  22 H :    0.099983
  23 H :    0.109643
  24 H :    0.111780
  25 H :    0.117630
  26 H :    0.135080
  27 H :    0.107472
  28 H :    0.197707
  29 H :    0.200870
  30 H :    0.160300
  31 H :    0.172404
  32 H :    0.163012
  33 H :    0.131310
  34 H :    0.240751
  35 H :    0.171595
Sum of atomic charges:   -0.0000000

LOEWDIN ATOMIC CHARGES
----------------------
   0 C :    0.103255
   1 C :   -0.017406
   2 O :    0.285263
   3 C :   -0.418868
   4 O :    0.126893
   5 C :   -0.092839
   6 C :   -0.071852
   7 C :    0.126728
   8 N :    0.405589
   9 C :   -0.458294
  10 S :   -0.036187
  11 N :    0.396301
  12 C :   -0.048316
  13 C :   -0.043998
  14 C :    0.022825
  15 C :    0.042754
  16 C :   -0.000825
  17 C :   -0.193791
  18 O :    0.394283
  19 C :    0.028582
  20 H :   -0.025370
  21 H :   -0.022009
  22 H :   -0.032547
  23 H :   -0.025694
  24 H :   -0.022660
  25 H :   -0.014700
  26 H :   -0.005625
  27 H :   -0.019085
  28 H :   -0.058634
  29 H :   -0.063374
  30 H :   -0.005985
  31 H :   -0.021990
  32 H :   -0.019501
  33 H :   -0.035285
  34 H :   -0.153871
  35 H :   -0.023769

  Mayer bond orders larger than 0.100000
B(  0-C ,  1-C ) :   0.9623 B(  0-C , 20-H ) :   0.9645 B(  0-C , 21-H ) :   0.9775
B(  0-C , 22-H ) :   0.9721 B(  1-C ,  2-O ) :   0.9042 B(  1-C , 23-H ) :   0.9846
B(  1-C , 24-H ) :   0.9815 B(  2-O ,  3-C ) :   1.0844 B(  3-C ,  4-O ) :   2.0617
B(  3-C ,  5-C ) :   0.9826 B(  5-C ,  6-C ) :   1.6965 B(  5-C , 12-C ) :   0.9346
B(  6-C ,  7-C ) :   0.9486 B(  6-C ,  8-N ) :   1.1257 B(  7-C , 25-H ) :   0.9661
B(  7-C , 26-H ) :   0.9653 B(  7-C , 27-H ) :   0.9891 B(  8-N ,  9-C ) :   1.1873
B(  8-N , 28-H ) :   0.9473 B(  9-C , 10-S ) :   1.6121 B(  9-C , 11-N ) :   1.2986
B( 11-N , 12-C ) :   0.9784 B( 11-N , 29-H ) :   0.9484 B( 12-C , 13-C ) :   0.9674
B( 12-C , 30-H ) :   0.9939 B( 13-C , 14-C ) :   1.3876 B( 13-C , 19-C ) :   1.3508
B( 14-C , 15-C ) :   1.3971 B( 14-C , 31-H ) :   0.9583 B( 15-C , 16-C ) :   1.3602
B( 15-C , 32-H ) :   0.9706 B( 16-C , 17-C ) :   1.3321 B( 16-C , 33-H ) :   0.9847
B( 17-C , 18-O ) :   1.1068 B( 17-C , 19-C ) :   1.3613 B( 18-O , 34-H ) :   0.9799
B( 19-C , 35-H ) :   0.9597

MP2 TOTAL ENERGY:    -1274.323146242 Eh
FINAL SINGLE POINT ENERGY     -1274.323146242009

DIPOLE MOMENT
-------------
                                X             Y             Z
Electronic contribution:      9.06817       7.08640       7.14437
Nuclear contribution   :    -10.52401      -8.34165      -7.78737
                        -----------------------------------------
Total Dipole Moment    :     -1.45584      -1.25525      -0.64300
                        -----------------------------------------
Magnitude (a.u.)       :      2.02696
Magnitude (Debye)      :      5.15212

Rotational constants in cm-1:     0.011217     0.009372     0.006427
Rotational constants in MHz :   336.268681   280.971665   192.665170

                             ****ORCA TERMINATED NORMALLY****
TOTAL RUN TIME: 0 days 1 hours 46 minutes 13 seconds 978 msec
