                         Program Version 4.2.0 -  RELEASE  -
|  1> ! ri-mp2 cc-pvtz cc-pvtz/c TightSCF NoKeepInts
|  2>
|  3> %scf
|  4>   MaxCore 4096
|  5> end
|  6> *xyz  0  1
|  7>     C       14.4181728   16.6614972   16.1099913
|  8>     C       15.1306312   15.7316957   15.1034775
|  9>     O       16.4914180   16.0632169   14.7065086
| 10>     C       17.5145759   16.5747297   15.4692974
| 11>     O       18.6380629   16.1157863   15.3760660
| 12>     C       17.1971419   17.6407940   16.4599892
| 13>     C       16.8154762   18.8577386   16.0044399
| 14>     C       16.4753679   19.2082159   14.5688520
| 15>     N       16.8526627   19.9787206   16.8363419
| 16>     C       17.4850390   20.0113827   18.0514817
| 17>     S       17.5955238   21.4020694   18.9393849
| 18>     N       18.0517452   18.8355287   18.4790388
| 19>     C       17.8894750   17.5244120   17.8190757
| 20>     C       17.3139413   16.4221444   18.6963471
| 21>     C       17.8171887   15.1123643   18.5997102
| 22>     C       17.2812181   14.0809655   19.3885741
| 23>     C       16.2311614   14.3615126   20.2795795
| 24>     C       15.7246092   15.6649738   20.3746482
| 25>     O       14.7045645   15.9365970   21.2268516
| 26>     C       16.2597744   16.6900073   19.5878142
| 27>     H       14.8941667   16.6357575   17.0957742
| 28>     H       13.3867958   16.3167928   16.2540255
| 29>     H       14.3604529   17.6936165   15.7512373
| 30>     H       15.1477174   14.7269926   15.5465026
| 31>     H       14.5165466   15.6613221   14.1963129
| 32>     H       15.7997124   18.4776329   14.1113906
| 33>     H       17.3879266   19.2347842   13.9591753
| 34>     H       15.9920613   20.1889833   14.4823458
| 35>     H       16.4867160   20.8602452   16.5133522
| 36>     H       18.5152271   18.8867529   19.3776230
| 37>     H       18.9423711   17.2995769   17.5916073
| 38>     H       18.6244584   14.8930937   17.9033170
| 39>     H       17.6792113   13.0708997   19.3056610
| 40>     H       15.8137917   13.5675431   20.8901337
| 41>     H       14.5033659   15.1208353   21.7098586
| 42>     H       15.8487287   17.6908184   19.6722132
| 43> *
| 44>
| 45>                          ****END OF INPUT****

CARTESIAN COORDINATES (ANGSTROEM)
---------------------------------
  C     14.418173   16.661497   16.109991
  C     15.130631   15.731696   15.103478
  O     16.491418   16.063217   14.706509
  C     17.514576   16.574730   15.469297
  O     18.638063   16.115786   15.376066
  C     17.197142   17.640794   16.459989
  C     16.815476   18.857739   16.004440
  C     16.475368   19.208216   14.568852
  N     16.852663   19.978721   16.836342
  C     17.485039   20.011383   18.051482
  S     17.595524   21.402069   18.939385
  N     18.051745   18.835529   18.479039
  C     17.889475   17.524412   17.819076
  C     17.313941   16.422144   18.696347
  C     17.817189   15.112364   18.599710
  C     17.281218   14.080965   19.388574
  C     16.231161   14.361513   20.279579
  C     15.724609   15.664974   20.374648
  O     14.704565   15.936597   21.226852
  C     16.259774   16.690007   19.587814
  H     14.894167   16.635758   17.095774
  H     13.386796   16.316793   16.254026
  H     14.360453   17.693617   15.751237
  H     15.147717   14.726993   15.546503
  H     14.516547   15.661322   14.196313
  H     15.799712   18.477633   14.111391
  H     17.387927   19.234784   13.959175
  H     15.992061   20.188983   14.482346
  H     16.486716   20.860245   16.513352
  H     18.515227   18.886753   19.377623
  H     18.942371   17.299577   17.591607
  H     18.624458   14.893094   17.903317
  H     17.679211   13.070900   19.305661
  H     15.813792   13.567543   20.890134
  H     14.503366   15.120835   21.709859
  H     15.848729   17.690818   19.672213

 Total Charge           Charge          ....    0
 Multiplicity           Mult            ....    1
 Number of Electrons    NEL             ....  154
 Basis Dimension        Dim             ....  828

ORBITAL ENERGIES
----------------

  NO   OCC          E(Eh)            E(eV)
   0   2.0000     -91.889602     -2500.4432
   1   2.0000     -20.600277      -560.5620
   2   2.0000     -20.595429      -560.4301
   3   2.0000     -20.550366      -559.2039
   4   2.0000     -15.627615      -425.2490
   5   2.0000     -15.609329      -424.7514
   6   2.0000     -11.399061      -310.1842
   7   2.0000     -11.385107      -309.8045
   8   2.0000     -11.330550      -308.3199
   9   2.0000     -11.317875      -307.9750
  10   2.0000     -11.312590      -307.8312
  11   2.0000     -11.309631      -307.7507
  12   2.0000     -11.265843      -306.5592
  13   2.0000     -11.263314      -306.4904
  14   2.0000     -11.258599      -306.3621
  15   2.0000     -11.258448      -306.3580
  16   2.0000     -11.246609      -306.0358
  17   2.0000     -11.242518      -305.9245
  18   2.0000     -11.240021      -305.8565
  19   2.0000     -11.236771      -305.7681
  20   2.0000      -8.894696      -242.0370
  21   2.0000      -6.576276      -178.9496
  22   2.0000      -6.574268      -178.8949
  23   2.0000      -6.573683      -178.8790
  24   2.0000      -1.442626       -39.2558
  25   2.0000      -1.419996       -38.6401
  26   2.0000      -1.356333       -36.9077
  27   2.0000      -1.339908       -36.4607
  28   2.0000      -1.238530       -33.7021
  29   2.0000      -1.161666       -31.6105
  30   2.0000      -1.125704       -30.6320
  31   2.0000      -1.048429       -28.5292
  32   2.0000      -1.040347       -28.3093
  33   2.0000      -1.019734       -27.7484
  34   2.0000      -1.004505       -27.3340
  35   2.0000      -0.990481       -26.9523
  36   2.0000      -0.926425       -25.2093
  37   2.0000      -0.900073       -24.4922
  38   2.0000      -0.851516       -23.1709
  39   2.0000      -0.841961       -22.9109
  40   2.0000      -0.837295       -22.7839
  41   2.0000      -0.827255       -22.5108
  42   2.0000      -0.748813       -20.3762
  43   2.0000      -0.735429       -20.0120
  44   2.0000      -0.728803       -19.8317
  45   2.0000      -0.697510       -18.9802
  46   2.0000      -0.688223       -18.7275
  47   2.0000      -0.676456       -18.4073
  48   2.0000      -0.673496       -18.3268
  49   2.0000      -0.665216       -18.1015
  50   2.0000      -0.654951       -17.8221
  51   2.0000      -0.651408       -17.7257
  52   2.0000      -0.637611       -17.3503
  53   2.0000      -0.613879       -16.7045
  54   2.0000      -0.604733       -16.4556
  55   2.0000      -0.604053       -16.4371
  56   2.0000      -0.599444       -16.3117
  57   2.0000      -0.592510       -16.1230
  58   2.0000      -0.578310       -15.7366
  59   2.0000      -0.577648       -15.7186
  60   2.0000      -0.564323       -15.3560
  61   2.0000      -0.557617       -15.1735
  62   2.0000      -0.544677       -14.8214
  63   2.0000      -0.531839       -14.4721
  64   2.0000      -0.522391       -14.2150
  65   2.0000      -0.513590       -13.9755
  66   2.0000      -0.502066       -13.6619
  67   2.0000      -0.495933       -13.4950
  68   2.0000      -0.485538       -13.2122
  69   2.0000      -0.464536       -12.6407
  70   2.0000      -0.458117       -12.4660
  71   2.0000      -0.450000       -12.2451
  72   2.0000      -0.354475        -9.6458
  73   2.0000      -0.349530        -9.5112
  74   2.0000      -0.329075        -8.9546
  75   2.0000      -0.325525        -8.8580
  76   2.0000      -0.318937        -8.6787
  77   0.0000       0.083177         2.2634
  78   0.0000       0.103626         2.8198
  79   0.0000       0.116901         3.1810
  80   0.0000       0.122930         3.3451
  81   0.0000       0.129695         3.5292

MULLIKEN ATOMIC CHARGES
-----------------------
   0 C :   -0.333180
   1 C :    0.034330
   2 O :   -0.356125
   3 C :    0.440173
   4 O :   -0.378213
   5 C :   -0.226803
   6 C :    0.138789
   7 C :   -0.306780
   8 N :   -0.140073
   9 C :    0.211414
  10 S :   -0.442369
  11 N :   -0.233497
  12 C :    0.097943
  13 C :    0.020554
  14 C :   -0.236248
  15 C :   -0.129787
  16 C :   -0.276822
  17 C :    0.324850
  18 O :   -0.355788
  19 C :   -0.269884
  20 H :    0.126995
  21 H :    0.126592
  22 H :    0.097342
  23 H :    0.109394
  24 H :    0.115205
  25 H :    0.126180
  26 H :    0.143349
  27 H :    0.103267
  28 H :    0.197037
  29 H :    0.204930
  30 H :    0.168504
  31 H :    0.180662
  32 H :    0.165437
  33 H :    0.132313
  34 H :    0.241247
  35 H :    0.179061
Sum of atomic charges:   -0.0000000

LOEWDIN ATOMIC CHARGES
----------------------
   0 C :    0.102216
   1 C :   -0.012004
   2 O :    0.285377
   3 C :   -0.414491
   4 O :    0.123332
   5 C :   -0.085921
   6 C :   -0.085478
   7 C :    0.127300
   8 N :    0.404185
   9 C :   -0.456052
  10 S :   -0.037922
  11 N :    0.396592
  12 C :   -0.049251
  13 C :   -0.043609
  14 C :    0.018146
  15 C :    0.044403
  16 C :   -0.000817
  17 C :   -0.191432
  18 O :    0.395810
  19 C :    0.026804
  20 H :   -0.028748
  21 H :   -0.020440
  22 H :   -0.033070
  23 H :   -0.025477
  24 H :   -0.021456
  25 H :   -0.015172
  26 H :   -0.004847
  27 H :   -0.018591
  28 H :   -0.059646
  29 H :   -0.064050
  30 H :   -0.004389
  31 H :   -0.021347
  32 H :   -0.018437
  33 H :   -0.034874
  34 H :   -0.153098
  35 H :   -0.023546

  Mayer bond orders larger than 0.100000
B(  0-C ,  1-C ) :   0.9636 B(  0-C , 20-H ) :   0.9631 B(  0-C , 21-H ) :   0.9772
B(  0-C , 22-H ) :   0.9747 B(  1-C ,  2-O ) :   0.9037 B(  1-C , 23-H ) :   0.9804
B(  1-C , 24-H ) :   0.9811 B(  2-O ,  3-C ) :   1.1398 B(  3-C ,  4-O ) :   2.0878
B(  3-C ,  5-C ) :   0.9476 B(  5-C ,  6-C ) :   1.7127 B(  5-C , 12-C ) :   0.9182
B(  6-C ,  7-C ) :   0.9417 B(  6-C ,  8-N ) :   1.1024 B(  7-C , 25-H ) :   0.9731
B(  7-C , 26-H ) :   0.9644 B(  7-C , 27-H ) :   0.9839 B(  8-N ,  9-C ) :   1.1974
B(  8-N , 28-H ) :   0.9483 B(  9-C , 10-S ) :   1.6079 B(  9-C , 11-N ) :   1.2915
B( 11-N , 12-C ) :   0.9724 B( 11-N , 29-H ) :   0.9466 B( 12-C , 13-C ) :   0.9710
B( 12-C , 30-H ) :   0.9911 B( 13-C , 14-C ) :   1.3860 B( 13-C , 19-C ) :   1.3429
B( 14-C , 15-C ) :   1.3973 B( 14-C , 31-H ) :   0.9574 B( 15-C , 16-C ) :   1.3594
B( 15-C , 32-H ) :   0.9695 B( 16-C , 17-C ) :   1.3329 B( 16-C , 33-H ) :   0.9845
B( 17-C , 18-O ) :   1.1090 B( 17-C , 19-C ) :   1.3600 B( 18-O , 34-H ) :   0.9793
B( 19-C , 35-H ) :   0.9568

MP2 TOTAL ENERGY:    -1274.317500065 Eh
FINAL SINGLE POINT ENERGY     -1274.317500065226

DIPOLE MOMENT
-------------
                                X             Y             Z
Electronic contribution:      8.83532       6.40705       7.16855
Nuclear contribution   :    -10.45472      -7.84548      -7.61190
                        -----------------------------------------
Total Dipole Moment    :     -1.61939      -1.43843      -0.44336
                        -----------------------------------------
Magnitude (a.u.)       :      2.21090
Magnitude (Debye)      :      5.61966

Rotational constants in cm-1:     0.011464     0.009230     0.006447
Rotational constants in MHz :   343.671382   276.700977   193.280667

                             ****ORCA TERMINATED NORMALLY****
TOTAL RUN TIME: 0 days 1 hours 46 minutes 6 seconds 828 msec
