                         Program Version 4.2.0 -  RELEASE  -
|  1> ! ri-mp2 cc-pvtz cc-pvtz/c TightSCF NoKeepInts
|  2>
|  3> %scf
|  4>   MaxCore 4096
|  5> end
|  6> *xyz  0  1
|  7>     C       13.9086160   15.5565256   15.0568146
|  8>     C       15.2485943   15.6024383   14.3019741
|  9>     O       15.9619087   16.7666742   14.7564206
| 10>     C       16.9601756   16.6293185   15.6771156
| 11>     O       17.6080406   15.6017266   15.7891783
| 12>     C       17.0967857   17.7806445   16.6332822
| 13>     C       16.8021128   19.0628247   16.2901740
| 14>     C       16.0932841   19.5560305   15.0439134
| 15>     N       17.1968254   20.1273034   17.1047706
| 16>     C       18.0693363   20.0188081   18.1537138
| 17>     S       18.5772405   21.3415441   19.0069250
| 18>     N       18.5178831   18.7558177   18.4454411
| 19>     C       18.0246817   17.5111048   17.8247608
| 20>     C       17.4459098   16.5269645   18.8328042
| 21>     C       17.9437088   15.2145081   18.9215003
| 22>     C       17.4082281   14.3084346   19.8522473
| 23>     C       16.3668210   14.7189052   20.7021770
| 24>     C       15.8674719   16.0257160   20.6142326
| 25>     O       14.8588711   16.4232042   21.4303595
| 26>     C       16.4022671   16.9250952   19.6863396
| 27>     H       14.0769937   15.4401524   16.1350857
| 28>     H       13.3026560   14.7095935   14.7126092
| 29>     H       13.3371137   16.4782631   14.8916868
| 30>     H       15.8152804   14.6744849   14.4592317
| 31>     H       15.0476022   15.6975840   13.2271891
| 32>     H       16.6071501   19.2077987   14.1391498
| 33>     H       16.0467231   20.6502352   14.9845243
| 34>     H       15.0615181   19.1841203   15.0122135
| 35>     H       16.8934385   21.0634599   16.8893747
| 36>     H       19.1432422   18.6998262   19.2393809
| 37>     H       18.9592990   17.1219279   17.3951658
| 38>     H       18.7383073   14.8920728   18.2527153
| 39>     H       17.7970563   13.2932383   19.9071307
| 40>     H       15.9493537   14.0218715   21.4210488
| 41>     H       14.6472488   15.6784211   22.0128462
| 42>     H       16.0052542   17.9333613   19.6345026
| 43> *
| 44>
| 45>                          ****END OF INPUT****

CARTESIAN COORDINATES (ANGSTROEM)
---------------------------------
  C     13.908616   15.556526   15.056815
  C     15.248594   15.602438   14.301974
  O     15.961909   16.766674   14.756421
  C     16.960176   16.629319   15.677116
  O     17.608041   15.601727   15.789178
  C     17.096786   17.780645   16.633282
  C     16.802113   19.062825   16.290174
  C     16.093284   19.556030   15.043913
  N     17.196825   20.127303   17.104771
  C     18.069336   20.018808   18.153714
  S     18.577240   21.341544   19.006925
  N     18.517883   18.755818   18.445441
  C     18.024682   17.511105   17.824761
  C     17.445910   16.526964   18.832804
  C     17.943709   15.214508   18.921500
  C     17.408228   14.308435   19.852247
  C     16.366821   14.718905   20.702177
  C     15.867472   16.025716   20.614233
  O     14.858871   16.423204   21.430360
  C     16.402267   16.925095   19.686340
  H     14.076994   15.440152   16.135086
  H     13.302656   14.709593   14.712609
  H     13.337114   16.478263   14.891687
  H     15.815280   14.674485   14.459232
  H     15.047602   15.697584   13.227189
  H     16.607150   19.207799   14.139150
  H     16.046723   20.650235   14.984524
  H     15.061518   19.184120   15.012213
  H     16.893438   21.063460   16.889375
  H     19.143242   18.699826   19.239381
  H     18.959299   17.121928   17.395166
  H     18.738307   14.892073   18.252715
  H     17.797056   13.293238   19.907131
  H     15.949354   14.021871   21.421049
  H     14.647249   15.678421   22.012846
  H     16.005254   17.933361   19.634503

 Total Charge           Charge          ....    0
 Multiplicity           Mult            ....    1
 Number of Electrons    NEL             ....  154
 Basis Dimension        Dim             ....  828

ORBITAL ENERGIES
----------------

  NO   OCC          E(Eh)            E(eV)
   0   2.0000     -91.888085     -2500.4019
   1   2.0000     -20.600620      -560.5714
   2   2.0000     -20.592253      -560.3437
   3   2.0000     -20.546152      -559.0892
   4   2.0000     -15.628639      -425.2769
   5   2.0000     -15.605775      -424.6547
   6   2.0000     -11.395940      -310.0993
   7   2.0000     -11.382657      -309.7378
   8   2.0000     -11.338121      -308.5260
   9   2.0000     -11.308284      -307.7141
  10   2.0000     -11.304320      -307.6062
  11   2.0000     -11.299259      -307.4685
  12   2.0000     -11.260672      -306.4185
  13   2.0000     -11.259068      -306.3748
  14   2.0000     -11.255408      -306.2752
  15   2.0000     -11.248289      -306.0815
  16   2.0000     -11.238515      -305.8155
  17   2.0000     -11.234648      -305.7103
  18   2.0000     -11.231333      -305.6201
  19   2.0000     -11.231176      -305.6158
  20   2.0000      -8.893167      -241.9954
  21   2.0000      -6.574744      -178.9079
  22   2.0000      -6.572741      -178.8534
  23   2.0000      -6.572153      -178.8374
  24   2.0000      -1.453615       -39.5549
  25   2.0000      -1.412008       -38.4227
  26   2.0000      -1.357481       -36.9389
  27   2.0000      -1.339926       -36.4612
  28   2.0000      -1.237100       -33.6632
  29   2.0000      -1.152812       -31.3696
  30   2.0000      -1.120904       -30.5013
  31   2.0000      -1.043700       -28.4005
  32   2.0000      -1.035738       -28.1839
  33   2.0000      -1.010339       -27.4927
  34   2.0000      -0.999108       -27.1871
  35   2.0000      -0.984085       -26.7783
  36   2.0000      -0.921002       -25.0617
  37   2.0000      -0.892199       -24.2780
  38   2.0000      -0.847410       -23.0592
  39   2.0000      -0.835146       -22.7255
  40   2.0000      -0.828499       -22.5446
  41   2.0000      -0.815961       -22.2034
  42   2.0000      -0.759413       -20.6647
  43   2.0000      -0.736503       -20.0413
  44   2.0000      -0.726411       -19.7667
  45   2.0000      -0.691279       -18.8106
  46   2.0000      -0.685335       -18.6489
  47   2.0000      -0.679250       -18.4833
  48   2.0000      -0.670851       -18.2548
  49   2.0000      -0.659824       -17.9547
  50   2.0000      -0.649866       -17.6838
  51   2.0000      -0.644307       -17.5325
  52   2.0000      -0.633045       -17.2260
  53   2.0000      -0.604843       -16.4586
  54   2.0000      -0.599781       -16.3209
  55   2.0000      -0.597024       -16.2459
  56   2.0000      -0.594964       -16.1898
  57   2.0000      -0.582553       -15.8521
  58   2.0000      -0.573759       -15.6128
  59   2.0000      -0.561642       -15.2831
  60   2.0000      -0.559581       -15.2270
  61   2.0000      -0.557055       -15.1582
  62   2.0000      -0.539967       -14.6932
  63   2.0000      -0.528196       -14.3729
  64   2.0000      -0.516309       -14.0495
  65   2.0000      -0.509254       -13.8575
  66   2.0000      -0.499118       -13.5817
  67   2.0000      -0.494356       -13.4521
  68   2.0000      -0.481470       -13.1015
  69   2.0000      -0.464067       -12.6279
  70   2.0000      -0.458183       -12.4678
  71   2.0000      -0.451979       -12.2990
  72   2.0000      -0.353191        -9.6108
  73   2.0000      -0.344985        -9.3875
  74   2.0000      -0.327163        -8.9026
  75   2.0000      -0.317279        -8.6336
  76   2.0000      -0.314897        -8.5688
  77   0.0000       0.076632         2.0853
  78   0.0000       0.110664         3.0113
  79   0.0000       0.119840         3.2610
  80   0.0000       0.135580         3.6893
  81   0.0000       0.140370         3.8197

MULLIKEN ATOMIC CHARGES
-----------------------
   0 C :   -0.273568
   1 C :    0.013752
   2 O :   -0.351714
   3 C :    0.431946
   4 O :   -0.418732
   5 C :   -0.174159
   6 C :    0.154560
   7 C :   -0.281547
   8 N :   -0.128676
   9 C :    0.207659
  10 S :   -0.442269
  11 N :   -0.210432
  12 C :    0.042559
  13 C :    0.031827
  14 C :   -0.167773
  15 C :   -0.134292
  16 C :   -0.277595
  17 C :    0.314051
  18 O :   -0.358957
  19 C :   -0.252766
  20 H :    0.103698
  21 H :    0.097375
  22 H :    0.090636
  23 H :    0.120326
  24 H :    0.102163
  25 H :    0.126345
  26 H :    0.101719
  27 H :    0.128071
  28 H :    0.198748
  29 H :    0.199795
  30 H :    0.155700
  31 H :    0.159218
  32 H :    0.160150
  33 H :    0.128474
  34 H :    0.240005
  35 H :    0.163702
Sum of atomic charges:   -0.0000000

LOEWDIN ATOMIC CHARGES
----------------------
   0 C :    0.104015
   1 C :   -0.015530
   2 O :    0.306420
   3 C :   -0.415978
   4 O :    0.106180
   5 C :   -0.092787
   6 C :   -0.064602
   7 C :    0.125322
   8 N :    0.405476
   9 C :   -0.458487
  10 S :   -0.037606
  11 N :    0.396428
  12 C :   -0.048283
  13 C :   -0.040737
  14 C :    0.024936
  15 C :    0.040970
  16 C :   -0.001282
  17 C :   -0.192861
  18 O :    0.393079
  19 C :    0.029336
  20 H :   -0.024703
  21 H :   -0.025367
  22 H :   -0.029483
  23 H :   -0.026598
  24 H :   -0.028093
  25 H :   -0.008821
  26 H :   -0.021163
  27 H :   -0.010189
  28 H :   -0.058708
  29 H :   -0.063186
  30 H :   -0.008096
  31 H :   -0.023857
  32 H :   -0.020992
  33 H :   -0.036122
  34 H :   -0.154817
  35 H :   -0.023814

  Mayer bond orders larger than 0.100000
B(  0-C ,  1-C ) :   0.9680 B(  0-C , 20-H ) :   0.9766 B(  0-C , 21-H ) :   0.9763
B(  0-C , 22-H ) :   0.9787 B(  1-C ,  2-O ) :   0.8901 B(  1-C , 23-H ) :   0.9730
B(  1-C , 24-H ) :   0.9844 B(  2-O ,  3-C ) :   1.1320 B(  3-C ,  4-O ) :   1.9953
B(  3-C ,  5-C ) :   1.0311 B(  5-C ,  6-C ) :   1.6601 B(  5-C , 12-C ) :   0.9500
B(  6-C ,  7-C ) :   0.9557 B(  6-C ,  8-N ) :   1.1356 B(  7-C , 25-H ) :   0.9652
B(  7-C , 26-H ) :   0.9905 B(  7-C , 27-H ) :   0.9637 B(  8-N ,  9-C ) :   1.1853
B(  8-N , 28-H ) :   0.9469 B(  9-C , 10-S ) :   1.6086 B(  9-C , 11-N ) :   1.3059
B( 11-N , 12-C ) :   0.9772 B( 11-N , 29-H ) :   0.9486 B( 12-C , 13-C ) :   0.9729
B( 12-C , 30-H ) :   0.9966 B( 13-C , 14-C ) :   1.3774 B( 13-C , 19-C ) :   1.3648
B( 14-C , 15-C ) :   1.3973 B( 14-C , 31-H ) :   0.9636 B( 15-C , 16-C ) :   1.3588
B( 15-C , 32-H ) :   0.9711 B( 16-C , 17-C ) :   1.3334 B( 16-C , 33-H ) :   0.9859
B( 17-C , 18-O ) :   1.1036 B( 17-C , 19-C ) :   1.3670 B( 18-O , 34-H ) :   0.9806
B( 19-C , 35-H ) :   0.9602

MP2 TOTAL ENERGY:    -1274.338476000 Eh
FINAL SINGLE POINT ENERGY     -1274.338476000185

DIPOLE MOMENT
-------------
                                X             Y             Z
Electronic contribution:     10.63097       8.96407       9.83584
Nuclear contribution   :    -12.01523     -10.29203     -10.91163
                        -----------------------------------------
Total Dipole Moment    :     -1.38426      -1.32796      -1.07579
                        -----------------------------------------
Magnitude (a.u.)       :      2.19931
Magnitude (Debye)      :      5.59021

Rotational constants in cm-1:     0.009961     0.009302     0.005832
Rotational constants in MHz :   298.619417   278.857939   174.835826

                             ****ORCA TERMINATED NORMALLY****
TOTAL RUN TIME: 0 days 1 hours 47 minutes 21 seconds 933 msec
