                         Program Version 4.2.0 -  RELEASE  -
|  1> ! ri-mp2 cc-pvtz cc-pvtz/c TightSCF NoKeepInts
|  2>
|  3> %scf
|  4>   MaxCore 4096
|  5> end
|  6> *xyz  0  1
|  7>     C       13.7137885   15.9815176   14.6132859
|  8>     C       14.8183083   16.2844961   15.6387222
|  9>     O       16.0706595   16.2920321   14.9262305
| 10>     C       17.2365308   16.6326965   15.5576697
| 11>     O       18.2759887   16.0421652   15.3296876
| 12>     C       17.1382476   17.7071669   16.5928514
| 13>     C       16.6784331   18.9391778   16.2615645
| 14>     C       16.0279559   19.3514262   14.9549740
| 15>     N       16.8609681   20.0238803   17.1215080
| 16>     C       17.7012934   20.0132549   18.2035889
| 17>     S       17.9614199   21.3663869   19.1176357
| 18>     N       18.3350093   18.8253593   18.4749597
| 19>     C       18.0588625   17.5404641   17.8015531
| 20>     C       17.6125512   16.4186787   18.7271482
| 21>     C       18.1672368   15.1327929   18.5990090
| 22>     C       17.7447290   14.0863607   19.4356699
| 23>     C       16.7568970   14.3276675   20.4059274
| 24>     C       16.1975158   15.6068171   20.5306640
| 25>     O       15.2363058   15.8401936   21.4592518
| 26>     C       16.6188998   16.6465042   19.6953081
| 27>     H       12.7327723   15.9423840   15.1022758
| 28>     H       13.8939516   15.0138819   14.1278895
| 29>     H       13.6818122   16.7560017   13.8369506
| 30>     H       14.6065489   17.2457861   16.1204331
| 31>     H       14.8329256   15.5061778   16.4139768
| 32>     H       14.9375122   19.2495462   15.0023400
| 33>     H       16.3875183   18.7499011   14.1105738
| 34>     H       16.2534916   20.3953841   14.7025689
| 35>     H       16.4312284   20.9114467   16.9130028
| 36>     H       18.9459182   18.8426124   19.2821801
| 37>     H       19.0549435   17.3182228   17.3900594
| 38>     H       18.9222045   14.9424988   17.8385537
| 39>     H       18.1801611   13.0943916   19.3266062
| 40>     H       16.4270178   13.5216365   21.0531083
| 41>     H       15.1152294   15.0219156   21.9643758
| 42>     H       16.1721634   17.6291741   19.8058955
| 43> *
| 44>
| 45>                          ****END OF INPUT****

CARTESIAN COORDINATES (ANGSTROEM)
---------------------------------
  C     13.713788   15.981518   14.613286
  C     14.818308   16.284496   15.638722
  O     16.070660   16.292032   14.926231
  C     17.236531   16.632697   15.557670
  O     18.275989   16.042165   15.329688
  C     17.138248   17.707167   16.592851
  C     16.678433   18.939178   16.261564
  C     16.027956   19.351426   14.954974
  N     16.860968   20.023880   17.121508
  C     17.701293   20.013255   18.203589
  S     17.961420   21.366387   19.117636
  N     18.335009   18.825359   18.474960
  C     18.058862   17.540464   17.801553
  C     17.612551   16.418679   18.727148
  C     18.167237   15.132793   18.599009
  C     17.744729   14.086361   19.435670
  C     16.756897   14.327668   20.405927
  C     16.197516   15.606817   20.530664
  O     15.236306   15.840194   21.459252
  C     16.618900   16.646504   19.695308
  H     12.732772   15.942384   15.102276
  H     13.893952   15.013882   14.127889
  H     13.681812   16.756002   13.836951
  H     14.606549   17.245786   16.120433
  H     14.832926   15.506178   16.413977
  H     14.937512   19.249546   15.002340
  H     16.387518   18.749901   14.110574
  H     16.253492   20.395384   14.702569
  H     16.431228   20.911447   16.913003
  H     18.945918   18.842612   19.282180
  H     19.054944   17.318223   17.390059
  H     18.922204   14.942499   17.838554
  H     18.180161   13.094392   19.326606
  H     16.427018   13.521636   21.053108
  H     15.115229   15.021916   21.964376
  H     16.172163   17.629174   19.805895

 Total Charge           Charge          ....    0
 Multiplicity           Mult            ....    1
 Number of Electrons    NEL             ....  154
 Basis Dimension        Dim             ....  828

ORBITAL ENERGIES
----------------

  NO   OCC          E(Eh)            E(eV)
   0   2.0000     -91.890062     -2500.4557
   1   2.0000     -20.601597      -560.5980
   2   2.0000     -20.598319      -560.5087
   3   2.0000     -20.552059      -559.2500
   4   2.0000     -15.628970      -425.2859
   5   2.0000     -15.609210      -424.7482
   6   2.0000     -11.397626      -310.1452
   7   2.0000     -11.385750      -309.8220
   8   2.0000     -11.335636      -308.4583
   9   2.0000     -11.315344      -307.9062
  10   2.0000     -11.308852      -307.7295
  11   2.0000     -11.306677      -307.6703
  12   2.0000     -11.266853      -306.5867
  13   2.0000     -11.262974      -306.4811
  14   2.0000     -11.262925      -306.4798
  15   2.0000     -11.255535      -306.2787
  16   2.0000     -11.244655      -305.9826
  17   2.0000     -11.240801      -305.8777
  18   2.0000     -11.237785      -305.7957
  19   2.0000     -11.237318      -305.7830
  20   2.0000      -8.895162      -242.0497
  21   2.0000      -6.576742      -178.9622
  22   2.0000      -6.574732      -178.9075
  23   2.0000      -6.574147      -178.8916
  24   2.0000      -1.450966       -39.4828
  25   2.0000      -1.418029       -38.5865
  26   2.0000      -1.363251       -37.0960
  27   2.0000      -1.341342       -36.4998
  28   2.0000      -1.239292       -33.7229
  29   2.0000      -1.159781       -31.5592
  30   2.0000      -1.125756       -30.6334
  31   2.0000      -1.047555       -28.5054
  32   2.0000      -1.042779       -28.3755
  33   2.0000      -1.017537       -27.6886
  34   2.0000      -1.004996       -27.3473
  35   2.0000      -0.989366       -26.9220
  36   2.0000      -0.925767       -25.1914
  37   2.0000      -0.881760       -23.9939
  38   2.0000      -0.855466       -23.2784
  39   2.0000      -0.842822       -22.9343
  40   2.0000      -0.836880       -22.7727
  41   2.0000      -0.834716       -22.7138
  42   2.0000      -0.759564       -20.6688
  43   2.0000      -0.739592       -20.1253
  44   2.0000      -0.731865       -19.9151
  45   2.0000      -0.695696       -18.9308
  46   2.0000      -0.688493       -18.7349
  47   2.0000      -0.684327       -18.6215
  48   2.0000      -0.673916       -18.3382
  49   2.0000      -0.663535       -18.0557
  50   2.0000      -0.654898       -17.8207
  51   2.0000      -0.647733       -17.6257
  52   2.0000      -0.639518       -17.4022
  53   2.0000      -0.613117       -16.6838
  54   2.0000      -0.605988       -16.4898
  55   2.0000      -0.603654       -16.4263
  56   2.0000      -0.601194       -16.3593
  57   2.0000      -0.583873       -15.8880
  58   2.0000      -0.576879       -15.6977
  59   2.0000      -0.566950       -15.4275
  60   2.0000      -0.560836       -15.2611
  61   2.0000      -0.559604       -15.2276
  62   2.0000      -0.546886       -14.8815
  63   2.0000      -0.530040       -14.4231
  64   2.0000      -0.523374       -14.2417
  65   2.0000      -0.514598       -14.0029
  66   2.0000      -0.503917       -13.7123
  67   2.0000      -0.500673       -13.6240
  68   2.0000      -0.488565       -13.2945
  69   2.0000      -0.468578       -12.7507
  70   2.0000      -0.461521       -12.5586
  71   2.0000      -0.451583       -12.2882
  72   2.0000      -0.356288        -9.6951
  73   2.0000      -0.350591        -9.5401
  74   2.0000      -0.329428        -8.9642
  75   2.0000      -0.322943        -8.7877
  76   2.0000      -0.319656        -8.6983
  77   0.0000       0.080460         2.1894
  78   0.0000       0.105034         2.8581
  79   0.0000       0.115834         3.1520
  80   0.0000       0.130603         3.5539
  81   0.0000       0.131080         3.5669

MULLIKEN ATOMIC CHARGES
-----------------------
   0 C :   -0.261005
   1 C :    0.019968
   2 O :   -0.323279
   3 C :    0.422262
   4 O :   -0.379001
   5 C :   -0.229798
   6 C :    0.155968
   7 C :   -0.318126
   8 N :   -0.136568
   9 C :    0.208291
  10 S :   -0.441685
  11 N :   -0.220264
  12 C :    0.058219
  13 C :    0.026908
  14 C :   -0.216961
  15 C :   -0.127968
  16 C :   -0.278069
  17 C :    0.314172
  18 O :   -0.356620
  19 C :   -0.251019
  20 H :    0.091588
  21 H :    0.108307
  22 H :    0.094223
  23 H :    0.092483
  24 H :    0.116764
  25 H :    0.119600
  26 H :    0.140211
  27 H :    0.123993
  28 H :    0.198091
  29 H :    0.202011
  30 H :    0.165184
  31 H :    0.174768
  32 H :    0.164147
  33 H :    0.131111
  34 H :    0.241124
  35 H :    0.170972
Sum of atomic charges:    0.0000000

LOEWDIN ATOMIC CHARGES
----------------------
   0 C :    0.110689
   1 C :   -0.024010
   2 O :    0.304213
   3 C :   -0.416776
   4 O :    0.123696
   5 C :   -0.088851
   6 C :   -0.084522
   7 C :    0.127890
   8 N :    0.403150
   9 C :   -0.456990
  10 S :   -0.037326
  11 N :    0.396052
  12 C :   -0.049608
  13 C :   -0.043733
  14 C :    0.020386
  15 C :    0.043767
  16 C :   -0.000517
  17 C :   -0.191853
  18 O :    0.394461
  19 C :    0.027143
  20 H :   -0.023976
  21 H :   -0.022240
  22 H :   -0.028430
  23 H :   -0.039739
  24 H :   -0.027300
  25 H :   -0.016975
  26 H :   -0.006708
  27 H :   -0.013320
  28 H :   -0.057741
  29 H :   -0.063527
  30 H :   -0.004843
  31 H :   -0.021520
  32 H :   -0.018957
  33 H :   -0.035062
  34 H :   -0.153405
  35 H :   -0.023516

  Mayer bond orders larger than 0.100000
B(  0-C ,  1-C ) :   0.9783 B(  0-C , 20-H ) :   0.9758 B(  0-C , 21-H ) :   0.9777
B(  0-C , 22-H ) :   0.9771 B(  1-C ,  2-O ) :   0.8999 B(  1-C , 23-H ) :   0.9663
B(  1-C , 24-H ) :   0.9766 B(  2-O ,  3-C ) :   1.1620 B(  3-C ,  4-O ) :   2.1004
B(  3-C ,  5-C ) :   0.9340 B(  5-C ,  6-C ) :   1.7095 B(  5-C , 12-C ) :   0.9429
B(  6-C ,  7-C ) :   0.9363 B(  6-C ,  8-N ) :   1.1142 B(  7-C , 25-H ) :   0.9655
B(  7-C , 26-H ) :   0.9704 B(  7-C , 27-H ) :   0.9832 B(  8-N ,  9-C ) :   1.1928
B(  8-N , 28-H ) :   0.9497 B(  9-C , 10-S ) :   1.6109 B(  9-C , 11-N ) :   1.2937
B( 11-N , 12-C ) :   0.9838 B( 11-N , 29-H ) :   0.9479 B( 12-C , 13-C ) :   0.9688
B( 12-C , 30-H ) :   0.9901 B( 13-C , 14-C ) :   1.3842 B( 13-C , 19-C ) :   1.3563
B( 14-C , 15-C ) :   1.3936 B( 14-C , 31-H ) :   0.9597 B( 15-C , 16-C ) :   1.3613
B( 15-C , 32-H ) :   0.9699 B( 16-C , 17-C ) :   1.3311 B( 16-C , 33-H ) :   0.9851
B( 17-C , 18-O ) :   1.1078 B( 17-C , 19-C ) :   1.3671 B( 18-O , 34-H ) :   0.9795
B( 19-C , 35-H ) :   0.9569

MP2 TOTAL ENERGY:    -1274.331047388 Eh
FINAL SINGLE POINT ENERGY     -1274.331047388027

DIPOLE MOMENT
-------------
                                X             Y             Z
Electronic contribution:     11.20514       6.92588       9.60220
Nuclear contribution   :    -12.81440      -8.10003      -9.96567
                        -----------------------------------------
Total Dipole Moment    :     -1.60926      -1.17414      -0.36347
                        -----------------------------------------
Magnitude (a.u.)       :      2.02495
Magnitude (Debye)      :      5.14702

Rotational constants in cm-1:     0.010183     0.009253     0.006137
Rotational constants in MHz :   305.270710   277.398514   183.993483

                             ****ORCA TERMINATED NORMALLY****
TOTAL RUN TIME: 0 days 1 hours 40 minutes 27 seconds 66 msec
