                         Program Version 4.2.0 -  RELEASE  -
|  1> ! ri-mp2 cc-pvtz cc-pvtz/c TightSCF NoKeepInts
|  2>
|  3> %scf
|  4>   MaxCore 4096
|  5> end
|  6> *xyz  0  1
|  7>     C       14.6466896   15.9432118   16.2140549
|  8>     C       15.0660391   16.0156069   14.7272912
|  9>     O       16.4299789   16.4534074   14.5053203
| 10>     C       17.3600402   16.5320471   15.5026835
| 11>     O       18.1991854   15.6607667   15.6420391
| 12>     C       17.2133925   17.6810215   16.4581953
| 13>     C       16.8444247   18.9193785   16.0413797
| 14>     C       16.3285428   19.3183114   14.6732757
| 15>     N       16.9780999   20.0243832   16.8853920
| 16>     C       17.6786393   20.0175352   18.0617629
| 17>     S       17.8892861   21.3907526   18.9587650
| 18>     N       18.2149568   18.8142833   18.4462201
| 19>     C       17.9648457   17.5191412   17.7835611
| 20>     C       17.3399391   16.4747084   18.6982350
| 21>     C       17.8953531   15.1866041   18.7977703
| 22>     C       17.3069479   14.2168116   19.6265664
| 23>     C       16.1527222   14.5378103   20.3614077
| 24>     C       15.5955469   15.8200142   20.2618394
| 25>     O       14.4756596   16.1301206   20.9621881
| 26>     C       16.1835085   16.7832694   19.4359709
| 27>     H       15.3146001   15.2875965   16.7882076
| 28>     H       13.6342087   15.5296713   16.2966626
| 29>     H       14.6317165   16.9361668   16.6785129
| 30>     H       14.9584408   15.0102688   14.2990427
| 31>     H       14.3770673   16.6729476   14.1817990
| 32>     H       15.3058720   18.9555077   14.5195551
| 33>     H       16.9606967   18.9031442   13.8779012
| 34>     H       16.3170937   20.4056637   14.5282568
| 35>     H       16.6146017   20.9206462   16.6028822
| 36>     H       18.7152867   18.8329611   19.3260786
| 37>     H       18.9925334   17.2334800   17.5144646
| 38>     H       18.7783603   14.9322964   18.2153835
| 39>     H       17.7429395   13.2213478   19.6909202
| 40>     H       15.6938443   13.7906544   21.0004029
| 41>     H       14.2488749   15.3585133   21.5029114
| 42>     H       15.7370653   17.7699487   19.3711002
| 43> *
| 44>
| 45>                          ****END OF INPUT****

CARTESIAN COORDINATES (ANGSTROEM)
---------------------------------
  C     14.646690   15.943212   16.214055
  C     15.066039   16.015607   14.727291
  O     16.429979   16.453407   14.505320
  C     17.360040   16.532047   15.502683
  O     18.199185   15.660767   15.642039
  C     17.213392   17.681021   16.458195
  C     16.844425   18.919379   16.041380
  C     16.328543   19.318311   14.673276
  N     16.978100   20.024383   16.885392
  C     17.678639   20.017535   18.061763
  S     17.889286   21.390753   18.958765
  N     18.214957   18.814283   18.446220
  C     17.964846   17.519141   17.783561
  C     17.339939   16.474708   18.698235
  C     17.895353   15.186604   18.797770
  C     17.306948   14.216812   19.626566
  C     16.152722   14.537810   20.361408
  C     15.595547   15.820014   20.261839
  O     14.475660   16.130121   20.962188
  C     16.183508   16.783269   19.435971
  H     15.314600   15.287596   16.788208
  H     13.634209   15.529671   16.296663
  H     14.631716   16.936167   16.678513
  H     14.958441   15.010269   14.299043
  H     14.377067   16.672948   14.181799
  H     15.305872   18.955508   14.519555
  H     16.960697   18.903144   13.877901
  H     16.317094   20.405664   14.528257
  H     16.614602   20.920646   16.602882
  H     18.715287   18.832961   19.326079
  H     18.992533   17.233480   17.514465
  H     18.778360   14.932296   18.215384
  H     17.742939   13.221348   19.690920
  H     15.693844   13.790654   21.000403
  H     14.248875   15.358513   21.502911
  H     15.737065   17.769949   19.371100

 Total Charge           Charge          ....    0
 Multiplicity           Mult            ....    1
 Number of Electrons    NEL             ....  154
 Basis Dimension        Dim             ....  828

ORBITAL ENERGIES
----------------

  NO   OCC          E(Eh)            E(eV)
   0   2.0000     -91.890050     -2500.4554
   1   2.0000     -20.596483      -560.4588
   2   2.0000     -20.586254      -560.1805
   3   2.0000     -20.551076      -559.2232
   4   2.0000     -15.630355      -425.3236
   5   2.0000     -15.607949      -424.7139
   6   2.0000     -11.395169      -310.0783
   7   2.0000     -11.384930      -309.7997
   8   2.0000     -11.338310      -308.5311
   9   2.0000     -11.312796      -307.8368
  10   2.0000     -11.310132      -307.7643
  11   2.0000     -11.306452      -307.6642
  12   2.0000     -11.263281      -306.4895
  13   2.0000     -11.260779      -306.4214
  14   2.0000     -11.259500      -306.3866
  15   2.0000     -11.252819      -306.2048
  16   2.0000     -11.242877      -305.9342
  17   2.0000     -11.238561      -305.8168
  18   2.0000     -11.235135      -305.7236
  19   2.0000     -11.234619      -305.7095
  20   2.0000      -8.895132      -242.0488
  21   2.0000      -6.576707      -178.9613
  22   2.0000      -6.574704      -178.9068
  23   2.0000      -6.574114      -178.8907
  24   2.0000      -1.445246       -39.3271
  25   2.0000      -1.416272       -38.5387
  26   2.0000      -1.355901       -36.8959
  27   2.0000      -1.341811       -36.5125
  28   2.0000      -1.239073       -33.7169
  29   2.0000      -1.157128       -31.4870
  30   2.0000      -1.123111       -30.5614
  31   2.0000      -1.045238       -28.4424
  32   2.0000      -1.035609       -28.1803
  33   2.0000      -1.014880       -27.6163
  34   2.0000      -1.003835       -27.3158
  35   2.0000      -0.988460       -26.8974
  36   2.0000      -0.924841       -25.1662
  37   2.0000      -0.899602       -24.4794
  38   2.0000      -0.851158       -23.1612
  39   2.0000      -0.839326       -22.8392
  40   2.0000      -0.832882       -22.6639
  41   2.0000      -0.822261       -22.3749
  42   2.0000      -0.745204       -20.2780
  43   2.0000      -0.732406       -19.9298
  44   2.0000      -0.728658       -19.8278
  45   2.0000      -0.693531       -18.8719
  46   2.0000      -0.687237       -18.7007
  47   2.0000      -0.677984       -18.4489
  48   2.0000      -0.673904       -18.3379
  49   2.0000      -0.665011       -18.0959
  50   2.0000      -0.651533       -17.7291
  51   2.0000      -0.650418       -17.6988
  52   2.0000      -0.637947       -17.3594
  53   2.0000      -0.621164       -16.9027
  54   2.0000      -0.606547       -16.5050
  55   2.0000      -0.603019       -16.4090
  56   2.0000      -0.600196       -16.3322
  57   2.0000      -0.581879       -15.8337
  58   2.0000      -0.576262       -15.6809
  59   2.0000      -0.564100       -15.3500
  60   2.0000      -0.558385       -15.1944
  61   2.0000      -0.548528       -14.9262
  62   2.0000      -0.544049       -14.8043
  63   2.0000      -0.534739       -14.5510
  64   2.0000      -0.520829       -14.1725
  65   2.0000      -0.511856       -13.9283
  66   2.0000      -0.498897       -13.5757
  67   2.0000      -0.490984       -13.3604
  68   2.0000      -0.484649       -13.1880
  69   2.0000      -0.469260       -12.7692
  70   2.0000      -0.456591       -12.4245
  71   2.0000      -0.448665       -12.2088
  72   2.0000      -0.354872        -9.6565
  73   2.0000      -0.348109        -9.4725
  74   2.0000      -0.329198        -8.9579
  75   2.0000      -0.320401        -8.7186
  76   2.0000      -0.319171        -8.6851
  77   0.0000       0.073942         2.0121
  78   0.0000       0.106051         2.8858
  79   0.0000       0.117048         3.1850
  80   0.0000       0.131848         3.5878
  81   0.0000       0.135978         3.7001

MULLIKEN ATOMIC CHARGES
-----------------------
   0 C :   -0.339516
   1 C :    0.036537
   2 O :   -0.374453
   3 C :    0.463705
   4 O :   -0.384561
   5 C :   -0.266155
   6 C :    0.187379
   7 C :   -0.299816
   8 N :   -0.130184
   9 C :    0.204231
  10 S :   -0.440364
  11 N :   -0.214124
  12 C :    0.063836
  13 C :    0.014473
  14 C :   -0.182443
  15 C :   -0.133052
  16 C :   -0.278775
  17 C :    0.315824
  18 O :   -0.358903
  19 C :   -0.255355
  20 H :    0.127456
  21 H :    0.121219
  22 H :    0.107648
  23 H :    0.119612
  24 H :    0.097875
  25 H :    0.115976
  26 H :    0.139847
  27 H :    0.110788
  28 H :    0.198083
  29 H :    0.199902
  30 H :    0.159578
  31 H :    0.168883
  32 H :    0.162757
  33 H :    0.130990
  34 H :    0.240863
  35 H :    0.170235
Sum of atomic charges:   -0.0000000

LOEWDIN ATOMIC CHARGES
----------------------
   0 C :    0.104366
   1 C :   -0.014484
   2 O :    0.285617
   3 C :   -0.423580
   4 O :    0.125595
   5 C :   -0.092808
   6 C :   -0.071812
   7 C :    0.127668
   8 N :    0.405178
   9 C :   -0.458520
  10 S :   -0.036302
  11 N :    0.396409
  12 C :   -0.048419
  13 C :   -0.043010
  14 C :    0.023376
  15 C :    0.041952
  16 C :   -0.001088
  17 C :   -0.193750
  18 O :    0.393880
  19 C :    0.030323
  20 H :   -0.019476
  21 H :   -0.021157
  22 H :   -0.033248
  23 H :   -0.023954
  24 H :   -0.031509
  25 H :   -0.013706
  26 H :   -0.005488
  27 H :   -0.018506
  28 H :   -0.058554
  29 H :   -0.063277
  30 H :   -0.006102
  31 H :   -0.022194
  32 H :   -0.019638
  33 H :   -0.035338
  34 H :   -0.153948
  35 H :   -0.024498

  Mayer bond orders larger than 0.100000
B(  0-C ,  1-C ) :   0.9597 B(  0-C , 20-H ) :   0.9666 B(  0-C , 21-H ) :   0.9746
B(  0-C , 22-H ) :   0.9697 B(  1-C ,  2-O ) :   0.9030 B(  1-C , 23-H ) :   0.9839
B(  1-C , 24-H ) :   0.9789 B(  2-O ,  3-C ) :   1.0967 B(  3-C ,  4-O ) :   2.0673
B(  3-C ,  5-C ) :   0.9773 B(  5-C ,  6-C ) :   1.6798 B(  5-C , 12-C ) :   0.9474
B(  6-C ,  7-C ) :   0.9473 B(  6-C ,  8-N ) :   1.1319 B(  7-C , 25-H ) :   0.9675
B(  7-C , 26-H ) :   0.9640 B(  7-C , 27-H ) :   0.9893 B(  8-N ,  9-C ) :   1.1869
B(  8-N , 28-H ) :   0.9473 B(  9-C , 10-S ) :   1.6118 B(  9-C , 11-N ) :   1.3002
B( 11-N , 12-C ) :   0.9800 B( 11-N , 29-H ) :   0.9489 B( 12-C , 13-C ) :   0.9667
B( 12-C , 30-H ) :   0.9950 B( 13-C , 14-C ) :   1.3860 B( 13-C , 19-C ) :   1.3545
B( 14-C , 15-C ) :   1.3959 B( 14-C , 31-H ) :   0.9597 B( 15-C , 16-C ) :   1.3601
B( 15-C , 32-H ) :   0.9706 B( 16-C , 17-C ) :   1.3310 B( 16-C , 33-H ) :   0.9850
B( 17-C , 18-O ) :   1.1065 B( 17-C , 19-C ) :   1.3665 B( 18-O , 34-H ) :   0.9800
B( 19-C , 35-H ) :   0.9592

MP2 TOTAL ENERGY:    -1274.323789488 Eh
FINAL SINGLE POINT ENERGY     -1274.323789488031

DIPOLE MOMENT
-------------
                                X             Y             Z
Electronic contribution:      8.95871       7.53938       6.90563
Nuclear contribution   :    -10.46897      -8.70992      -7.54552
                        -----------------------------------------
Total Dipole Moment    :     -1.51025      -1.17054      -0.63989
                        -----------------------------------------
Magnitude (a.u.)       :      2.01506
Magnitude (Debye)      :      5.12189

Rotational constants in cm-1:     0.011361     0.009371     0.006447
Rotational constants in MHz :   340.581193   280.921796   193.289136

                             ****ORCA TERMINATED NORMALLY****
TOTAL RUN TIME: 0 days 1 hours 46 minutes 24 seconds 261 msec
