                         Program Version 4.2.0 -  RELEASE  -
|  1> ! ri-mp2 cc-pvtz cc-pvtz/c TightSCF NoKeepInts
|  2>
|  3> %scf
|  4>   MaxCore 4096
|  5> end
|  6> *xyz  0  1
|  7>     C       14.5208593   16.3984328   16.2598072
|  8>     C       15.0487972   16.1123435   14.8355765
|  9>     O       16.4903915   15.9777976   14.7115280
| 10>     C       17.5081075   16.4418683   15.5139514
| 11>     O       18.5927683   15.8894966   15.4986349
| 12>     C       17.2313786   17.5672165   16.4567803
| 13>     C       16.8624969   18.7793241   15.9734814
| 14>     C       16.4565866   19.1168665   14.5528824
| 15>     N       16.9073411   19.9162257   16.7826352
| 16>     C       17.5521061   19.9745947   17.9897242
| 17>     S       17.6747425   21.3846999   18.8446633
| 18>     N       18.1147728   18.8054478   18.4388440
| 19>     C       17.9290709   17.4793581   17.8161847
| 20>     C       17.3234524   16.4242175   18.7297195
| 21>     C       17.8388623   15.1158155   18.7364261
| 22>     C       17.2709715   14.1287787   19.5590297
| 23>     C       16.1765195   14.4525813   20.3791952
| 24>     C       15.6573824   15.7545134   20.3700203
| 25>     O       14.5939122   16.0670376   21.1523341
| 26>     C       16.2244845   16.7352845   19.5499743
| 27>     H       15.0378843   15.7789592   17.0034745
| 28>     H       13.4542848   16.1481736   16.3139150
| 29>     H       14.6091495   17.4533871   16.5382103
| 30>     H       14.5963486   15.1770020   14.4808116
| 31>     H       14.6948205   16.9034077   14.1634160
| 32>     H       16.8590888   18.4036153   13.8233808
| 33>     H       16.8356927   20.1025419   14.2537547
| 34>     H       15.3654807   19.1350371   14.4492316
| 35>     H       16.5329135   20.7896303   16.4469280
| 36>     H       18.5833977   18.8731763   19.3336843
| 37>     H       18.9769341   17.2261928   17.5957700
| 38>     H       18.6777597   14.8616583   18.0913192
| 39>     H       17.6772051   13.1186546   19.5545338
| 40>     H       15.7338376   13.6924105   21.0143498
| 41>     H       14.3728770   15.2785652   21.6706848
| 42>     H       15.8043212   17.7356875   19.5531428
| 43> *
| 44>
| 45>                          ****END OF INPUT****

CARTESIAN COORDINATES (ANGSTROEM)
---------------------------------
  C     14.520859   16.398433   16.259807
  C     15.048797   16.112344   14.835576
  O     16.490392   15.977798   14.711528
  C     17.508108   16.441868   15.513951
  O     18.592768   15.889497   15.498635
  C     17.231379   17.567217   16.456780
  C     16.862497   18.779324   15.973481
  C     16.456587   19.116867   14.552882
  N     16.907341   19.916226   16.782635
  C     17.552106   19.974595   17.989724
  S     17.674743   21.384700   18.844663
  N     18.114773   18.805448   18.438844
  C     17.929071   17.479358   17.816185
  C     17.323452   16.424218   18.729719
  C     17.838862   15.115816   18.736426
  C     17.270972   14.128779   19.559030
  C     16.176520   14.452581   20.379195
  C     15.657382   15.754513   20.370020
  O     14.593912   16.067038   21.152334
  C     16.224484   16.735284   19.549974
  H     15.037884   15.778959   17.003474
  H     13.454285   16.148174   16.313915
  H     14.609149   17.453387   16.538210
  H     14.596349   15.177002   14.480812
  H     14.694821   16.903408   14.163416
  H     16.859089   18.403615   13.823381
  H     16.835693   20.102542   14.253755
  H     15.365481   19.135037   14.449232
  H     16.532913   20.789630   16.446928
  H     18.583398   18.873176   19.333684
  H     18.976934   17.226193   17.595770
  H     18.677760   14.861658   18.091319
  H     17.677205   13.118655   19.554534
  H     15.733838   13.692410   21.014350
  H     14.372877   15.278565   21.670685
  H     15.804321   17.735687   19.553143

 Total Charge           Charge          ....    0
 Multiplicity           Mult            ....    1
 Number of Electrons    NEL             ....  154
 Basis Dimension        Dim             ....  828

ORBITAL ENERGIES
----------------

  NO   OCC          E(Eh)            E(eV)
   0   2.0000     -91.889796     -2500.4485
   1   2.0000     -20.599114      -560.5304
   2   2.0000     -20.598720      -560.5197
   3   2.0000     -20.547193      -559.1176
   4   2.0000     -15.628244      -425.2661
   5   2.0000     -15.609175      -424.7472
   6   2.0000     -11.400466      -310.2225
   7   2.0000     -11.385465      -309.8143
   8   2.0000     -11.333054      -308.3881
   9   2.0000     -11.315832      -307.9194
  10   2.0000     -11.313504      -307.8561
  11   2.0000     -11.309196      -307.7389
  12   2.0000     -11.267471      -306.6035
  13   2.0000     -11.263464      -306.4944
  14   2.0000     -11.263314      -306.4904
  15   2.0000     -11.256217      -306.2972
  16   2.0000     -11.245194      -305.9973
  17   2.0000     -11.240843      -305.8789
  18   2.0000     -11.238069      -305.8034
  19   2.0000     -11.236338      -305.7563
  20   2.0000      -8.894900      -242.0425
  21   2.0000      -6.576482      -178.9552
  22   2.0000      -6.574470      -178.9004
  23   2.0000      -6.573887      -178.8846
  24   2.0000      -1.442578       -39.2546
  25   2.0000      -1.418470       -38.5985
  26   2.0000      -1.356381       -36.9090
  27   2.0000      -1.341176       -36.4953
  28   2.0000      -1.239270       -33.7223
  29   2.0000      -1.160216       -31.5711
  30   2.0000      -1.125750       -30.6332
  31   2.0000      -1.047676       -28.5087
  32   2.0000      -1.040594       -28.3160
  33   2.0000      -1.018226       -27.7073
  34   2.0000      -1.006468       -27.3874
  35   2.0000      -0.990267       -26.9465
  36   2.0000      -0.926901       -25.2223
  37   2.0000      -0.901780       -24.5387
  38   2.0000      -0.853262       -23.2184
  39   2.0000      -0.841190       -22.8899
  40   2.0000      -0.835632       -22.7387
  41   2.0000      -0.827721       -22.5234
  42   2.0000      -0.745180       -20.2774
  43   2.0000      -0.735330       -20.0093
  44   2.0000      -0.731638       -19.9089
  45   2.0000      -0.695648       -18.9296
  46   2.0000      -0.687262       -18.7013
  47   2.0000      -0.678827       -18.4718
  48   2.0000      -0.673823       -18.3356
  49   2.0000      -0.661390       -17.9973
  50   2.0000      -0.660107       -17.9624
  51   2.0000      -0.650659       -17.7053
  52   2.0000      -0.639932       -17.4134
  53   2.0000      -0.615866       -16.7586
  54   2.0000      -0.608492       -16.5579
  55   2.0000      -0.606265       -16.4973
  56   2.0000      -0.602461       -16.3938
  57   2.0000      -0.589015       -16.0279
  58   2.0000      -0.577157       -15.7052
  59   2.0000      -0.570941       -15.5361
  60   2.0000      -0.563979       -15.3467
  61   2.0000      -0.556539       -15.1442
  62   2.0000      -0.544473       -14.8159
  63   2.0000      -0.531249       -14.4560
  64   2.0000      -0.522398       -14.2152
  65   2.0000      -0.513148       -13.9635
  66   2.0000      -0.500780       -13.6269
  67   2.0000      -0.498820       -13.5736
  68   2.0000      -0.485091       -13.2000
  69   2.0000      -0.468378       -12.7452
  70   2.0000      -0.455139       -12.3850
  71   2.0000      -0.449068       -12.2198
  72   2.0000      -0.355147        -9.6640
  73   2.0000      -0.349663        -9.5148
  74   2.0000      -0.329269        -8.9599
  75   2.0000      -0.323763        -8.8100
  76   2.0000      -0.319492        -8.6938
  77   0.0000       0.083499         2.2721
  78   0.0000       0.105700         2.8762
  79   0.0000       0.114707         3.1213
  80   0.0000       0.129131         3.5138
  81   0.0000       0.130592         3.5536

MULLIKEN ATOMIC CHARGES
-----------------------
   0 C :   -0.333062
   1 C :    0.039721
   2 O :   -0.334986
   3 C :    0.436686
   4 O :   -0.383773
   5 C :   -0.227142
   6 C :    0.149499
   7 C :   -0.340588
   8 N :   -0.140836
   9 C :    0.206863
  10 S :   -0.442864
  11 N :   -0.223503
  12 C :    0.074142
  13 C :    0.010195
  14 C :   -0.213567
  15 C :   -0.130674
  16 C :   -0.277409
  17 C :    0.318641
  18 O :   -0.356987
  19 C :   -0.255661
  20 H :    0.127129
  21 H :    0.120050
  22 H :    0.109791
  23 H :    0.129635
  24 H :    0.085483
  25 H :    0.141245
  26 H :    0.130516
  27 H :    0.120933
  28 H :    0.198606
  29 H :    0.203237
  30 H :    0.168231
  31 H :    0.178557
  32 H :    0.164346
  33 H :    0.132056
  34 H :    0.241195
  35 H :    0.174297
Sum of atomic charges:    0.0000000

LOEWDIN ATOMIC CHARGES
----------------------
   0 C :    0.102370
   1 C :   -0.013138
   2 O :    0.292099
   3 C :   -0.416903
   4 O :    0.118760
   5 C :   -0.082421
   6 C :   -0.087829
   7 C :    0.126438
   8 N :    0.403083
   9 C :   -0.457645
  10 S :   -0.038247
  11 N :    0.396686
  12 C :   -0.047898
  13 C :   -0.044411
  14 C :    0.020116
  15 C :    0.044265
  16 C :   -0.000553
  17 C :   -0.192412
  18 O :    0.395137
  19 C :    0.028822
  20 H :   -0.021114
  21 H :   -0.022435
  22 H :   -0.034294
  23 H :   -0.018876
  24 H :   -0.036179
  25 H :   -0.006724
  26 H :   -0.011358
  27 H :   -0.018517
  28 H :   -0.057643
  29 H :   -0.063397
  30 H :   -0.003921
  31 H :   -0.020985
  32 H :   -0.018607
  33 H :   -0.034905
  34 H :   -0.153429
  35 H :   -0.023936

  Mayer bond orders larger than 0.100000
B(  0-C ,  1-C ) :   0.9553 B(  0-C , 20-H ) :   0.9668 B(  0-C , 21-H ) :   0.9776
B(  0-C , 22-H ) :   0.9737 B(  1-C ,  2-O ) :   0.9063 B(  1-C , 23-H ) :   0.9800
B(  1-C , 24-H ) :   0.9739 B(  2-O ,  3-C ) :   1.1699 B(  3-C ,  4-O ) :   2.0808
B(  3-C ,  5-C ) :   0.9335 B(  5-C ,  6-C ) :   1.7228 B(  5-C , 12-C ) :   0.9355
B(  6-C ,  7-C ) :   0.9382 B(  6-C ,  8-N ) :   1.0998 B(  7-C , 25-H ) :   0.9732
B(  7-C , 26-H ) :   0.9798 B(  7-C , 27-H ) :   0.9649 B(  8-N ,  9-C ) :   1.1964
B(  8-N , 28-H ) :   0.9500 B(  9-C , 10-S ) :   1.6093 B(  9-C , 11-N ) :   1.2924
B( 11-N , 12-C ) :   0.9798 B( 11-N , 29-H ) :   0.9476 B( 12-C , 13-C ) :   0.9675
B( 12-C , 30-H ) :   0.9892 B( 13-C , 14-C ) :   1.3878 B( 13-C , 19-C ) :   1.3508
B( 14-C , 15-C ) :   1.3954 B( 14-C , 31-H ) :   0.9577 B( 15-C , 16-C ) :   1.3609
B( 15-C , 32-H ) :   0.9701 B( 16-C , 17-C ) :   1.3310 B( 16-C , 33-H ) :   0.9847
B( 17-C , 18-O ) :   1.1092 B( 17-C , 19-C ) :   1.3648 B( 18-O , 34-H ) :   0.9795
B( 19-C , 35-H ) :   0.9569

MP2 TOTAL ENERGY:    -1274.322503976 Eh
FINAL SINGLE POINT ENERGY     -1274.322503975797

DIPOLE MOMENT
-------------
                                X             Y             Z
Electronic contribution:      8.97447       6.08017       7.06700
Nuclear contribution   :    -10.65150      -7.25344      -7.62365
                        -----------------------------------------
Total Dipole Moment    :     -1.67704      -1.17327      -0.55664
                        -----------------------------------------
Magnitude (a.u.)       :      2.12105
Magnitude (Debye)      :      5.39129

Rotational constants in cm-1:     0.011414     0.009278     0.006508
Rotational constants in MHz :   342.182097   278.134840   195.115548

                             ****ORCA TERMINATED NORMALLY****
TOTAL RUN TIME: 0 days 2 hours 4 minutes 22 seconds 730 msec
