                         Program Version 4.2.0 -  RELEASE  -
|  1> ! ri-mp2 cc-pvtz cc-pvtz/c TightSCF NoKeepInts
|  2>
|  3> %scf
|  4>   MaxCore 4096
|  5> end
|  6> *xyz  0  1
|  7>     C       14.3577289   15.1655052   15.3802093
|  8>     C       15.2440155   15.7048879   14.2388454
|  9>     O       15.9582135   16.8645989   14.7054242
| 10>     C       16.9473591   16.7111355   15.6336717
| 11>     O       17.5882191   15.6776507   15.7342943
| 12>     C       17.0796123   17.8468167   16.6076193
| 13>     C       16.8118491   19.1370830   16.2746917
| 14>     C       16.1431033   19.6545894   15.0163908
| 15>     N       17.2015354   20.1847395   17.1130893
| 16>     C       18.0444544   20.0486200   18.1829841
| 17>     S       18.5486288   21.3516924   19.0680709
| 18>     N       18.4666676   18.7750604   18.4688764
| 19>     C       17.9729732   17.5463633   17.8172688
| 20>     C       17.3521082   16.5554816   18.7931757
| 21>     C       17.8196834   15.2309483   18.8653120
| 22>     C       17.2429803   14.3173261   19.7634379
| 23>     C       16.1902893   14.7322759   20.5971144
| 24>     C       15.7208653   16.0511146   20.5254657
| 25>     O       14.7012170   16.4529654   21.3255419
| 26>     C       16.2965833   16.9579485   19.6298888
| 27>     H       14.9684169   14.7959084   16.2141952
| 28>     H       13.7388460   14.3337164   15.0226822
| 29>     H       13.6913330   15.9501606   15.7592971
| 30>     H       15.9415174   14.9278323   13.8967922
| 31>     H       14.6070116   15.9876855   13.3910537
| 32>     H       15.1042445   19.3063259   14.9585779
| 33>     H       16.6694717   19.3008267   14.1210016
| 34>     H       16.1230683   20.7499673   14.9640626
| 35>     H       16.9174148   21.1281371   16.9030231
| 36>     H       19.0701919   18.6990194   19.2779047
| 37>     H       18.9125115   17.1492938   17.4059951
| 38>     H       18.6229946   14.9053983   18.2084955
| 39>     H       17.6090242   13.2930819   19.8057880
| 40>     H       15.7410919   14.0295531   21.2908980
| 41>     H       14.4602044   15.7011384   21.8871820
| 42>     H       15.9215703   17.9751514   19.5896783
| 43> *
| 44>
| 45>                          ****END OF INPUT****

CARTESIAN COORDINATES (ANGSTROEM)
---------------------------------
  C     14.357729   15.165505   15.380209
  C     15.244015   15.704888   14.238845
  O     15.958213   16.864599   14.705424
  C     16.947359   16.711136   15.633672
  O     17.588219   15.677651   15.734294
  C     17.079612   17.846817   16.607619
  C     16.811849   19.137083   16.274692
  C     16.143103   19.654589   15.016391
  N     17.201535   20.184739   17.113089
  C     18.044454   20.048620   18.182984
  S     18.548629   21.351692   19.068071
  N     18.466668   18.775060   18.468876
  C     17.972973   17.546363   17.817269
  C     17.352108   16.555482   18.793176
  C     17.819683   15.230948   18.865312
  C     17.242980   14.317326   19.763438
  C     16.190289   14.732276   20.597114
  C     15.720865   16.051115   20.525466
  O     14.701217   16.452965   21.325542
  C     16.296583   16.957949   19.629889
  H     14.968417   14.795908   16.214195
  H     13.738846   14.333716   15.022682
  H     13.691333   15.950161   15.759297
  H     15.941517   14.927832   13.896792
  H     14.607012   15.987685   13.391054
  H     15.104244   19.306326   14.958578
  H     16.669472   19.300827   14.121002
  H     16.123068   20.749967   14.964063
  H     16.917415   21.128137   16.903023
  H     19.070192   18.699019   19.277905
  H     18.912512   17.149294   17.405995
  H     18.622995   14.905398   18.208495
  H     17.609024   13.293082   19.805788
  H     15.741092   14.029553   21.290898
  H     14.460204   15.701138   21.887182
  H     15.921570   17.975151   19.589678

 Total Charge           Charge          ....    0
 Multiplicity           Mult            ....    1
 Number of Electrons    NEL             ....  154
 Basis Dimension        Dim             ....  828

ORBITAL ENERGIES
----------------

  NO   OCC          E(Eh)            E(eV)
   0   2.0000     -91.888181     -2500.4045
   1   2.0000     -20.599365      -560.5372
   2   2.0000     -20.592557      -560.3520
   3   2.0000     -20.546455      -559.0975
   4   2.0000     -15.628649      -425.2772
   5   2.0000     -15.605957      -424.6597
   6   2.0000     -11.395706      -310.0929
   7   2.0000     -11.382821      -309.7423
   8   2.0000     -11.337922      -308.5206
   9   2.0000     -11.308680      -307.7248
  10   2.0000     -11.304550      -307.6124
  11   2.0000     -11.300460      -307.5012
  12   2.0000     -11.260465      -306.4128
  13   2.0000     -11.258817      -306.3680
  14   2.0000     -11.255824      -306.2865
  15   2.0000     -11.248810      -306.0957
  16   2.0000     -11.238975      -305.8281
  17   2.0000     -11.235013      -305.7202
  18   2.0000     -11.231784      -305.6324
  19   2.0000     -11.227807      -305.5242
  20   2.0000      -8.893262      -241.9980
  21   2.0000      -6.574839      -178.9105
  22   2.0000      -6.572836      -178.8560
  23   2.0000      -6.572248      -178.8400
  24   2.0000      -1.453266       -39.5454
  25   2.0000      -1.412314       -38.4310
  26   2.0000      -1.356776       -36.9197
  27   2.0000      -1.339908       -36.4607
  28   2.0000      -1.237146       -33.6645
  29   2.0000      -1.153256       -31.3817
  30   2.0000      -1.121114       -30.5071
  31   2.0000      -1.042800       -28.3760
  32   2.0000      -1.033456       -28.1218
  33   2.0000      -1.010719       -27.5031
  34   2.0000      -0.999057       -27.1857
  35   2.0000      -0.984114       -26.7791
  36   2.0000      -0.921349       -25.0712
  37   2.0000      -0.894811       -24.3490
  38   2.0000      -0.847655       -23.0659
  39   2.0000      -0.835528       -22.7359
  40   2.0000      -0.828924       -22.5562
  41   2.0000      -0.815361       -22.1871
  42   2.0000      -0.752853       -20.4862
  43   2.0000      -0.736042       -20.0287
  44   2.0000      -0.726643       -19.7730
  45   2.0000      -0.691318       -18.8117
  46   2.0000      -0.685946       -18.6655
  47   2.0000      -0.679118       -18.4797
  48   2.0000      -0.669676       -18.2228
  49   2.0000      -0.657033       -17.8788
  50   2.0000      -0.652300       -17.7500
  51   2.0000      -0.645021       -17.5519
  52   2.0000      -0.632220       -17.2036
  53   2.0000      -0.610976       -16.6255
  54   2.0000      -0.602923       -16.4064
  55   2.0000      -0.598782       -16.2937
  56   2.0000      -0.595851       -16.2139
  57   2.0000      -0.579609       -15.7720
  58   2.0000      -0.574014       -15.6197
  59   2.0000      -0.562926       -15.3180
  60   2.0000      -0.556150       -15.1336
  61   2.0000      -0.550143       -14.9701
  62   2.0000      -0.534804       -14.5528
  63   2.0000      -0.534329       -14.5398
  64   2.0000      -0.516587       -14.0570
  65   2.0000      -0.509144       -13.8545
  66   2.0000      -0.497151       -13.5282
  67   2.0000      -0.493778       -13.4364
  68   2.0000      -0.481587       -13.1046
  69   2.0000      -0.463672       -12.6172
  70   2.0000      -0.460013       -12.5176
  71   2.0000      -0.450455       -12.2575
  72   2.0000      -0.353205        -9.6112
  73   2.0000      -0.345379        -9.3983
  74   2.0000      -0.327262        -8.9053
  75   2.0000      -0.317371        -8.6361
  76   2.0000      -0.315378        -8.5819
  77   0.0000       0.076625         2.0851
  78   0.0000       0.110198         2.9986
  79   0.0000       0.120408         3.2765
  80   0.0000       0.135181         3.6785
  81   0.0000       0.141586         3.8527

MULLIKEN ATOMIC CHARGES
-----------------------
   0 C :   -0.297214
   1 C :    0.028538
   2 O :   -0.358723
   3 C :    0.422760
   4 O :   -0.418601
   5 C :   -0.160959
   6 C :    0.151642
   7 C :   -0.280308
   8 N :   -0.128497
   9 C :    0.207742
  10 S :   -0.442071
  11 N :   -0.211491
  12 C :    0.044779
  13 C :    0.031060
  14 C :   -0.173144
  15 C :   -0.134569
  16 C :   -0.277724
  17 C :    0.314564
  18 O :   -0.358759
  19 C :   -0.251084
  20 H :    0.118973
  21 H :    0.097202
  22 H :    0.094552
  23 H :    0.110950
  24 H :    0.107065
  25 H :    0.127897
  26 H :    0.126101
  27 H :    0.101097
  28 H :    0.198830
  29 H :    0.199799
  30 H :    0.155831
  31 H :    0.160495
  32 H :    0.160617
  33 H :    0.128845
  34 H :    0.240013
  35 H :    0.163792
Sum of atomic charges:    0.0000000

LOEWDIN ATOMIC CHARGES
----------------------
   0 C :    0.106055
   1 C :   -0.018429
   2 O :    0.301807
   3 C :   -0.415890
   4 O :    0.106489
   5 C :   -0.092266
   6 C :   -0.064728
   7 C :    0.125686
   8 N :    0.405495
   9 C :   -0.458229
  10 S :   -0.037489
  11 N :    0.396369
  12 C :   -0.048146
  13 C :   -0.040984
  14 C :    0.024300
  15 C :    0.040391
  16 C :   -0.001242
  17 C :   -0.192557
  18 O :    0.393260
  19 C :    0.029738
  20 H :   -0.022963
  21 H :   -0.025783
  22 H :   -0.028816
  23 H :   -0.027767
  24 H :   -0.025578
  25 H :   -0.009707
  26 H :   -0.008785
  27 H :   -0.021173
  28 H :   -0.058645
  29 H :   -0.063264
  30 H :   -0.007987
  31 H :   -0.023771
  32 H :   -0.020897
  33 H :   -0.036027
  34 H :   -0.154770
  35 H :   -0.023697

  Mayer bond orders larger than 0.100000
B(  0-C ,  1-C ) :   0.9607 B(  0-C , 20-H ) :   0.9729 B(  0-C , 21-H ) :   0.9761
B(  0-C , 22-H ) :   0.9766 B(  1-C ,  2-O ) :   0.8981 B(  1-C , 23-H ) :   0.9788
B(  1-C , 24-H ) :   0.9842 B(  2-O ,  3-C ) :   1.1175 B(  3-C ,  4-O ) :   1.9935
B(  3-C ,  5-C ) :   1.0342 B(  5-C ,  6-C ) :   1.6560 B(  5-C , 12-C ) :   0.9503
B(  6-C ,  7-C ) :   0.9562 B(  6-C ,  8-N ) :   1.1362 B(  7-C , 25-H ) :   0.9635
B(  7-C , 26-H ) :   0.9652 B(  7-C , 27-H ) :   0.9904 B(  8-N ,  9-C ) :   1.1854
B(  8-N , 28-H ) :   0.9470 B(  9-C , 10-S ) :   1.6090 B(  9-C , 11-N ) :   1.3052
B( 11-N , 12-C ) :   0.9775 B( 11-N , 29-H ) :   0.9485 B( 12-C , 13-C ) :   0.9712
B( 12-C , 30-H ) :   0.9963 B( 13-C , 14-C ) :   1.3767 B( 13-C , 19-C ) :   1.3660
B( 14-C , 15-C ) :   1.3971 B( 14-C , 31-H ) :   0.9632 B( 15-C , 16-C ) :   1.3588
B( 15-C , 32-H ) :   0.9710 B( 16-C , 17-C ) :   1.3330 B( 16-C , 33-H ) :   0.9857
B( 17-C , 18-O ) :   1.1039 B( 17-C , 19-C ) :   1.3671 B( 18-O , 34-H ) :   0.9806
B( 19-C , 35-H ) :   0.9601

MP2 TOTAL ENERGY:    -1274.339392426 Eh
FINAL SINGLE POINT ENERGY     -1274.339392425957

DIPOLE MOMENT
-------------
                                X             Y             Z
Electronic contribution:      9.56237       9.80569       9.27575
Nuclear contribution   :    -10.93712     -11.12093     -10.36370
                        -----------------------------------------
Total Dipole Moment    :     -1.37475      -1.31524      -1.08795
                        -----------------------------------------
Magnitude (a.u.)       :      2.19167
Magnitude (Debye)      :      5.57079

Rotational constants in cm-1:     0.010421     0.009266     0.005875
Rotational constants in MHz :   312.420357   277.783061   176.127601

                             ****ORCA TERMINATED NORMALLY****
TOTAL RUN TIME: 0 days 1 hours 40 minutes 0 seconds 221 msec
