                         Program Version 4.2.0 -  RELEASE  -
|  1> ! ri-mp2 cc-pvtz cc-pvtz/c TightSCF NoKeepInts
|  2>
|  3> %scf
|  4>   MaxCore 4096
|  5> end
|  6> *xyz  0  1
|  7>     C       14.1325053   15.1500760   15.4174698
|  8>     C       14.9595563   16.4393178   15.2874710
|  9>     O       16.3033755   16.0406430   14.9470799
| 10>     C       17.4271909   16.4717937   15.6068583
| 11>     O       18.4751424   15.8584595   15.5248017
| 12>     C       17.2763877   17.6521310   16.5112123
| 13>     C       16.9641702   18.8698775   16.0044848
| 14>     C       16.5209525   19.1880193   14.5905519
| 15>     N       17.1206335   20.0247956   16.7730128
| 16>     C       17.8101347   20.0722773   17.9560721
| 17>     S       18.0580573   21.4941994   18.7627568
| 18>     N       18.3058094   18.8798902   18.4239641
| 19>     C       18.0175590   17.5527763   17.8438875
| 20>     C       17.3688088   16.5628899   18.7994588
| 21>     C       17.8210128   15.2323476   18.8522918
| 22>     C       17.2115784   14.3049053   19.7136469
| 23>     C       16.1386693   14.7111000   20.5256229
| 24>     C       15.6813828   16.0348917   20.4689344
| 25>     O       14.6389320   16.4270526   21.2436909
| 26>     C       16.2892621   16.9560628   19.6097332
| 27>     H       14.5361995   14.5120669   16.2141466
| 28>     H       14.1503136   14.5822229   14.4786715
| 29>     H       13.0884142   15.3825336   15.6597935
| 30>     H       14.5383516   17.0749164   14.4984075
| 31>     H       14.9066754   16.9752092   16.2435549
| 32>     H       16.7997161   18.4020528   13.8778057
| 33>     H       16.9922084   20.1098297   14.2256260
| 34>     H       15.4345561   19.3265012   14.5386335
| 35>     H       16.7963071   20.9125144   16.4225926
| 36>     H       18.8072062   18.9409501   19.3014514
| 37>     H       19.0375960   17.2237732   17.5944282
| 38>     H       18.6421307   14.9141706   18.2127514
| 39>     H       17.5688339   13.2768899   19.7451384
| 40>     H       15.6642265   13.9972386   21.1908962
| 41>     H       14.3845730   15.6702936   21.7931816
| 42>     H       15.9185709   17.9753303   19.5779191
| 43> *
| 44>
| 45>                          ****END OF INPUT****

CARTESIAN COORDINATES (ANGSTROEM)
---------------------------------
  C     14.132505   15.150076   15.417470
  C     14.959556   16.439318   15.287471
  O     16.303376   16.040643   14.947080
  C     17.427191   16.471794   15.606858
  O     18.475142   15.858459   15.524802
  C     17.276388   17.652131   16.511212
  C     16.964170   18.869878   16.004485
  C     16.520952   19.188019   14.590552
  N     17.120634   20.024796   16.773013
  C     17.810135   20.072277   17.956072
  S     18.058057   21.494199   18.762757
  N     18.305809   18.879890   18.423964
  C     18.017559   17.552776   17.843888
  C     17.368809   16.562890   18.799459
  C     17.821013   15.232348   18.852292
  C     17.211578   14.304905   19.713647
  C     16.138669   14.711100   20.525623
  C     15.681383   16.034892   20.468934
  O     14.638932   16.427053   21.243691
  C     16.289262   16.956063   19.609733
  H     14.536200   14.512067   16.214147
  H     14.150314   14.582223   14.478672
  H     13.088414   15.382534   15.659793
  H     14.538352   17.074916   14.498407
  H     14.906675   16.975209   16.243555
  H     16.799716   18.402053   13.877806
  H     16.992208   20.109830   14.225626
  H     15.434556   19.326501   14.538633
  H     16.796307   20.912514   16.422593
  H     18.807206   18.940950   19.301451
  H     19.037596   17.223773   17.594428
  H     18.642131   14.914171   18.212751
  H     17.568834   13.276890   19.745138
  H     15.664226   13.997239   21.190896
  H     14.384573   15.670294   21.793182
  H     15.918571   17.975330   19.577919

 Total Charge           Charge          ....    0
 Multiplicity           Mult            ....    1
 Number of Electrons    NEL             ....  154
 Basis Dimension        Dim             ....  828

ORBITAL ENERGIES
----------------

  NO   OCC          E(Eh)            E(eV)
   0   2.0000     -91.889983     -2500.4535
   1   2.0000     -20.605371      -560.7006
   2   2.0000     -20.599091      -560.5298
   3   2.0000     -20.548886      -559.1636
   4   2.0000     -15.628320      -425.2682
   5   2.0000     -15.609624      -424.7595
   6   2.0000     -11.399422      -310.1940
   7   2.0000     -11.385884      -309.8257
   8   2.0000     -11.334480      -308.4269
   9   2.0000     -11.316341      -307.9333
  10   2.0000     -11.309866      -307.7571
  11   2.0000     -11.306907      -307.6766
  12   2.0000     -11.268045      -306.6191
  13   2.0000     -11.264163      -306.5134
  14   2.0000     -11.264101      -306.5118
  15   2.0000     -11.256538      -306.3060
  16   2.0000     -11.245439      -306.0040
  17   2.0000     -11.241753      -305.9036
  18   2.0000     -11.238753      -305.8220
  19   2.0000     -11.232563      -305.6536
  20   2.0000      -8.895089      -242.0477
  21   2.0000      -6.576671      -178.9603
  22   2.0000      -6.574658      -178.9055
  23   2.0000      -6.574075      -178.8897
  24   2.0000      -1.449186       -39.4344
  25   2.0000      -1.418802       -38.6076
  26   2.0000      -1.362084       -37.0642
  27   2.0000      -1.341268       -36.4978
  28   2.0000      -1.239502       -33.7286
  29   2.0000      -1.160770       -31.5861
  30   2.0000      -1.126424       -30.6516
  31   2.0000      -1.048316       -28.5261
  32   2.0000      -1.041467       -28.3398
  33   2.0000      -1.018601       -27.7175
  34   2.0000      -1.006093       -27.3772
  35   2.0000      -0.989718       -26.9316
  36   2.0000      -0.926509       -25.2116
  37   2.0000      -0.884328       -24.0638
  38   2.0000      -0.856142       -23.2968
  39   2.0000      -0.842367       -22.9220
  40   2.0000      -0.837130       -22.7795
  41   2.0000      -0.835521       -22.7357
  42   2.0000      -0.756462       -20.5844
  43   2.0000      -0.740598       -20.1527
  44   2.0000      -0.731642       -19.9090
  45   2.0000      -0.696970       -18.9655
  46   2.0000      -0.689422       -18.7601
  47   2.0000      -0.683466       -18.5981
  48   2.0000      -0.675017       -18.3681
  49   2.0000      -0.661893       -18.0110
  50   2.0000      -0.657773       -17.8989
  51   2.0000      -0.646728       -17.5984
  52   2.0000      -0.639005       -17.3882
  53   2.0000      -0.612731       -16.6733
  54   2.0000      -0.607342       -16.5266
  55   2.0000      -0.602532       -16.3957
  56   2.0000      -0.600334       -16.3359
  57   2.0000      -0.582080       -15.8392
  58   2.0000      -0.577898       -15.7254
  59   2.0000      -0.570663       -15.5285
  60   2.0000      -0.560941       -15.2640
  61   2.0000      -0.559844       -15.2341
  62   2.0000      -0.551694       -15.0124
  63   2.0000      -0.529212       -14.4006
  64   2.0000      -0.518832       -14.1181
  65   2.0000      -0.514730       -14.0065
  66   2.0000      -0.505166       -13.7463
  67   2.0000      -0.501175       -13.6377
  68   2.0000      -0.488410       -13.2903
  69   2.0000      -0.472093       -12.8463
  70   2.0000      -0.454762       -12.3747
  71   2.0000      -0.451659       -12.2903
  72   2.0000      -0.356214        -9.6931
  73   2.0000      -0.351393        -9.5619
  74   2.0000      -0.329443        -8.9646
  75   2.0000      -0.323863        -8.8127
  76   2.0000      -0.319739        -8.7005
  77   0.0000       0.083485         2.2717
  78   0.0000       0.103417         2.8141
  79   0.0000       0.116133         3.1601
  80   0.0000       0.130113         3.5406
  81   0.0000       0.131146         3.5687

MULLIKEN ATOMIC CHARGES
-----------------------
   0 C :   -0.251897
   1 C :    0.016083
   2 O :   -0.312175
   3 C :    0.414222
   4 O :   -0.384578
   5 C :   -0.231586
   6 C :    0.169640
   7 C :   -0.336126
   8 N :   -0.139155
   9 C :    0.207703
  10 S :   -0.442471
  11 N :   -0.221599
  12 C :    0.062064
  13 C :    0.027807
  14 C :   -0.218814
  15 C :   -0.127949
  16 C :   -0.277358
  17 C :    0.314868
  18 O :   -0.356247
  19 C :   -0.256167
  20 H :    0.104202
  21 H :    0.101716
  22 H :    0.087279
  23 H :    0.094399
  24 H :    0.108997
  25 H :    0.138184
  26 H :    0.131254
  27 H :    0.124685
  28 H :    0.198191
  29 H :    0.202310
  30 H :    0.167063
  31 H :    0.175525
  32 H :    0.164682
  33 H :    0.131326
  34 H :    0.241307
  35 H :    0.172614
Sum of atomic charges:   -0.0000000

LOEWDIN ATOMIC CHARGES
----------------------
   0 C :    0.109876
   1 C :   -0.022195
   2 O :    0.309448
   3 C :   -0.416373
   4 O :    0.117637
   5 C :   -0.086663
   6 C :   -0.088449
   7 C :    0.126313
   8 N :    0.402793
   9 C :   -0.456848
  10 S :   -0.037894
  11 N :    0.396146
  12 C :   -0.049647
  13 C :   -0.043949
  14 C :    0.020642
  15 C :    0.044530
  16 C :   -0.000137
  17 C :   -0.191327
  18 O :    0.394726
  19 C :    0.026431
  20 H :   -0.022541
  21 H :   -0.024929
  22 H :   -0.026222
  23 H :   -0.034555
  24 H :   -0.034985
  25 H :   -0.007005
  26 H :   -0.010950
  27 H :   -0.017205
  28 H :   -0.057310
  29 H :   -0.063488
  30 H :   -0.004200
  31 H :   -0.021209
  32 H :   -0.018666
  33 H :   -0.034903
  34 H :   -0.153269
  35 H :   -0.023619

  Mayer bond orders larger than 0.100000
B(  0-C ,  1-C ) :   0.9850 B(  0-C , 20-H ) :   0.9771 B(  0-C , 21-H ) :   0.9793
B(  0-C , 22-H ) :   0.9766 B(  1-C ,  2-O ) :   0.9033 B(  1-C , 23-H ) :   0.9736
B(  1-C , 24-H ) :   0.9569 B(  2-O ,  3-C ) :   1.1890 B(  3-C ,  4-O ) :   2.0900
B(  3-C ,  5-C ) :   0.9301 B(  5-C ,  6-C ) :   1.7132 B(  5-C , 12-C ) :   0.9403
B(  6-C ,  7-C ) :   0.9302 B(  6-C ,  8-N ) :   1.1107 B(  7-C , 25-H ) :   0.9752
B(  7-C , 26-H ) :   0.9776 B(  7-C , 27-H ) :   0.9663 B(  8-N ,  9-C ) :   1.1958
B(  8-N , 28-H ) :   0.9507 B(  9-C , 10-S ) :   1.6104 B(  9-C , 11-N ) :   1.2922
B( 11-N , 12-C ) :   0.9846 B( 11-N , 29-H ) :   0.9476 B( 12-C , 13-C ) :   0.9689
B( 12-C , 30-H ) :   0.9898 B( 13-C , 14-C ) :   1.3841 B( 13-C , 19-C ) :   1.3536
B( 14-C , 15-C ) :   1.3937 B( 14-C , 31-H ) :   0.9596 B( 15-C , 16-C ) :   1.3614
B( 15-C , 32-H ) :   0.9696 B( 16-C , 17-C ) :   1.3309 B( 16-C , 33-H ) :   0.9852
B( 17-C , 18-O ) :   1.1084 B( 17-C , 19-C ) :   1.3663 B( 18-O , 34-H ) :   0.9794
B( 19-C , 35-H ) :   0.9566

MP2 TOTAL ENERGY:    -1274.331451403 Eh
FINAL SINGLE POINT ENERGY     -1274.331451402819

DIPOLE MOMENT
-------------
                                X             Y             Z
Electronic contribution:     10.18824       8.51409       8.23559
Nuclear contribution   :    -11.86918      -9.57007      -8.67198
                        -----------------------------------------
Total Dipole Moment    :     -1.68094      -1.05598      -0.43639
                        -----------------------------------------
Magnitude (a.u.)       :      2.03250
Magnitude (Debye)      :      5.16621

Rotational constants in cm-1:     0.010889     0.009083     0.006234
Rotational constants in MHz :   326.452703   272.311682   186.888898

                             ****ORCA TERMINATED NORMALLY****
TOTAL RUN TIME: 0 days 1 hours 39 minutes 29 seconds 252 msec
