                         Program Version 4.2.0 -  RELEASE  -
|  1> ! ri-mp2 cc-pvtz cc-pvtz/c TightSCF NoKeepInts
|  2>
|  3> %scf
|  4>   MaxCore 4096
|  5> end
|  6> *xyz  0  1
|  7>     C       15.0909653   14.9219447   13.5377655
|  8>     C       14.5763369   15.6625059   14.7864918
|  9>     O       15.4807618   16.7416720   15.0828335
| 10>     C       16.5288492   16.5220775   15.9303416
| 11>     O       17.0096028   15.4136960   16.1003835
| 12>     C       16.9291805   17.7117102   16.7566714
| 13>     C       16.8182832   18.9895852   16.3057449
| 14>     C       16.0978491   19.4819738   15.0657805
| 15>     N       17.4494316   20.0399759   16.9771826
| 16>     C       18.3835102   19.8786515   17.9644873
| 17>     S       19.1732321   21.1664538   18.6378747
| 18>     N       18.6467984   18.5887413   18.3494812
| 19>     C       17.9035426   17.3960236   17.8990526
| 20>     C       17.2684498   16.6170243   19.0434217
| 21>     C       17.5469724   15.2500111   19.2223107
| 22>     C       16.9620577   14.5338629   20.2801420
| 23>     C       16.0923140   15.1908850   21.1674145
| 24>     C       15.8115686   16.5527331   20.9901855
| 25>     O       14.9690347   17.1885586   21.8429509
| 26>     C       16.3948311   17.2626300   19.9357653
| 27>     H       15.1948502   15.6126249   12.6919594
| 28>     H       14.3935192   14.1265334   13.2487364
| 29>     H       16.0683012   14.4621344   13.7316725
| 30>     H       13.5818156   16.0726839   14.5692167
| 31>     H       14.4836644   14.9741585   15.6382327
| 32>     H       15.0192122   19.2976304   15.1451788
| 33>     H       16.4650027   18.9653947   14.1700181
| 34>     H       16.2326401   20.5566600   14.8928703
| 35>     H       17.2831978   20.9911581   16.6900066
| 36>     H       19.3239995   18.4980079   19.0962980
| 37>     H       18.7206716   16.8175120   17.4438947
| 38>     H       18.2077654   14.7380487   18.5266626
| 39>     H       17.1800085   13.4747012   20.4046422
| 40>     H       15.6374036   14.6412704   21.9846639
| 41>     H       14.6929554   16.5439216   22.5115181
| 42>     H       16.1684207   18.3168438   19.8161472
| 43> *
| 44>
| 45>                          ****END OF INPUT****

CARTESIAN COORDINATES (ANGSTROEM)
---------------------------------
  C     15.090965   14.921945   13.537766
  C     14.576337   15.662506   14.786492
  O     15.480762   16.741672   15.082833
  C     16.528849   16.522078   15.930342
  O     17.009603   15.413696   16.100383
  C     16.929181   17.711710   16.756671
  C     16.818283   18.989585   16.305745
  C     16.097849   19.481974   15.065780
  N     17.449432   20.039976   16.977183
  C     18.383510   19.878652   17.964487
  S     19.173232   21.166454   18.637875
  N     18.646798   18.588741   18.349481
  C     17.903543   17.396024   17.899053
  C     17.268450   16.617024   19.043422
  C     17.546972   15.250011   19.222311
  C     16.962058   14.533863   20.280142
  C     16.092314   15.190885   21.167414
  C     15.811569   16.552733   20.990185
  O     14.969035   17.188559   21.842951
  C     16.394831   17.262630   19.935765
  H     15.194850   15.612625   12.691959
  H     14.393519   14.126533   13.248736
  H     16.068301   14.462134   13.731672
  H     13.581816   16.072684   14.569217
  H     14.483664   14.974158   15.638233
  H     15.019212   19.297630   15.145179
  H     16.465003   18.965395   14.170018
  H     16.232640   20.556660   14.892870
  H     17.283198   20.991158   16.690007
  H     19.323999   18.498008   19.096298
  H     18.720672   16.817512   17.443895
  H     18.207765   14.738049   18.526663
  H     17.180008   13.474701   20.404642
  H     15.637404   14.641270   21.984664
  H     14.692955   16.543922   22.511518
  H     16.168421   18.316844   19.816147

 Total Charge           Charge          ....    0
 Multiplicity           Mult            ....    1
 Number of Electrons    NEL             ....  154
 Basis Dimension        Dim             ....  828

ORBITAL ENERGIES
----------------

  NO   OCC          E(Eh)            E(eV)
   0   2.0000     -91.888028     -2500.4004
   1   2.0000     -20.600501      -560.5681
   2   2.0000     -20.591826      -560.3321
   3   2.0000     -20.547492      -559.1257
   4   2.0000     -15.628530      -425.2739
   5   2.0000     -15.605728      -424.6534
   6   2.0000     -11.396642      -310.1184
   7   2.0000     -11.382587      -309.7359
   8   2.0000     -11.337981      -308.5222
   9   2.0000     -11.307869      -307.7028
  10   2.0000     -11.304351      -307.6070
  11   2.0000     -11.301363      -307.5257
  12   2.0000     -11.260691      -306.4190
  13   2.0000     -11.258988      -306.3726
  14   2.0000     -11.255156      -306.2684
  15   2.0000     -11.247989      -306.0733
  16   2.0000     -11.238160      -305.8059
  17   2.0000     -11.234244      -305.6993
  18   2.0000     -11.231063      -305.6128
  19   2.0000     -11.224750      -305.4410
  20   2.0000      -8.893111      -241.9939
  21   2.0000      -6.574688      -178.9064
  22   2.0000      -6.572685      -178.8519
  23   2.0000      -6.572097      -178.8359
  24   2.0000      -1.454189       -39.5705
  25   2.0000      -1.411571       -38.4108
  26   2.0000      -1.358112       -36.9561
  27   2.0000      -1.339862       -36.4595
  28   2.0000      -1.237025       -33.6612
  29   2.0000      -1.152509       -31.3614
  30   2.0000      -1.120907       -30.5014
  31   2.0000      -1.042730       -28.3741
  32   2.0000      -1.034160       -28.1409
  33   2.0000      -1.009983       -27.4830
  34   2.0000      -0.998321       -27.1657
  35   2.0000      -0.983289       -26.7566
  36   2.0000      -0.920820       -25.0568
  37   2.0000      -0.889977       -24.2175
  38   2.0000      -0.847735       -23.0681
  39   2.0000      -0.835368       -22.7315
  40   2.0000      -0.828177       -22.5358
  41   2.0000      -0.820102       -22.3161
  42   2.0000      -0.756057       -20.5734
  43   2.0000      -0.734947       -19.9989
  44   2.0000      -0.726291       -19.7634
  45   2.0000      -0.690749       -18.7962
  46   2.0000      -0.686025       -18.6677
  47   2.0000      -0.680181       -18.5087
  48   2.0000      -0.670376       -18.2419
  49   2.0000      -0.659245       -17.9390
  50   2.0000      -0.646045       -17.5798
  51   2.0000      -0.640007       -17.4155
  52   2.0000      -0.630556       -17.1583
  53   2.0000      -0.609654       -16.5895
  54   2.0000      -0.602023       -16.3819
  55   2.0000      -0.598344       -16.2818
  56   2.0000      -0.594967       -16.1899
  57   2.0000      -0.586019       -15.9464
  58   2.0000      -0.573017       -15.5926
  59   2.0000      -0.566204       -15.4072
  60   2.0000      -0.560752       -15.2588
  61   2.0000      -0.547483       -14.8978
  62   2.0000      -0.535962       -14.5843
  63   2.0000      -0.523248       -14.2383
  64   2.0000      -0.515760       -14.0346
  65   2.0000      -0.509779       -13.8718
  66   2.0000      -0.501908       -13.6576
  67   2.0000      -0.494241       -13.4490
  68   2.0000      -0.480306       -13.0698
  69   2.0000      -0.463085       -12.6012
  70   2.0000      -0.456145       -12.4123
  71   2.0000      -0.453968       -12.3531
  72   2.0000      -0.353067        -9.6075
  73   2.0000      -0.344616        -9.3775
  74   2.0000      -0.327103        -8.9009
  75   2.0000      -0.317214        -8.6318
  76   2.0000      -0.314551        -8.5594
  77   0.0000       0.076717         2.0876
  78   0.0000       0.111432         3.0322
  79   0.0000       0.121795         3.3142
  80   0.0000       0.135799         3.6953
  81   0.0000       0.140517         3.8237

MULLIKEN ATOMIC CHARGES
-----------------------
   0 C :   -0.284176
   1 C :    0.035376
   2 O :   -0.348922
   3 C :    0.413838
   4 O :   -0.422367
   5 C :   -0.157542
   6 C :    0.158859
   7 C :   -0.280504
   8 N :   -0.129032
   9 C :    0.207525
  10 S :   -0.442408
  11 N :   -0.210965
  12 C :    0.040968
  13 C :    0.031482
  14 C :   -0.168817
  15 C :   -0.134492
  16 C :   -0.277172
  17 C :    0.314162
  18 O :   -0.358925
  19 C :   -0.250591
  20 H :    0.089638
  21 H :    0.092375
  22 H :    0.116598
  23 H :    0.103715
  24 H :    0.099979
  25 H :    0.129453
  26 H :    0.125209
  27 H :    0.101443
  28 H :    0.198890
  29 H :    0.199981
  30 H :    0.155521
  31 H :    0.159148
  32 H :    0.160041
  33 H :    0.128279
  34 H :    0.239903
  35 H :    0.163529
Sum of atomic charges:   -0.0000000

LOEWDIN ATOMIC CHARGES
----------------------
   0 C :    0.104345
   1 C :   -0.016213
   2 O :    0.303713
   3 C :   -0.414668
   4 O :    0.107555
   5 C :   -0.091544
   6 C :   -0.064449
   7 C :    0.125298
   8 N :    0.405450
   9 C :   -0.458589
  10 S :   -0.037650
  11 N :    0.396380
  12 C :   -0.048181
  13 C :   -0.040648
  14 C :    0.024517
  15 C :    0.040763
  16 C :   -0.001184
  17 C :   -0.192467
  18 O :    0.393145
  19 C :    0.029787
  20 H :   -0.030420
  21 H :   -0.028099
  22 H :   -0.023938
  23 H :   -0.026793
  24 H :   -0.026302
  25 H :   -0.009149
  26 H :   -0.009476
  27 H :   -0.021137
  28 H :   -0.058694
  29 H :   -0.063153
  30 H :   -0.008267
  31 H :   -0.024044
  32 H :   -0.021070
  33 H :   -0.036160
  34 H :   -0.154862
  35 H :   -0.023793

  Mayer bond orders larger than 0.100000
B(  0-C ,  1-C ) :   0.9688 B(  0-C , 20-H ) :   0.9774 B(  0-C , 21-H ) :   0.9764
B(  0-C , 22-H ) :   0.9742 B(  1-C ,  2-O ) :   0.9007 B(  1-C , 23-H ) :   0.9845
B(  1-C , 24-H ) :   0.9748 B(  2-O ,  3-C ) :   1.1217 B(  3-C ,  4-O ) :   1.9725
B(  3-C ,  5-C ) :   1.0519 B(  5-C ,  6-C ) :   1.6554 B(  5-C , 12-C ) :   0.9464
B(  6-C ,  7-C ) :   0.9546 B(  6-C ,  8-N ) :   1.1335 B(  7-C , 25-H ) :   0.9632
B(  7-C , 26-H ) :   0.9656 B(  7-C , 27-H ) :   0.9909 B(  8-N ,  9-C ) :   1.1858
B(  8-N , 28-H ) :   0.9469 B(  9-C , 10-S ) :   1.6082 B(  9-C , 11-N ) :   1.3059
B( 11-N , 12-C ) :   0.9756 B( 11-N , 29-H ) :   0.9484 B( 12-C , 13-C ) :   0.9734
B( 12-C , 30-H ) :   0.9970 B( 13-C , 14-C ) :   1.3759 B( 13-C , 19-C ) :   1.3664
B( 14-C , 15-C ) :   1.3972 B( 14-C , 31-H ) :   0.9638 B( 15-C , 16-C ) :   1.3588
B( 15-C , 32-H ) :   0.9712 B( 16-C , 17-C ) :   1.3332 B( 16-C , 33-H ) :   0.9860
B( 17-C , 18-O ) :   1.1036 B( 17-C , 19-C ) :   1.3673 B( 18-O , 34-H ) :   0.9807
B( 19-C , 35-H ) :   0.9601

MP2 TOTAL ENERGY:    -1274.337683654 Eh
FINAL SINGLE POINT ENERGY     -1274.337683653594

DIPOLE MOMENT
-------------
                                X             Y             Z
Electronic contribution:      9.06482       9.98141      12.44200
Nuclear contribution   :    -10.65681     -11.17521     -13.33396
                        -----------------------------------------
Total Dipole Moment    :     -1.59199      -1.19380      -0.89196
                        -----------------------------------------
Magnitude (a.u.)       :      2.18064
Magnitude (Debye)      :      5.54274

Rotational constants in cm-1:     0.009916     0.008941     0.005479
Rotational constants in MHz :   297.265796   268.045916   164.258194

                             ****ORCA TERMINATED NORMALLY****
TOTAL RUN TIME: 0 days 1 hours 34 minutes 37 seconds 942 msec
