                         Program Version 4.2.0 -  RELEASE  -
|  1> ! ri-mp2 cc-pvtz cc-pvtz/c TightSCF NoKeepInts
|  2>
|  3> %scf
|  4>   MaxCore 4096
|  5> end
|  6> *xyz  0  1
|  7>     C       13.9158641   16.6945615   15.2471203
|  8>     C       15.0798676   15.8277351   15.7590637
|  9>     O       16.2533355   16.0628132   14.9508453
| 10>     C       17.3853180   16.6266327   15.4776227
| 11>     O       18.4975485   16.2398991   15.1714979
| 12>     C       17.1630691   17.6749492   16.5131813
| 13>     C       16.7115533   18.8968858   16.1437864
| 14>     C       16.1947808   19.3091527   14.7803941
| 15>     N       16.8122366   19.9871476   17.0095183
| 16>     C       17.5586885   19.9886342   18.1588574
| 17>     S       17.7284301   21.3470487   19.0863256
| 18>     N       18.1832083   18.8094753   18.4857388
| 19>     C       17.9869914   17.5220909   17.7896593
| 20>     C       17.4994791   16.3791191   18.6661216
| 21>     C       18.0661215   15.0988897   18.5338304
| 22>     C       17.6019926   14.0289135   19.3168682
| 23>     C       16.5599195   14.2409082   20.2359252
| 24>     C       15.9885895   15.5144817   20.3638225
| 25>     O       14.9745449   15.7192418   21.2413751
| 26>     C       16.4511911   16.5776270   19.5815174
| 27>     H       14.0429119   17.7415654   15.5400799
| 28>     H       12.9677826   16.3444989   15.6736258
| 29>     H       13.8385849   16.6382015   14.1539338
| 30>     H       15.2579668   16.0086429   16.8274282
| 31>     H       14.7977346   14.7720012   15.6531710
| 32>     H       16.0473453   18.4618557   14.1015152
| 33>     H       16.9068923   19.9855986   14.2904738
| 34>     H       15.2342428   19.8325277   14.8602810
| 35>     H       16.4008271   20.8716199   16.7557445
| 36>     H       18.7276129   18.8373373   19.3389087
| 37>     H       19.0163913   17.3247621   17.4540793
| 38>     H       18.8645776   14.9320519   17.8131819
| 39>     H       18.0481967   13.0416848   19.2072774
| 40>     H       16.1981214   13.4167515   20.8420759
| 41>     H       14.8325968   14.8896008   21.7220429
| 42>     H       15.9924847   17.5550927   19.6911092
| 43> *
| 44>
| 45>                          ****END OF INPUT****

CARTESIAN COORDINATES (ANGSTROEM)
---------------------------------
  C     13.915864   16.694561   15.247120
  C     15.079868   15.827735   15.759064
  O     16.253335   16.062813   14.950845
  C     17.385318   16.626633   15.477623
  O     18.497549   16.239899   15.171498
  C     17.163069   17.674949   16.513181
  C     16.711553   18.896886   16.143786
  C     16.194781   19.309153   14.780394
  N     16.812237   19.987148   17.009518
  C     17.558688   19.988634   18.158857
  S     17.728430   21.347049   19.086326
  N     18.183208   18.809475   18.485739
  C     17.986991   17.522091   17.789659
  C     17.499479   16.379119   18.666122
  C     18.066122   15.098890   18.533830
  C     17.601993   14.028913   19.316868
  C     16.559919   14.240908   20.235925
  C     15.988589   15.514482   20.363823
  O     14.974545   15.719242   21.241375
  C     16.451191   16.577627   19.581517
  H     14.042912   17.741565   15.540080
  H     12.967783   16.344499   15.673626
  H     13.838585   16.638202   14.153934
  H     15.257967   16.008643   16.827428
  H     14.797735   14.772001   15.653171
  H     16.047345   18.461856   14.101515
  H     16.906892   19.985599   14.290474
  H     15.234243   19.832528   14.860281
  H     16.400827   20.871620   16.755744
  H     18.727613   18.837337   19.338909
  H     19.016391   17.324762   17.454079
  H     18.864578   14.932052   17.813182
  H     18.048197   13.041685   19.207277
  H     16.198121   13.416752   20.842076
  H     14.832597   14.889601   21.722043
  H     15.992485   17.555093   19.691109

 Total Charge           Charge          ....    0
 Multiplicity           Mult            ....    1
 Number of Electrons    NEL             ....  154
 Basis Dimension        Dim             ....  828

ORBITAL ENERGIES
----------------

  NO   OCC          E(Eh)            E(eV)
   0   2.0000     -91.889560     -2500.4421
   1   2.0000     -20.601930      -560.6070
   2   2.0000     -20.599579      -560.5431
   3   2.0000     -20.553740      -559.2957
   4   2.0000     -15.626575      -425.2207
   5   2.0000     -15.609979      -424.7691
   6   2.0000     -11.398672      -310.1736
   7   2.0000     -11.385678      -309.8200
   8   2.0000     -11.331748      -308.3525
   9   2.0000     -11.319844      -308.0286
  10   2.0000     -11.311447      -307.8001
  11   2.0000     -11.305317      -307.6333
  12   2.0000     -11.267330      -306.5996
  13   2.0000     -11.263370      -306.4919
  14   2.0000     -11.262653      -306.4724
  15   2.0000     -11.260344      -306.4095
  16   2.0000     -11.248676      -306.0920
  17   2.0000     -11.244537      -305.9794
  18   2.0000     -11.242583      -305.9262
  19   2.0000     -11.236475      -305.7600
  20   2.0000      -8.894666      -242.0362
  21   2.0000      -6.576248      -178.9488
  22   2.0000      -6.574236      -178.8940
  23   2.0000      -6.573654      -178.8782
  24   2.0000      -1.449258       -39.4363
  25   2.0000      -1.421645       -38.6849
  26   2.0000      -1.363053       -37.0905
  27   2.0000      -1.340288       -36.4711
  28   2.0000      -1.239274       -33.7224
  29   2.0000      -1.163840       -31.6697
  30   2.0000      -1.126726       -30.6598
  31   2.0000      -1.049810       -28.5668
  32   2.0000      -1.040552       -28.3148
  33   2.0000      -1.021490       -27.7961
  34   2.0000      -1.005847       -27.3705
  35   2.0000      -0.990018       -26.9398
  36   2.0000      -0.927077       -25.2271
  37   2.0000      -0.889027       -24.1916
  38   2.0000      -0.853093       -23.2138
  39   2.0000      -0.843086       -22.9415
  40   2.0000      -0.839558       -22.8455
  41   2.0000      -0.836712       -22.7681
  42   2.0000      -0.758728       -20.6460
  43   2.0000      -0.737775       -20.0759
  44   2.0000      -0.732020       -19.9193
  45   2.0000      -0.699443       -19.0328
  46   2.0000      -0.691035       -18.8040
  47   2.0000      -0.683222       -18.5914
  48   2.0000      -0.675331       -18.3767
  49   2.0000      -0.665265       -18.1028
  50   2.0000      -0.652890       -17.7660
  51   2.0000      -0.639023       -17.3887
  52   2.0000      -0.632478       -17.2106
  53   2.0000      -0.623156       -16.9569
  54   2.0000      -0.612231       -16.6597
  55   2.0000      -0.607261       -16.5244
  56   2.0000      -0.605142       -16.4667
  57   2.0000      -0.583857       -15.8875
  58   2.0000      -0.578571       -15.7437
  59   2.0000      -0.576536       -15.6883
  60   2.0000      -0.564569       -15.3627
  61   2.0000      -0.558175       -15.1887
  62   2.0000      -0.542194       -14.7538
  63   2.0000      -0.534633       -14.5481
  64   2.0000      -0.524425       -14.2703
  65   2.0000      -0.515776       -14.0350
  66   2.0000      -0.503032       -13.6882
  67   2.0000      -0.499085       -13.5808
  68   2.0000      -0.490328       -13.3425
  69   2.0000      -0.469355       -12.7718
  70   2.0000      -0.457658       -12.4535
  71   2.0000      -0.452560       -12.3148
  72   2.0000      -0.356514        -9.7012
  73   2.0000      -0.353987        -9.6325
  74   2.0000      -0.329336        -8.9617
  75   2.0000      -0.327300        -8.9063
  76   2.0000      -0.320011        -8.7080
  77   0.0000       0.088048         2.3959
  78   0.0000       0.101646         2.7659
  79   0.0000       0.118859         3.2343
  80   0.0000       0.125318         3.4101
  81   0.0000       0.128459         3.4956

MULLIKEN ATOMIC CHARGES
-----------------------
   0 C :   -0.303755
   1 C :    0.025567
   2 O :   -0.330070
   3 C :    0.425725
   4 O :   -0.374839
   5 C :   -0.216458
   6 C :    0.142116
   7 C :   -0.342732
   8 N :   -0.136657
   9 C :    0.208890
  10 S :   -0.443082
  11 N :   -0.223987
  12 C :    0.069528
  13 C :    0.006802
  14 C :   -0.218154
  15 C :   -0.130206
  16 C :   -0.274910
  17 C :    0.315415
  18 O :   -0.354931
  19 C :   -0.245547
  20 H :    0.091491
  21 H :    0.113132
  22 H :    0.110182
  23 H :    0.106660
  24 H :    0.122049
  25 H :    0.132632
  26 H :    0.150090
  27 H :    0.116137
  28 H :    0.196925
  29 H :    0.202226
  30 H :    0.167046
  31 H :    0.176445
  32 H :    0.165359
  33 H :    0.133229
  34 H :    0.241610
  35 H :    0.176072
Sum of atomic charges:   -0.0000000

LOEWDIN ATOMIC CHARGES
----------------------
   0 C :    0.105034
   1 C :   -0.015915
   2 O :    0.300092
   3 C :   -0.416737
   4 O :    0.124566
   5 C :   -0.086322
   6 C :   -0.092350
   7 C :    0.123424
   8 N :    0.403452
   9 C :   -0.455537
  10 S :   -0.038354
  11 N :    0.395765
  12 C :   -0.050590
  13 C :   -0.045363
  14 C :    0.017980
  15 C :    0.045558
  16 C :    0.000544
  17 C :   -0.191348
  18 O :    0.395952
  19 C :    0.026942
  20 H :   -0.033004
  21 H :   -0.022568
  22 H :   -0.024183
  23 H :   -0.031582
  24 H :   -0.023569
  25 H :   -0.011092
  26 H :   -0.008471
  27 H :   -0.018437
  28 H :   -0.056738
  29 H :   -0.064087
  30 H :   -0.003955
  31 H :   -0.021428
  32 H :   -0.018054
  33 H :   -0.034328
  34 H :   -0.152672
  35 H :   -0.022625

  Mayer bond orders larger than 0.100000
B(  0-C ,  1-C ) :   0.9679 B(  0-C , 20-H ) :   0.9762 B(  0-C , 21-H ) :   0.9785
B(  0-C , 22-H ) :   0.9741 B(  1-C ,  2-O ) :   0.9018 B(  1-C , 23-H ) :   0.9583
B(  1-C , 24-H ) :   0.9843 B(  2-O ,  3-C ) :   1.1594 B(  3-C ,  4-O ) :   2.1104
B(  3-C ,  5-C ) :   0.9103 B(  5-C ,  6-C ) :   1.7186 B(  5-C , 12-C ) :   0.9402
B(  6-C ,  7-C ) :   0.9481 B(  6-C ,  8-N ) :   1.1064 B(  7-C , 25-H ) :   0.9750
B(  7-C , 26-H ) :   0.9645 B(  7-C , 27-H ) :   0.9701 B(  8-N ,  9-C ) :   1.1992
B(  8-N , 28-H ) :   0.9503 B(  9-C , 10-S ) :   1.6102 B(  9-C , 11-N ) :   1.2895
B( 11-N , 12-C ) :   0.9847 B( 11-N , 29-H ) :   0.9474 B( 12-C , 13-C ) :   0.9658
B( 12-C , 30-H ) :   0.9913 B( 13-C , 14-C ) :   1.3854 B( 13-C , 19-C ) :   1.3497
B( 14-C , 15-C ) :   1.3958 B( 14-C , 31-H ) :   0.9595 B( 15-C , 16-C ) :   1.3628
B( 15-C , 32-H ) :   0.9695 B( 16-C , 17-C ) :   1.3308 B( 16-C , 33-H ) :   0.9841
B( 17-C , 18-O ) :   1.1110 B( 17-C , 19-C ) :   1.3622 B( 18-O , 34-H ) :   0.9790
B( 19-C , 35-H ) :   0.9564

MP2 TOTAL ENERGY:    -1274.329790256 Eh
FINAL SINGLE POINT ENERGY     -1274.329790256232

DIPOLE MOMENT
-------------
                                X             Y             Z
Electronic contribution:     10.16303       5.82236       8.25180
Nuclear contribution   :    -11.67425      -7.27404      -8.45069
                        -----------------------------------------
Total Dipole Moment    :     -1.51122      -1.45168      -0.19889
                        -----------------------------------------
Magnitude (a.u.)       :      2.10493
Magnitude (Debye)      :      5.35030

Rotational constants in cm-1:     0.011135     0.009073     0.006453
Rotational constants in MHz :   333.819566   272.011664   193.455413

                             ****ORCA TERMINATED NORMALLY****
TOTAL RUN TIME: 0 days 1 hours 47 minutes 53 seconds 536 msec
