                         Program Version 4.2.0 -  RELEASE  -
|  1> ! ri-mp2 cc-pvtz cc-pvtz/c TightSCF NoKeepInts
|  2>
|  3> %scf
|  4>   MaxCore 4096
|  5> end
|  6> *xyz  0  1
|  7>     C       14.5607319   16.2010251   16.2367705
|  8>     C       15.4837124   15.2080363   15.5003364
|  9>     O       16.8986677   15.5228945   15.5194690
| 10>     C       17.3935216   16.7709471   15.2688923
| 11>     O       17.9114764   17.0256296   14.1971777
| 12>     C       17.1580180   17.7915574   16.3404624
| 13>     C       16.9603910   19.0830365   15.9805118
| 14>     C       16.5334728   19.5771674   14.6144674
| 15>     N       17.1416989   20.1256496   16.8904342
| 16>     C       17.7717648   19.9860365   18.0978458
| 17>     S       18.0763629   21.2794256   19.0822584
| 18>     N       18.1634111   18.7150811   18.4386656
| 19>     C       17.8051919   17.4849961   17.7034143
| 20>     C       17.1351512   16.4305346   18.5760577
| 21>     C       17.5300687   15.0822750   18.4966423
| 22>     C       16.9249218   14.1099318   19.3101541
| 23>     C       15.9235196   14.4897912   20.2197948
| 24>     C       15.5374307   15.8337773   20.3127670
| 25>     O       14.5708107   16.2037400   21.1896910
| 26>     C       16.1405345   16.7995117   19.5005405
| 27>     H       14.8034351   16.2635631   17.2989872
| 28>     H       13.5212564   15.8584260   16.1655356
| 29>     H       14.6009640   17.2020093   15.7928551
| 30>     H       15.3426554   14.2082356   15.9311471
| 31>     H       15.1572065   15.1549648   14.4532480
| 32>     H       17.4105604   19.7188828   13.9693246
| 33>     H       15.9891891   20.5277431   14.6635705
| 34>     H       15.8782446   18.8521688   14.1162219
| 35>     H       16.9007265   21.0685827   16.6293719
| 36>     H       18.6195478   18.6408981   19.3395610
| 37>     H       18.8181669   17.1396295   17.4503646
| 38>     H       18.3036390   14.7849249   17.7926942
| 39>     H       17.2340752   13.0686904   19.2348417
| 40>     H       15.4537810   13.7421138   20.8505244
| 41>     H       14.3077594   15.4137734   21.6856256
| 42>     H       15.8249340   17.8343494   19.5877733
| 43> *
| 44>
| 45>                          ****END OF INPUT****

CARTESIAN COORDINATES (ANGSTROEM)
---------------------------------
  C     14.560732   16.201025   16.236770
  C     15.483712   15.208036   15.500336
  O     16.898668   15.522894   15.519469
  C     17.393522   16.770947   15.268892
  O     17.911476   17.025630   14.197178
  C     17.158018   17.791557   16.340462
  C     16.960391   19.083036   15.980512
  C     16.533473   19.577167   14.614467
  N     17.141699   20.125650   16.890434
  C     17.771765   19.986037   18.097846
  S     18.076363   21.279426   19.082258
  N     18.163411   18.715081   18.438666
  C     17.805192   17.484996   17.703414
  C     17.135151   16.430535   18.576058
  C     17.530069   15.082275   18.496642
  C     16.924922   14.109932   19.310154
  C     15.923520   14.489791   20.219795
  C     15.537431   15.833777   20.312767
  O     14.570811   16.203740   21.189691
  C     16.140535   16.799512   19.500540
  H     14.803435   16.263563   17.298987
  H     13.521256   15.858426   16.165536
  H     14.600964   17.202009   15.792855
  H     15.342655   14.208236   15.931147
  H     15.157206   15.154965   14.453248
  H     17.410560   19.718883   13.969325
  H     15.989189   20.527743   14.663571
  H     15.878245   18.852169   14.116222
  H     16.900727   21.068583   16.629372
  H     18.619548   18.640898   19.339561
  H     18.818167   17.139629   17.450365
  H     18.303639   14.784925   17.792694
  H     17.234075   13.068690   19.234842
  H     15.453781   13.742114   20.850524
  H     14.307759   15.413773   21.685626
  H     15.824934   17.834349   19.587773

 Total Charge           Charge          ....    0
 Multiplicity           Mult            ....    1
 Number of Electrons    NEL             ....  154
 Basis Dimension        Dim             ....  828

ORBITAL ENERGIES
----------------

  NO   OCC          E(Eh)            E(eV)
   0   2.0000     -91.890393     -2500.4647
   1   2.0000     -20.600403      -560.5655
   2   2.0000     -20.584381      -560.1295
   3   2.0000     -20.556068      -559.3591
   4   2.0000     -15.627828      -425.2548
   5   2.0000     -15.609970      -424.7689
   6   2.0000     -11.395286      -310.0815
   7   2.0000     -11.385267      -309.8089
   8   2.0000     -11.331172      -308.3369
   9   2.0000     -11.317967      -307.9775
  10   2.0000     -11.314998      -307.8968
  11   2.0000     -11.306519      -307.6660
  12   2.0000     -11.266527      -306.5778
  13   2.0000     -11.259249      -306.3797
  14   2.0000     -11.256965      -306.3176
  15   2.0000     -11.256251      -306.2982
  16   2.0000     -11.248101      -306.0764
  17   2.0000     -11.243399      -305.9484
  18   2.0000     -11.242450      -305.9226
  19   2.0000     -11.229612      -305.5733
  20   2.0000      -8.895454      -242.0576
  21   2.0000      -6.577025      -178.9700
  22   2.0000      -6.575028      -178.9156
  23   2.0000      -6.574435      -178.8995
  24   2.0000      -1.445557       -39.3356
  25   2.0000      -1.420236       -38.6466
  26   2.0000      -1.356447       -36.9108
  27   2.0000      -1.340574       -36.4789
  28   2.0000      -1.239802       -33.7367
  29   2.0000      -1.161642       -31.6099
  30   2.0000      -1.123286       -30.5662
  31   2.0000      -1.047086       -28.4926
  32   2.0000      -1.035781       -28.1850
  33   2.0000      -1.019965       -27.7547
  34   2.0000      -1.002897       -27.2902
  35   2.0000      -0.988878       -26.9087
  36   2.0000      -0.925212       -25.1763
  37   2.0000      -0.898317       -24.4444
  38   2.0000      -0.849207       -23.1081
  39   2.0000      -0.842395       -22.9227
  40   2.0000      -0.838149       -22.8072
  41   2.0000      -0.822833       -22.3904
  42   2.0000      -0.749568       -20.3968
  43   2.0000      -0.736879       -20.0515
  44   2.0000      -0.726094       -19.7580
  45   2.0000      -0.698407       -19.0046
  46   2.0000      -0.689701       -18.7677
  47   2.0000      -0.674915       -18.3654
  48   2.0000      -0.671366       -18.2688
  49   2.0000      -0.668867       -18.2008
  50   2.0000      -0.651817       -17.7368
  51   2.0000      -0.648423       -17.6445
  52   2.0000      -0.637295       -17.3417
  53   2.0000      -0.614484       -16.7209
  54   2.0000      -0.609152       -16.5759
  55   2.0000      -0.603121       -16.4118
  56   2.0000      -0.601825       -16.3765
  57   2.0000      -0.581057       -15.8114
  58   2.0000      -0.576305       -15.6820
  59   2.0000      -0.568475       -15.4690
  60   2.0000      -0.565122       -15.3778
  61   2.0000      -0.555572       -15.1179
  62   2.0000      -0.541777       -14.7425
  63   2.0000      -0.528468       -14.3803
  64   2.0000      -0.522895       -14.2287
  65   2.0000      -0.514291       -13.9946
  66   2.0000      -0.503136       -13.6910
  67   2.0000      -0.496972       -13.5233
  68   2.0000      -0.482207       -13.1215
  69   2.0000      -0.465545       -12.6681
  70   2.0000      -0.454456       -12.3664
  71   2.0000      -0.452244       -12.3062
  72   2.0000      -0.356337        -9.6964
  73   2.0000      -0.348282        -9.4772
  74   2.0000      -0.329506        -8.9663
  75   2.0000      -0.325337        -8.8529
  76   2.0000      -0.320017        -8.7081
  77   0.0000       0.078252         2.1293
  78   0.0000       0.101464         2.7610
  79   0.0000       0.120437         3.2773
  80   0.0000       0.127055         3.4573
  81   0.0000       0.129360         3.5201

MULLIKEN ATOMIC CHARGES
-----------------------
   0 C :   -0.324618
   1 C :    0.031973
   2 O :   -0.369297
   3 C :    0.443964
   4 O :   -0.365880
   5 C :   -0.232010
   6 C :    0.162702
   7 C :   -0.284193
   8 N :   -0.134244
   9 C :    0.211914
  10 S :   -0.439302
  11 N :   -0.228343
  12 C :    0.043261
  13 C :    0.016219
  14 C :   -0.193146
  15 C :   -0.144414
  16 C :   -0.270747
  17 C :    0.313797
  18 O :   -0.356686
  19 C :   -0.238645
  20 H :    0.124738
  21 H :    0.118984
  22 H :    0.097371
  23 H :    0.114187
  24 H :    0.110045
  25 H :    0.146354
  26 H :    0.098826
  27 H :    0.114700
  28 H :    0.198604
  29 H :    0.204440
  30 H :    0.155449
  31 H :    0.157319
  32 H :    0.165517
  33 H :    0.133687
  34 H :    0.240904
  35 H :    0.176572
Sum of atomic charges:   -0.0000000

LOEWDIN ATOMIC CHARGES
----------------------
   0 C :    0.104923
   1 C :   -0.015978
   2 O :    0.287488
   3 C :   -0.423063
   4 O :    0.134802
   5 C :   -0.093557
   6 C :   -0.073454
   7 C :    0.127936
   8 N :    0.406671
   9 C :   -0.456593
  10 S :   -0.034959
  11 N :    0.395965
  12 C :   -0.052064
  13 C :   -0.042957
  14 C :    0.022156
  15 C :    0.041156
  16 C :   -0.000661
  17 C :   -0.193322
  18 O :    0.396200
  19 C :    0.029457
  20 H :   -0.029709
  21 H :   -0.022084
  22 H :   -0.034410
  23 H :   -0.020424
  24 H :   -0.029099
  25 H :   -0.003873
  26 H :   -0.021163
  27 H :   -0.011507
  28 H :   -0.057298
  29 H :   -0.063947
  30 H :   -0.010766
  31 H :   -0.026232
  32 H :   -0.019343
  33 H :   -0.034490
  34 H :   -0.153175
  35 H :   -0.022624

  Mayer bond orders larger than 0.100000
B(  0-C ,  1-C ) :   0.9631 B(  0-C , 20-H ) :   0.9667 B(  0-C , 21-H ) :   0.9770
B(  0-C , 22-H ) :   0.9704 B(  1-C ,  2-O ) :   0.8991 B(  1-C , 23-H ) :   0.9806
B(  1-C , 24-H ) :   0.9843 B(  2-O ,  3-C ) :   1.1131 B(  3-C ,  4-O ) :   2.1081
B(  3-C ,  5-C ) :   0.9642 B(  5-C ,  6-C ) :   1.6665 B(  5-C , 12-C ) :   0.9649
B(  6-C ,  7-C ) :   0.9520 B(  6-C ,  8-N ) :   1.1318 B(  7-C , 25-H ) :   0.9566
B(  7-C , 26-H ) :   0.9836 B(  7-C , 27-H ) :   0.9755 B(  8-N ,  9-C ) :   1.1963
B(  8-N , 28-H ) :   0.9491 B(  9-C , 10-S ) :   1.6118 B(  9-C , 11-N ) :   1.2905
B( 11-N , 12-C ) :   0.9724 B( 11-N , 29-H ) :   0.9453 B( 12-C , 13-C ) :   0.9568
B( 12-C , 30-H ) :   1.0032 B( 13-C , 14-C ) :   1.3761 B( 13-C , 19-C ) :   1.3449
B( 14-C , 15-C ) :   1.4017 B( 14-C , 31-H ) :   0.9678 B( 15-C , 16-C ) :   1.3553
B( 15-C , 32-H ) :   0.9692 B( 16-C , 17-C ) :   1.3343 B( 16-C , 33-H ) :   0.9838
B( 17-C , 18-O ) :   1.1073 B( 17-C , 19-C ) :   1.3635 B( 18-O , 34-H ) :   0.9795
B( 19-C , 35-H ) :   0.9589

MP2 TOTAL ENERGY:    -1274.312918169 Eh
FINAL SINGLE POINT ENERGY     -1274.312918168991

DIPOLE MOMENT
-------------
                                X             Y             Z
Electronic contribution:      9.06625       7.43612       6.66628
Nuclear contribution   :    -10.51575      -9.11273      -6.78383
                        -----------------------------------------
Total Dipole Moment    :     -1.44950      -1.67661      -0.11756
                        -----------------------------------------
Magnitude (a.u.)       :      2.21944
Magnitude (Debye)      :      5.64136

Rotational constants in cm-1:     0.012024     0.009283     0.006199
Rotational constants in MHz :   360.463541   278.300006   185.831565

                             ****ORCA TERMINATED NORMALLY****
TOTAL RUN TIME: 0 days 2 hours 3 minutes 36 seconds 838 msec
