                         Program Version 4.2.0 -  RELEASE  -
|  1> ! ri-mp2 cc-pvtz cc-pvtz/c TightSCF NoKeepInts
|  2>
|  3> %scf
|  4>   MaxCore 4096
|  5> end
|  6> *xyz  0  1
|  7>     C       14.6579466   15.1802974   16.0482688
|  8>     C       14.8311033   16.4151109   15.1399495
|  9>     O       16.1780297   16.4562353   14.6237101
| 10>     C       17.2310111   16.5267607   15.4909574
| 11>     O       18.0846839   15.6593678   15.5270506
| 12>     C       17.2149609   17.6931657   16.4312066
| 13>     C       16.9567907   18.9518851   15.9945058
| 14>     C       16.4760952   19.3670142   14.6175681
| 15>     N       17.2152752   20.0558178   16.8101471
| 16>     C       17.9434572   20.0044347   17.9690193
| 17>     S       18.3061019   21.3681221   18.8311303
| 18>     N       18.3758189   18.7631483   18.3650949
| 19>     C       17.9881957   17.4854194   17.7353905
| 20>     C       17.3001285   16.5097695   18.6787134
| 21>     C       17.7275231   15.1721815   18.7550320
| 22>     C       17.0776529   14.2623015   19.6054878
| 23>     C       15.9902575   14.6936840   20.3844768
| 24>     C       15.5596748   16.0252737   20.3067027
| 25>     O       14.5035396   16.4420085   21.0493822
| 26>     C       16.2077128   16.9286121   19.4581602
| 27>     H       15.2537843   15.2687003   16.9648668
| 28>     H       14.9674956   14.2676059   15.5232069
| 29>     H       13.6076728   15.0652458   16.3421881
| 30>     H       14.1269063   16.3473385   14.3005848
| 31>     H       14.5947166   17.3240007   15.7077692
| 32>     H       16.9774357   18.7891135   13.8305111
| 33>     H       16.6864634   20.4227960   14.4054020
| 34>     H       15.3955800   19.2183886   14.5112580
| 35>     H       16.9325595   20.9772974   16.5160084
| 36>     H       18.9022992   18.7512890   19.2297623
| 37>     H       18.9764189   17.1017196   17.4409275
| 38>     H       18.5578083   14.8337442   18.1385412
| 39>     H       17.4145880   13.2281030   19.6530294
| 40>     H       15.4843869   13.9933057   21.0408470
| 41>     H       14.2242949   15.6959601   21.6014343
| 42>     H       15.8586300   17.9547814   19.4097088
| 43> *
| 44>
| 45>                          ****END OF INPUT****

CARTESIAN COORDINATES (ANGSTROEM)
---------------------------------
  C     14.657947   15.180297   16.048269
  C     14.831103   16.415111   15.139950
  O     16.178030   16.456235   14.623710
  C     17.231011   16.526761   15.490957
  O     18.084684   15.659368   15.527051
  C     17.214961   17.693166   16.431207
  C     16.956791   18.951885   15.994506
  C     16.476095   19.367014   14.617568
  N     17.215275   20.055818   16.810147
  C     17.943457   20.004435   17.969019
  S     18.306102   21.368122   18.831130
  N     18.375819   18.763148   18.365095
  C     17.988196   17.485419   17.735391
  C     17.300128   16.509770   18.678713
  C     17.727523   15.172182   18.755032
  C     17.077653   14.262301   19.605488
  C     15.990257   14.693684   20.384477
  C     15.559675   16.025274   20.306703
  O     14.503540   16.442009   21.049382
  C     16.207713   16.928612   19.458160
  H     15.253784   15.268700   16.964867
  H     14.967496   14.267606   15.523207
  H     13.607673   15.065246   16.342188
  H     14.126906   16.347338   14.300585
  H     14.594717   17.324001   15.707769
  H     16.977436   18.789113   13.830511
  H     16.686463   20.422796   14.405402
  H     15.395580   19.218389   14.511258
  H     16.932559   20.977297   16.516008
  H     18.902299   18.751289   19.229762
  H     18.976419   17.101720   17.440928
  H     18.557808   14.833744   18.138541
  H     17.414588   13.228103   19.653029
  H     15.484387   13.993306   21.040847
  H     14.224295   15.695960   21.601434
  H     15.858630   17.954781   19.409709

 Total Charge           Charge          ....    0
 Multiplicity           Mult            ....    1
 Number of Electrons    NEL             ....  154
 Basis Dimension        Dim             ....  828

ORBITAL ENERGIES
----------------

  NO   OCC          E(Eh)            E(eV)
   0   2.0000     -91.890417     -2500.4654
   1   2.0000     -20.598083      -560.5023
   2   2.0000     -20.593453      -560.3763
   3   2.0000     -20.552604      -559.2648
   4   2.0000     -15.630300      -425.3221
   5   2.0000     -15.608822      -424.7377
   6   2.0000     -11.395886      -310.0978
   7   2.0000     -11.385658      -309.8195
   8   2.0000     -11.338529      -308.5371
   9   2.0000     -11.315028      -307.8976
  10   2.0000     -11.307641      -307.6966
  11   2.0000     -11.307594      -307.6953
  12   2.0000     -11.264316      -306.5176
  13   2.0000     -11.261812      -306.4495
  14   2.0000     -11.261753      -306.4479
  15   2.0000     -11.254949      -306.2627
  16   2.0000     -11.244731      -305.9847
  17   2.0000     -11.240690      -305.8747
  18   2.0000     -11.237167      -305.7789
  19   2.0000     -11.228518      -305.5435
  20   2.0000      -8.895504      -242.0590
  21   2.0000      -6.577079      -178.9714
  22   2.0000      -6.575074      -178.9169
  23   2.0000      -6.574485      -178.9008
  24   2.0000      -1.449477       -39.4423
  25   2.0000      -1.417849       -38.5816
  26   2.0000      -1.360813       -37.0296
  27   2.0000      -1.342019       -36.5182
  28   2.0000      -1.239548       -33.7298
  29   2.0000      -1.159289       -31.5458
  30   2.0000      -1.124625       -30.6026
  31   2.0000      -1.046770       -28.4841
  32   2.0000      -1.034161       -28.1409
  33   2.0000      -1.016907       -27.6715
  34   2.0000      -1.004409       -27.3314
  35   2.0000      -0.988839       -26.9077
  36   2.0000      -0.925525       -25.1848
  37   2.0000      -0.892555       -24.2877
  38   2.0000      -0.853291       -23.2192
  39   2.0000      -0.841190       -22.8899
  40   2.0000      -0.834849       -22.7174
  41   2.0000      -0.830963       -22.6117
  42   2.0000      -0.746388       -20.3102
  43   2.0000      -0.735098       -20.0030
  44   2.0000      -0.731090       -19.8940
  45   2.0000      -0.695624       -18.9289
  46   2.0000      -0.686493       -18.6804
  47   2.0000      -0.682258       -18.5652
  48   2.0000      -0.677666       -18.4402
  49   2.0000      -0.663501       -18.0548
  50   2.0000      -0.654881       -17.8202
  51   2.0000      -0.646540       -17.5932
  52   2.0000      -0.637327       -17.3426
  53   2.0000      -0.619165       -16.8483
  54   2.0000      -0.608464       -16.5571
  55   2.0000      -0.604392       -16.4463
  56   2.0000      -0.601341       -16.3633
  57   2.0000      -0.581690       -15.8286
  58   2.0000      -0.575985       -15.6733
  59   2.0000      -0.566732       -15.4216
  60   2.0000      -0.559291       -15.2191
  61   2.0000      -0.549690       -14.9578
  62   2.0000      -0.545157       -14.8345
  63   2.0000      -0.532265       -14.4837
  64   2.0000      -0.520348       -14.1594
  65   2.0000      -0.512200       -13.9377
  66   2.0000      -0.500171       -13.6104
  67   2.0000      -0.494922       -13.4675
  68   2.0000      -0.486949       -13.2506
  69   2.0000      -0.468808       -12.7569
  70   2.0000      -0.460549       -12.5322
  71   2.0000      -0.449340       -12.2272
  72   2.0000      -0.356557        -9.7024
  73   2.0000      -0.350809        -9.5460
  74   2.0000      -0.329646        -8.9701
  75   2.0000      -0.322348        -8.7715
  76   2.0000      -0.320011        -8.7079
  77   0.0000       0.075658         2.0587
  78   0.0000       0.104147         2.8340
  79   0.0000       0.118655         3.2288
  80   0.0000       0.130740         3.5576
  81   0.0000       0.135147         3.6775

MULLIKEN ATOMIC CHARGES
-----------------------
   0 C :   -0.288151
   1 C :    0.017472
   2 O :   -0.356115
   3 C :    0.447749
   4 O :   -0.381572
   5 C :   -0.244979
   6 C :    0.162578
   7 C :   -0.300743
   8 N :   -0.131576
   9 C :    0.206554
  10 S :   -0.440213
  11 N :   -0.215687
  12 C :    0.064174
  13 C :   -0.017215
  14 C :   -0.181063
  15 C :   -0.133459
  16 C :   -0.272256
  17 C :    0.303694
  18 O :   -0.357762
  19 C :   -0.222111
  20 H :    0.114097
  21 H :    0.111763
  22 H :    0.097404
  23 H :    0.120575
  24 H :    0.086607
  25 H :    0.139238
  26 H :    0.113436
  27 H :    0.120745
  28 H :    0.198071
  29 H :    0.200538
  30 H :    0.161673
  31 H :    0.171060
  32 H :    0.162891
  33 H :    0.132004
  34 H :    0.241042
  35 H :    0.169540
Sum of atomic charges:   -0.0000000

LOEWDIN ATOMIC CHARGES
----------------------
   0 C :    0.110323
   1 C :   -0.025347
   2 O :    0.296338
   3 C :   -0.421348
   4 O :    0.126018
   5 C :   -0.094261
   6 C :   -0.074791
   7 C :    0.128224
   8 N :    0.404554
   9 C :   -0.457799
  10 S :   -0.036176
  11 N :    0.396109
  12 C :   -0.049325
  13 C :   -0.045384
  14 C :    0.022458
  15 C :    0.043054
  16 C :   -0.000241
  17 C :   -0.192606
  18 O :    0.394535
  19 C :    0.027379
  20 H :   -0.025428
  21 H :   -0.021155
  22 H :   -0.025365
  23 H :   -0.022116
  24 H :   -0.040116
  25 H :   -0.005772
  26 H :   -0.016793
  27 H :   -0.014861
  28 H :   -0.058030
  29 H :   -0.063396
  30 H :   -0.005787
  31 H :   -0.021793
  32 H :   -0.019167
  33 H :   -0.034907
  34 H :   -0.153511
  35 H :   -0.023517

  Mayer bond orders larger than 0.100000
B(  0-C ,  1-C ) :   0.9778 B(  0-C , 20-H ) :   0.9656 B(  0-C , 21-H ) :   0.9758
B(  0-C , 22-H ) :   0.9766 B(  1-C ,  2-O ) :   0.8991 B(  1-C , 23-H ) :   0.9782
B(  1-C , 24-H ) :   0.9685 B(  2-O ,  3-C ) :   1.1104 B(  3-C ,  4-O ) :   2.0778
B(  3-C ,  5-C ) :   0.9623 B(  5-C ,  6-C ) :   1.6941 B(  5-C , 12-C ) :   0.9413
B(  6-C ,  7-C ) :   0.9408 B(  6-C ,  8-N ) :   1.1306 B(  7-C , 25-H ) :   0.9665
B(  7-C , 26-H ) :   0.9870 B(  7-C , 27-H ) :   0.9666 B(  8-N ,  9-C ) :   1.1879
B(  8-N , 28-H ) :   0.9483 B(  9-C , 10-S ) :   1.6123 B(  9-C , 11-N ) :   1.2974
B( 11-N , 12-C ) :   0.9859 B( 11-N , 29-H ) :   0.9486 B( 12-C , 13-C ) :   0.9672
B( 12-C , 30-H ) :   0.9932 B( 13-C , 14-C ) :   1.3891 B( 13-C , 19-C ) :   1.3625
B( 14-C , 15-C ) :   1.3934 B( 14-C , 31-H ) :   0.9595 B( 15-C , 16-C ) :   1.3605
B( 15-C , 32-H ) :   0.9709 B( 16-C , 17-C ) :   1.3324 B( 16-C , 33-H ) :   0.9845
B( 17-C , 18-O ) :   1.1084 B( 17-C , 19-C ) :   1.3667 B( 18-O , 34-H ) :   0.9796
B( 19-C , 35-H ) :   0.9578

MP2 TOTAL ENERGY:    -1274.331489981 Eh
FINAL SINGLE POINT ENERGY     -1274.331489980944

DIPOLE MOMENT
-------------
                                X             Y             Z
Electronic contribution:      9.36770       8.50489       6.62548
Nuclear contribution   :    -10.97860      -9.52794      -7.07839
                        -----------------------------------------
Total Dipole Moment    :     -1.61089      -1.02305      -0.45292
                        -----------------------------------------
Magnitude (a.u.)       :      1.96131
Magnitude (Debye)      :      4.98526

Rotational constants in cm-1:     0.011563     0.009213     0.006351
Rotational constants in MHz :   346.660283   276.205528   190.397645

                             ****ORCA TERMINATED NORMALLY****
TOTAL RUN TIME: 0 days 1 hours 57 minutes 27 seconds 794 msec
