                         Program Version 4.2.0 -  RELEASE  -
|  1> ! ri-mp2 cc-pvtz cc-pvtz/c TightSCF NoKeepInts
|  2>
|  3> %scf
|  4>   MaxCore 4096
|  5> end
|  6> *xyz  0  1
|  7>     C       14.5923405   15.3376361   16.1558459
|  8>     C       14.9143876   16.4327230   15.1207311
|  9>     O       16.2746655   16.2600389   14.6693038
| 10>     C       17.3507372   16.5093877   15.4809045
| 11>     O       18.3311873   15.7881844   15.4656912
| 12>     C       17.2228178   17.6625759   16.4267059
| 13>     C       16.9441836   18.9067777   15.9625566
| 14>     C       16.5359489   19.2920078   14.5532399
| 15>     N       17.1204344   20.0285379   16.7752288
| 16>     C       17.8078440   20.0193328   17.9599360
| 17>     S       18.0856074   21.4059316   18.8168968
| 18>     N       18.2772979   18.8009772   18.3844136
| 19>     C       17.9553231   17.5019624   17.7608383
| 20>     C       17.2854458   16.5020997   18.6909580
| 21>     C       17.7200364   15.1650319   18.7243269
| 22>     C       17.0884588   14.2297612   19.5608470
| 23>     C       16.0120322   14.6349747   20.3686042
| 24>     C       15.5740392   15.9659780   20.3333999
| 25>     O       14.5280795   16.3573129   21.1037114
| 26>     C       16.2037601   16.8948786   19.4986849
| 27>     H       15.1932706   15.4572444   17.0644541
| 28>     H       14.7936276   14.3421313   15.7402178
| 29>     H       13.5349410   15.3800571   16.4437329
| 30>     H       14.2373524   16.3201595   14.2639864
| 31>     H       14.7397520   17.4217911   15.5590396
| 32>     H       16.9400798   18.5990839   13.8046683
| 33>     H       16.9151658   20.2852837   14.2808253
| 34>     H       15.4455517   19.3133173   14.4439504
| 35>     H       16.8147526   20.9348490   16.4574234
| 36>     H       18.7777017   18.8196298   19.2643564
| 37>     H       18.9678654   17.1565144   17.5035830
| 38>     H       18.5433216   14.8476889   18.0872197
| 39>     H       17.4314653   13.1965363   19.5762967
| 40>     H       15.5203896   13.9149917   21.0145300
| 41>     H       14.2598416   15.5950132   21.6387636
| 42>     H       15.8472941   17.9195981   19.4821278
| 43> *
| 44>
| 45>                          ****END OF INPUT****

CARTESIAN COORDINATES (ANGSTROEM)
---------------------------------
  C     14.592341   15.337636   16.155846
  C     14.914388   16.432723   15.120731
  O     16.274666   16.260039   14.669304
  C     17.350737   16.509388   15.480904
  O     18.331187   15.788184   15.465691
  C     17.222818   17.662576   16.426706
  C     16.944184   18.906778   15.962557
  C     16.535949   19.292008   14.553240
  N     17.120434   20.028538   16.775229
  C     17.807844   20.019333   17.959936
  S     18.085607   21.405932   18.816897
  N     18.277298   18.800977   18.384414
  C     17.955323   17.501962   17.760838
  C     17.285446   16.502100   18.690958
  C     17.720036   15.165032   18.724327
  C     17.088459   14.229761   19.560847
  C     16.012032   14.634975   20.368604
  C     15.574039   15.965978   20.333400
  O     14.528080   16.357313   21.103711
  C     16.203760   16.894879   19.498685
  H     15.193271   15.457244   17.064454
  H     14.793628   14.342131   15.740218
  H     13.534941   15.380057   16.443733
  H     14.237352   16.320159   14.263986
  H     14.739752   17.421791   15.559040
  H     16.940080   18.599084   13.804668
  H     16.915166   20.285284   14.280825
  H     15.445552   19.313317   14.443950
  H     16.814753   20.934849   16.457423
  H     18.777702   18.819630   19.264356
  H     18.967865   17.156514   17.503583
  H     18.543322   14.847689   18.087220
  H     17.431465   13.196536   19.576297
  H     15.520390   13.914992   21.014530
  H     14.259842   15.595013   21.638764
  H     15.847294   17.919598   19.482128

 Total Charge           Charge          ....    0
 Multiplicity           Mult            ....    1
 Number of Electrons    NEL             ....  154
 Basis Dimension        Dim             ....  828

ORBITAL ENERGIES
----------------

  NO   OCC          E(Eh)            E(eV)
   0   2.0000     -91.890406     -2500.4651
   1   2.0000     -20.599532      -560.5418
   2   2.0000     -20.599063      -560.5290
   3   2.0000     -20.551186      -559.2262
   4   2.0000     -15.629366      -425.2967
   5   2.0000     -15.609460      -424.7550
   6   2.0000     -11.398390      -310.1660
   7   2.0000     -11.385946      -309.8273
   8   2.0000     -11.336952      -308.4941
   9   2.0000     -11.316345      -307.9334
  10   2.0000     -11.309178      -307.7384
  11   2.0000     -11.307322      -307.6879
  12   2.0000     -11.266092      -306.5660
  13   2.0000     -11.263979      -306.5084
  14   2.0000     -11.263395      -306.4926
  15   2.0000     -11.256471      -306.3041
  16   2.0000     -11.245773      -306.0130
  17   2.0000     -11.241588      -305.8992
  18   2.0000     -11.238402      -305.8125
  19   2.0000     -11.228859      -305.5528
  20   2.0000      -8.895502      -242.0589
  21   2.0000      -6.577080      -178.9714
  22   2.0000      -6.575071      -178.9168
  23   2.0000      -6.574485      -178.9008
  24   2.0000      -1.448762       -39.4228
  25   2.0000      -1.418814       -38.6079
  26   2.0000      -1.361514       -37.0487
  27   2.0000      -1.341981       -36.5172
  28   2.0000      -1.239839       -33.7377
  29   2.0000      -1.160629       -31.5823
  30   2.0000      -1.125867       -30.6364
  31   2.0000      -1.047944       -28.5160
  32   2.0000      -1.036049       -28.1923
  33   2.0000      -1.018386       -27.7117
  34   2.0000      -1.005750       -27.3678
  35   2.0000      -0.989829       -26.9346
  36   2.0000      -0.926445       -25.2099
  37   2.0000      -0.892519       -24.2867
  38   2.0000      -0.854218       -23.2445
  39   2.0000      -0.841908       -22.9095
  40   2.0000      -0.836072       -22.7507
  41   2.0000      -0.832740       -22.6600
  42   2.0000      -0.747854       -20.3501
  43   2.0000      -0.738936       -20.1075
  44   2.0000      -0.731639       -19.9089
  45   2.0000      -0.696575       -18.9548
  46   2.0000      -0.688261       -18.7285
  47   2.0000      -0.682550       -18.5731
  48   2.0000      -0.676431       -18.4066
  49   2.0000      -0.661246       -17.9934
  50   2.0000      -0.656554       -17.8657
  51   2.0000      -0.646153       -17.5827
  52   2.0000      -0.637835       -17.3564
  53   2.0000      -0.619586       -16.8598
  54   2.0000      -0.610036       -16.5999
  55   2.0000      -0.606237       -16.4965
  56   2.0000      -0.602222       -16.3873
  57   2.0000      -0.584464       -15.9041
  58   2.0000      -0.576536       -15.6884
  59   2.0000      -0.566352       -15.4112
  60   2.0000      -0.562321       -15.3015
  61   2.0000      -0.549793       -14.9606
  62   2.0000      -0.547357       -14.8943
  63   2.0000      -0.534252       -14.5377
  64   2.0000      -0.520717       -14.1694
  65   2.0000      -0.512442       -13.9443
  66   2.0000      -0.501916       -13.6578
  67   2.0000      -0.500567       -13.6211
  68   2.0000      -0.485476       -13.2105
  69   2.0000      -0.469540       -12.7768
  70   2.0000      -0.458229       -12.4691
  71   2.0000      -0.449382       -12.2283
  72   2.0000      -0.357227        -9.7206
  73   2.0000      -0.351530        -9.5656
  74   2.0000      -0.329780        -8.9738
  75   2.0000      -0.323931        -8.8146
  76   2.0000      -0.320379        -8.7180
  77   0.0000       0.079751         2.1701
  78   0.0000       0.103874         2.8266
  79   0.0000       0.117234         3.1901
  80   0.0000       0.129997         3.5374
  81   0.0000       0.131429         3.5764

MULLIKEN ATOMIC CHARGES
-----------------------
   0 C :   -0.290196
   1 C :    0.023645
   2 O :   -0.339258
   3 C :    0.434450
   4 O :   -0.380879
   5 C :   -0.230460
   6 C :    0.146481
   7 C :   -0.316272
   8 N :   -0.135348
   9 C :    0.207429
  10 S :   -0.441189
  11 N :   -0.219909
  12 C :    0.065302
  13 C :   -0.019992
  14 C :   -0.189570
  15 C :   -0.135056
  16 C :   -0.269709
  17 C :    0.304162
  18 O :   -0.357276
  19 C :   -0.220969
  20 H :    0.115010
  21 H :    0.110946
  22 H :    0.096299
  23 H :    0.120823
  24 H :    0.086416
  25 H :    0.140770
  26 H :    0.122403
  27 H :    0.121696
  28 H :    0.198114
  29 H :    0.202169
  30 H :    0.165337
  31 H :    0.175696
  32 H :    0.163588
  33 H :    0.132539
  34 H :    0.241166
  35 H :    0.171645
Sum of atomic charges:   -0.0000000

LOEWDIN ATOMIC CHARGES
----------------------
   0 C :    0.109374
   1 C :   -0.023856
   2 O :    0.300801
   3 C :   -0.417575
   4 O :    0.122538
   5 C :   -0.089751
   6 C :   -0.082878
   7 C :    0.127621
   8 N :    0.403480
   9 C :   -0.457819
  10 S :   -0.036918
  11 N :    0.396245
  12 C :   -0.049134
  13 C :   -0.046203
  14 C :    0.020973
  15 C :    0.044158
  16 C :    0.000068
  17 C :   -0.191916
  18 O :    0.395234
  19 C :    0.027067
  20 H :   -0.026912
  21 H :   -0.022293
  22 H :   -0.025584
  23 H :   -0.022289
  24 H :   -0.040280
  25 H :   -0.006596
  26 H :   -0.013505
  27 H :   -0.017055
  28 H :   -0.057468
  29 H :   -0.063301
  30 H :   -0.004842
  31 H :   -0.021329
  32 H :   -0.018691
  33 H :   -0.034691
  34 H :   -0.153273
  35 H :   -0.023398

  Mayer bond orders larger than 0.100000
B(  0-C ,  1-C ) :   0.9763 B(  0-C , 20-H ) :   0.9657 B(  0-C , 21-H ) :   0.9772
B(  0-C , 22-H ) :   0.9766 B(  1-C ,  2-O ) :   0.8960 B(  1-C , 23-H ) :   0.9800
B(  1-C , 24-H ) :   0.9663 B(  2-O ,  3-C ) :   1.1433 B(  3-C ,  4-O ) :   2.0874
B(  3-C ,  5-C ) :   0.9384 B(  5-C ,  6-C ) :   1.7130 B(  5-C , 12-C ) :   0.9360
B(  6-C ,  7-C ) :   0.9365 B(  6-C ,  8-N ) :   1.1171 B(  7-C , 25-H ) :   0.9697
B(  7-C , 26-H ) :   0.9831 B(  7-C , 27-H ) :   0.9658 B(  8-N ,  9-C ) :   1.1921
B(  8-N , 28-H ) :   0.9496 B(  9-C , 10-S ) :   1.6116 B(  9-C , 11-N ) :   1.2940
B( 11-N , 12-C ) :   0.9841 B( 11-N , 29-H ) :   0.9479 B( 12-C , 13-C ) :   0.9695
B( 12-C , 30-H ) :   0.9911 B( 13-C , 14-C ) :   1.3915 B( 13-C , 19-C ) :   1.3586
B( 14-C , 15-C ) :   1.3928 B( 14-C , 31-H ) :   0.9580 B( 15-C , 16-C ) :   1.3608
B( 15-C , 32-H ) :   0.9707 B( 16-C , 17-C ) :   1.3324 B( 16-C , 33-H ) :   0.9843
B( 17-C , 18-O ) :   1.1095 B( 17-C , 19-C ) :   1.3658 B( 18-O , 34-H ) :   0.9794
B( 19-C , 35-H ) :   0.9572

MP2 TOTAL ENERGY:    -1274.332175727 Eh
FINAL SINGLE POINT ENERGY     -1274.332175727352

DIPOLE MOMENT
-------------
                                X             Y             Z
Electronic contribution:      9.15660       8.10114       6.61877
Nuclear contribution   :    -10.79402      -9.14226      -7.05539
                        -----------------------------------------
Total Dipole Moment    :     -1.63743      -1.04113      -0.43663
                        -----------------------------------------
Magnitude (a.u.)       :      1.98891
Magnitude (Debye)      :      5.05540

Rotational constants in cm-1:     0.011561     0.009212     0.006381
Rotational constants in MHz :   346.586646   276.175907   191.301835

                             ****ORCA TERMINATED NORMALLY****
TOTAL RUN TIME: 0 days 1 hours 44 minutes 16 seconds 726 msec
