                         Program Version 4.2.0 -  RELEASE  -
|  1> ! ri-mp2 cc-pvtz cc-pvtz/c TightSCF NoKeepInts
|  2>
|  3> %scf
|  4>   MaxCore 4096
|  5> end
|  6> *xyz  0  1
|  7>     C       14.1866989   16.4078805   15.8764456
|  8>     C       15.2388717   15.6209515   15.0710402
|  9>     O       16.2902076   16.5029052   14.6359146
| 10>     C       17.3540861   16.6471725   15.4746944
| 11>     O       18.2489723   15.8220483   15.5184728
| 12>     C       17.2009051   17.7398657   16.4850460
| 13>     C       16.7796007   18.9769915   16.1229384
| 14>     C       16.2342948   19.3972527   14.7728416
| 15>     N       16.9002317   20.0558425   17.0015909
| 16>     C       17.6293286   20.0275370   18.1608510
| 17>     S       17.8184439   21.3722373   19.1047056
| 18>     N       18.2140716   18.8288378   18.4874250
| 19>     C       17.9941919   17.5519175   17.7795261
| 20>     C       17.4284616   16.4453208   18.6582818
| 21>     C       18.0327063   15.1757786   18.6855268
| 22>     C       17.4995160   14.1478483   19.4810162
| 23>     C       16.3509845   14.3913167   20.2537005
| 24>     C       15.7439939   15.6543843   20.2242032
| 25>     O       14.6293584   15.8896925   20.9610940
| 26>     C       16.2769721   16.6755578   19.4311811
| 27>     H       14.6130964   16.8130450   16.8018168
| 28>     H       13.3552222   15.7490574   16.1553334
| 29>     H       13.7769063   17.2339644   15.2837477
| 30>     H       15.6441135   14.7934375   15.6707999
| 31>     H       14.7510390   15.1870124   14.1886173
| 32>     H       15.2188319   19.0139718   14.6227305
| 33>     H       16.8611600   19.0115575   13.9587496
| 34>     H       16.1975602   20.4871272   14.6542709
| 35>     H       16.5005550   20.9489169   16.7608000
| 36>     H       18.7347645   18.8321312   19.3555648
| 37>     H       19.0232022   17.3142092   17.4716364
| 38>     H       18.9117504   14.9823684   18.0743914
| 39>     H       17.9739250   13.1680206   19.4915150
| 40>     H       15.9349620   13.5994754   20.8677948
| 41>     H       14.4450032   15.0877531   21.4730571
| 42>     H       15.7930104   17.6466131   19.4206785
| 43> *
| 44>
| 45>                          ****END OF INPUT****

CARTESIAN COORDINATES (ANGSTROEM)
---------------------------------
  C     14.186699   16.407881   15.876446
  C     15.238872   15.620952   15.071040
  O     16.290208   16.502905   14.635915
  C     17.354086   16.647172   15.474694
  O     18.248972   15.822048   15.518473
  C     17.200905   17.739866   16.485046
  C     16.779601   18.976992   16.122938
  C     16.234295   19.397253   14.772842
  N     16.900232   20.055843   17.001591
  C     17.629329   20.027537   18.160851
  S     17.818444   21.372237   19.104706
  N     18.214072   18.828838   18.487425
  C     17.994192   17.551917   17.779526
  C     17.428462   16.445321   18.658282
  C     18.032706   15.175779   18.685527
  C     17.499516   14.147848   19.481016
  C     16.350984   14.391317   20.253700
  C     15.743994   15.654384   20.224203
  O     14.629358   15.889692   20.961094
  C     16.276972   16.675558   19.431181
  H     14.613096   16.813045   16.801817
  H     13.355222   15.749057   16.155333
  H     13.776906   17.233964   15.283748
  H     15.644113   14.793437   15.670800
  H     14.751039   15.187012   14.188617
  H     15.218832   19.013972   14.622730
  H     16.861160   19.011557   13.958750
  H     16.197560   20.487127   14.654271
  H     16.500555   20.948917   16.760800
  H     18.734765   18.832131   19.355565
  H     19.023202   17.314209   17.471636
  H     18.911750   14.982368   18.074391
  H     17.973925   13.168021   19.491515
  H     15.934962   13.599475   20.867795
  H     14.445003   15.087753   21.473057
  H     15.793010   17.646613   19.420679

 Total Charge           Charge          ....    0
 Multiplicity           Mult            ....    1
 Number of Electrons    NEL             ....  154
 Basis Dimension        Dim             ....  828

ORBITAL ENERGIES
----------------

  NO   OCC          E(Eh)            E(eV)
   0   2.0000     -91.889996     -2500.4539
   1   2.0000     -20.597267      -560.4801
   2   2.0000     -20.586085      -560.1758
   3   2.0000     -20.554644      -559.3203
   4   2.0000     -15.629951      -425.3126
   5   2.0000     -15.608246      -424.7220
   6   2.0000     -11.394010      -310.0468
   7   2.0000     -11.385149      -309.8057
   8   2.0000     -11.336979      -308.4949
   9   2.0000     -11.313965      -307.8686
  10   2.0000     -11.307080      -307.6813
  11   2.0000     -11.304737      -307.6175
  12   2.0000     -11.261206      -306.4330
  13   2.0000     -11.261005      -306.4275
  14   2.0000     -11.258519      -306.3599
  15   2.0000     -11.253991      -306.2367
  16   2.0000     -11.243692      -305.9564
  17   2.0000     -11.239843      -305.8517
  18   2.0000     -11.236467      -305.7598
  19   2.0000     -11.231180      -305.6159
  20   2.0000      -8.895074      -242.0473
  21   2.0000      -6.576647      -178.9597
  22   2.0000      -6.574646      -178.9052
  23   2.0000      -6.574055      -178.8891
  24   2.0000      -1.451273       -39.4911
  25   2.0000      -1.417025       -38.5592
  26   2.0000      -1.359311       -36.9887
  27   2.0000      -1.341231       -36.4967
  28   2.0000      -1.238779       -33.7089
  29   2.0000      -1.158188       -31.5159
  30   2.0000      -1.123912       -30.5832
  31   2.0000      -1.045954       -28.4619
  32   2.0000      -1.035061       -28.1654
  33   2.0000      -1.015723       -27.6392
  34   2.0000      -1.002574       -27.2814
  35   2.0000      -0.988400       -26.8957
  36   2.0000      -0.924344       -25.1527
  37   2.0000      -0.890425       -24.2297
  38   2.0000      -0.849651       -23.1202
  39   2.0000      -0.839879       -22.8543
  40   2.0000      -0.833996       -22.6942
  41   2.0000      -0.824983       -22.4489
  42   2.0000      -0.757359       -20.6088
  43   2.0000      -0.736808       -20.0496
  44   2.0000      -0.729645       -19.8547
  45   2.0000      -0.695350       -18.9214
  46   2.0000      -0.686955       -18.6930
  47   2.0000      -0.678930       -18.4746
  48   2.0000      -0.675685       -18.3863
  49   2.0000      -0.661238       -17.9932
  50   2.0000      -0.654040       -17.7973
  51   2.0000      -0.645288       -17.5592
  52   2.0000      -0.636906       -17.3311
  53   2.0000      -0.609298       -16.5798
  54   2.0000      -0.603311       -16.4169
  55   2.0000      -0.600733       -16.3468
  56   2.0000      -0.594055       -16.1651
  57   2.0000      -0.590168       -16.0593
  58   2.0000      -0.576869       -15.6974
  59   2.0000      -0.572605       -15.5814
  60   2.0000      -0.562871       -15.3165
  61   2.0000      -0.552265       -15.0279
  62   2.0000      -0.547202       -14.8901
  63   2.0000      -0.522622       -14.2213
  64   2.0000      -0.520009       -14.1502
  65   2.0000      -0.512223       -13.9383
  66   2.0000      -0.501512       -13.6468
  67   2.0000      -0.496932       -13.5222
  68   2.0000      -0.484987       -13.1972
  69   2.0000      -0.464861       -12.6495
  70   2.0000      -0.456636       -12.4257
  71   2.0000      -0.454500       -12.3676
  72   2.0000      -0.354273        -9.6403
  73   2.0000      -0.349607        -9.5133
  74   2.0000      -0.329140        -8.9563
  75   2.0000      -0.321164        -8.7393
  76   2.0000      -0.319161        -8.6848
  77   0.0000       0.072966         1.9855
  78   0.0000       0.104081         2.8322
  79   0.0000       0.120557         3.2805
  80   0.0000       0.131807         3.5867
  81   0.0000       0.134431         3.6581

MULLIKEN ATOMIC CHARGES
-----------------------
   0 C :   -0.315395
   1 C :    0.043819
   2 O :   -0.373365
   3 C :    0.470735
   4 O :   -0.387410
   5 C :   -0.264164
   6 C :    0.181923
   7 C :   -0.285299
   8 N :   -0.130826
   9 C :    0.205281
  10 S :   -0.440062
  11 N :   -0.214624
  12 C :    0.062803
  13 C :    0.036211
  14 C :   -0.195196
  15 C :   -0.130469
  16 C :   -0.278700
  17 C :    0.321098
  18 O :   -0.357851
  19 C :   -0.278642
  20 H :    0.112421
  21 H :    0.116788
  22 H :    0.094801
  23 H :    0.099169
  24 H :    0.111312
  25 H :    0.125725
  26 H :    0.128384
  27 H :    0.106147
  28 H :    0.198486
  29 H :    0.199895
  30 H :    0.159718
  31 H :    0.168808
  32 H :    0.163211
  33 H :    0.130873
  34 H :    0.240843
  35 H :    0.173552
Sum of atomic charges:   -0.0000000

LOEWDIN ATOMIC CHARGES
----------------------
   0 C :    0.103522
   1 C :   -0.015662
   2 O :    0.290135
   3 C :   -0.421451
   4 O :    0.127647
   5 C :   -0.094587
   6 C :   -0.070154
   7 C :    0.127950
   8 N :    0.405615
   9 C :   -0.457201
  10 S :   -0.036113
  11 N :    0.395816
  12 C :   -0.049291
  13 C :   -0.043149
  14 C :    0.022909
  15 C :    0.042297
  16 C :   -0.000797
  17 C :   -0.193024
  18 O :    0.394134
  19 C :    0.028822
  20 H :   -0.031856
  21 H :   -0.023293
  22 H :   -0.032355
  23 H :   -0.025341
  24 H :   -0.022264
  25 H :   -0.013471
  26 H :   -0.006703
  27 H :   -0.019078
  28 H :   -0.058208
  29 H :   -0.063736
  30 H :   -0.006173
  31 H :   -0.022283
  32 H :   -0.019655
  33 H :   -0.035306
  34 H :   -0.153753
  35 H :   -0.023945

  Mayer bond orders larger than 0.100000
B(  0-C ,  1-C ) :   0.9645 B(  0-C , 20-H ) :   0.9681 B(  0-C , 21-H ) :   0.9784
B(  0-C , 22-H ) :   0.9783 B(  1-C ,  2-O ) :   0.8941 B(  1-C , 23-H ) :   0.9742
B(  1-C , 24-H ) :   0.9848 B(  2-O ,  3-C ) :   1.0896 B(  3-C ,  4-O ) :   2.0637
B(  3-C ,  5-C ) :   0.9828 B(  5-C ,  6-C ) :   1.6758 B(  5-C , 12-C ) :   0.9446
B(  6-C ,  7-C ) :   0.9498 B(  6-C ,  8-N ) :   1.1348 B(  7-C , 25-H ) :   0.9648
B(  7-C , 26-H ) :   0.9673 B(  7-C , 27-H ) :   0.9880 B(  8-N ,  9-C ) :   1.1877
B(  8-N , 28-H ) :   0.9477 B(  9-C , 10-S ) :   1.6129 B(  9-C , 11-N ) :   1.2978
B( 11-N , 12-C ) :   0.9827 B( 11-N , 29-H ) :   0.9488 B( 12-C , 13-C ) :   0.9681
B( 12-C , 30-H ) :   0.9937 B( 13-C , 14-C ) :   1.3825 B( 13-C , 19-C ) :   1.3496
B( 14-C , 15-C ) :   1.3951 B( 14-C , 31-H ) :   0.9603 B( 15-C , 16-C ) :   1.3609
B( 15-C , 32-H ) :   0.9703 B( 16-C , 17-C ) :   1.3313 B( 16-C , 33-H ) :   0.9850
B( 17-C , 18-O ) :   1.1075 B( 17-C , 19-C ) :   1.3615 B( 18-O , 34-H ) :   0.9800
B( 19-C , 35-H ) :   0.9580

MP2 TOTAL ENERGY:    -1274.325165226 Eh
FINAL SINGLE POINT ENERGY     -1274.325165226069

DIPOLE MOMENT
-------------
                                X             Y             Z
Electronic contribution:      9.50736       7.17826       7.32440
Nuclear contribution   :    -10.83167      -8.52691      -7.93111
                        -----------------------------------------
Total Dipole Moment    :     -1.32431      -1.34865      -0.60671
                        -----------------------------------------
Magnitude (a.u.)       :      1.98513
Magnitude (Debye)      :      5.04581

Rotational constants in cm-1:     0.011294     0.009227     0.006487
Rotational constants in MHz :   338.573952   276.632032   194.469804

                             ****ORCA TERMINATED NORMALLY****
TOTAL RUN TIME: 0 days 2 hours 7 minutes 15 seconds 564 msec
