                         Program Version 4.2.0 -  RELEASE  -
|  1> ! ri-mp2 cc-pvtz cc-pvtz/c TightSCF NoKeepInts
|  2>
|  3> %scf
|  4>   MaxCore 4096
|  5> end
|  6> *xyz  0  1
|  7>     C       14.5739252   16.0932481   16.3682574
|  8>     C       15.4477424   15.2931713   15.3819213
|  9>     O       16.8744071   15.5274390   15.4729903
| 10>     C       17.4400591   16.7581418   15.2888960
| 11>     O       18.0664723   17.0022750   14.2742016
| 12>     C       17.1670802   17.7821582   16.3441066
| 13>     C       16.9507834   19.0627919   15.9598783
| 14>     C       16.5358620   19.5189593   14.5773090
| 15>     N       17.1014447   20.1243020   16.8532995
| 16>     C       17.7197063   20.0160002   18.0702259
| 17>     S       17.9879983   21.3306862   19.0368464
| 18>     N       18.1312789   18.7581185   18.4362122
| 19>     C       17.8056579   17.5100530   17.7158114
| 20>     C       17.1429552   16.4532523   18.5889375
| 21>     C       17.5419717   15.1067032   18.5032600
| 22>     C       16.9435826   14.1303683   19.3170374
| 23>     C       15.9440572   14.5044432   20.2312943
| 24>     C       15.5512506   15.8463717   20.3271641
| 25>     O       14.5846240   16.2099536   21.2067384
| 26>     C       16.1464549   16.8161591   19.5137961
| 27>     H       14.8242051   15.8437907   17.4022715
| 28>     H       13.5200302   15.8265888   16.2230697
| 29>     H       14.6532061   17.1748003   16.2184005
| 30>     H       15.2625710   14.2237314   15.5463852
| 31>     H       15.1188809   15.5216129   14.3593533
| 32>     H       17.4198725   19.6572474   13.9407568
| 33>     H       15.9794123   20.4635645   14.5972867
| 34>     H       15.8964261   18.7737725   14.0884787
| 35>     H       16.8470676   21.0582413   16.5733018
| 36>     H       18.5795611   18.7068647   19.3426162
| 37>     H       18.8278580   17.1805273   17.4788192
| 38>     H       18.3133244   14.8140102   17.7948897
| 39>     H       17.2560889   13.0904135   19.2378838
| 40>     H       15.4797915   13.7534948   20.8621773
| 41>     H       14.3268385   15.4178289   21.7019930
| 42>     H       15.8245519   17.8489148   19.6021330
| 43> *
| 44>
| 45>                          ****END OF INPUT****

CARTESIAN COORDINATES (ANGSTROEM)
---------------------------------
  C     14.573925   16.093248   16.368257
  C     15.447742   15.293171   15.381921
  O     16.874407   15.527439   15.472990
  C     17.440059   16.758142   15.288896
  O     18.066472   17.002275   14.274202
  C     17.167080   17.782158   16.344107
  C     16.950783   19.062792   15.959878
  C     16.535862   19.518959   14.577309
  N     17.101445   20.124302   16.853299
  C     17.719706   20.016000   18.070226
  S     17.987998   21.330686   19.036846
  N     18.131279   18.758118   18.436212
  C     17.805658   17.510053   17.715811
  C     17.142955   16.453252   18.588938
  C     17.541972   15.106703   18.503260
  C     16.943583   14.130368   19.317037
  C     15.944057   14.504443   20.231294
  C     15.551251   15.846372   20.327164
  O     14.584624   16.209954   21.206738
  C     16.146455   16.816159   19.513796
  H     14.824205   15.843791   17.402271
  H     13.520030   15.826589   16.223070
  H     14.653206   17.174800   16.218401
  H     15.262571   14.223731   15.546385
  H     15.118881   15.521613   14.359353
  H     17.419873   19.657247   13.940757
  H     15.979412   20.463565   14.597287
  H     15.896426   18.773772   14.088479
  H     16.847068   21.058241   16.573302
  H     18.579561   18.706865   19.342616
  H     18.827858   17.180527   17.478819
  H     18.313324   14.814010   17.794890
  H     17.256089   13.090413   19.237884
  H     15.479791   13.753495   20.862177
  H     14.326838   15.417829   21.701993
  H     15.824552   17.848915   19.602133

 Total Charge           Charge          ....    0
 Multiplicity           Mult            ....    1
 Number of Electrons    NEL             ....  154
 Basis Dimension        Dim             ....  828

ORBITAL ENERGIES
----------------

  NO   OCC          E(Eh)            E(eV)
   0   2.0000     -91.890200     -2500.4595
   1   2.0000     -20.600310      -560.5629
   2   2.0000     -20.585889      -560.1705
   3   2.0000     -20.557450      -559.3967
   4   2.0000     -15.627469      -425.2451
   5   2.0000     -15.610037      -424.7707
   6   2.0000     -11.395782      -310.0950
   7   2.0000     -11.385218      -309.8075
   8   2.0000     -11.330005      -308.3051
   9   2.0000     -11.317918      -307.9762
  10   2.0000     -11.315172      -307.9015
  11   2.0000     -11.306855      -307.6752
  12   2.0000     -11.266290      -306.5713
  13   2.0000     -11.259374      -306.3832
  14   2.0000     -11.257087      -306.3209
  15   2.0000     -11.256907      -306.3160
  16   2.0000     -11.248165      -306.0781
  17   2.0000     -11.243090      -305.9400
  18   2.0000     -11.242534      -305.9249
  19   2.0000     -11.227163      -305.5066
  20   2.0000      -8.895263      -242.0524
  21   2.0000      -6.576835      -178.9648
  22   2.0000      -6.574836      -178.9104
  23   2.0000      -6.574244      -178.8943
  24   2.0000      -1.446337       -39.3568
  25   2.0000      -1.420139       -38.6439
  26   2.0000      -1.357563       -36.9412
  27   2.0000      -1.340282       -36.4709
  28   2.0000      -1.239573       -33.7305
  29   2.0000      -1.161845       -31.6154
  30   2.0000      -1.123996       -30.5855
  31   2.0000      -1.047410       -28.5015
  32   2.0000      -1.035585       -28.1797
  33   2.0000      -1.020007       -27.7558
  34   2.0000      -1.003103       -27.2958
  35   2.0000      -0.989104       -26.9149
  36   2.0000      -0.925402       -25.1815
  37   2.0000      -0.896303       -24.3897
  38   2.0000      -0.849320       -23.1112
  39   2.0000      -0.842380       -22.9223
  40   2.0000      -0.837998       -22.8031
  41   2.0000      -0.824387       -22.4327
  42   2.0000      -0.751336       -20.4449
  43   2.0000      -0.736899       -20.0520
  44   2.0000      -0.727348       -19.7921
  45   2.0000      -0.698375       -19.0038
  46   2.0000      -0.690417       -18.7872
  47   2.0000      -0.674992       -18.3675
  48   2.0000      -0.673246       -18.3199
  49   2.0000      -0.668391       -18.1878
  50   2.0000      -0.651043       -17.7158
  51   2.0000      -0.648600       -17.6493
  52   2.0000      -0.636353       -17.3160
  53   2.0000      -0.612267       -16.6606
  54   2.0000      -0.607658       -16.5352
  55   2.0000      -0.602916       -16.4062
  56   2.0000      -0.600101       -16.3296
  57   2.0000      -0.582471       -15.8498
  58   2.0000      -0.577441       -15.7130
  59   2.0000      -0.573986       -15.6190
  60   2.0000      -0.565287       -15.3822
  61   2.0000      -0.556383       -15.1400
  62   2.0000      -0.540557       -14.7093
  63   2.0000      -0.528089       -14.3700
  64   2.0000      -0.521741       -14.1973
  65   2.0000      -0.514171       -13.9913
  66   2.0000      -0.502994       -13.6872
  67   2.0000      -0.497385       -13.5345
  68   2.0000      -0.482919       -13.1409
  69   2.0000      -0.464033       -12.6270
  70   2.0000      -0.454785       -12.3753
  71   2.0000      -0.453658       -12.3447
  72   2.0000      -0.355916        -9.6850
  73   2.0000      -0.348415        -9.4809
  74   2.0000      -0.329346        -8.9620
  75   2.0000      -0.325591        -8.8598
  76   2.0000      -0.319633        -8.6977
  77   0.0000       0.079721         2.1693
  78   0.0000       0.102171         2.7802
  79   0.0000       0.119532         3.2526
  80   0.0000       0.126342         3.4380
  81   0.0000       0.129145         3.5142

MULLIKEN ATOMIC CHARGES
-----------------------
   0 C :   -0.325135
   1 C :    0.033003
   2 O :   -0.363523
   3 C :    0.438267
   4 O :   -0.362903
   5 C :   -0.216940
   6 C :    0.152674
   7 C :   -0.283433
   8 N :   -0.134352
   9 C :    0.212675
  10 S :   -0.439747
  11 N :   -0.231674
  12 C :    0.035873
  13 C :    0.019076
  14 C :   -0.198513
  15 C :   -0.140077
  16 C :   -0.270622
  17 C :    0.309969
  18 O :   -0.357199
  19 C :   -0.230900
  20 H :    0.122664
  21 H :    0.118522
  22 H :    0.103139
  23 H :    0.116674
  24 H :    0.100144
  25 H :    0.146675
  26 H :    0.099521
  27 H :    0.113110
  28 H :    0.198684
  29 H :    0.204910
  30 H :    0.159212
  31 H :    0.156749
  32 H :    0.164562
  33 H :    0.133406
  34 H :    0.240979
  35 H :    0.174530
Sum of atomic charges:   -0.0000000

LOEWDIN ATOMIC CHARGES
----------------------
   0 C :    0.105254
   1 C :   -0.017339
   2 O :    0.286998
   3 C :   -0.421151
   4 O :    0.137345
   5 C :   -0.091343
   6 C :   -0.077569
   7 C :    0.127852
   8 N :    0.406251
   9 C :   -0.456149
  10 S :   -0.035360
  11 N :    0.396296
  12 C :   -0.052616
  13 C :   -0.042978
  14 C :    0.021078
  15 C :    0.041548
  16 C :   -0.000762
  17 C :   -0.193436
  18 O :    0.396479
  19 C :    0.030131
  20 H :   -0.027093
  21 H :   -0.023284
  22 H :   -0.036690
  23 H :   -0.018538
  24 H :   -0.031675
  25 H :   -0.003768
  26 H :   -0.020833
  27 H :   -0.011213
  28 H :   -0.057598
  29 H :   -0.064023
  30 H :   -0.010125
  31 H :   -0.026319
  32 H :   -0.019135
  33 H :   -0.034414
  34 H :   -0.153184
  35 H :   -0.022637

  Mayer bond orders larger than 0.100000
B(  0-C ,  1-C ) :   0.9619 B(  0-C , 20-H ) :   0.9685 B(  0-C , 21-H ) :   0.9768
B(  0-C , 22-H ) :   0.9691 B(  1-C ,  2-O ) :   0.9004 B(  1-C , 23-H ) :   0.9827
B(  1-C , 24-H ) :   0.9840 B(  2-O ,  3-C ) :   1.1175 B(  3-C ,  4-O ) :   2.1187
B(  3-C ,  5-C ) :   0.9508 B(  5-C ,  6-C ) :   1.6734 B(  5-C , 12-C ) :   0.9651
B(  6-C ,  7-C ) :   0.9501 B(  6-C ,  8-N ) :   1.1251 B(  7-C , 25-H ) :   0.9573
B(  7-C , 26-H ) :   0.9837 B(  7-C , 27-H ) :   0.9762 B(  8-N ,  9-C ) :   1.1980
B(  8-N , 28-H ) :   0.9491 B(  9-C , 10-S ) :   1.6111 B(  9-C , 11-N ) :   1.2897
B( 11-N , 12-C ) :   0.9687 B( 11-N , 29-H ) :   0.9451 B( 12-C , 13-C ) :   0.9518
B( 12-C , 30-H ) :   1.0040 B( 13-C , 14-C ) :   1.3779 B( 13-C , 19-C ) :   1.3497
B( 14-C , 15-C ) :   1.4013 B( 14-C , 31-H ) :   0.9677 B( 15-C , 16-C ) :   1.3550
B( 15-C , 32-H ) :   0.9694 B( 16-C , 17-C ) :   1.3338 B( 16-C , 33-H ) :   0.9841
B( 17-C , 18-O ) :   1.1078 B( 17-C , 19-C ) :   1.3652 B( 18-O , 34-H ) :   0.9793
B( 19-C , 35-H ) :   0.9580

MP2 TOTAL ENERGY:    -1274.312585224 Eh
FINAL SINGLE POINT ENERGY     -1274.312585223532

DIPOLE MOMENT
-------------
                                X             Y             Z
Electronic contribution:      9.02115       7.66935       6.55427
Nuclear contribution   :    -10.49738      -9.35457      -6.72861
                        -----------------------------------------
Total Dipole Moment    :     -1.47623      -1.68522      -0.17434
                        -----------------------------------------
Magnitude (a.u.)       :      2.24713
Magnitude (Debye)      :      5.71176

Rotational constants in cm-1:     0.012003     0.009281     0.006198
Rotational constants in MHz :   359.830106   278.234250   185.799278

                             ****ORCA TERMINATED NORMALLY****
TOTAL RUN TIME: 0 days 1 hours 59 minutes 12 seconds 515 msec
