                         Program Version 4.2.0 -  RELEASE  -
|  1> ! ri-mp2 cc-pvtz cc-pvtz/c TightSCF NoKeepInts
|  2>
|  3> %scf
|  4>   MaxCore 4096
|  5> end
|  6> *xyz  0  1
|  7>     C       14.0097550   15.3423488   15.4496977
|  8>     C       15.2607868   15.7351060   16.2520942
|  9>     O       16.3296045   15.9173682   15.3021018
| 10>     C       17.1411487   17.0210513   15.2469817
| 11>     O       17.8395575   17.2382126   14.2745739
| 12>     C       17.1026007   17.9505786   16.4158550
| 13>     C       16.8912061   19.2633121   16.1687111
| 14>     C       16.3076661   19.8325034   14.8936493
| 15>     N       17.2301206   20.2423581   17.1037683
| 16>     C       18.0114996   20.0079217   18.2042427
| 17>     S       18.4797963   21.2251383   19.2208823
| 18>     N       18.4069214   18.7081805   18.4086628
| 19>     C       17.9312720   17.5406184   17.6400514
| 20>     C       17.3390660   16.4369811   18.5009509
| 21>     C       17.8519951   15.1286280   18.4351070
| 22>     C       17.2971722   14.1059975   19.2227542
| 23>     C       16.2241868   14.3954153   20.0833786
| 24>     C       15.7162348   15.6998291   20.1547594
| 25>     O       14.6769790   15.9812336   20.9795657
| 26>     C       16.2691290   16.7157571   19.3685832
| 27>     H       13.1591528   15.1721733   16.1208814
| 28>     H       14.1894718   14.4205001   14.8822253
| 29>     H       13.7375501   16.1355874   14.7423438
| 30>     H       15.0341591   16.6491762   16.8141870
| 31>     H       15.5129090   14.9363847   16.9610781
| 32>     H       15.5183278   19.1834498   14.4944467
| 33>     H       17.0854212   19.9137042   14.1223861
| 34>     H       15.8704848   20.8275002   15.0395135
| 35>     H       16.9868868   21.2059162   16.9363357
| 36>     H       18.9759910   18.5647464   19.2337889
| 37>     H       18.8894651   17.1994997   17.2208149
| 38>     H       18.6777383   14.9010872   17.7649303
| 39>     H       17.6982538   13.0951634   19.1640269
| 40>     H       15.7926591   13.6078272   20.6928607
| 41>     H       14.4760535   15.1776409   21.4832885
| 42>     H       15.8657775   17.7211035   19.4385213
| 43> *
| 44>
| 45>                          ****END OF INPUT****

CARTESIAN COORDINATES (ANGSTROEM)
---------------------------------
  C     14.009755   15.342349   15.449698
  C     15.260787   15.735106   16.252094
  O     16.329604   15.917368   15.302102
  C     17.141149   17.021051   15.246982
  O     17.839558   17.238213   14.274574
  C     17.102601   17.950579   16.415855
  C     16.891206   19.263312   16.168711
  C     16.307666   19.832503   14.893649
  N     17.230121   20.242358   17.103768
  C     18.011500   20.007922   18.204243
  S     18.479796   21.225138   19.220882
  N     18.406921   18.708181   18.408663
  C     17.931272   17.540618   17.640051
  C     17.339066   16.436981   18.500951
  C     17.851995   15.128628   18.435107
  C     17.297172   14.105997   19.222754
  C     16.224187   14.395415   20.083379
  C     15.716235   15.699829   20.154759
  O     14.676979   15.981234   20.979566
  C     16.269129   16.715757   19.368583
  H     13.159153   15.172173   16.120881
  H     14.189472   14.420500   14.882225
  H     13.737550   16.135587   14.742344
  H     15.034159   16.649176   16.814187
  H     15.512909   14.936385   16.961078
  H     15.518328   19.183450   14.494447
  H     17.085421   19.913704   14.122386
  H     15.870485   20.827500   15.039513
  H     16.986887   21.205916   16.936336
  H     18.975991   18.564746   19.233789
  H     18.889465   17.199500   17.220815
  H     18.677738   14.901087   17.764930
  H     17.698254   13.095163   19.164027
  H     15.792659   13.607827   20.692861
  H     14.476054   15.177641   21.483288
  H     15.865777   17.721103   19.438521

 Total Charge           Charge          ....    0
 Multiplicity           Mult            ....    1
 Number of Electrons    NEL             ....  154
 Basis Dimension        Dim             ....  828

ORBITAL ENERGIES
----------------

  NO   OCC          E(Eh)            E(eV)
   0   2.0000     -91.890027     -2500.4548
   1   2.0000     -20.606185      -560.7228
   2   2.0000     -20.600052      -560.5559
   3   2.0000     -20.549101      -559.1695
   4   2.0000     -15.626719      -425.2246
   5   2.0000     -15.611082      -424.7991
   6   2.0000     -11.396221      -310.1069
   7   2.0000     -11.385539      -309.8163
   8   2.0000     -11.328286      -308.2583
   9   2.0000     -11.324736      -308.1617
  10   2.0000     -11.317207      -307.9568
  11   2.0000     -11.297445      -307.4191
  12   2.0000     -11.270899      -306.6968
  13   2.0000     -11.265804      -306.5581
  14   2.0000     -11.257212      -306.3243
  15   2.0000     -11.256918      -306.3163
  16   2.0000     -11.254886      -306.2610
  17   2.0000     -11.249519      -306.1150
  18   2.0000     -11.248862      -306.0971
  19   2.0000     -11.229408      -305.5677
  20   2.0000      -8.895107      -242.0482
  21   2.0000      -6.576682      -178.9606
  22   2.0000      -6.574679      -178.9061
  23   2.0000      -6.574092      -178.8901
  24   2.0000      -1.445905       -39.3451
  25   2.0000      -1.425961       -38.8024
  26   2.0000      -1.359704       -36.9994
  27   2.0000      -1.339902       -36.4606
  28   2.0000      -1.239919       -33.7399
  29   2.0000      -1.168013       -31.7832
  30   2.0000      -1.126002       -30.6401
  31   2.0000      -1.052434       -28.6382
  32   2.0000      -1.036406       -28.2021
  33   2.0000      -1.026085       -27.9212
  34   2.0000      -1.003741       -27.3132
  35   2.0000      -0.989580       -26.9278
  36   2.0000      -0.927802       -25.2468
  37   2.0000      -0.881049       -23.9746
  38   2.0000      -0.853075       -23.2133
  39   2.0000      -0.845032       -22.9945
  40   2.0000      -0.844914       -22.9913
  41   2.0000      -0.837633       -22.7931
  42   2.0000      -0.759815       -20.6756
  43   2.0000      -0.740663       -20.1545
  44   2.0000      -0.725606       -19.7447
  45   2.0000      -0.704911       -19.1816
  46   2.0000      -0.693892       -18.8818
  47   2.0000      -0.677342       -18.4314
  48   2.0000      -0.676948       -18.4207
  49   2.0000      -0.670551       -18.2466
  50   2.0000      -0.651627       -17.7317
  51   2.0000      -0.647110       -17.6088
  52   2.0000      -0.636193       -17.3117
  53   2.0000      -0.615733       -16.7550
  54   2.0000      -0.610004       -16.5991
  55   2.0000      -0.604993       -16.4627
  56   2.0000      -0.593750       -16.1567
  57   2.0000      -0.584527       -15.9058
  58   2.0000      -0.577624       -15.7179
  59   2.0000      -0.569629       -15.5004
  60   2.0000      -0.561429       -15.2773
  61   2.0000      -0.555665       -15.1204
  62   2.0000      -0.548115       -14.9150
  63   2.0000      -0.531532       -14.4637
  64   2.0000      -0.526910       -14.3379
  65   2.0000      -0.517831       -14.0909
  66   2.0000      -0.505390       -13.7524
  67   2.0000      -0.503398       -13.6982
  68   2.0000      -0.489330       -13.3153
  69   2.0000      -0.469055       -12.7636
  70   2.0000      -0.453686       -12.3454
  71   2.0000      -0.447042       -12.1646
  72   2.0000      -0.359578        -9.7846
  73   2.0000      -0.351949        -9.5770
  74   2.0000      -0.333828        -9.0839
  75   2.0000      -0.328818        -8.9476
  76   2.0000      -0.319569        -8.6959
  77   0.0000       0.084509         2.2996
  78   0.0000       0.093480         2.5437
  79   0.0000       0.117207         3.1894
  80   0.0000       0.125340         3.4107
  81   0.0000       0.129629         3.5274

MULLIKEN ATOMIC CHARGES
-----------------------
   0 C :   -0.253975
   1 C :    0.018939
   2 O :   -0.304363
   3 C :    0.398687
   4 O :   -0.379677
   5 C :   -0.232477
   6 C :    0.156411
   7 C :   -0.284926
   8 N :   -0.132908
   9 C :    0.212905
  10 S :   -0.440852
  11 N :   -0.212601
  12 C :    0.030122
  13 C :   -0.011371
  14 C :   -0.182723
  15 C :   -0.140912
  16 C :   -0.269253
  17 C :    0.301872
  18 O :   -0.353867
  19 C :   -0.209799
  20 H :    0.089082
  21 H :    0.103517
  22 H :    0.091522
  23 H :    0.097439
  24 H :    0.111894
  25 H :    0.114197
  26 H :    0.145371
  27 H :    0.098589
  28 H :    0.197957
  29 H :    0.199897
  30 H :    0.162969
  31 H :    0.158141
  32 H :    0.166246
  33 H :    0.136117
  34 H :    0.242175
  35 H :    0.175653
Sum of atomic charges:    0.0000000

LOEWDIN ATOMIC CHARGES
----------------------
   0 C :    0.107318
   1 C :   -0.023706
   2 O :    0.311234
   3 C :   -0.419359
   4 O :    0.122385
   5 C :   -0.096554
   6 C :   -0.084673
   7 C :    0.129517
   8 N :    0.404469
   9 C :   -0.454454
  10 S :   -0.036282
  11 N :    0.395273
  12 C :   -0.055230
  13 C :   -0.044598
  14 C :    0.017785
  15 C :    0.043566
  16 C :    0.002047
  17 C :   -0.191414
  18 O :    0.397363
  19 C :    0.035154
  20 H :   -0.026144
  21 H :   -0.024887
  22 H :   -0.028815
  23 H :   -0.038500
  24 H :   -0.027312
  25 H :   -0.009860
  26 H :   -0.003213
  27 H :   -0.020422
  28 H :   -0.058005
  29 H :   -0.064061
  30 H :   -0.008930
  31 H :   -0.025791
  32 H :   -0.018117
  33 H :   -0.032948
  34 H :   -0.151831
  35 H :   -0.021008

  Mayer bond orders larger than 0.100000
B(  0-C ,  1-C ) :   0.9790 B(  0-C , 20-H ) :   0.9774 B(  0-C , 21-H ) :   0.9806
B(  0-C , 22-H ) :   0.9786 B(  1-C ,  2-O ) :   0.8937 B(  1-C , 23-H ) :   0.9573
B(  1-C , 24-H ) :   0.9724 B(  2-O ,  3-C ) :   1.2089 B(  3-C ,  4-O ) :   2.1207
B(  3-C ,  5-C ) :   0.9234 B(  5-C ,  6-C ) :   1.7057 B(  5-C , 12-C ) :   0.9524
B(  6-C ,  7-C ) :   0.9415 B(  6-C ,  8-N ) :   1.1257 B(  7-C , 25-H ) :   0.9771
B(  7-C , 26-H ) :   0.9575 B(  7-C , 27-H ) :   0.9855 B(  8-N ,  9-C ) :   1.1986
B(  8-N , 28-H ) :   0.9490 B(  9-C , 10-S ) :   1.6123 B(  9-C , 11-N ) :   1.2876
B( 11-N , 12-C ) :   0.9807 B( 11-N , 29-H ) :   0.9472 B( 12-C , 13-C ) :   0.9629
B( 12-C , 30-H ) :   1.0052 B( 13-C , 14-C ) :   1.3683 B( 13-C , 19-C ) :   1.3510
B( 14-C , 15-C ) :   1.3962 B( 14-C , 31-H ) :   0.9707 B( 15-C , 16-C ) :   1.3640
B( 15-C , 32-H ) :   0.9697 B( 16-C , 17-C ) :   1.3265 B( 16-C , 33-H ) :   0.9830
B( 17-C , 18-O ) :   1.1122 B( 17-C , 19-C ) :   1.3673 B( 18-O , 34-H ) :   0.9783
B( 19-C , 35-H ) :   0.9571

MP2 TOTAL ENERGY:    -1274.325958206 Eh
FINAL SINGLE POINT ENERGY     -1274.325958205910

DIPOLE MOMENT
-------------
                                X             Y             Z
Electronic contribution:     10.42120       8.63888       7.02494
Nuclear contribution   :    -11.92054     -10.29344      -6.65638
                        -----------------------------------------
Total Dipole Moment    :     -1.49934      -1.65457       0.36855
                        -----------------------------------------
Magnitude (a.u.)       :      2.26306
Magnitude (Debye)      :      5.75225

Rotational constants in cm-1:     0.011881     0.008853     0.006147
Rotational constants in MHz :   356.184219   265.417387   184.279424

                             ****ORCA TERMINATED NORMALLY****
TOTAL RUN TIME: 0 days 1 hours 47 minutes 38 seconds 287 msec
