                         Program Version 4.2.0 -  RELEASE  -
|  1> ! ri-mp2 cc-pvtz cc-pvtz/c TightSCF NoKeepInts
|  2>
|  3> %scf
|  4>   MaxCore 4096
|  5> end
|  6> *xyz  0  1
|  7>     C       15.3310075   14.1280352   16.4177656
|  8>     C       15.4492813   15.1852392   15.3089108
|  9>     O       16.6823538   15.9093325   15.4750511
| 10>     C       16.6497380   17.2387181   15.1754254
| 11>     O       16.2443250   17.6132541   14.0890788
| 12>     C       16.9757712   18.1399846   16.3376727
| 13>     C       17.0172393   19.4877321   16.1628991
| 14>     C       16.4581209   20.2844670   15.0014660
| 15>     N       17.6211881   20.3206502   17.1072348
| 16>     C       18.4081066   19.8789694   18.1349118
| 17>     S       19.1978718   20.9220472   19.1468117
| 18>     N       18.5318315   18.5196243   18.2638783
| 19>     C       17.7666260   17.5149711   17.5017518
| 20>     C       16.9851322   16.5890149   18.4221441
| 21>     C       17.5298575   15.3524972   18.8152532
| 22>     C       16.8419373   14.5247596   19.7189764
| 23>     C       15.6022981   14.9395346   20.2360931
| 24>     C       15.0612880   16.1741593   19.8505435
| 25>     O       13.8666964   16.5785553   20.3504602
| 26>     C       15.7486466   16.9963762   18.9518987
| 27>     H       16.2530098   13.5389610   16.4969181
| 28>     H       14.5017115   13.4427143   16.2055344
| 29>     H       15.1328261   14.6027861   17.3833835
| 30>     H       15.4365593   14.7053312   14.3214456
| 31>     H       14.5845484   15.8607227   15.3711182
| 32>     H       15.4298769   19.9737652   14.7765775
| 33>     H       17.0563828   20.1193429   14.0961312
| 34>     H       16.4348885   21.3638841   15.1922569
| 35>     H       17.5627149   21.3210159   17.0029331
| 36>     H       19.0957434   18.2228378   19.0502361
| 37>     H       18.5977477   16.9744181   17.0266455
| 38>     H       18.4914903   15.0341980   18.4214237
| 39>     H       17.2704105   13.5694216   20.0174130
| 40>     H       15.0681000   14.3043396   20.9351117
| 41>     H       13.5766394   15.9103579   20.9897187
| 42>     H       15.3250331   17.9579815   18.6829257
| 43> *
| 44>
| 45>                          ****END OF INPUT****

CARTESIAN COORDINATES (ANGSTROEM)
---------------------------------
  C     15.331008   14.128035   16.417766
  C     15.449281   15.185239   15.308911
  O     16.682354   15.909332   15.475051
  C     16.649738   17.238718   15.175425
  O     16.244325   17.613254   14.089079
  C     16.975771   18.139985   16.337673
  C     17.017239   19.487732   16.162899
  C     16.458121   20.284467   15.001466
  N     17.621188   20.320650   17.107235
  C     18.408107   19.878969   18.134912
  S     19.197872   20.922047   19.146812
  N     18.531831   18.519624   18.263878
  C     17.766626   17.514971   17.501752
  C     16.985132   16.589015   18.422144
  C     17.529857   15.352497   18.815253
  C     16.841937   14.524760   19.718976
  C     15.602298   14.939535   20.236093
  C     15.061288   16.174159   19.850544
  O     13.866696   16.578555   20.350460
  C     15.748647   16.996376   18.951899
  H     16.253010   13.538961   16.496918
  H     14.501712   13.442714   16.205534
  H     15.132826   14.602786   17.383384
  H     15.436559   14.705331   14.321446
  H     14.584548   15.860723   15.371118
  H     15.429877   19.973765   14.776578
  H     17.056383   20.119343   14.096131
  H     16.434888   21.363884   15.192257
  H     17.562715   21.321016   17.002933
  H     19.095743   18.222838   19.050236
  H     18.597748   16.974418   17.026646
  H     18.491490   15.034198   18.421424
  H     17.270411   13.569422   20.017413
  H     15.068100   14.304340   20.935112
  H     13.576639   15.910358   20.989719
  H     15.325033   17.957981   18.682926

 Total Charge           Charge          ....    0
 Multiplicity           Mult            ....    1
 Number of Electrons    NEL             ....  154
 Basis Dimension        Dim             ....  828

ORBITAL ENERGIES
----------------

  NO   OCC          E(Eh)            E(eV)
   0   2.0000     -91.890545     -2500.4689
   1   2.0000     -20.601181      -560.5866
   2   2.0000     -20.586750      -560.1939
   3   2.0000     -20.543496      -559.0169
   4   2.0000     -15.631161      -425.3455
   5   2.0000     -15.608331      -424.7243
   6   2.0000     -11.391762      -309.9856
   7   2.0000     -11.384764      -309.7952
   8   2.0000     -11.340185      -308.5821
   9   2.0000     -11.318810      -308.0005
  10   2.0000     -11.310256      -307.7677
  11   2.0000     -11.294985      -307.3522
  12   2.0000     -11.265194      -306.5415
  13   2.0000     -11.259898      -306.3974
  14   2.0000     -11.259553      -306.3880
  15   2.0000     -11.252998      -306.2096
  16   2.0000     -11.247937      -306.0719
  17   2.0000     -11.242903      -305.9349
  18   2.0000     -11.242383      -305.9208
  19   2.0000     -11.221651      -305.3567
  20   2.0000      -8.895592      -242.0614
  21   2.0000      -6.577159      -178.9736
  22   2.0000      -6.575166      -178.9194
  23   2.0000      -6.574571      -178.9032
  24   2.0000      -1.448944       -39.4278
  25   2.0000      -1.420878       -38.6640
  26   2.0000      -1.351430       -36.7743
  27   2.0000      -1.342725       -36.5374
  28   2.0000      -1.240626       -33.7591
  29   2.0000      -1.161503       -31.6061
  30   2.0000      -1.122633       -30.5484
  31   2.0000      -1.045859       -28.4593
  32   2.0000      -1.033870       -28.1330
  33   2.0000      -1.019529       -27.7428
  34   2.0000      -0.998914       -27.1818
  35   2.0000      -0.986454       -26.8428
  36   2.0000      -0.924446       -25.1555
  37   2.0000      -0.881695       -23.9922
  38   2.0000      -0.848651       -23.0930
  39   2.0000      -0.841750       -22.9052
  40   2.0000      -0.837718       -22.7955
  41   2.0000      -0.821510       -22.3544
  42   2.0000      -0.763109       -20.7653
  43   2.0000      -0.736902       -20.0521
  44   2.0000      -0.721693       -19.6383
  45   2.0000      -0.699235       -19.0271
  46   2.0000      -0.687824       -18.7166
  47   2.0000      -0.678191       -18.4545
  48   2.0000      -0.673884       -18.3373
  49   2.0000      -0.665769       -18.1165
  50   2.0000      -0.647846       -17.6288
  51   2.0000      -0.642363       -17.4796
  52   2.0000      -0.636766       -17.3273
  53   2.0000      -0.611299       -16.6343
  54   2.0000      -0.605218       -16.4688
  55   2.0000      -0.602686       -16.3999
  56   2.0000      -0.596224       -16.2241
  57   2.0000      -0.580479       -15.7956
  58   2.0000      -0.571566       -15.5531
  59   2.0000      -0.567108       -15.4318
  60   2.0000      -0.554766       -15.0959
  61   2.0000      -0.548440       -14.9238
  62   2.0000      -0.540915       -14.7190
  63   2.0000      -0.528046       -14.3689
  64   2.0000      -0.516450       -14.0533
  65   2.0000      -0.512598       -13.9485
  66   2.0000      -0.503898       -13.7117
  67   2.0000      -0.499845       -13.6015
  68   2.0000      -0.484208       -13.1760
  69   2.0000      -0.464110       -12.6291
  70   2.0000      -0.452248       -12.3063
  71   2.0000      -0.445323       -12.1178
  72   2.0000      -0.355084        -9.6623
  73   2.0000      -0.354235        -9.6392
  74   2.0000      -0.330174        -8.9845
  75   2.0000      -0.325894        -8.8680
  76   2.0000      -0.320384        -8.7181
  77   0.0000       0.072005         1.9594
  78   0.0000       0.100993         2.7482
  79   0.0000       0.122013         3.3201
  80   0.0000       0.129380         3.5206
  81   0.0000       0.130801         3.5593

MULLIKEN ATOMIC CHARGES
-----------------------
   0 C :   -0.290408
   1 C :    0.045897
   2 O :   -0.366344
   3 C :    0.451862
   4 O :   -0.412290
   5 C :   -0.274534
   6 C :    0.185993
   7 C :   -0.264322
   8 N :   -0.126898
   9 C :    0.213438
  10 S :   -0.440275
  11 N :   -0.219935
  12 C :    0.068670
  13 C :    0.025134
  14 C :   -0.176488
  15 C :   -0.128904
  16 C :   -0.273317
  17 C :    0.304862
  18 O :   -0.359381
  19 C :   -0.230400
  20 H :    0.097435
  21 H :    0.107997
  22 H :    0.104721
  23 H :    0.110642
  24 H :    0.082106
  25 H :    0.130186
  26 H :    0.133006
  27 H :    0.094271
  28 H :    0.199873
  29 H :    0.201593
  30 H :    0.151014
  31 H :    0.151562
  32 H :    0.162327
  33 H :    0.132848
  34 H :    0.241762
  35 H :    0.166299
Sum of atomic charges:   -0.0000000

LOEWDIN ATOMIC CHARGES
----------------------
   0 C :    0.107287
   1 C :   -0.016644
   2 O :    0.293628
   3 C :   -0.423383
   4 O :    0.109625
   5 C :   -0.101250
   6 C :   -0.052169
   7 C :    0.131009
   8 N :    0.408323
   9 C :   -0.456682
  10 S :   -0.034465
  11 N :    0.394872
  12 C :   -0.054448
  13 C :   -0.037732
  14 C :    0.018323
  15 C :    0.044731
  16 C :   -0.000804
  17 C :   -0.191446
  18 O :    0.396292
  19 C :    0.030912
  20 H :   -0.027432
  21 H :   -0.026110
  22 H :   -0.027422
  23 H :   -0.028830
  24 H :   -0.029484
  25 H :   -0.005008
  26 H :   -0.004039
  27 H :   -0.023481
  28 H :   -0.056600
  29 H :   -0.064568
  30 H :   -0.012185
  31 H :   -0.029057
  32 H :   -0.020104
  33 H :   -0.034753
  34 H :   -0.152830
  35 H :   -0.024077

  Mayer bond orders larger than 0.100000
B(  0-C ,  1-C ) :   0.9718 B(  0-C , 20-H ) :   0.9743 B(  0-C , 21-H ) :   0.9804
B(  0-C , 22-H ) :   0.9755 B(  1-C ,  2-O ) :   0.8972 B(  1-C , 23-H ) :   0.9880
B(  1-C , 24-H ) :   0.9710 B(  2-O ,  3-C ) :   1.1142 B(  3-C ,  4-O ) :   2.0130
B(  3-C ,  5-C ) :   1.0719 B(  5-C ,  6-C ) :   1.6130 B(  5-C , 12-C ) :   0.9580
B(  6-C ,  7-C ) :   0.9665 B(  6-C ,  8-N ) :   1.1585 B(  7-C , 25-H ) :   0.9635
B(  7-C , 26-H ) :   0.9558 B(  7-C , 27-H ) :   0.9895 B(  8-N ,  9-C ) :   1.1855
B(  8-N , 28-H ) :   0.9466 B(  9-C , 10-S ) :   1.6041 B(  9-C , 11-N ) :   1.3123
B( 11-N , 12-C ) :   0.9550 B( 11-N , 29-H ) :   0.9480 B( 12-C , 13-C ) :   0.9659
B( 12-C , 30-H ) :   1.0039 B( 13-C , 14-C ) :   1.3549 B( 13-C , 19-C ) :   1.3737
B( 14-C , 15-C ) :   1.3889 B( 14-C , 31-H ) :   0.9733 B( 15-C , 16-C ) :   1.3601
B( 15-C , 32-H ) :   0.9709 B( 16-C , 17-C ) :   1.3326 B( 16-C , 33-H ) :   0.9850
B( 17-C , 18-O ) :   1.1067 B( 17-C , 19-C ) :   1.3635 B( 18-O , 34-H ) :   0.9788
B( 19-C , 35-H ) :   0.9583

MP2 TOTAL ENERGY:    -1274.331097615 Eh
FINAL SINGLE POINT ENERGY     -1274.331097615312

DIPOLE MOMENT
-------------
                                X             Y             Z
Electronic contribution:      7.75054      11.32576       5.25955
Nuclear contribution   :     -8.81051     -12.86647      -5.15125
                        -----------------------------------------
Total Dipole Moment    :     -1.05997      -1.54072       0.10830
                        -----------------------------------------
Magnitude (a.u.)       :      1.87325
Magnitude (Debye)      :      4.76142

Rotational constants in cm-1:     0.012458     0.008563     0.006086
Rotational constants in MHz :   373.488460   256.707280   182.467388

                             ****ORCA TERMINATED NORMALLY****
TOTAL RUN TIME: 0 days 1 hours 43 minutes 2 seconds 65 msec
