                         Program Version 4.2.0 -  RELEASE  -
|  1> ! ri-mp2 cc-pvtz cc-pvtz/c TightSCF NoKeepInts
|  2>
|  3> %scf
|  4>   MaxCore 4096
|  5> end
|  6> *xyz  0  1
|  7>     C       13.7337744   16.4234115   14.9189435
|  8>     C       14.9790620   15.8612761   15.6256341
|  9>     O       16.1443394   16.2421043   14.8691384
| 10>     C       17.2892836   16.5453335   15.5482896
| 11>     O       18.2988593   15.8768410   15.4236164
| 12>     C       17.1738947   17.6630594   16.5348752
| 13>     C       16.7168506   18.8854366   16.1658688
| 14>     C       16.1008343   19.2896498   14.8417146
| 15>     N       16.8751354   19.9879368   17.0079496
| 16>     C       17.6813373   20.0028614   18.1152695
| 17>     S       17.9116261   21.3758656   19.0075778
| 18>     N       18.3075949   18.8227016   18.4316279
| 19>     C       18.0571689   17.5241011   17.7754973
| 20>     C       17.5757837   16.4275035   18.7141162
| 21>     C       18.1611069   15.1495536   18.6720614
| 22>     C       17.7053604   14.1271355   19.5208997
| 23>     C       16.6534034   14.3845364   20.4167609
| 24>     C       16.0639934   15.6556411   20.4557684
| 25>     O       15.0412422   15.9041628   21.3118135
| 26>     C       16.5186167   16.6711525   19.6082692
| 27>     H       12.8216820   16.0677399   15.4137088
| 28>     H       13.7035524   16.0955377   13.8721529
| 29>     H       13.7243739   17.5174605   14.9408547
| 30>     H       15.0123493   16.2517063   16.6518107
| 31>     H       14.9204895   14.7662348   15.6834801
| 32>     H       16.3020466   18.5700917   14.0400841
| 33>     H       16.5076265   20.2481153   14.4947398
| 34>     H       15.0151945   19.4048895   14.9318254
| 35>     H       16.4495758   20.8693949   16.7675492
| 36>     H       18.8911337   18.8581360   19.2582005
| 37>     H       19.0661305   17.2928507   17.4023249
| 38>     H       18.9657617   14.9460014   17.9682287
| 39>     H       18.1650393   13.1410413   19.4785115
| 40>     H       16.2978195   13.5970712   21.0731337
| 41>     H       14.9063941   15.1052405   21.8437311
| 42>     H       16.0485634   17.6482243   19.6519721
| 43> *
| 44>
| 45>                          ****END OF INPUT****

CARTESIAN COORDINATES (ANGSTROEM)
---------------------------------
  C     13.733774   16.423412   14.918943
  C     14.979062   15.861276   15.625634
  O     16.144339   16.242104   14.869138
  C     17.289284   16.545334   15.548290
  O     18.298859   15.876841   15.423616
  C     17.173895   17.663059   16.534875
  C     16.716851   18.885437   16.165869
  C     16.100834   19.289650   14.841715
  N     16.875135   19.987937   17.007950
  C     17.681337   20.002861   18.115270
  S     17.911626   21.375866   19.007578
  N     18.307595   18.822702   18.431628
  C     18.057169   17.524101   17.775497
  C     17.575784   16.427504   18.714116
  C     18.161107   15.149554   18.672061
  C     17.705360   14.127135   19.520900
  C     16.653403   14.384536   20.416761
  C     16.063993   15.655641   20.455768
  O     15.041242   15.904163   21.311813
  C     16.518617   16.671153   19.608269
  H     12.821682   16.067740   15.413709
  H     13.703552   16.095538   13.872153
  H     13.724374   17.517460   14.940855
  H     15.012349   16.251706   16.651811
  H     14.920489   14.766235   15.683480
  H     16.302047   18.570092   14.040084
  H     16.507627   20.248115   14.494740
  H     15.015194   19.404889   14.931825
  H     16.449576   20.869395   16.767549
  H     18.891134   18.858136   19.258201
  H     19.066130   17.292851   17.402325
  H     18.965762   14.946001   17.968229
  H     18.165039   13.141041   19.478511
  H     16.297819   13.597071   21.073134
  H     14.906394   15.105240   21.843731
  H     16.048563   17.648224   19.651972

 Total Charge           Charge          ....    0
 Multiplicity           Mult            ....    1
 Number of Electrons    NEL             ....  154
 Basis Dimension        Dim             ....  828

ORBITAL ENERGIES
----------------

  NO   OCC          E(Eh)            E(eV)
   0   2.0000     -91.889694     -2500.4457
   1   2.0000     -20.598686      -560.5187
   2   2.0000     -20.594310      -560.3997
   3   2.0000     -20.554663      -559.3208
   4   2.0000     -15.628214      -425.2653
   5   2.0000     -15.608788      -424.7367
   6   2.0000     -11.396445      -310.1130
   7   2.0000     -11.385373      -309.8118
   8   2.0000     -11.336085      -308.4706
   9   2.0000     -11.315726      -307.9166
  10   2.0000     -11.308527      -307.7207
  11   2.0000     -11.305472      -307.6375
  12   2.0000     -11.263152      -306.4859
  13   2.0000     -11.263106      -306.4847
  14   2.0000     -11.262986      -306.4814
  15   2.0000     -11.255748      -306.2845
  16   2.0000     -11.245092      -305.9945
  17   2.0000     -11.241318      -305.8918
  18   2.0000     -11.238086      -305.8039
  19   2.0000     -11.237308      -305.7827
  20   2.0000      -8.894796      -242.0397
  21   2.0000      -6.576376      -178.9523
  22   2.0000      -6.574366      -178.8976
  23   2.0000      -6.573782      -178.8817
  24   2.0000      -1.451383       -39.4941
  25   2.0000      -1.418427       -38.5974
  26   2.0000      -1.362590       -37.0780
  27   2.0000      -1.341187       -36.4956
  28   2.0000      -1.239214       -33.7207
  29   2.0000      -1.159932       -31.5633
  30   2.0000      -1.124845       -30.6086
  31   2.0000      -1.047208       -28.4960
  32   2.0000      -1.040551       -28.3148
  33   2.0000      -1.017617       -27.6908
  34   2.0000      -1.004789       -27.3417
  35   2.0000      -0.988548       -26.8998
  36   2.0000      -0.925411       -25.1817
  37   2.0000      -0.884226       -24.0610
  38   2.0000      -0.852738       -23.2042
  39   2.0000      -0.842309       -22.9204
  40   2.0000      -0.836267       -22.7560
  41   2.0000      -0.834822       -22.7167
  42   2.0000      -0.759892       -20.6777
  43   2.0000      -0.737850       -20.0779
  44   2.0000      -0.731322       -19.9003
  45   2.0000      -0.696135       -18.9428
  46   2.0000      -0.687890       -18.7184
  47   2.0000      -0.685367       -18.6498
  48   2.0000      -0.674722       -18.3601
  49   2.0000      -0.661317       -17.9953
  50   2.0000      -0.651954       -17.7406
  51   2.0000      -0.640326       -17.4242
  52   2.0000      -0.633972       -17.2513
  53   2.0000      -0.624927       -17.0051
  54   2.0000      -0.609934       -16.5971
  55   2.0000      -0.605768       -16.4838
  56   2.0000      -0.602057       -16.3828
  57   2.0000      -0.582139       -15.8408
  58   2.0000      -0.575239       -15.6530
  59   2.0000      -0.570204       -15.5160
  60   2.0000      -0.561619       -15.2824
  61   2.0000      -0.555897       -15.1267
  62   2.0000      -0.545358       -14.8399
  63   2.0000      -0.528939       -14.3932
  64   2.0000      -0.522172       -14.2090
  65   2.0000      -0.514086       -13.9890
  66   2.0000      -0.501128       -13.6364
  67   2.0000      -0.498485       -13.5645
  68   2.0000      -0.487916       -13.2769
  69   2.0000      -0.467912       -12.7325
  70   2.0000      -0.463488       -12.6122
  71   2.0000      -0.451534       -12.2869
  72   2.0000      -0.356715        -9.7067
  73   2.0000      -0.351054        -9.5527
  74   2.0000      -0.329091        -8.9550
  75   2.0000      -0.323061        -8.7909
  76   2.0000      -0.319825        -8.7029
  77   0.0000       0.080501         2.1905
  78   0.0000       0.103501         2.8164
  79   0.0000       0.118854         3.2342
  80   0.0000       0.130894         3.5618
  81   0.0000       0.132706         3.6111

MULLIKEN ATOMIC CHARGES
-----------------------
   0 C :   -0.278087
   1 C :    0.023712
   2 O :   -0.350233
   3 C :    0.454215
   4 O :   -0.375135
   5 C :   -0.248849
   6 C :    0.172282
   7 C :   -0.341773
   8 N :   -0.136032
   9 C :    0.205956
  10 S :   -0.442321
  11 N :   -0.217390
  12 C :    0.061986
  13 C :    0.024337
  14 C :   -0.206843
  15 C :   -0.129193
  16 C :   -0.276710
  17 C :    0.314281
  18 O :   -0.356754
  19 C :   -0.256184
  20 H :    0.102655
  21 H :    0.106404
  22 H :    0.088385
  23 H :    0.100651
  24 H :    0.116684
  25 H :    0.142605
  26 H :    0.132744
  27 H :    0.123689
  28 H :    0.198779
  29 H :    0.200848
  30 H :    0.163551
  31 H :    0.173385
  32 H :    0.163936
  33 H :    0.131312
  34 H :    0.241202
  35 H :    0.171905
Sum of atomic charges:    0.0000000

LOEWDIN ATOMIC CHARGES
----------------------
   0 C :    0.109001
   1 C :   -0.017884
   2 O :    0.298326
   3 C :   -0.419059
   4 O :    0.128456
   5 C :   -0.090334
   6 C :   -0.080963
   7 C :    0.125670
   8 N :    0.403865
   9 C :   -0.457357
  10 S :   -0.037724
  11 N :    0.395771
  12 C :   -0.049421
  13 C :   -0.044079
  14 C :    0.021378
  15 C :    0.043896
  16 C :   -0.000144
  17 C :   -0.192586
  18 O :    0.394431
  19 C :    0.026984
  20 H :   -0.022833
  21 H :   -0.023712
  22 H :   -0.033033
  23 H :   -0.033845
  24 H :   -0.026357
  25 H :   -0.009634
  26 H :   -0.012621
  27 H :   -0.018582
  28 H :   -0.056463
  29 H :   -0.063635
  30 H :   -0.005112
  31 H :   -0.021577
  32 H :   -0.019028
  33 H :   -0.034988
  34 H :   -0.153350
  35 H :   -0.023456

  Mayer bond orders larger than 0.100000
B(  0-C ,  1-C ) :   0.9784 B(  0-C , 20-H ) :   0.9769 B(  0-C , 21-H ) :   0.9768
B(  0-C , 22-H ) :   0.9778 B(  1-C ,  2-O ) :   0.9036 B(  1-C , 23-H ) :   0.9581
B(  1-C , 24-H ) :   0.9815 B(  2-O ,  3-C ) :   1.1195 B(  3-C ,  4-O ) :   2.0938
B(  3-C ,  5-C ) :   0.9429 B(  5-C ,  6-C ) :   1.6986 B(  5-C , 12-C ) :   0.9453
B(  6-C ,  7-C ) :   0.9436 B(  6-C ,  8-N ) :   1.1170 B(  7-C , 25-H ) :   0.9705
B(  7-C , 26-H ) :   0.9772 B(  7-C , 27-H ) :   0.9663 B(  8-N ,  9-C ) :   1.1941
B(  8-N , 28-H ) :   0.9504 B(  9-C , 10-S ) :   1.6111 B(  9-C , 11-N ) :   1.2943
B( 11-N , 12-C ) :   0.9874 B( 11-N , 29-H ) :   0.9485 B( 12-C , 13-C ) :   0.9684
B( 12-C , 30-H ) :   0.9920 B( 13-C , 14-C ) :   1.3860 B( 13-C , 19-C ) :   1.3540
B( 14-C , 15-C ) :   1.3939 B( 14-C , 31-H ) :   0.9595 B( 15-C , 16-C ) :   1.3618
B( 15-C , 32-H ) :   0.9701 B( 16-C , 17-C ) :   1.3313 B( 16-C , 33-H ) :   0.9849
B( 17-C , 18-O ) :   1.1083 B( 17-C , 19-C ) :   1.3640 B( 18-O , 34-H ) :   0.9795
B( 19-C , 35-H ) :   0.9576

MP2 TOTAL ENERGY:    -1274.328721931 Eh
FINAL SINGLE POINT ENERGY     -1274.328721930837

DIPOLE MOMENT
-------------
                                X             Y             Z
Electronic contribution:     10.91154       6.43373       8.73969
Nuclear contribution   :    -12.40715      -7.71839      -9.08843
                        -----------------------------------------
Total Dipole Moment    :     -1.49561      -1.28466      -0.34874
                        -----------------------------------------
Magnitude (a.u.)       :      2.00220
Magnitude (Debye)      :      5.08919

Rotational constants in cm-1:     0.010557     0.009173     0.006312
Rotational constants in MHz :   316.504574   275.000605   189.219785

                             ****ORCA TERMINATED NORMALLY****
TOTAL RUN TIME: 0 days 1 hours 44 minutes 32 seconds 862 msec
