                         Program Version 4.2.0 -  RELEASE  -
|  1> ! ri-mp2 cc-pvtz cc-pvtz/c TightSCF NoKeepInts
|  2>
|  3> %scf
|  4>   MaxCore 4096
|  5> end
|  6> *xyz  0  1
|  7>     C       15.3478893   13.8440737   15.5063192
|  8>     C       15.3144262   15.2294671   14.8392421
|  9>     O       15.9864828   16.1407096   15.7241739
| 10>     C       15.6883995   17.4740202   15.6837438
| 11>     O       14.8366151   17.9257699   14.9368640
| 12>     C       16.5439198   18.2861488   16.6197549
| 13>     C       16.6062019   19.6383186   16.5101451
| 14>     C       15.7002934   20.5342480   15.6907734
| 15>     N       17.5860773   20.3710100   17.1839434
| 16>     C       18.6534549   19.8182025   17.8381479
| 17>     S       19.8307527   20.7476763   18.5351481
| 18>     N       18.7084075   18.4478357   17.8677270
| 19>     C       17.6589858   17.5379493   17.3706734
| 20>     C       17.1537198   16.5842199   18.4455876
| 21>     C       17.4441084   15.2090710   18.3781279
| 22>     C       16.9758981   14.3312612   19.3702675
| 23>     C       16.2153740   14.8339480   20.4400390
| 24>     C       15.9293414   16.2044887   20.5117305
| 25>     O       15.1964843   16.6924492   21.5441760
| 26>     C       16.3962883   17.0754810   19.5223515
| 27>     H       16.3820776   13.5047071   15.6416847
| 28>     H       14.8209952   13.1063756   14.8890627
| 29>     H       14.8637182   13.8785337   16.4906495
| 30>     H       15.8063127   15.2082746   13.8580545
| 31>     H       14.2646877   15.5229714   14.6999085
| 32>     H       15.8437833   20.3527214   14.6180247
| 33>     H       15.8719407   21.6016621   15.8728326
| 34>     H       14.6463431   20.3305345   15.9198731
| 35>     H       17.5690556   21.3778050   17.1516139
| 36>     H       19.4895501   18.0688452   18.3879262
| 37>     H       18.2229825   16.9913051   16.6017426
| 38>     H       18.0261176   14.8190950   17.5475423
| 39>     H       17.2013814   13.2681970   19.3078444
| 40>     H       15.8514599   14.1602323   21.2087079
| 41>     H       14.9833702   15.9484827   22.1271219
| 42>     H       16.1701036   18.1339083   19.5964748
| 43> *
| 44>
| 45>                          ****END OF INPUT****

CARTESIAN COORDINATES (ANGSTROEM)
---------------------------------
  C     15.347889   13.844074   15.506319
  C     15.314426   15.229467   14.839242
  O     15.986483   16.140710   15.724174
  C     15.688399   17.474020   15.683744
  O     14.836615   17.925770   14.936864
  C     16.543920   18.286149   16.619755
  C     16.606202   19.638319   16.510145
  C     15.700293   20.534248   15.690773
  N     17.586077   20.371010   17.183943
  C     18.653455   19.818202   17.838148
  S     19.830753   20.747676   18.535148
  N     18.708407   18.447836   17.867727
  C     17.658986   17.537949   17.370673
  C     17.153720   16.584220   18.445588
  C     17.444108   15.209071   18.378128
  C     16.975898   14.331261   19.370267
  C     16.215374   14.833948   20.440039
  C     15.929341   16.204489   20.511730
  O     15.196484   16.692449   21.544176
  C     16.396288   17.075481   19.522351
  H     16.382078   13.504707   15.641685
  H     14.820995   13.106376   14.889063
  H     14.863718   13.878534   16.490649
  H     15.806313   15.208275   13.858054
  H     14.264688   15.522971   14.699908
  H     15.843783   20.352721   14.618025
  H     15.871941   21.601662   15.872833
  H     14.646343   20.330534   15.919873
  H     17.569056   21.377805   17.151614
  H     19.489550   18.068845   18.387926
  H     18.222983   16.991305   16.601743
  H     18.026118   14.819095   17.547542
  H     17.201381   13.268197   19.307844
  H     15.851460   14.160232   21.208708
  H     14.983370   15.948483   22.127122
  H     16.170104   18.133908   19.596475

 Total Charge           Charge          ....    0
 Multiplicity           Mult            ....    1
 Number of Electrons    NEL             ....  154
 Basis Dimension        Dim             ....  828

ORBITAL ENERGIES
----------------

  NO   OCC          E(Eh)            E(eV)
   0   2.0000     -91.888546     -2500.4145
   1   2.0000     -20.602606      -560.6254
   2   2.0000     -20.595687      -560.4371
   3   2.0000     -20.541014      -558.9494
   4   2.0000     -15.628801      -425.2813
   5   2.0000     -15.606788      -424.6823
   6   2.0000     -11.394932      -310.0719
   7   2.0000     -11.383217      -309.7531
   8   2.0000     -11.336959      -308.4943
   9   2.0000     -11.312773      -307.8362
  10   2.0000     -11.307342      -307.6884
  11   2.0000     -11.296234      -307.3861
  12   2.0000     -11.259905      -306.3976
  13   2.0000     -11.259471      -306.3858
  14   2.0000     -11.254155      -306.2411
  15   2.0000     -11.251280      -306.1629
  16   2.0000     -11.242968      -305.9367
  17   2.0000     -11.238266      -305.8088
  18   2.0000     -11.237952      -305.8002
  19   2.0000     -11.230141      -305.5877
  20   2.0000      -8.893622      -242.0078
  21   2.0000      -6.575197      -178.9202
  22   2.0000      -6.573197      -178.8658
  23   2.0000      -6.572608      -178.8497
  24   2.0000      -1.452500       -39.5245
  25   2.0000      -1.415368       -38.5141
  26   2.0000      -1.354717       -36.8637
  27   2.0000      -1.340045       -36.4645
  28   2.0000      -1.237969       -33.6869
  29   2.0000      -1.156899       -31.4808
  30   2.0000      -1.120855       -30.5000
  31   2.0000      -1.043226       -28.3876
  32   2.0000      -1.040181       -28.3048
  33   2.0000      -1.014304       -27.6006
  34   2.0000      -0.996026       -27.1032
  35   2.0000      -0.984481       -26.7891
  36   2.0000      -0.921384       -25.0721
  37   2.0000      -0.888688       -24.1824
  38   2.0000      -0.845882       -23.0176
  39   2.0000      -0.837205       -22.7815
  40   2.0000      -0.833431       -22.6788
  41   2.0000      -0.816660       -22.2224
  42   2.0000      -0.765953       -20.8427
  43   2.0000      -0.732562       -19.9340
  44   2.0000      -0.720093       -19.5947
  45   2.0000      -0.695090       -18.9144
  46   2.0000      -0.688923       -18.7465
  47   2.0000      -0.678970       -18.4757
  48   2.0000      -0.672410       -18.2972
  49   2.0000      -0.667131       -18.1536
  50   2.0000      -0.645456       -17.5637
  51   2.0000      -0.643146       -17.5009
  52   2.0000      -0.634957       -17.2781
  53   2.0000      -0.606146       -16.4941
  54   2.0000      -0.600551       -16.3418
  55   2.0000      -0.598349       -16.2819
  56   2.0000      -0.589160       -16.0319
  57   2.0000      -0.577775       -15.7221
  58   2.0000      -0.569473       -15.4961
  59   2.0000      -0.569202       -15.4888
  60   2.0000      -0.562662       -15.3108
  61   2.0000      -0.551098       -14.9961
  62   2.0000      -0.540036       -14.6951
  63   2.0000      -0.523700       -14.2506
  64   2.0000      -0.523148       -14.2356
  65   2.0000      -0.512705       -13.9514
  66   2.0000      -0.502079       -13.6623
  67   2.0000      -0.497031       -13.5249
  68   2.0000      -0.483961       -13.1693
  69   2.0000      -0.462569       -12.5872
  70   2.0000      -0.460015       -12.5177
  71   2.0000      -0.447990       -12.1904
  72   2.0000      -0.352843        -9.6014
  73   2.0000      -0.349219        -9.5027
  74   2.0000      -0.327701        -8.9172
  75   2.0000      -0.320113        -8.7107
  76   2.0000      -0.317666        -8.6441
  77   0.0000       0.078410         2.1336
  78   0.0000       0.105564         2.8725
  79   0.0000       0.123824         3.3694
  80   0.0000       0.133113         3.6222
  81   0.0000       0.137098         3.7306

MULLIKEN ATOMIC CHARGES
-----------------------
   0 C :   -0.282367
   1 C :    0.038201
   2 O :   -0.335290
   3 C :    0.432860
   4 O :   -0.436289
   5 C :   -0.220401
   6 C :    0.173313
   7 C :   -0.269348
   8 N :   -0.126308
   9 C :    0.210368
  10 S :   -0.442527
  11 N :   -0.214021
  12 C :    0.052650
  13 C :    0.049814
  14 C :   -0.182562
  15 C :   -0.132914
  16 C :   -0.276870
  17 C :    0.317295
  18 O :   -0.357041
  19 C :   -0.248268
  20 H :    0.088671
  21 H :    0.104958
  22 H :    0.107843
  23 H :    0.088451
  24 H :    0.105058
  25 H :    0.128874
  26 H :    0.094316
  27 H :    0.133454
  28 H :    0.199702
  29 H :    0.200186
  30 H :    0.151277
  31 H :    0.153440
  32 H :    0.160621
  33 H :    0.130127
  34 H :    0.240328
  35 H :    0.162398
Sum of atomic charges:   -0.0000000

LOEWDIN ATOMIC CHARGES
----------------------
   0 C :    0.105752
   1 C :   -0.015054
   2 O :    0.311555
   3 C :   -0.413327
   4 O :    0.094227
   5 C :   -0.094502
   6 C :   -0.057093
   7 C :    0.130922
   8 N :    0.406975
   9 C :   -0.456734
  10 S :   -0.037063
  11 N :    0.394711
  12 C :   -0.055145
  13 C :   -0.039954
  14 C :    0.018960
  15 C :    0.039874
  16 C :   -0.000554
  17 C :   -0.189657
  18 O :    0.394892
  19 C :    0.033662
  20 H :   -0.031324
  21 H :   -0.024826
  22 H :   -0.023544
  23 H :   -0.031531
  24 H :   -0.027093
  25 H :   -0.005233
  26 H :   -0.023697
  27 H :   -0.004202
  28 H :   -0.057167
  29 H :   -0.064331
  30 H :   -0.014671
  31 H :   -0.030782
  32 H :   -0.021673
  33 H :   -0.035444
  34 H :   -0.154170
  35 H :   -0.022758

  Mayer bond orders larger than 0.100000
B(  0-C ,  1-C ) :   0.9733 B(  0-C , 20-H ) :   0.9788 B(  0-C , 21-H ) :   0.9787
B(  0-C , 22-H ) :   0.9734 B(  1-C ,  2-O ) :   0.9050 B(  1-C , 23-H ) :   0.9809
B(  1-C , 24-H ) :   0.9756 B(  2-O ,  3-C ) :   1.1847 B(  3-C ,  4-O ) :   1.9609
B(  3-C ,  5-C ) :   1.0727 B(  5-C ,  6-C ) :   1.6467 B(  5-C , 12-C ) :   0.9538
B(  6-C ,  7-C ) :   0.9659 B(  6-C ,  8-N ) :   1.1532 B(  7-C , 25-H ) :   0.9585
B(  7-C , 26-H ) :   0.9903 B(  7-C , 27-H ) :   0.9617 B(  8-N ,  9-C ) :   1.1880
B(  8-N , 28-H ) :   0.9463 B(  9-C , 10-S ) :   1.6057 B(  9-C , 11-N ) :   1.3085
B( 11-N , 12-C ) :   0.9708 B( 11-N , 29-H ) :   0.9484 B( 12-C , 13-C ) :   0.9654
B( 12-C , 30-H ) :   1.0006 B( 13-C , 14-C ) :   1.3562 B( 13-C , 19-C ) :   1.3801
B( 14-C , 15-C ) :   1.3926 B( 14-C , 31-H ) :   0.9703 B( 15-C , 16-C ) :   1.3601
B( 15-C , 32-H ) :   0.9702 B( 16-C , 17-C ) :   1.3332 B( 16-C , 33-H ) :   0.9851
B( 17-C , 18-O ) :   1.1040 B( 17-C , 19-C ) :   1.3657 B( 18-O , 34-H ) :   0.9801
B( 19-C , 35-H ) :   0.9595

MP2 TOTAL ENERGY:    -1274.345040907 Eh
FINAL SINGLE POINT ENERGY     -1274.345040906860

DIPOLE MOMENT
-------------
                                X             Y             Z
Electronic contribution:      8.07759      12.00388       7.59780
Nuclear contribution   :     -9.05283     -13.74995      -7.99224
                        -----------------------------------------
Total Dipole Moment    :     -0.97524      -1.74608      -0.39444
                        -----------------------------------------
Magnitude (a.u.)       :      2.03849
Magnitude (Debye)      :      5.18144

Rotational constants in cm-1:     0.011352     0.008441     0.005885
Rotational constants in MHz :   340.318904   253.039922   176.429868

                             ****ORCA TERMINATED NORMALLY****
TOTAL RUN TIME: 0 days 1 hours 38 minutes 42 seconds 414 msec
