                         Program Version 4.2.0 -  RELEASE  -
|  1> ! ri-mp2 cc-pvtz cc-pvtz/c TightSCF NoKeepInts
|  2>
|  3> %scf
|  4>   MaxCore 4096
|  5> end
|  6> *xyz  0  1
|  7>     C       14.0364290   15.2159548   14.8990537
|  8>     C       14.9722606   16.2478335   15.5489008
|  9>     O       16.2775232   16.0635274   14.9689210
| 10>     C       17.3992638   16.4178707   15.6680122
| 11>     O       18.4120722   15.7441182   15.6308731
| 12>     C       17.2714037   17.6272687   16.5379075
| 13>     C       16.9487303   18.8317295   16.0049799
| 14>     C       16.4894257   19.1193860   14.5887834
| 15>     N       17.1170220   20.0053607   16.7422323
| 16>     C       17.8246325   20.0831396   17.9128402
| 17>     S       18.0838827   21.5248933   18.6797819
| 18>     N       18.3283347   18.9033169   18.4031313
| 19>     C       18.0323797   17.5617824   17.8617677
| 20>     C       17.3948897   16.6009111   18.8540219
| 21>     C       17.8568644   15.2763883   18.9527516
| 22>     C       17.2575529   14.3762345   19.8494351
| 23>     C       16.1851371   14.8037712   20.6510342
| 24>     C       15.7182862   16.1214525   20.5490479
| 25>     O       14.6761210   16.5339401   21.3134732
| 26>     C       16.3157848   17.0151848   19.6543164
| 27>     H       14.4040826   14.1970866   15.0756026
| 28>     H       13.9749193   15.3772881   13.8155578
| 29>     H       13.0254318   15.2933906   15.3171818
| 30>     H       14.5951689   17.2627974   15.3792170
| 31>     H       15.0034994   16.0586587   16.6313573
| 32>     H       16.7808491   18.3295637   13.8857172
| 33>     H       16.9381356   20.0450462   14.2059523
| 34>     H       15.4003209   19.2336542   14.5387387
| 35>     H       16.7857550   20.8836211   16.3748903
| 36>     H       18.8426288   18.9871715   19.2712317
| 37>     H       19.0484525   17.2249975   17.6065920
| 38>     H       18.6778524   14.9411714   18.3217946
| 39>     H       17.6224834   13.3525892   19.9164227
| 40>     H       15.7186779   14.1109561   21.3436993
| 41>     H       14.4324051   15.7975580   21.8946498
| 42>     H       15.9383408   18.0303856   19.5881295
| 43> *
| 44>
| 45>                          ****END OF INPUT****

CARTESIAN COORDINATES (ANGSTROEM)
---------------------------------
  C     14.036429   15.215955   14.899054
  C     14.972261   16.247833   15.548901
  O     16.277523   16.063527   14.968921
  C     17.399264   16.417871   15.668012
  O     18.412072   15.744118   15.630873
  C     17.271404   17.627269   16.537907
  C     16.948730   18.831730   16.004980
  C     16.489426   19.119386   14.588783
  N     17.117022   20.005361   16.742232
  C     17.824632   20.083140   17.912840
  S     18.083883   21.524893   18.679782
  N     18.328335   18.903317   18.403131
  C     18.032380   17.561782   17.861768
  C     17.394890   16.600911   18.854022
  C     17.856864   15.276388   18.952752
  C     17.257553   14.376235   19.849435
  C     16.185137   14.803771   20.651034
  C     15.718286   16.121453   20.549048
  O     14.676121   16.533940   21.313473
  C     16.315785   17.015185   19.654316
  H     14.404083   14.197087   15.075603
  H     13.974919   15.377288   13.815558
  H     13.025432   15.293391   15.317182
  H     14.595169   17.262797   15.379217
  H     15.003499   16.058659   16.631357
  H     16.780849   18.329564   13.885717
  H     16.938136   20.045046   14.205952
  H     15.400321   19.233654   14.538739
  H     16.785755   20.883621   16.374890
  H     18.842629   18.987171   19.271232
  H     19.048452   17.224998   17.606592
  H     18.677852   14.941171   18.321795
  H     17.622483   13.352589   19.916423
  H     15.718678   14.110956   21.343699
  H     14.432405   15.797558   21.894650
  H     15.938341   18.030386   19.588130

 Total Charge           Charge          ....    0
 Multiplicity           Mult            ....    1
 Number of Electrons    NEL             ....  154
 Basis Dimension        Dim             ....  828

ORBITAL ENERGIES
----------------

  NO   OCC          E(Eh)            E(eV)
   0   2.0000     -91.889895     -2500.4512
   1   2.0000     -20.601274      -560.5892
   2   2.0000     -20.599020      -560.5278
   3   2.0000     -20.552152      -559.2525
   4   2.0000     -15.628391      -425.2701
   5   2.0000     -15.609233      -424.7488
   6   2.0000     -11.397686      -310.1468
   7   2.0000     -11.385685      -309.8202
   8   2.0000     -11.335498      -308.4546
   9   2.0000     -11.316203      -307.9295
  10   2.0000     -11.309174      -307.7383
  11   2.0000     -11.306690      -307.6707
  12   2.0000     -11.266209      -306.5691
  13   2.0000     -11.263726      -306.5016
  14   2.0000     -11.263325      -306.4906
  15   2.0000     -11.256358      -306.3011
  16   2.0000     -11.245441      -306.0040
  17   2.0000     -11.241579      -305.8989
  18   2.0000     -11.238611      -305.8181
  19   2.0000     -11.234595      -305.7089
  20   2.0000      -8.895000      -242.0453
  21   2.0000      -6.576581      -178.9579
  22   2.0000      -6.574569      -178.9031
  23   2.0000      -6.573986      -178.8872
  24   2.0000      -1.451312       -39.4922
  25   2.0000      -1.418745       -38.6060
  26   2.0000      -1.363598       -37.1054
  27   2.0000      -1.341187       -36.4956
  28   2.0000      -1.239319       -33.7236
  29   2.0000      -1.160521       -31.5794
  30   2.0000      -1.125670       -30.6310
  31   2.0000      -1.047948       -28.5161
  32   2.0000      -1.040948       -28.3256
  33   2.0000      -1.018289       -27.7091
  34   2.0000      -1.005429       -27.3591
  35   2.0000      -0.989096       -26.9147
  36   2.0000      -0.926048       -25.1990
  37   2.0000      -0.880490       -23.9594
  38   2.0000      -0.856019       -23.2935
  39   2.0000      -0.842784       -22.9333
  40   2.0000      -0.837500       -22.7895
  41   2.0000      -0.835501       -22.7351
  42   2.0000      -0.758304       -20.6345
  43   2.0000      -0.739474       -20.1221
  44   2.0000      -0.732068       -19.9206
  45   2.0000      -0.696526       -18.9534
  46   2.0000      -0.688809       -18.7435
  47   2.0000      -0.683217       -18.5913
  48   2.0000      -0.674895       -18.3648
  49   2.0000      -0.663860       -18.0645
  50   2.0000      -0.657942       -17.9035
  51   2.0000      -0.648187       -17.6381
  52   2.0000      -0.639508       -17.4019
  53   2.0000      -0.612263       -16.6605
  54   2.0000      -0.606418       -16.5015
  55   2.0000      -0.602590       -16.3973
  56   2.0000      -0.597278       -16.2527
  57   2.0000      -0.583496       -15.8777
  58   2.0000      -0.576961       -15.6999
  59   2.0000      -0.567781       -15.4501
  60   2.0000      -0.562646       -15.3104
  61   2.0000      -0.560024       -15.2390
  62   2.0000      -0.550731       -14.9861
  63   2.0000      -0.525930       -14.3113
  64   2.0000      -0.519215       -14.1285
  65   2.0000      -0.514849       -14.0098
  66   2.0000      -0.504240       -13.7211
  67   2.0000      -0.501025       -13.6336
  68   2.0000      -0.489656       -13.3242
  69   2.0000      -0.470855       -12.8126
  70   2.0000      -0.458735       -12.4828
  71   2.0000      -0.452196       -12.3049
  72   2.0000      -0.356753        -9.7077
  73   2.0000      -0.351305        -9.5595
  74   2.0000      -0.329327        -8.9614
  75   2.0000      -0.323757        -8.8099
  76   2.0000      -0.319867        -8.7040
  77   0.0000       0.081797         2.2258
  78   0.0000       0.104337         2.8392
  79   0.0000       0.116189         3.1617
  80   0.0000       0.130367         3.5475
  81   0.0000       0.130841         3.5604

MULLIKEN ATOMIC CHARGES
-----------------------
   0 C :   -0.255238
   1 C :    0.024777
   2 O :   -0.318895
   3 C :    0.421364
   4 O :   -0.378288
   5 C :   -0.212337
   6 C :    0.142301
   7 C :   -0.327632
   8 N :   -0.137731
   9 C :    0.207817
  10 S :   -0.442127
  11 N :   -0.220034
  12 C :    0.062095
  13 C :    0.022636
  14 C :   -0.213733
  15 C :   -0.128423
  16 C :   -0.277187
  17 C :    0.314282
  18 O :   -0.356327
  19 C :   -0.250629
  20 H :    0.106849
  21 H :    0.097487
  22 H :    0.089584
  23 H :    0.083004
  24 H :    0.107936
  25 H :    0.139506
  26 H :    0.126610
  27 H :    0.122627
  28 H :    0.197821
  29 H :    0.201765
  30 H :    0.165215
  31 H :    0.175560
  32 H :    0.164267
  33 H :    0.131684
  34 H :    0.241223
  35 H :    0.172167
Sum of atomic charges:   -0.0000000

LOEWDIN ATOMIC CHARGES
----------------------
   0 C :    0.111697
   1 C :   -0.025752
   2 O :    0.304246
   3 C :   -0.417462
   4 O :    0.122943
   5 C :   -0.087643
   6 C :   -0.084901
   7 C :    0.126292
   8 N :    0.403185
   9 C :   -0.456955
  10 S :   -0.037650
  11 N :    0.395909
  12 C :   -0.049404
  13 C :   -0.044357
  14 C :    0.020183
  15 C :    0.044155
  16 C :   -0.000221
  17 C :   -0.192205
  18 O :    0.394715
  19 C :    0.027040
  20 H :   -0.021669
  21 H :   -0.026362
  22 H :   -0.025000
  23 H :   -0.037919
  24 H :   -0.027657
  25 H :   -0.007552
  26 H :   -0.012325
  27 H :   -0.018407
  28 H :   -0.057088
  29 H :   -0.063614
  30 H :   -0.004625
  31 H :   -0.021364
  32 H :   -0.018802
  33 H :   -0.034906
  34 H :   -0.153256
  35 H :   -0.023269

  Mayer bond orders larger than 0.100000
B(  0-C ,  1-C ) :   0.9817 B(  0-C , 20-H ) :   0.9772 B(  0-C , 21-H ) :   0.9783
B(  0-C , 22-H ) :   0.9765 B(  1-C ,  2-O ) :   0.9047 B(  1-C , 23-H ) :   0.9700
B(  1-C , 24-H ) :   0.9697 B(  2-O ,  3-C ) :   1.1676 B(  3-C ,  4-O ) :   2.0955
B(  3-C ,  5-C ) :   0.9326 B(  5-C ,  6-C ) :   1.7101 B(  5-C , 12-C ) :   0.9413
B(  6-C ,  7-C ) :   0.9354 B(  6-C ,  8-N ) :   1.1147 B(  7-C , 25-H ) :   0.9719
B(  7-C , 26-H ) :   0.9789 B(  7-C , 27-H ) :   0.9665 B(  8-N ,  9-C ) :   1.1944
B(  8-N , 28-H ) :   0.9507 B(  9-C , 10-S ) :   1.6109 B(  9-C , 11-N ) :   1.2929
B( 11-N , 12-C ) :   0.9842 B( 11-N , 29-H ) :   0.9479 B( 12-C , 13-C ) :   0.9678
B( 12-C , 30-H ) :   0.9904 B( 13-C , 14-C ) :   1.3848 B( 13-C , 19-C ) :   1.3544
B( 14-C , 15-C ) :   1.3939 B( 14-C , 31-H ) :   0.9591 B( 15-C , 16-C ) :   1.3616
B( 15-C , 32-H ) :   0.9700 B( 16-C , 17-C ) :   1.3313 B( 16-C , 33-H ) :   0.9848
B( 17-C , 18-O ) :   1.1086 B( 17-C , 19-C ) :   1.3656 B( 18-O , 34-H ) :   0.9794
B( 19-C , 35-H ) :   0.9570

MP2 TOTAL ENERGY:    -1274.331924960 Eh
FINAL SINGLE POINT ENERGY     -1274.331924959633

DIPOLE MOMENT
-------------
                                X             Y             Z
Electronic contribution:     10.37863       8.68856       8.87622
Nuclear contribution   :    -12.00418      -9.83239      -9.23070
                        -----------------------------------------
Total Dipole Moment    :     -1.62555      -1.14382      -0.35448
                        -----------------------------------------
Magnitude (a.u.)       :      2.01901
Magnitude (Debye)      :      5.13192

Rotational constants in cm-1:     0.010524     0.009162     0.006158
Rotational constants in MHz :   315.502040   274.684236   184.616735

                             ****ORCA TERMINATED NORMALLY****
TOTAL RUN TIME: 0 days 1 hours 47 minutes 20 seconds 435 msec
