                         Program Version 4.2.0 -  RELEASE  -
|  1> ! ri-mp2 cc-pvtz cc-pvtz/c TightSCF NoKeepInts
|  2>
|  3> %scf
|  4>   MaxCore 4096
|  5> end
|  6> *xyz  0  1
|  7>     C       14.5393673   15.0195259   14.6545146
|  8>     C       15.6047384   14.9552299   15.7687609
|  9>     O       16.6160518   15.9828501   15.6517695
| 10>     C       16.3150075   17.3104140   15.5058586
| 11>     O       15.5969577   17.7303191   14.6160252
| 12>     C       16.9129010   18.1569936   16.5990488
| 13>     C       16.9380291   19.5112556   16.4977029
| 14>     C       16.1975657   20.3698810   15.4930281
| 15>     N       17.7119381   20.2842824   17.3663523
| 16>     C       18.6316013   19.7773872   18.2438374
| 17>     S       19.5818476   20.7553610   19.1799305
| 18>     N       18.7402833   18.4108836   18.2925707
| 19>     C       17.8694757   17.4570805   17.5804291
| 20>     C       17.1878657   16.4733807   18.5227634
| 21>     C       17.6375233   15.1431391   18.6137145
| 22>     C       17.0019211   14.2325485   19.4744783
| 23>     C       15.9112664   14.6573263   20.2526236
| 24>     C       15.4663244   15.9840276   20.1687449
| 25>     O       14.4142350   16.3969721   20.9191628
| 26>     C       16.0998089   16.8874257   19.3096871
| 27>     H       13.8596910   15.8678927   14.8017294
| 28>     H       13.9328171   14.1060442   14.6543717
| 29>     H       15.0117719   15.1159009   13.6687637
| 30>     H       15.1061184   15.0408772   16.7435689
| 31>     H       16.0969473   13.9748806   15.7366593
| 32>     H       15.1256659   20.1339266   15.4991039
| 33>     H       16.5681284   20.1826457   14.4770378
| 34>     H       16.2959793   21.4441051   15.6886987
| 35>     H       17.6583934   21.2894574   17.3240873
| 36>     H       19.4056308   18.0659830   18.9728203
| 37>     H       18.6112199   16.9413254   16.9539322
| 38>     H       18.4782679   14.8131732   18.0089522
| 39>     H       17.3557178   13.2048213   19.5383728
| 40>     H       15.4181012   13.9582944   20.9202732
| 41>     H       14.1424949   15.6526576   21.4770881
| 42>     H       15.7453455   17.9117308   19.2615373
| 43> *
| 44>
| 45>                          ****END OF INPUT****

CARTESIAN COORDINATES (ANGSTROEM)
---------------------------------
  C     14.539367   15.019526   14.654515
  C     15.604738   14.955230   15.768761
  O     16.616052   15.982850   15.651770
  C     16.315008   17.310414   15.505859
  O     15.596958   17.730319   14.616025
  C     16.912901   18.156994   16.599049
  C     16.938029   19.511256   16.497703
  C     16.197566   20.369881   15.493028
  N     17.711938   20.284282   17.366352
  C     18.631601   19.777387   18.243837
  S     19.581848   20.755361   19.179931
  N     18.740283   18.410884   18.292571
  C     17.869476   17.457081   17.580429
  C     17.187866   16.473381   18.522763
  C     17.637523   15.143139   18.613715
  C     17.001921   14.232549   19.474478
  C     15.911266   14.657326   20.252624
  C     15.466324   15.984028   20.168745
  O     14.414235   16.396972   20.919163
  C     16.099809   16.887426   19.309687
  H     13.859691   15.867893   14.801729
  H     13.932817   14.106044   14.654372
  H     15.011772   15.115901   13.668764
  H     15.106118   15.040877   16.743569
  H     16.096947   13.974881   15.736659
  H     15.125666   20.133927   15.499104
  H     16.568128   20.182646   14.477038
  H     16.295979   21.444105   15.688699
  H     17.658393   21.289457   17.324087
  H     19.405631   18.065983   18.972820
  H     18.611220   16.941325   16.953932
  H     18.478268   14.813173   18.008952
  H     17.355718   13.204821   19.538373
  H     15.418101   13.958294   20.920273
  H     14.142495   15.652658   21.477088
  H     15.745345   17.911731   19.261537

 Total Charge           Charge          ....    0
 Multiplicity           Mult            ....    1
 Number of Electrons    NEL             ....  154
 Basis Dimension        Dim             ....  828

ORBITAL ENERGIES
----------------

  NO   OCC          E(Eh)            E(eV)
   0   2.0000     -91.889388     -2500.4374
   1   2.0000     -20.600023      -560.5551
   2   2.0000     -20.587283      -560.2085
   3   2.0000     -20.543845      -559.0264
   4   2.0000     -15.629768      -425.3076
   5   2.0000     -15.607460      -424.7006
   6   2.0000     -11.394745      -310.0668
   7   2.0000     -11.383989      -309.7741
   8   2.0000     -11.337647      -308.5130
   9   2.0000     -11.317645      -307.9688
  10   2.0000     -11.308032      -307.7072
  11   2.0000     -11.299354      -307.4711
  12   2.0000     -11.263838      -306.5046
  13   2.0000     -11.258846      -306.3688
  14   2.0000     -11.257778      -306.3397
  15   2.0000     -11.252140      -306.1863
  16   2.0000     -11.247174      -306.0512
  17   2.0000     -11.242254      -305.9173
  18   2.0000     -11.241754      -305.9037
  19   2.0000     -11.218707      -305.2765
  20   2.0000      -8.894457      -242.0305
  21   2.0000      -6.576028      -178.9428
  22   2.0000      -6.574031      -178.8885
  23   2.0000      -6.573440      -178.8724
  24   2.0000      -1.443234       -39.2724
  25   2.0000      -1.419704       -38.6321
  26   2.0000      -1.353162       -36.8214
  27   2.0000      -1.340880       -36.4872
  28   2.0000      -1.238862       -33.7111
  29   2.0000      -1.160630       -31.5823
  30   2.0000      -1.121205       -30.5095
  31   2.0000      -1.044899       -28.4331
  32   2.0000      -1.032368       -28.0922
  33   2.0000      -1.018541       -27.7159
  34   2.0000      -0.996585       -27.1185
  35   2.0000      -0.984830       -26.7986
  36   2.0000      -0.923069       -25.1180
  37   2.0000      -0.890454       -24.2305
  38   2.0000      -0.847954       -23.0740
  39   2.0000      -0.840725       -22.8773
  40   2.0000      -0.837334       -22.7850
  41   2.0000      -0.822142       -22.3716
  42   2.0000      -0.748707       -20.3733
  43   2.0000      -0.734537       -19.9878
  44   2.0000      -0.717820       -19.5329
  45   2.0000      -0.698232       -18.9999
  46   2.0000      -0.688739       -18.7415
  47   2.0000      -0.678057       -18.4509
  48   2.0000      -0.668601       -18.1936
  49   2.0000      -0.660815       -17.9817
  50   2.0000      -0.648578       -17.6487
  51   2.0000      -0.645589       -17.5674
  52   2.0000      -0.636142       -17.3103
  53   2.0000      -0.610113       -16.6020
  54   2.0000      -0.604706       -16.4549
  55   2.0000      -0.601258       -16.3611
  56   2.0000      -0.599179       -16.3045
  57   2.0000      -0.579941       -15.7810
  58   2.0000      -0.572822       -15.5873
  59   2.0000      -0.569102       -15.4861
  60   2.0000      -0.562262       -15.2999
  61   2.0000      -0.540914       -14.7190
  62   2.0000      -0.534781       -14.5521
  63   2.0000      -0.526269       -14.3205
  64   2.0000      -0.521711       -14.1965
  65   2.0000      -0.513742       -13.9796
  66   2.0000      -0.500991       -13.6327
  67   2.0000      -0.494711       -13.4618
  68   2.0000      -0.483992       -13.1701
  69   2.0000      -0.463636       -12.6162
  70   2.0000      -0.454034       -12.3549
  71   2.0000      -0.440206       -11.9786
  72   2.0000      -0.354339        -9.6421
  73   2.0000      -0.352017        -9.5789
  74   2.0000      -0.328979        -8.9520
  75   2.0000      -0.324772        -8.8375
  76   2.0000      -0.318748        -8.6736
  77   0.0000       0.073462         1.9990
  78   0.0000       0.101585         2.7643
  79   0.0000       0.124133         3.3778
  80   0.0000       0.131019         3.5652
  81   0.0000       0.134245         3.6530

MULLIKEN ATOMIC CHARGES
-----------------------
   0 C :   -0.273960
   1 C :    0.033425
   2 O :   -0.381245
   3 C :    0.468132
   4 O :   -0.420364
   5 C :   -0.263331
   6 C :    0.184244
   7 C :   -0.265718
   8 N :   -0.126911
   9 C :    0.212232
  10 S :   -0.441688
  11 N :   -0.217862
  12 C :    0.079299
  13 C :    0.003044
  14 C :   -0.161110
  15 C :   -0.134601
  16 C :   -0.276928
  17 C :    0.311511
  18 O :   -0.355973
  19 C :   -0.238316
  20 H :    0.104695
  21 H :    0.092657
  22 H :    0.105405
  23 H :    0.098976
  24 H :    0.100444
  25 H :    0.132041
  26 H :    0.130538
  27 H :    0.094666
  28 H :    0.199417
  29 H :    0.200740
  30 H :    0.151398
  31 H :    0.153201
  32 H :    0.162644
  33 H :    0.132681
  34 H :    0.241253
  35 H :    0.165363
Sum of atomic charges:   -0.0000000

LOEWDIN ATOMIC CHARGES
----------------------
   0 C :    0.103759
   1 C :   -0.017649
   2 O :    0.290002
   3 C :   -0.413493
   4 O :    0.114569
   5 C :   -0.099159
   6 C :   -0.055377
   7 C :    0.131097
   8 N :    0.407358
   9 C :   -0.456143
  10 S :   -0.036238
  11 N :    0.394289
  12 C :   -0.054711
  13 C :   -0.039093
  14 C :    0.018068
  15 C :    0.039857
  16 C :   -0.001348
  17 C :   -0.190668
  18 O :    0.395865
  19 C :    0.031576
  20 H :   -0.028130
  21 H :   -0.029553
  22 H :   -0.023356
  23 H :   -0.030481
  24 H :   -0.024038
  25 H :   -0.004771
  26 H :   -0.004520
  27 H :   -0.023637
  28 H :   -0.057092
  29 H :   -0.064689
  30 H :   -0.012790
  31 H :   -0.028253
  32 H :   -0.020514
  33 H :   -0.034817
  34 H :   -0.153240
  35 H :   -0.022679

  Mayer bond orders larger than 0.100000
B(  0-C ,  1-C ) :   0.9836 B(  0-C , 20-H ) :   0.9734 B(  0-C , 21-H ) :   0.9754
B(  0-C , 22-H ) :   0.9750 B(  1-C ,  2-O ) :   0.8951 B(  1-C , 23-H ) :   0.9693
B(  1-C , 24-H ) :   0.9807 B(  2-O ,  3-C ) :   1.0882 B(  3-C ,  4-O ) :   1.9930
B(  3-C ,  5-C ) :   1.0806 B(  5-C ,  6-C ) :   1.6331 B(  5-C , 12-C ) :   0.9546
B(  6-C ,  7-C ) :   0.9648 B(  6-C ,  8-N ) :   1.1549 B(  7-C , 25-H ) :   0.9613
B(  7-C , 26-H ) :   0.9583 B(  7-C , 27-H ) :   0.9905 B(  8-N ,  9-C ) :   1.1866
B(  8-N , 28-H ) :   0.9463 B(  9-C , 10-S ) :   1.6050 B(  9-C , 11-N ) :   1.3108
B( 11-N , 12-C ) :   0.9637 B( 11-N , 29-H ) :   0.9485 B( 12-C , 13-C ) :   0.9633
B( 12-C , 30-H ) :   0.9998 B( 13-C , 14-C ) :   1.3543 B( 13-C , 19-C ) :   1.3804
B( 14-C , 15-C ) :   1.3936 B( 14-C , 31-H ) :   0.9730 B( 15-C , 16-C ) :   1.3592
B( 15-C , 32-H ) :   0.9704 B( 16-C , 17-C ) :   1.3328 B( 16-C , 33-H ) :   0.9843
B( 17-C , 18-O ) :   1.1069 B( 17-C , 19-C ) :   1.3649 B( 18-O , 34-H ) :   0.9792
B( 19-C , 35-H ) :   0.9590

MP2 TOTAL ENERGY:    -1274.330124229 Eh
FINAL SINGLE POINT ENERGY     -1274.330124229293

DIPOLE MOMENT
-------------
                                X             Y             Z
Electronic contribution:      9.70911       9.77462       8.75650
Nuclear contribution   :    -10.72727     -11.47161      -8.82990
                        -----------------------------------------
Total Dipole Moment    :     -1.01816      -1.69699      -0.07340
                        -----------------------------------------
Magnitude (a.u.)       :      1.98036
Magnitude (Debye)      :      5.03367

Rotational constants in cm-1:     0.011774     0.008596     0.005960
Rotational constants in MHz :   352.983198   257.705662   178.672405

                             ****ORCA TERMINATED NORMALLY****
TOTAL RUN TIME: 0 days 1 hours 41 minutes 45 seconds 928 msec
