                         Program Version 4.2.0 -  RELEASE  -
|  1> ! ri-mp2 cc-pvtz cc-pvtz/c TightSCF NoKeepInts
|  2>
|  3> %scf
|  4>   MaxCore 4096
|  5> end
|  6> *xyz  0  1
|  7>     C       14.9430098   14.5938602   14.3907212
|  8>     C       15.1856427   15.2158090   15.7771724
|  9>     O       16.3075538   16.1080257   15.6745194
| 10>     C       16.0579848   17.4473073   15.6046415
| 11>     O       15.2348975   17.9027447   14.8298468
| 12>     C       16.7838360   18.2338609   16.6626277
| 13>     C       16.8393396   19.5892721   16.6051193
| 14>     C       16.0304762   20.5008425   15.7055646
| 15>     N       17.7193045   20.3085458   17.4170235
| 16>     C       18.7079256   19.7442951   18.1769297
| 17>     S       19.7775068   20.6607733   19.0439055
| 18>     N       18.7802929   18.3743222   18.1657644
| 19>     C       17.8123527   17.4713842   17.5150314
| 20>     C       17.1986332   16.4717459   18.4867146
| 21>     C       17.5883067   15.1199092   18.4626768
| 22>     C       17.0159555   14.1965290   19.3536768
| 23>     C       16.0496113   14.6298995   20.2777214
| 24>     C       15.6646292   15.9775278   20.3073632
| 25>     O       14.7325484   16.3987609   21.1986867
| 26>     C       16.2349864   16.8938144   19.4182126
| 27>     H       14.6867323   15.3706080   13.6588621
| 28>     H       14.1156438   13.8752329   14.4302443
| 29>     H       15.8396613   14.0691319   14.0386404
| 30>     H       14.2867360   15.7405153   16.1298464
| 31>     H       15.4187862   14.4172816   16.4933868
| 32>     H       14.9570194   20.3023214   15.8196280
| 33>     H       16.2848033   20.3295509   14.6517373
| 34>     H       16.1897335   21.5650261   15.9156416
| 35>     H       17.6917006   21.3156817   17.4162205
| 36>     H       19.5009008   17.9862289   18.7612276
| 37>     H       18.4702426   16.9594942   16.7981963
| 38>     H       18.3317610   14.7833049   17.7447318
| 39>     H       17.3222995   13.1520764   19.3274865
| 40>     H       15.6056800   13.9208780   20.9689168
| 41>     H       14.4911214   15.6394030   21.7502051
| 42>     H       15.9293849   17.9340351   19.4591093
| 43> *
| 44>
| 45>                          ****END OF INPUT****

CARTESIAN COORDINATES (ANGSTROEM)
---------------------------------
  C     14.943010   14.593860   14.390721
  C     15.185643   15.215809   15.777172
  O     16.307554   16.108026   15.674519
  C     16.057985   17.447307   15.604641
  O     15.234897   17.902745   14.829847
  C     16.783836   18.233861   16.662628
  C     16.839340   19.589272   16.605119
  C     16.030476   20.500843   15.705565
  N     17.719304   20.308546   17.417023
  C     18.707926   19.744295   18.176930
  S     19.777507   20.660773   19.043905
  N     18.780293   18.374322   18.165764
  C     17.812353   17.471384   17.515031
  C     17.198633   16.471746   18.486715
  C     17.588307   15.119909   18.462677
  C     17.015956   14.196529   19.353677
  C     16.049611   14.629900   20.277721
  C     15.664629   15.977528   20.307363
  O     14.732548   16.398761   21.198687
  C     16.234986   16.893814   19.418213
  H     14.686732   15.370608   13.658862
  H     14.115644   13.875233   14.430244
  H     15.839661   14.069132   14.038640
  H     14.286736   15.740515   16.129846
  H     15.418786   14.417282   16.493387
  H     14.957019   20.302321   15.819628
  H     16.284803   20.329551   14.651737
  H     16.189733   21.565026   15.915642
  H     17.691701   21.315682   17.416220
  H     19.500901   17.986229   18.761228
  H     18.470243   16.959494   16.798196
  H     18.331761   14.783305   17.744732
  H     17.322299   13.152076   19.327486
  H     15.605680   13.920878   20.968917
  H     14.491121   15.639403   21.750205
  H     15.929385   17.934035   19.459109

 Total Charge           Charge          ....    0
 Multiplicity           Mult            ....    1
 Number of Electrons    NEL             ....  154
 Basis Dimension        Dim             ....  828

ORBITAL ENERGIES
----------------

  NO   OCC          E(Eh)            E(eV)
   0   2.0000     -91.890060     -2500.4556
   1   2.0000     -20.599349      -560.5368
   2   2.0000     -20.589215      -560.2610
   3   2.0000     -20.544661      -559.0486
   4   2.0000     -15.630619      -425.3308
   5   2.0000     -15.608132      -424.7189
   6   2.0000     -11.393728      -310.0391
   7   2.0000     -11.384730      -309.7943
   8   2.0000     -11.338665      -308.5408
   9   2.0000     -11.316903      -307.9486
  10   2.0000     -11.308803      -307.7282
  11   2.0000     -11.295908      -307.3773
  12   2.0000     -11.263554      -306.4969
  13   2.0000     -11.258622      -306.3627
  14   2.0000     -11.258239      -306.3522
  15   2.0000     -11.252880      -306.2064
  16   2.0000     -11.246577      -306.0349
  17   2.0000     -11.241807      -305.9051
  18   2.0000     -11.241410      -305.8943
  19   2.0000     -11.219628      -305.3016
  20   2.0000      -8.895119      -242.0485
  21   2.0000      -6.576688      -178.9608
  22   2.0000      -6.574693      -178.9065
  23   2.0000      -6.574099      -178.8903
  24   2.0000      -1.449903       -39.4539
  25   2.0000      -1.419015       -38.6134
  26   2.0000      -1.354092       -36.8467
  27   2.0000      -1.341582       -36.5063
  28   2.0000      -1.239482       -33.7280
  29   2.0000      -1.160327       -31.5741
  30   2.0000      -1.122243       -30.5378
  31   2.0000      -1.044989       -28.4356
  32   2.0000      -1.033813       -28.1315
  33   2.0000      -1.018035       -27.7021
  34   2.0000      -0.996953       -27.1285
  35   2.0000      -0.985514       -26.8172
  36   2.0000      -0.923480       -25.1292
  37   2.0000      -0.884378       -24.0651
  38   2.0000      -0.848228       -23.0814
  39   2.0000      -0.840461       -22.8701
  40   2.0000      -0.836949       -22.7745
  41   2.0000      -0.824019       -22.4227
  42   2.0000      -0.759580       -20.6692
  43   2.0000      -0.735471       -20.0132
  44   2.0000      -0.723197       -19.6792
  45   2.0000      -0.698036       -18.9945
  46   2.0000      -0.689899       -18.7731
  47   2.0000      -0.678839       -18.4722
  48   2.0000      -0.671967       -18.2852
  49   2.0000      -0.652491       -17.7552
  50   2.0000      -0.648249       -17.6398
  51   2.0000      -0.643670       -17.5152
  52   2.0000      -0.633856       -17.2481
  53   2.0000      -0.609842       -16.5946
  54   2.0000      -0.606105       -16.4930
  55   2.0000      -0.601296       -16.3621
  56   2.0000      -0.599807       -16.3216
  57   2.0000      -0.580912       -15.8074
  58   2.0000      -0.573944       -15.6178
  59   2.0000      -0.569916       -15.5082
  60   2.0000      -0.565220       -15.3804
  61   2.0000      -0.541608       -14.7379
  62   2.0000      -0.534670       -14.5491
  63   2.0000      -0.526532       -14.3277
  64   2.0000      -0.515739       -14.0340
  65   2.0000      -0.513364       -13.9693
  66   2.0000      -0.501615       -13.6496
  67   2.0000      -0.497367       -13.5340
  68   2.0000      -0.488227       -13.2853
  69   2.0000      -0.464289       -12.6339
  70   2.0000      -0.454277       -12.3615
  71   2.0000      -0.445487       -12.1223
  72   2.0000      -0.354404        -9.6438
  73   2.0000      -0.352280        -9.5860
  74   2.0000      -0.329365        -8.9625
  75   2.0000      -0.324241        -8.8230
  76   2.0000      -0.319384        -8.6909
  77   0.0000       0.073044         1.9876
  78   0.0000       0.101800         2.7701
  79   0.0000       0.124368         3.3842
  80   0.0000       0.131200         3.5701
  81   0.0000       0.134753         3.6668

MULLIKEN ATOMIC CHARGES
-----------------------
   0 C :   -0.269299
   1 C :    0.035587
   2 O :   -0.366867
   3 C :    0.443495
   4 O :   -0.422695
   5 C :   -0.246394
   6 C :    0.181471
   7 C :   -0.267052
   8 N :   -0.126215
   9 C :    0.211575
  10 S :   -0.440233
  11 N :   -0.217115
  12 C :    0.073413
  13 C :    0.035888
  14 C :   -0.195086
  15 C :   -0.128647
  16 C :   -0.277333
  17 C :    0.315461
  18 O :   -0.355930
  19 C :   -0.246577
  20 H :    0.113043
  21 H :    0.087591
  22 H :    0.089975
  23 H :    0.091108
  24 H :    0.111984
  25 H :    0.133341
  26 H :    0.129893
  27 H :    0.094988
  28 H :    0.199649
  29 H :    0.200923
  30 H :    0.152647
  31 H :    0.155520
  32 H :    0.164465
  33 H :    0.132081
  34 H :    0.241117
  35 H :    0.164225
Sum of atomic charges:   -0.0000000

LOEWDIN ATOMIC CHARGES
----------------------
   0 C :    0.104880
   1 C :   -0.017882
   2 O :    0.302497
   3 C :   -0.419539
   4 O :    0.105753
   5 C :   -0.098729
   6 C :   -0.054956
   7 C :    0.131770
   8 N :    0.407541
   9 C :   -0.456047
  10 S :   -0.035145
  11 N :    0.394335
  12 C :   -0.054608
  13 C :   -0.038941
  14 C :    0.017727
  15 C :    0.038961
  16 C :   -0.001032
  17 C :   -0.189770
  18 O :    0.395555
  19 C :    0.032614
  20 H :   -0.023623
  21 H :   -0.029829
  22 H :   -0.029143
  23 H :   -0.028825
  24 H :   -0.027436
  25 H :   -0.004313
  26 H :   -0.004460
  27 H :   -0.023420
  28 H :   -0.056952
  29 H :   -0.064476
  30 H :   -0.012618
  31 H :   -0.028224
  32 H :   -0.020736
  33 H :   -0.034935
  34 H :   -0.153369
  35 H :   -0.022628

  Mayer bond orders larger than 0.100000
B(  0-C ,  1-C ) :   0.9822 B(  0-C , 20-H ) :   0.9755 B(  0-C , 21-H ) :   0.9774
B(  0-C , 22-H ) :   0.9777 B(  1-C ,  2-O ) :   0.8830 B(  1-C , 23-H ) :   0.9719
B(  1-C , 24-H ) :   0.9755 B(  2-O ,  3-C ) :   1.1127 B(  3-C ,  4-O ) :   1.9824
B(  3-C ,  5-C ) :   1.0788 B(  5-C ,  6-C ) :   1.6271 B(  5-C , 12-C ) :   0.9525
B(  6-C ,  7-C ) :   0.9660 B(  6-C ,  8-N ) :   1.1569 B(  7-C , 25-H ) :   0.9609
B(  7-C , 26-H ) :   0.9585 B(  7-C , 27-H ) :   0.9904 B(  8-N ,  9-C ) :   1.1856
B(  8-N , 28-H ) :   0.9462 B(  9-C , 10-S ) :   1.6069 B(  9-C , 11-N ) :   1.3100
B( 11-N , 12-C ) :   0.9651 B( 11-N , 29-H ) :   0.9483 B( 12-C , 13-C ) :   0.9615
B( 12-C , 30-H ) :   1.0013 B( 13-C , 14-C ) :   1.3474 B( 13-C , 19-C ) :   1.3782
B( 14-C , 15-C ) :   1.3900 B( 14-C , 31-H ) :   0.9723 B( 15-C , 16-C ) :   1.3583
B( 15-C , 32-H ) :   0.9697 B( 16-C , 17-C ) :   1.3330 B( 16-C , 33-H ) :   0.9844
B( 17-C , 18-O ) :   1.1060 B( 17-C , 19-C ) :   1.3650 B( 18-O , 34-H ) :   0.9793
B( 19-C , 35-H ) :   0.9595

MP2 TOTAL ENERGY:    -1274.334472162 Eh
FINAL SINGLE POINT ENERGY     -1274.334472161547

DIPOLE MOMENT
-------------
                                X             Y             Z
Electronic contribution:      9.37051      10.34903       9.25671
Nuclear contribution   :    -10.40611     -11.94295      -9.32239
                        -----------------------------------------
Total Dipole Moment    :     -1.03560      -1.59392      -0.06569
                        -----------------------------------------
Magnitude (a.u.)       :      1.90193
Magnitude (Debye)      :      4.83433

Rotational constants in cm-1:     0.011550     0.008519     0.005890
Rotational constants in MHz :   346.261614   255.389275   176.570179

                             ****ORCA TERMINATED NORMALLY****
TOTAL RUN TIME: 0 days 1 hours 48 minutes 19 seconds 50 msec
