                         Program Version 4.2.0 -  RELEASE  -
|  1> ! ri-mp2 cc-pvtz cc-pvtz/c TightSCF NoKeepInts
|  2>
|  3> %scf
|  4>   MaxCore 4096
|  5> end
|  6> *xyz  0  1
|  7>     C       14.7456339   15.5176121   16.1884036
|  8>     C       14.9535102   16.1644622   14.7995150
|  9>     O       16.3361639   16.4891362   14.5145208
| 10>     C       17.2912684   16.5336709   15.4895646
| 11>     O       18.1112260   15.6410118   15.6072038
| 12>     C       17.2012473   17.6914088   16.4402813
| 13>     C       16.9006264   18.9455753   16.0151635
| 14>     C       16.4257681   19.3687893   14.6389685
| 15>     N       17.0947640   20.0471212   16.8520868
| 16>     C       17.8050477   20.0125015   18.0220489
| 17>     S       18.0961295   21.3793468   18.9061475
| 18>     N       18.2828901   18.7859960   18.4096947
| 19>     C       17.9532326   17.5007921   17.7626203
| 20>     C       17.2891347   16.4960528   18.6946980
| 21>     C       17.7468626   15.1676292   18.7559151
| 22>     C       17.1235086   14.2347472   19.6012544
| 23>     C       16.0330449   14.6337416   20.3928946
| 24>     C       15.5739851   15.9566151   20.3334061
| 25>     O       14.5159043   16.3427625   21.0897648
| 26>     C       16.1960978   16.8829597   19.4903319
| 27>     H       15.4202074   14.6636313   16.3349874
| 28>     H       13.7170548   15.1488074   16.2821206
| 29>     H       14.9079312   16.2397044   16.9964620
| 30>     H       14.5896960   15.4759411   14.0256521
| 31>     H       14.3405981   17.0722493   14.7414141
| 32>     H       17.0040184   18.8713245   13.8498925
| 33>     H       16.5386671   20.4471272   14.4710786
| 34>     H       15.3681545   19.1233231   14.4935473
| 35>     H       16.7761625   20.9591396   16.5657090
| 36>     H       18.7945654   18.7849590   19.2832373
| 37>     H       18.9617656   17.1588325   17.4865403
| 38>     H       18.5816340   14.8540512   18.1326234
| 39>     H       17.4839695   13.2080570   19.6356372
| 40>     H       15.5475945   13.9156314   21.0454301
| 41>     H       14.2545013   15.5834961   21.6323207
| 42>     H       15.8244332   17.9017926   19.4568630
| 43> *
| 44>
| 45>                          ****END OF INPUT****

CARTESIAN COORDINATES (ANGSTROEM)
---------------------------------
  C     14.745634   15.517612   16.188404
  C     14.953510   16.164462   14.799515
  O     16.336164   16.489136   14.514521
  C     17.291268   16.533671   15.489565
  O     18.111226   15.641012   15.607204
  C     17.201247   17.691409   16.440281
  C     16.900626   18.945575   16.015163
  C     16.425768   19.368789   14.638969
  N     17.094764   20.047121   16.852087
  C     17.805048   20.012501   18.022049
  S     18.096129   21.379347   18.906147
  N     18.282890   18.785996   18.409695
  C     17.953233   17.500792   17.762620
  C     17.289135   16.496053   18.694698
  C     17.746863   15.167629   18.755915
  C     17.123509   14.234747   19.601254
  C     16.033045   14.633742   20.392895
  C     15.573985   15.956615   20.333406
  O     14.515904   16.342762   21.089765
  C     16.196098   16.882960   19.490332
  H     15.420207   14.663631   16.334987
  H     13.717055   15.148807   16.282121
  H     14.907931   16.239704   16.996462
  H     14.589696   15.475941   14.025652
  H     14.340598   17.072249   14.741414
  H     17.004018   18.871325   13.849892
  H     16.538667   20.447127   14.471079
  H     15.368154   19.123323   14.493547
  H     16.776163   20.959140   16.565709
  H     18.794565   18.784959   19.283237
  H     18.961766   17.158832   17.486540
  H     18.581634   14.854051   18.132623
  H     17.483969   13.208057   19.635637
  H     15.547595   13.915631   21.045430
  H     14.254501   15.583496   21.632321
  H     15.824433   17.901793   19.456863

 Total Charge           Charge          ....    0
 Multiplicity           Mult            ....    1
 Number of Electrons    NEL             ....  154
 Basis Dimension        Dim             ....  828

ORBITAL ENERGIES
----------------

  NO   OCC          E(Eh)            E(eV)
   0   2.0000     -91.890189     -2500.4592
   1   2.0000     -20.596696      -560.4646
   2   2.0000     -20.587174      -560.2055
   3   2.0000     -20.552399      -559.2592
   4   2.0000     -15.630294      -425.3219
   5   2.0000     -15.608118      -424.7185
   6   2.0000     -11.395808      -310.0957
   7   2.0000     -11.385079      -309.8037
   8   2.0000     -11.339284      -308.5576
   9   2.0000     -11.313247      -307.8491
  10   2.0000     -11.309472      -307.7464
  11   2.0000     -11.306875      -307.6757
  12   2.0000     -11.263033      -306.4827
  13   2.0000     -11.261651      -306.4451
  14   2.0000     -11.260186      -306.4052
  15   2.0000     -11.253164      -306.2142
  16   2.0000     -11.242991      -305.9373
  17   2.0000     -11.238796      -305.8232
  18   2.0000     -11.235007      -305.7201
  19   2.0000     -11.231345      -305.6204
  20   2.0000      -8.895271      -242.0526
  21   2.0000      -6.576846      -178.9651
  22   2.0000      -6.574843      -178.9106
  23   2.0000      -6.574252      -178.8945
  24   2.0000      -1.446307       -39.3560
  25   2.0000      -1.416484       -38.5445
  26   2.0000      -1.357372       -36.9360
  27   2.0000      -1.341996       -36.5176
  28   2.0000      -1.239281       -33.7225
  29   2.0000      -1.157305       -31.4919
  30   2.0000      -1.123350       -30.5679
  31   2.0000      -1.045380       -28.4462
  32   2.0000      -1.034262       -28.1437
  33   2.0000      -1.015307       -27.6279
  34   2.0000      -1.003722       -27.3127
  35   2.0000      -0.988311       -26.8933
  36   2.0000      -0.924862       -25.1668
  37   2.0000      -0.898477       -24.4488
  38   2.0000      -0.851761       -23.1776
  39   2.0000      -0.839726       -22.8501
  40   2.0000      -0.833054       -22.6685
  41   2.0000      -0.824482       -22.4353
  42   2.0000      -0.744073       -20.2473
  43   2.0000      -0.730847       -19.8874
  44   2.0000      -0.729345       -19.8465
  45   2.0000      -0.693598       -18.8738
  46   2.0000      -0.686597       -18.6832
  47   2.0000      -0.680304       -18.5120
  48   2.0000      -0.676014       -18.3953
  49   2.0000      -0.664051       -18.0697
  50   2.0000      -0.652938       -17.7673
  51   2.0000      -0.648522       -17.6472
  52   2.0000      -0.636876       -17.3303
  53   2.0000      -0.625065       -17.0089
  54   2.0000      -0.607602       -16.5337
  55   2.0000      -0.602965       -16.4075
  56   2.0000      -0.600263       -16.3340
  57   2.0000      -0.580937       -15.8081
  58   2.0000      -0.575419       -15.6580
  59   2.0000      -0.564554       -15.3623
  60   2.0000      -0.557766       -15.1776
  61   2.0000      -0.545958       -14.8563
  62   2.0000      -0.540373       -14.7043
  63   2.0000      -0.535638       -14.5754
  64   2.0000      -0.520267       -14.1572
  65   2.0000      -0.511533       -13.9195
  66   2.0000      -0.499174       -13.5832
  67   2.0000      -0.490298       -13.3417
  68   2.0000      -0.487479       -13.2650
  69   2.0000      -0.469702       -12.7812
  70   2.0000      -0.457154       -12.4398
  71   2.0000      -0.448830       -12.2133
  72   2.0000      -0.355979        -9.6867
  73   2.0000      -0.348279        -9.4772
  74   2.0000      -0.329362        -8.9624
  75   2.0000      -0.320875        -8.7315
  76   2.0000      -0.319375        -8.6906
  77   0.0000       0.074340         2.0229
  78   0.0000       0.105181         2.8621
  79   0.0000       0.119039         3.2392
  80   0.0000       0.131738         3.5848
  81   0.0000       0.135797         3.6952

MULLIKEN ATOMIC CHARGES
-----------------------
   0 C :   -0.330635
   1 C :    0.047406
   2 O :   -0.374728
   3 C :    0.487552
   4 O :   -0.386792
   5 C :   -0.263010
   6 C :    0.169530
   7 C :   -0.303245
   8 N :   -0.130777
   9 C :    0.204462
  10 S :   -0.440190
  11 N :   -0.217473
  12 C :    0.063210
  13 C :    0.017201
  14 C :   -0.195626
  15 C :   -0.134319
  16 C :   -0.274990
  17 C :    0.320517
  18 O :   -0.358363
  19 C :   -0.258411
  20 H :    0.121133
  21 H :    0.113488
  22 H :    0.112570
  23 H :    0.118602
  24 H :    0.080795
  25 H :    0.138746
  26 H :    0.111481
  27 H :    0.120845
  28 H :    0.198440
  29 H :    0.201053
  30 H :    0.160421
  31 H :    0.172968
  32 H :    0.163575
  33 H :    0.131009
  34 H :    0.240693
  35 H :    0.172864
Sum of atomic charges:   -0.0000000

LOEWDIN ATOMIC CHARGES
----------------------
   0 C :    0.107750
   1 C :   -0.013881
   2 O :    0.287191
   3 C :   -0.423288
   4 O :    0.126640
   5 C :   -0.094710
   6 C :   -0.071239
   7 C :    0.127986
   8 N :    0.405001
   9 C :   -0.458816
  10 S :   -0.036121
  11 N :    0.396306
  12 C :   -0.048223
  13 C :   -0.042375
  14 C :    0.024107
  15 C :    0.042625
  16 C :   -0.000884
  17 C :   -0.193294
  18 O :    0.394253
  19 C :    0.027794
  20 H :   -0.020386
  21 H :   -0.022472
  22 H :   -0.031119
  23 H :   -0.022596
  24 H :   -0.038179
  25 H :   -0.005999
  26 H :   -0.017908
  27 H :   -0.015165
  28 H :   -0.058200
  29 H :   -0.063252
  30 H :   -0.006089
  31 H :   -0.022384
  32 H :   -0.019621
  33 H :   -0.035340
  34 H :   -0.153847
  35 H :   -0.024265

  Mayer bond orders larger than 0.100000
B(  0-C ,  1-C ) :   0.9619 B(  0-C , 20-H ) :   0.9685 B(  0-C , 21-H ) :   0.9753
B(  0-C , 22-H ) :   0.9686 B(  1-C ,  2-O ) :   0.9045 B(  1-C , 23-H ) :   0.9818
B(  1-C , 24-H ) :   0.9763 B(  2-O ,  3-C ) :   1.0977 B(  3-C ,  4-O ) :   2.0612
B(  3-C ,  5-C ) :   0.9786 B(  5-C ,  6-C ) :   1.6811 B(  5-C , 12-C ) :   0.9449
B(  6-C ,  7-C ) :   0.9443 B(  6-C ,  8-N ) :   1.1302 B(  7-C , 25-H ) :   0.9646
B(  7-C , 26-H ) :   0.9884 B(  7-C , 27-H ) :   0.9679 B(  8-N ,  9-C ) :   1.1880
B(  8-N , 28-H ) :   0.9479 B(  9-C , 10-S ) :   1.6118 B(  9-C , 11-N ) :   1.2996
B( 11-N , 12-C ) :   0.9798 B( 11-N , 29-H ) :   0.9484 B( 12-C , 13-C ) :   0.9695
B( 12-C , 30-H ) :   0.9936 B( 13-C , 14-C ) :   1.3862 B( 13-C , 19-C ) :   1.3491
B( 14-C , 15-C ) :   1.3963 B( 14-C , 31-H ) :   0.9584 B( 15-C , 16-C ) :   1.3597
B( 15-C , 32-H ) :   0.9702 B( 16-C , 17-C ) :   1.3320 B( 16-C , 33-H ) :   0.9848
B( 17-C , 18-O ) :   1.1071 B( 17-C , 19-C ) :   1.3591 B( 18-O , 34-H ) :   0.9800
B( 19-C , 35-H ) :   0.9593

MP2 TOTAL ENERGY:    -1274.324585148 Eh
FINAL SINGLE POINT ENERGY     -1274.324585147771

DIPOLE MOMENT
-------------
                                X             Y             Z
Electronic contribution:      8.99428       8.13529       6.83933
Nuclear contribution   :    -10.54727      -9.27138      -7.44304
                        -----------------------------------------
Total Dipole Moment    :     -1.55298      -1.13609      -0.60371
                        -----------------------------------------
Magnitude (a.u.)       :      2.01666
Magnitude (Debye)      :      5.12595

Rotational constants in cm-1:     0.011371     0.009372     0.006339
Rotational constants in MHz :   340.900903   280.957512   190.038659

                             ****ORCA TERMINATED NORMALLY****
TOTAL RUN TIME: 0 days 2 hours 7 minutes 56 seconds 495 msec
