                         Program Version 4.2.0 -  RELEASE  -
|  1> ! ri-mp2 cc-pvtz cc-pvtz/c TightSCF NoKeepInts
|  2>
|  3> %scf
|  4>   MaxCore 4096
|  5> end
|  6> *xyz  0  1
|  7>     C       14.9269959   14.5579885   14.9554166
|  8>     C       14.7534698   16.0010556   14.4334348
|  9>     O       15.8227034   16.9237074   14.7699678
| 10>     C       16.8154610   16.7053361   15.6875393
| 11>     O       17.4193411   15.6510527   15.7886953
| 12>     C       17.0496199   17.8514883   16.6314460
| 13>     C       16.8660528   19.1511746   16.2765567
| 14>     C       16.2093424   19.6929305   15.0218372
| 15>     N       17.3475433   20.1852608   17.0837143
| 16>     C       18.2049331   20.0123731   18.1364669
| 17>     S       18.8196738   21.2947877   18.9809081
| 18>     N       18.5442747   18.7185691   18.4400982
| 19>     C       17.9493165   17.5149157   17.8276616
| 20>     C       17.2861773   16.5901638   18.8401593
| 21>     C       17.6527513   15.2346630   18.9208786
| 22>     C       17.0383093   14.3822431   19.8534600
| 23>     C       16.0495604   14.8901520   20.7135373
| 24>     C       15.6807426   16.2401255   20.6336510
| 25>     O       14.7228885   16.7319473   21.4594463
| 26>     C       16.2935361   17.0858380   19.7034823
| 27>     H       15.8153686   14.0853786   14.5175800
| 28>     H       14.0575144   13.9486372   14.6813415
| 29>     H       15.0177308   14.5379015   16.0490720
| 30>     H       14.6380897   15.9745647   13.3422067
| 31>     H       13.8162980   16.3968111   14.8456345
| 32>     H       15.1456066   19.4263949   14.9944440
| 33>     H       16.6862374   19.2812273   14.1233783
| 34>     H       16.2737670   20.7851799   14.9448658
| 35>     H       17.1259436   21.1419634   16.8591729
| 36>     H       19.1620006   18.6163684   19.2353928
| 37>     H       18.8487814   17.0444443   17.4042075
| 38>     H       18.4064836   14.8380379   18.2445234
| 39>     H       17.3260662   13.3335846   19.9022166
| 40>     H       15.5716210   14.2350245   21.4341721
| 41>     H       14.4460320   16.0103891   22.0438331
| 42>     H       15.9967659   18.1283196   19.6576013
| 43> *
| 44>
| 45>                          ****END OF INPUT****

CARTESIAN COORDINATES (ANGSTROEM)
---------------------------------
  C     14.926996   14.557988   14.955417
  C     14.753470   16.001056   14.433435
  O     15.822703   16.923707   14.769968
  C     16.815461   16.705336   15.687539
  O     17.419341   15.651053   15.788695
  C     17.049620   17.851488   16.631446
  C     16.866053   19.151175   16.276557
  C     16.209342   19.692930   15.021837
  N     17.347543   20.185261   17.083714
  C     18.204933   20.012373   18.136467
  S     18.819674   21.294788   18.980908
  N     18.544275   18.718569   18.440098
  C     17.949316   17.514916   17.827662
  C     17.286177   16.590164   18.840159
  C     17.652751   15.234663   18.920879
  C     17.038309   14.382243   19.853460
  C     16.049560   14.890152   20.713537
  C     15.680743   16.240126   20.633651
  O     14.722888   16.731947   21.459446
  C     16.293536   17.085838   19.703482
  H     15.815369   14.085379   14.517580
  H     14.057514   13.948637   14.681341
  H     15.017731   14.537902   16.049072
  H     14.638090   15.974565   13.342207
  H     13.816298   16.396811   14.845634
  H     15.145607   19.426395   14.994444
  H     16.686237   19.281227   14.123378
  H     16.273767   20.785180   14.944866
  H     17.125944   21.141963   16.859173
  H     19.162001   18.616368   19.235393
  H     18.848781   17.044444   17.404207
  H     18.406484   14.838038   18.244523
  H     17.326066   13.333585   19.902217
  H     15.571621   14.235024   21.434172
  H     14.446032   16.010389   22.043833
  H     15.996766   18.128320   19.657601

 Total Charge           Charge          ....    0
 Multiplicity           Mult            ....    1
 Number of Electrons    NEL             ....  154
 Basis Dimension        Dim             ....  828

ORBITAL ENERGIES
----------------

  NO   OCC          E(Eh)            E(eV)
   0   2.0000     -91.887521     -2500.3866
   1   2.0000     -20.594051      -560.3926
   2   2.0000     -20.592692      -560.3556
   3   2.0000     -20.546528      -559.0995
   4   2.0000     -15.627728      -425.2521
   5   2.0000     -15.605275      -424.6411
   6   2.0000     -11.397466      -310.1408
   7   2.0000     -11.382055      -309.7215
   8   2.0000     -11.336768      -308.4891
   9   2.0000     -11.308787      -307.7277
  10   2.0000     -11.307524      -307.6934
  11   2.0000     -11.303618      -307.5871
  12   2.0000     -11.259384      -306.3834
  13   2.0000     -11.258124      -306.3491
  14   2.0000     -11.255830      -306.2867
  15   2.0000     -11.248922      -306.0987
  16   2.0000     -11.239044      -305.8299
  17   2.0000     -11.235010      -305.7202
  18   2.0000     -11.231736      -305.6311
  19   2.0000     -11.226008      -305.4752
  20   2.0000      -8.892612      -241.9803
  21   2.0000      -6.574191      -178.8928
  22   2.0000      -6.572187      -178.8383
  23   2.0000      -6.571600      -178.8223
  24   2.0000      -1.444976       -39.3198
  25   2.0000      -1.412444       -38.4346
  26   2.0000      -1.356014       -36.8990
  27   2.0000      -1.339142       -36.4399
  28   2.0000      -1.236441       -33.6453
  29   2.0000      -1.153011       -31.3750
  30   2.0000      -1.119829       -30.4721
  31   2.0000      -1.042470       -28.3671
  32   2.0000      -1.033890       -28.1336
  33   2.0000      -1.010667       -27.5016
  34   2.0000      -0.998312       -27.1655
  35   2.0000      -0.983120       -26.7521
  36   2.0000      -0.921012       -25.0620
  37   2.0000      -0.896290       -24.3893
  38   2.0000      -0.847775       -23.0691
  39   2.0000      -0.835839       -22.7443
  40   2.0000      -0.828966       -22.5573
  41   2.0000      -0.819190       -22.2913
  42   2.0000      -0.742943       -20.2165
  43   2.0000      -0.727600       -19.7990
  44   2.0000      -0.724395       -19.7118
  45   2.0000      -0.690047       -18.7771
  46   2.0000      -0.683869       -18.6090
  47   2.0000      -0.677474       -18.4350
  48   2.0000      -0.674702       -18.3596
  49   2.0000      -0.664891       -18.0926
  50   2.0000      -0.647004       -17.6059
  51   2.0000      -0.643393       -17.5076
  52   2.0000      -0.632663       -17.2156
  53   2.0000      -0.613668       -16.6988
  54   2.0000      -0.603355       -16.4181
  55   2.0000      -0.598691       -16.2912
  56   2.0000      -0.596038       -16.2190
  57   2.0000      -0.574313       -15.6279
  58   2.0000      -0.573440       -15.6041
  59   2.0000      -0.567176       -15.4336
  60   2.0000      -0.556444       -15.1416
  61   2.0000      -0.545766       -14.8510
  62   2.0000      -0.538071       -14.6417
  63   2.0000      -0.526598       -14.3295
  64   2.0000      -0.515890       -14.0381
  65   2.0000      -0.510266       -13.8850
  66   2.0000      -0.498471       -13.5641
  67   2.0000      -0.493727       -13.4350
  68   2.0000      -0.479395       -13.0450
  69   2.0000      -0.463003       -12.5989
  70   2.0000      -0.454144       -12.3579
  71   2.0000      -0.447326       -12.1724
  72   2.0000      -0.352167        -9.5829
  73   2.0000      -0.345291        -9.3958
  74   2.0000      -0.326681        -8.8894
  75   2.0000      -0.316730        -8.6187
  76   2.0000      -0.315464        -8.5842
  77   0.0000       0.076404         2.0791
  78   0.0000       0.110142         2.9971
  79   0.0000       0.121937         3.3181
  80   0.0000       0.135007         3.6737
  81   0.0000       0.138290         3.7631

MULLIKEN ATOMIC CHARGES
-----------------------
   0 C :   -0.295084
   1 C :    0.052304
   2 O :   -0.370227
   3 C :    0.426038
   4 O :   -0.407464
   5 C :   -0.168015
   6 C :    0.155711
   7 C :   -0.281088
   8 N :   -0.128602
   9 C :    0.207457
  10 S :   -0.443358
  11 N :   -0.211851
  12 C :    0.044765
  13 C :    0.031528
  14 C :   -0.176972
  15 C :   -0.134565
  16 C :   -0.277984
  17 C :    0.314430
  18 O :   -0.358702
  19 C :   -0.252796
  20 H :    0.117994
  21 H :    0.098480
  22 H :    0.108003
  23 H :    0.096243
  24 H :    0.086594
  25 H :    0.125941
  26 H :    0.127263
  27 H :    0.102127
  28 H :    0.198636
  29 H :    0.199848
  30 H :    0.156984
  31 H :    0.162015
  32 H :    0.160887
  33 H :    0.128879
  34 H :    0.240006
  35 H :    0.164574
Sum of atomic charges:    0.0000000

LOEWDIN ATOMIC CHARGES
----------------------
   0 C :    0.104591
   1 C :   -0.010173
   2 O :    0.289105
   3 C :   -0.414312
   4 O :    0.118772
   5 C :   -0.093584
   6 C :   -0.065094
   7 C :    0.124912
   8 N :    0.405249
   9 C :   -0.458616
  10 S :   -0.038482
  11 N :    0.396344
  12 C :   -0.048478
  13 C :   -0.041054
  14 C :    0.023930
  15 C :    0.040170
  16 C :   -0.001545
  17 C :   -0.192711
  18 O :    0.393197
  19 C :    0.029379
  20 H :   -0.023436
  21 H :   -0.026594
  22 H :   -0.024818
  23 H :   -0.026329
  24 H :   -0.030974
  25 H :   -0.010058
  26 H :   -0.008410
  27 H :   -0.021356
  28 H :   -0.058857
  29 H :   -0.063381
  30 H :   -0.008263
  31 H :   -0.023696
  32 H :   -0.020914
  33 H :   -0.036092
  34 H :   -0.154771
  35 H :   -0.023653

  Mayer bond orders larger than 0.100000
B(  0-C ,  1-C ) :   0.9800 B(  0-C , 20-H ) :   0.9718 B(  0-C , 21-H ) :   0.9720
B(  0-C , 22-H ) :   0.9728 B(  1-C ,  2-O ) :   0.9073 B(  1-C , 23-H ) :   0.9785
B(  1-C , 24-H ) :   0.9762 B(  2-O ,  3-C ) :   1.0975 B(  3-C ,  4-O ) :   2.0075
B(  3-C ,  5-C ) :   1.0243 B(  5-C ,  6-C ) :   1.6648 B(  5-C , 12-C ) :   0.9477
B(  6-C ,  7-C ) :   0.9539 B(  6-C ,  8-N ) :   1.1349 B(  7-C , 25-H ) :   0.9649
B(  7-C , 26-H ) :   0.9648 B(  7-C , 27-H ) :   0.9913 B(  8-N ,  9-C ) :   1.1865
B(  8-N , 28-H ) :   0.9471 B(  9-C , 10-S ) :   1.6074 B(  9-C , 11-N ) :   1.3056
B( 11-N , 12-C ) :   0.9760 B( 11-N , 29-H ) :   0.9486 B( 12-C , 13-C ) :   0.9703
B( 12-C , 30-H ) :   0.9969 B( 13-C , 14-C ) :   1.3759 B( 13-C , 19-C ) :   1.3655
B( 14-C , 15-C ) :   1.3965 B( 14-C , 31-H ) :   0.9628 B( 15-C , 16-C ) :   1.3588
B( 15-C , 32-H ) :   0.9709 B( 16-C , 17-C ) :   1.3330 B( 16-C , 33-H ) :   0.9858
B( 17-C , 18-O ) :   1.1041 B( 17-C , 19-C ) :   1.3668 B( 18-O , 34-H ) :   0.9805
B( 19-C , 35-H ) :   0.9598

MP2 TOTAL ENERGY:    -1274.326874138 Eh
FINAL SINGLE POINT ENERGY     -1274.326874137723

DIPOLE MOMENT
-------------
                                X             Y             Z
Electronic contribution:      9.25802      10.51580       9.93369
Nuclear contribution   :    -10.83833     -11.78975     -10.94096
                        -----------------------------------------
Total Dipole Moment    :     -1.58031      -1.27395      -1.00728
                        -----------------------------------------
Magnitude (a.u.)       :      2.26604
Magnitude (Debye)      :      5.75981

Rotational constants in cm-1:     0.010346     0.009173     0.005741
Rotational constants in MHz :   310.170066   274.987165   172.116324

                             ****ORCA TERMINATED NORMALLY****
TOTAL RUN TIME: 0 days 1 hours 53 minutes 35 seconds 456 msec
