                         Program Version 4.2.0 -  RELEASE  -
|  1> ! ri-mp2 cc-pvtz cc-pvtz/c TightSCF NoKeepInts
|  2>
|  3> %scf
|  4>   MaxCore 4096
|  5> end
|  6> *xyz  0  1
|  7>     C       15.4926229   14.7506677   13.9289319
|  8>     C       14.9326765   15.2056885   15.2878703
|  9>     O       15.8968473   16.0887800   15.8876994
| 10>     C       15.7129528   17.4429716   15.8373796
| 11>     O       14.8801231   17.9593100   15.1112935
| 12>     C       16.6155259   18.1850340   16.7870703
| 13>     C       16.7758492   19.5298057   16.6853552
| 14>     C       15.9444885   20.4926467   15.8627859
| 15>     N       17.8011223   20.1865961   17.3697916
| 16>     C       18.8239156   19.5549088   18.0237475
| 17>     S       20.0612870   20.3934842   18.7318924
| 18>     N       18.7815533   18.1839338   18.0428993
| 19>     C       17.6706841   17.3547999   17.5381487
| 20>     C       17.0949690   16.4345555   18.6067234
| 21>     C       17.2881532   15.0426302   18.5347293
| 22>     C       16.7583653   14.1967183   19.5237003
| 23>     C       16.0329676   14.7479688   20.5939957
| 24>     C       15.8429998   16.1348653   20.6696003
| 25>     O       15.1443460   16.6696755   21.7025284
| 26>     C       16.3713680   16.9740877   19.6836782
| 27>     H       15.6115556   15.6089343   13.2554383
| 28>     H       14.8116500   14.0348706   13.4528156
| 29>     H       16.4696031   14.2674590   14.0527812
| 30>     H       13.9512113   15.6849478   15.1682601
| 31>     H       14.8025549   14.3254092   15.9304763
| 32>     H       14.8774657   20.3730011   16.0906079
| 33>     H       16.0746797   20.2979687   14.7906152
| 34>     H       16.1996793   21.5436382   16.0423952
| 35>     H       17.8558858   21.1922393   17.3443288
| 36>     H       19.5325484   17.7466668   18.5617706
| 37>     H       18.1968180   16.7734101   16.7677357
| 38>     H       17.8441478   14.6156085   17.7043425
| 39>     H       16.9102373   13.1207419   19.4589618
| 40>     H       15.6221856   14.0989613   21.3603464
| 41>     H       14.8835574   15.9413965   22.2859461
| 42>     H       16.2204028   18.0456186   19.7613574
| 43> *
| 44>
| 45>                          ****END OF INPUT****

CARTESIAN COORDINATES (ANGSTROEM)
---------------------------------
  C     15.492623   14.750668   13.928932
  C     14.932676   15.205688   15.287870
  O     15.896847   16.088780   15.887699
  C     15.712953   17.442972   15.837380
  O     14.880123   17.959310   15.111294
  C     16.615526   18.185034   16.787070
  C     16.775849   19.529806   16.685355
  C     15.944489   20.492647   15.862786
  N     17.801122   20.186596   17.369792
  C     18.823916   19.554909   18.023747
  S     20.061287   20.393484   18.731892
  N     18.781553   18.183934   18.042899
  C     17.670684   17.354800   17.538149
  C     17.094969   16.434555   18.606723
  C     17.288153   15.042630   18.534729
  C     16.758365   14.196718   19.523700
  C     16.032968   14.747969   20.593996
  C     15.843000   16.134865   20.669600
  O     15.144346   16.669676   21.702528
  C     16.371368   16.974088   19.683678
  H     15.611556   15.608934   13.255438
  H     14.811650   14.034871   13.452816
  H     16.469603   14.267459   14.052781
  H     13.951211   15.684948   15.168260
  H     14.802555   14.325409   15.930476
  H     14.877466   20.373001   16.090608
  H     16.074680   20.297969   14.790615
  H     16.199679   21.543638   16.042395
  H     17.855886   21.192239   17.344329
  H     19.532548   17.746667   18.561771
  H     18.196818   16.773410   16.767736
  H     17.844148   14.615609   17.704342
  H     16.910237   13.120742   19.458962
  H     15.622186   14.098961   21.360346
  H     14.883557   15.941396   22.285946
  H     16.220403   18.045619   19.761357

 Total Charge           Charge          ....    0
 Multiplicity           Mult            ....    1
 Number of Electrons    NEL             ....  154
 Basis Dimension        Dim             ....  828

ORBITAL ENERGIES
----------------

  NO   OCC          E(Eh)            E(eV)
   0   2.0000     -91.888827     -2500.4221
   1   2.0000     -20.600897      -560.5789
   2   2.0000     -20.595858      -560.4418
   3   2.0000     -20.541565      -558.9644
   4   2.0000     -15.629215      -425.2926
   5   2.0000     -15.606935      -424.6863
   6   2.0000     -11.395689      -310.0925
   7   2.0000     -11.383453      -309.7595
   8   2.0000     -11.337481      -308.5085
   9   2.0000     -11.312967      -307.8415
  10   2.0000     -11.307435      -307.6910
  11   2.0000     -11.296151      -307.3839
  12   2.0000     -11.260183      -306.4052
  13   2.0000     -11.259377      -306.3832
  14   2.0000     -11.254466      -306.2496
  15   2.0000     -11.251686      -306.1739
  16   2.0000     -11.242900      -305.9349
  17   2.0000     -11.238302      -305.8098
  18   2.0000     -11.238159      -305.8059
  19   2.0000     -11.226590      -305.4911
  20   2.0000      -8.893897      -242.0152
  21   2.0000      -6.575470      -178.9276
  22   2.0000      -6.573472      -178.8733
  23   2.0000      -6.572881      -178.8572
  24   2.0000      -1.451520       -39.4979
  25   2.0000      -1.415519       -38.5182
  26   2.0000      -1.354651       -36.8619
  27   2.0000      -1.340382       -36.4736
  28   2.0000      -1.238211       -33.6934
  29   2.0000      -1.156997       -31.4835
  30   2.0000      -1.121044       -30.5052
  31   2.0000      -1.042652       -28.3720
  32   2.0000      -1.038196       -28.2508
  33   2.0000      -1.014319       -27.6010
  34   2.0000      -0.996090       -27.1050
  35   2.0000      -0.984394       -26.7867
  36   2.0000      -0.921601       -25.0780
  37   2.0000      -0.891509       -24.2592
  38   2.0000      -0.846466       -23.0335
  39   2.0000      -0.837495       -22.7894
  40   2.0000      -0.833550       -22.6820
  41   2.0000      -0.817699       -22.2507
  42   2.0000      -0.761357       -20.7176
  43   2.0000      -0.733067       -19.9478
  44   2.0000      -0.722286       -19.6544
  45   2.0000      -0.694788       -18.9061
  46   2.0000      -0.687982       -18.7209
  47   2.0000      -0.680164       -18.5082
  48   2.0000      -0.672244       -18.2927
  49   2.0000      -0.654178       -17.8011
  50   2.0000      -0.646935       -17.6040
  51   2.0000      -0.641128       -17.4460
  52   2.0000      -0.628362       -17.0986
  53   2.0000      -0.613649       -16.6982
  54   2.0000      -0.605985       -16.4897
  55   2.0000      -0.599904       -16.3242
  56   2.0000      -0.598471       -16.2852
  57   2.0000      -0.578109       -15.7311
  58   2.0000      -0.570688       -15.5292
  59   2.0000      -0.568711       -15.4754
  60   2.0000      -0.563403       -15.3310
  61   2.0000      -0.541093       -14.7239
  62   2.0000      -0.534563       -14.5462
  63   2.0000      -0.531294       -14.4572
  64   2.0000      -0.523518       -14.2457
  65   2.0000      -0.512933       -13.9576
  66   2.0000      -0.500280       -13.6133
  67   2.0000      -0.496317       -13.5055
  68   2.0000      -0.485288       -13.2054
  69   2.0000      -0.463148       -12.6029
  70   2.0000      -0.453895       -12.3511
  71   2.0000      -0.449228       -12.2241
  72   2.0000      -0.353071        -9.6076
  73   2.0000      -0.349189        -9.5019
  74   2.0000      -0.327944        -8.9238
  75   2.0000      -0.320455        -8.7200
  76   2.0000      -0.317974        -8.6525
  77   0.0000       0.077381         2.1056
  78   0.0000       0.105677         2.8756
  79   0.0000       0.123676         3.3654
  80   0.0000       0.132949         3.6177
  81   0.0000       0.135820         3.6959

MULLIKEN ATOMIC CHARGES
-----------------------
   0 C :   -0.276200
   1 C :    0.025188
   2 O :   -0.346211
   3 C :    0.440104
   4 O :   -0.439105
   5 C :   -0.220708
   6 C :    0.172631
   7 C :   -0.268849
   8 N :   -0.126119
   9 C :    0.209749
  10 S :   -0.441879
  11 N :   -0.214650
  12 C :    0.055048
  13 C :    0.046062
  14 C :   -0.177965
  15 C :   -0.135277
  16 C :   -0.275768
  17 C :    0.316522
  18 O :   -0.357001
  19 C :   -0.247581
  20 H :    0.104846
  21 H :    0.092398
  22 H :    0.091263
  23 H :    0.111205
  24 H :    0.107947
  25 H :    0.133623
  26 H :    0.128793
  27 H :    0.094621
  28 H :    0.199895
  29 H :    0.200425
  30 H :    0.153431
  31 H :    0.150996
  32 H :    0.160235
  33 H :    0.129605
  34 H :    0.240437
  35 H :    0.162285
Sum of atomic charges:   -0.0000000

LOEWDIN ATOMIC CHARGES
----------------------
   0 C :    0.104202
   1 C :   -0.015093
   2 O :    0.311667
   3 C :   -0.414217
   4 O :    0.093553
   5 C :   -0.094622
   6 C :   -0.056228
   7 C :    0.131064
   8 N :    0.407180
   9 C :   -0.456769
  10 S :   -0.036503
  11 N :    0.394759
  12 C :   -0.054840
  13 C :   -0.039487
  14 C :    0.017019
  15 C :    0.038730
  16 C :   -0.000576
  17 C :   -0.189609
  18 O :    0.394931
  19 C :    0.033331
  20 H :   -0.024906
  21 H :   -0.026838
  22 H :   -0.029762
  23 H :   -0.027601
  24 H :   -0.027489
  25 H :   -0.004209
  26 H :   -0.005195
  27 H :   -0.023645
  28 H :   -0.057142
  29 H :   -0.064269
  30 H :   -0.014026
  31 H :   -0.029464
  32 H :   -0.021533
  33 H :   -0.035529
  34 H :   -0.154078
  35 H :   -0.022808

  Mayer bond orders larger than 0.100000
B(  0-C ,  1-C ) :   0.9688 B(  0-C , 20-H ) :   0.9779 B(  0-C , 21-H ) :   0.9759
B(  0-C , 22-H ) :   0.9785 B(  1-C ,  2-O ) :   0.8907 B(  1-C , 23-H ) :   0.9741
B(  1-C , 24-H ) :   0.9814 B(  2-O ,  3-C ) :   1.1676 B(  3-C ,  4-O ) :   1.9506
B(  3-C ,  5-C ) :   1.0774 B(  5-C ,  6-C ) :   1.6401 B(  5-C , 12-C ) :   0.9554
B(  6-C ,  7-C ) :   0.9654 B(  6-C ,  8-N ) :   1.1528 B(  7-C , 25-H ) :   0.9613
B(  7-C , 26-H ) :   0.9587 B(  7-C , 27-H ) :   0.9907 B(  8-N ,  9-C ) :   1.1876
B(  8-N , 28-H ) :   0.9463 B(  9-C , 10-S ) :   1.6063 B(  9-C , 11-N ) :   1.3090
B( 11-N , 12-C ) :   0.9685 B( 11-N , 29-H ) :   0.9484 B( 12-C , 13-C ) :   0.9642
B( 12-C , 30-H ) :   1.0011 B( 13-C , 14-C ) :   1.3543 B( 13-C , 19-C ) :   1.3808
B( 14-C , 15-C ) :   1.3951 B( 14-C , 31-H ) :   0.9718 B( 15-C , 16-C ) :   1.3598
B( 15-C , 32-H ) :   0.9708 B( 16-C , 17-C ) :   1.3340 B( 16-C , 33-H ) :   0.9852
B( 17-C , 18-O ) :   1.1040 B( 17-C , 19-C ) :   1.3648 B( 18-O , 34-H ) :   0.9800
B( 19-C , 35-H ) :   0.9596

MP2 TOTAL ENERGY:    -1274.343151087 Eh
FINAL SINGLE POINT ENERGY     -1274.343151086580

DIPOLE MOMENT
-------------
                                X             Y             Z
Electronic contribution:      8.37516       9.59719      10.82320
Nuclear contribution   :     -9.53170     -11.22147     -11.17447
                        -----------------------------------------
Total Dipole Moment    :     -1.15654      -1.62427      -0.35128
                        -----------------------------------------
Magnitude (a.u.)       :      2.02466
Magnitude (Debye)      :      5.14627

Rotational constants in cm-1:     0.010431     0.008791     0.005818
Rotational constants in MHz :   312.708469   263.544738   174.429831

                             ****ORCA TERMINATED NORMALLY****
TOTAL RUN TIME: 0 days 1 hours 52 minutes 9 seconds 292 msec
