                         Program Version 4.2.0 -  RELEASE  -
|  1> ! ri-mp2 cc-pvtz cc-pvtz/c TightSCF NoKeepInts
|  2>
|  3> %scf
|  4>   MaxCore 4096
|  5> end
|  6> *xyz  0  1
|  7>     C       14.4268437   15.4136141   15.0515287
|  8>     C       15.6107384   15.1246358   15.9982071
|  9>     O       16.8083485   15.8081064   15.5624310
| 10>     C       16.7702146   17.1427602   15.2807839
| 11>     O       16.5122577   17.5283458   14.1547064
| 12>     C       17.0121223   18.0343335   16.4723426
| 13>     C       16.9190855   19.3833382   16.3359495
| 14>     C       16.2508545   20.1484318   15.2118060
| 15>     N       17.4533420   20.2467026   17.2947169
| 16>     C       18.2981439   19.8578532   18.2977576
| 17>     S       18.9954256   20.9460652   19.3295698
| 18>     N       18.5572729   18.5142656   18.3873257
| 19>     C       17.8820071   17.4596413   17.6075968
| 20>     C       17.2137393   16.4285972   18.5042755
| 21>     C       17.7251004   15.1211536   18.6000700
| 22>     C       17.1044754   14.1726029   19.4302151
| 23>     C       15.9698205   14.5373207   20.1754062
| 24>     C       15.4665781   15.8429235   20.0907512
| 25>     O       14.3716252   16.1978063   20.8084994
| 26>     C       16.0842420   16.7841064   19.2611282
| 27>     H       14.1054529   16.4602884   15.1208016
| 28>     H       13.5686431   14.7816142   15.3097992
| 29>     H       14.7040232   15.2038719   14.0104016
| 30>     H       15.3289080   15.4374421   17.0095923
| 31>     H       15.8037521   14.0445283   16.0247756
| 32>     H       15.2931547   19.6864861   14.9404641
| 33>     H       16.8825375   20.1434863   14.3139907
| 34>     H       16.0430635   21.1935616   15.4698581
| 35>     H       17.2977327   21.2391415   17.2167604
| 36>     H       19.1670151   18.2544106   19.1525131
| 37>     H       18.7554053   17.0216968   17.1033454
| 38>     H       18.6004203   14.8372562   18.0211160
| 39>     H       17.5040928   13.1617832   19.4959155
| 40>     H       15.4883541   13.8081883   20.8191239
| 41>     H       14.1262199   15.4412639   21.3625014
| 42>     H       15.6859873   17.7923764   19.2119735
| 43> *
| 44>
| 45>                          ****END OF INPUT****

CARTESIAN COORDINATES (ANGSTROEM)
---------------------------------
  C     14.426844   15.413614   15.051529
  C     15.610738   15.124636   15.998207
  O     16.808349   15.808106   15.562431
  C     16.770215   17.142760   15.280784
  O     16.512258   17.528346   14.154706
  C     17.012122   18.034333   16.472343
  C     16.919086   19.383338   16.335950
  C     16.250854   20.148432   15.211806
  N     17.453342   20.246703   17.294717
  C     18.298144   19.857853   18.297758
  S     18.995426   20.946065   19.329570
  N     18.557273   18.514266   18.387326
  C     17.882007   17.459641   17.607597
  C     17.213739   16.428597   18.504275
  C     17.725100   15.121154   18.600070
  C     17.104475   14.172603   19.430215
  C     15.969821   14.537321   20.175406
  C     15.466578   15.842923   20.090751
  O     14.371625   16.197806   20.808499
  C     16.084242   16.784106   19.261128
  H     14.105453   16.460288   15.120802
  H     13.568643   14.781614   15.309799
  H     14.704023   15.203872   14.010402
  H     15.328908   15.437442   17.009592
  H     15.803752   14.044528   16.024776
  H     15.293155   19.686486   14.940464
  H     16.882538   20.143486   14.313991
  H     16.043063   21.193562   15.469858
  H     17.297733   21.239141   17.216760
  H     19.167015   18.254411   19.152513
  H     18.755405   17.021697   17.103345
  H     18.600420   14.837256   18.021116
  H     17.504093   13.161783   19.495915
  H     15.488354   13.808188   20.819124
  H     14.126220   15.441264   21.362501
  H     15.685987   17.792376   19.211973

 Total Charge           Charge          ....    0
 Multiplicity           Mult            ....    1
 Number of Electrons    NEL             ....  154
 Basis Dimension        Dim             ....  828

ORBITAL ENERGIES
----------------

  NO   OCC          E(Eh)            E(eV)
   0   2.0000     -91.891146     -2500.4852
   1   2.0000     -20.602351      -560.6185
   2   2.0000     -20.580891      -560.0345
   3   2.0000     -20.546910      -559.1098
   4   2.0000     -15.631216      -425.3470
   5   2.0000     -15.609365      -424.7524
   6   2.0000     -11.392478      -310.0051
   7   2.0000     -11.385400      -309.8125
   8   2.0000     -11.339235      -308.5563
   9   2.0000     -11.320300      -308.0410
  10   2.0000     -11.311881      -307.8119
  11   2.0000     -11.297192      -307.4122
  12   2.0000     -11.265969      -306.5626
  13   2.0000     -11.261278      -306.4349
  14   2.0000     -11.259172      -306.3777
  15   2.0000     -11.253683      -306.2283
  16   2.0000     -11.250127      -306.1315
  17   2.0000     -11.244774      -305.9859
  18   2.0000     -11.244058      -305.9664
  19   2.0000     -11.223084      -305.3957
  20   2.0000      -8.896195      -242.0778
  21   2.0000      -6.577761      -178.9900
  22   2.0000      -6.575770      -178.9358
  23   2.0000      -6.575172      -178.9195
  24   2.0000      -1.443686       -39.2847
  25   2.0000      -1.422101       -38.6973
  26   2.0000      -1.352000       -36.7898
  27   2.0000      -1.343034       -36.5458
  28   2.0000      -1.241198       -33.7747
  29   2.0000      -1.163157       -31.6511
  30   2.0000      -1.122646       -30.5488
  31   2.0000      -1.047401       -28.5012
  32   2.0000      -1.030383       -28.0381
  33   2.0000      -1.021119       -27.7861
  34   2.0000      -0.999808       -27.2062
  35   2.0000      -0.987390       -26.8682
  36   2.0000      -0.925379       -25.1808
  37   2.0000      -0.888814       -24.1858
  38   2.0000      -0.850071       -23.1316
  39   2.0000      -0.843238       -22.9457
  40   2.0000      -0.840036       -22.8585
  41   2.0000      -0.826658       -22.4945
  42   2.0000      -0.750275       -20.4160
  43   2.0000      -0.737089       -20.0572
  44   2.0000      -0.716574       -19.4990
  45   2.0000      -0.700371       -19.0581
  46   2.0000      -0.689439       -18.7606
  47   2.0000      -0.678784       -18.4707
  48   2.0000      -0.668283       -18.1849
  49   2.0000      -0.667024       -18.1506
  50   2.0000      -0.650694       -17.7063
  51   2.0000      -0.645983       -17.5781
  52   2.0000      -0.637460       -17.3462
  53   2.0000      -0.614094       -16.7104
  54   2.0000      -0.611997       -16.6533
  55   2.0000      -0.603721       -16.4281
  56   2.0000      -0.602690       -16.4000
  57   2.0000      -0.581273       -15.8173
  58   2.0000      -0.572380       -15.5753
  59   2.0000      -0.568130       -15.4596
  60   2.0000      -0.554155       -15.0793
  61   2.0000      -0.543777       -14.7969
  62   2.0000      -0.537857       -14.6358
  63   2.0000      -0.528466       -14.3803
  64   2.0000      -0.525097       -14.2886
  65   2.0000      -0.516274       -14.0485
  66   2.0000      -0.503248       -13.6941
  67   2.0000      -0.494495       -13.4559
  68   2.0000      -0.479300       -13.0424
  69   2.0000      -0.465338       -12.6625
  70   2.0000      -0.456653       -12.4262
  71   2.0000      -0.443649       -12.0723
  72   2.0000      -0.355715        -9.6795
  73   2.0000      -0.354666        -9.6510
  74   2.0000      -0.330753        -9.0003
  75   2.0000      -0.327455        -8.9105
  76   2.0000      -0.320756        -8.7282
  77   0.0000       0.071111         1.9350
  78   0.0000       0.098324         2.6755
  79   0.0000       0.122396         3.3306
  80   0.0000       0.128245         3.4897
  81   0.0000       0.131321         3.5734

MULLIKEN ATOMIC CHARGES
-----------------------
   0 C :   -0.279796
   1 C :    0.026812
   2 O :   -0.380193
   3 C :    0.460017
   4 O :   -0.391606
   5 C :   -0.262187
   6 C :    0.175690
   7 C :   -0.267097
   8 N :   -0.126897
   9 C :    0.209062
  10 S :   -0.438092
  11 N :   -0.210497
  12 C :    0.053076
  13 C :   -0.019104
  14 C :   -0.145929
  15 C :   -0.138287
  16 C :   -0.272152
  17 C :    0.305414
  18 O :   -0.356718
  19 C :   -0.228555
  20 H :    0.089924
  21 H :    0.099740
  22 H :    0.114095
  23 H :    0.102407
  24 H :    0.110243
  25 H :    0.126426
  26 H :    0.136061
  27 H :    0.094289
  28 H :    0.200083
  29 H :    0.200451
  30 H :    0.152405
  31 H :    0.153964
  32 H :    0.164628
  33 H :    0.134354
  34 H :    0.241540
  35 H :    0.166427
Sum of atomic charges:    0.0000000

LOEWDIN ATOMIC CHARGES
----------------------
   0 C :    0.105654
   1 C :   -0.019351
   2 O :    0.286244
   3 C :   -0.423420
   4 O :    0.122536
   5 C :   -0.104051
   6 C :   -0.054464
   7 C :    0.130402
   8 N :    0.407842
   9 C :   -0.457993
  10 S :   -0.033494
  11 N :    0.395243
  12 C :   -0.054112
  13 C :   -0.042888
  14 C :    0.020841
  15 C :    0.042248
  16 C :    0.000066
  17 C :   -0.192155
  18 O :    0.396388
  19 C :    0.031244
  20 H :   -0.030482
  21 H :   -0.026932
  22 H :   -0.021698
  23 H :   -0.035014
  24 H :   -0.022490
  25 H :   -0.006199
  26 H :   -0.003899
  27 H :   -0.023153
  28 H :   -0.056422
  29 H :   -0.063672
  30 H :   -0.011429
  31 H :   -0.026804
  32 H :   -0.019509
  33 H :   -0.034062
  34 H :   -0.152639
  35 H :   -0.022376

  Mayer bond orders larger than 0.100000
B(  0-C ,  1-C ) :   0.9817 B(  0-C , 20-H ) :   0.9739 B(  0-C , 21-H ) :   0.9757
B(  0-C , 22-H ) :   0.9752 B(  1-C ,  2-O ) :   0.8915 B(  1-C , 23-H ) :   0.9649
B(  1-C , 24-H ) :   0.9791 B(  2-O ,  3-C ) :   1.0950 B(  3-C ,  4-O ) :   2.0513
B(  3-C ,  5-C ) :   1.0456 B(  5-C ,  6-C ) :   1.6281 B(  5-C , 12-C ) :   0.9576
B(  6-C ,  7-C ) :   0.9673 B(  6-C ,  8-N ) :   1.1545 B(  7-C , 25-H ) :   0.9667
B(  7-C , 26-H ) :   0.9547 B(  7-C , 27-H ) :   0.9877 B(  8-N ,  9-C ) :   1.1857
B(  8-N , 28-H ) :   0.9469 B(  9-C , 10-S ) :   1.6116 B(  9-C , 11-N ) :   1.3054
B( 11-N , 12-C ) :   0.9695 B( 11-N , 29-H ) :   0.9486 B( 12-C , 13-C ) :   0.9644
B( 12-C , 30-H ) :   1.0035 B( 13-C , 14-C ) :   1.3615 B( 13-C , 19-C ) :   1.3718
B( 14-C , 15-C ) :   1.3914 B( 14-C , 31-H ) :   0.9717 B( 15-C , 16-C ) :   1.3604
B( 15-C , 32-H ) :   0.9697 B( 16-C , 17-C ) :   1.3317 B( 16-C , 33-H ) :   0.9835
B( 17-C , 18-O ) :   1.1077 B( 17-C , 19-C ) :   1.3652 B( 18-O , 34-H ) :   0.9789
B( 19-C , 35-H ) :   0.9602

MP2 TOTAL ENERGY:    -1274.324130918 Eh
FINAL SINGLE POINT ENERGY     -1274.324130918133

DIPOLE MOMENT
-------------
                                X             Y             Z
Electronic contribution:      9.80703       8.75053       7.78404
Nuclear contribution   :    -10.95353     -10.36174      -7.57749
                        -----------------------------------------
Total Dipole Moment    :     -1.14650      -1.61121       0.20655
                        -----------------------------------------
Magnitude (a.u.)       :      1.98825
Magnitude (Debye)      :      5.05373

Rotational constants in cm-1:     0.011792     0.008982     0.006092
Rotational constants in MHz :   353.520508   269.277677   182.626204

                             ****ORCA TERMINATED NORMALLY****
TOTAL RUN TIME: 0 days 1 hours 45 minutes 10 seconds 376 msec
