                         Program Version 4.2.0 -  RELEASE  -
|  1> ! ri-mp2 cc-pvtz cc-pvtz/c TightSCF NoKeepInts
|  2>
|  3> %scf
|  4>   MaxCore 4096
|  5> end
|  6> *xyz  0  1
|  7>     C       14.3648686   15.0316525   14.7290307
|  8>     C       15.7964874   14.7492453   15.2355216
|  9>     O       16.4990674   15.8925945   15.7874158
| 10>     C       16.2073852   17.2204059   15.5978010
| 11>     O       15.5051601   17.6358684   14.6934096
| 12>     C       16.8826420   18.0960299   16.6220786
| 13>     C       16.9682699   19.4403941   16.4453215
| 14>     C       16.2325042   20.2817572   15.4225080
| 15>     N       17.8086229   20.2200959   17.2435032
| 16>     C       18.7342109   19.7171348   18.1168049
| 17>     S       19.7633880   20.6967608   18.9635839
| 18>     N       18.7789964   18.3517787   18.2388203
| 19>     C       17.8384900   17.4048702   17.6107303
| 20>     C       17.1415030   16.5129891   18.6301669
| 21>     C       17.4736310   15.1496206   18.7349379
| 22>     C       16.8298049   14.3287812   19.6762320
| 23>     C       15.8489833   14.8769681   20.5206654
| 24>     C       15.5201526   16.2361044   20.4209538
| 25>     O       14.5749810   16.7681305   21.2362202
| 26>     C       16.1627707   17.0504431   19.4832341
| 27>     H       13.7864693   15.5927817   15.4737063
| 28>     H       13.8400687   14.0885551   14.5352962
| 29>     H       14.3779574   15.5969297   13.7889369
| 30>     H       15.7529017   13.9677929   16.0051669
| 31>     H       16.3804267   14.3455487   14.3983629
| 32>     H       16.5647704   20.0333936   14.4064671
| 33>     H       16.3784692   21.3588955   15.5652217
| 34>     H       15.1527877   20.0903243   15.4702639
| 35>     H       17.8007338   21.2228945   17.1474233
| 36>     H       19.4491053   18.0115874   18.9167110
| 37>     H       18.5339286   16.8185880   16.9935891
| 38>     H       18.2289221   14.7246636   18.0793334
| 39>     H       17.0913816   13.2746590   19.7497720
| 40>     H       15.3492728   14.2474423   21.2495431
| 41>     H       14.2673938   16.0628378   21.8250561
| 42>     H       15.9004915   18.1014810   19.4242105
| 43> *
| 44>
| 45>                          ****END OF INPUT****

CARTESIAN COORDINATES (ANGSTROEM)
---------------------------------
  C     14.364869   15.031652   14.729031
  C     15.796487   14.749245   15.235522
  O     16.499067   15.892594   15.787416
  C     16.207385   17.220406   15.597801
  O     15.505160   17.635868   14.693410
  C     16.882642   18.096030   16.622079
  C     16.968270   19.440394   16.445321
  C     16.232504   20.281757   15.422508
  N     17.808623   20.220096   17.243503
  C     18.734211   19.717135   18.116805
  S     19.763388   20.696761   18.963584
  N     18.778996   18.351779   18.238820
  C     17.838490   17.404870   17.610730
  C     17.141503   16.512989   18.630167
  C     17.473631   15.149621   18.734938
  C     16.829805   14.328781   19.676232
  C     15.848983   14.876968   20.520665
  C     15.520153   16.236104   20.420954
  O     14.574981   16.768131   21.236220
  C     16.162771   17.050443   19.483234
  H     13.786469   15.592782   15.473706
  H     13.840069   14.088555   14.535296
  H     14.377957   15.596930   13.788937
  H     15.752902   13.967793   16.005167
  H     16.380427   14.345549   14.398363
  H     16.564770   20.033394   14.406467
  H     16.378469   21.358895   15.565222
  H     15.152788   20.090324   15.470264
  H     17.800734   21.222894   17.147423
  H     19.449105   18.011587   18.916711
  H     18.533929   16.818588   16.993589
  H     18.228922   14.724664   18.079333
  H     17.091382   13.274659   19.749772
  H     15.349273   14.247442   21.249543
  H     14.267394   16.062838   21.825056
  H     15.900491   18.101481   19.424211

 Total Charge           Charge          ....    0
 Multiplicity           Mult            ....    1
 Number of Electrons    NEL             ....  154
 Basis Dimension        Dim             ....  828

ORBITAL ENERGIES
----------------

  NO   OCC          E(Eh)            E(eV)
   0   2.0000     -91.887887     -2500.3965
   1   2.0000     -20.597018      -560.4734
   2   2.0000     -20.596413      -560.4569
   3   2.0000     -20.539783      -558.9159
   4   2.0000     -15.628078      -425.2616
   5   2.0000     -15.605936      -424.6591
   6   2.0000     -11.397370      -310.1382
   7   2.0000     -11.382450      -309.7322
   8   2.0000     -11.336101      -308.4710
   9   2.0000     -11.313529      -307.8568
  10   2.0000     -11.306202      -307.6574
  11   2.0000     -11.302634      -307.5603
  12   2.0000     -11.260462      -306.4127
  13   2.0000     -11.258421      -306.3572
  14   2.0000     -11.255116      -306.2673
  15   2.0000     -11.250728      -306.1479
  16   2.0000     -11.243316      -305.9462
  17   2.0000     -11.238512      -305.8155
  18   2.0000     -11.238469      -305.8143
  19   2.0000     -11.223162      -305.3978
  20   2.0000      -8.892969      -241.9900
  21   2.0000      -6.574545      -178.9025
  22   2.0000      -6.572544      -178.8480
  23   2.0000      -6.571957      -178.8320
  24   2.0000      -1.442896       -39.2632
  25   2.0000      -1.416064       -38.5330
  26   2.0000      -1.353254       -36.8239
  27   2.0000      -1.339357       -36.4458
  28   2.0000      -1.237264       -33.6677
  29   2.0000      -1.157077       -31.4857
  30   2.0000      -1.119662       -30.4676
  31   2.0000      -1.042066       -28.3561
  32   2.0000      -1.036122       -28.1943
  33   2.0000      -1.014736       -27.6124
  34   2.0000      -0.995262       -27.0824
  35   2.0000      -0.983280       -26.7564
  36   2.0000      -0.920928       -25.0597
  37   2.0000      -0.897931       -24.4340
  38   2.0000      -0.846046       -23.0221
  39   2.0000      -0.837760       -22.7966
  40   2.0000      -0.833898       -22.6915
  41   2.0000      -0.817314       -22.2402
  42   2.0000      -0.744758       -20.2659
  43   2.0000      -0.731898       -19.9160
  44   2.0000      -0.718129       -19.5413
  45   2.0000      -0.694903       -18.9093
  46   2.0000      -0.686800       -18.6888
  47   2.0000      -0.675367       -18.3777
  48   2.0000      -0.671995       -18.2859
  49   2.0000      -0.658506       -17.9189
  50   2.0000      -0.648359       -17.6427
  51   2.0000      -0.641473       -17.4554
  52   2.0000      -0.634089       -17.2544
  53   2.0000      -0.610265       -16.6062
  54   2.0000      -0.606192       -16.4953
  55   2.0000      -0.600245       -16.3335
  56   2.0000      -0.598516       -16.2865
  57   2.0000      -0.576999       -15.7009
  58   2.0000      -0.571433       -15.5495
  59   2.0000      -0.568449       -15.4683
  60   2.0000      -0.559486       -15.2244
  61   2.0000      -0.540825       -14.7166
  62   2.0000      -0.535337       -14.5673
  63   2.0000      -0.524565       -14.2741
  64   2.0000      -0.521102       -14.1799
  65   2.0000      -0.512172       -13.9369
  66   2.0000      -0.501779       -13.6541
  67   2.0000      -0.497108       -13.5270
  68   2.0000      -0.484118       -13.1735
  69   2.0000      -0.462019       -12.5722
  70   2.0000      -0.452583       -12.3154
  71   2.0000      -0.440288       -11.9809
  72   2.0000      -0.351831        -9.5738
  73   2.0000      -0.349331        -9.5058
  74   2.0000      -0.327192        -8.9033
  75   2.0000      -0.320967        -8.7340
  76   2.0000      -0.317114        -8.6291
  77   0.0000       0.078695         2.1414
  78   0.0000       0.105140         2.8610
  79   0.0000       0.125465         3.4141
  80   0.0000       0.133324         3.6279
  81   0.0000       0.138132         3.7588

MULLIKEN ATOMIC CHARGES
-----------------------
   0 C :   -0.297215
   1 C :    0.051711
   2 O :   -0.358241
   3 C :    0.438231
   4 O :   -0.431980
   5 C :   -0.223886
   6 C :    0.175067
   7 C :   -0.267711
   8 N :   -0.126341
   9 C :    0.210836
  10 S :   -0.443828
  11 N :   -0.215726
  12 C :    0.064301
  13 C :    0.047903
  14 C :   -0.184579
  15 C :   -0.133377
  16 C :   -0.276939
  17 C :    0.317155
  18 O :   -0.356903
  19 C :   -0.250787
  20 H :    0.101522
  21 H :    0.095724
  22 H :    0.121959
  23 H :    0.097699
  24 H :    0.091643
  25 H :    0.129218
  26 H :    0.094281
  27 H :    0.132329
  28 H :    0.199518
  29 H :    0.200312
  30 H :    0.151416
  31 H :    0.152464
  32 H :    0.161095
  33 H :    0.129922
  34 H :    0.240537
  35 H :    0.162670
Sum of atomic charges:   -0.0000000

LOEWDIN ATOMIC CHARGES
----------------------
   0 C :    0.103227
   1 C :   -0.008189
   2 O :    0.297011
   3 C :   -0.413664
   4 O :    0.104729
   5 C :   -0.094278
   6 C :   -0.056922
   7 C :    0.130268
   8 N :    0.406915
   9 C :   -0.456719
  10 S :   -0.037951
  11 N :    0.394610
  12 C :   -0.054927
  13 C :   -0.038603
  14 C :    0.016957
  15 C :    0.038329
  16 C :   -0.001120
  17 C :   -0.189630
  18 O :    0.395009
  19 C :    0.033011
  20 H :   -0.025941
  21 H :   -0.027794
  22 H :   -0.025042
  23 H :   -0.026268
  24 H :   -0.029622
  25 H :   -0.005278
  26 H :   -0.023925
  27 H :   -0.004778
  28 H :   -0.057349
  29 H :   -0.064593
  30 H :   -0.014128
  31 H :   -0.029347
  32 H :   -0.021523
  33 H :   -0.035565
  34 H :   -0.154038
  35 H :   -0.022872

  Mayer bond orders larger than 0.100000
B(  0-C ,  1-C ) :   0.9728 B(  0-C , 20-H ) :   0.9757 B(  0-C , 21-H ) :   0.9741
B(  0-C , 22-H ) :   0.9723 B(  1-C ,  2-O ) :   0.9012 B(  1-C , 23-H ) :   0.9778
B(  1-C , 24-H ) :   0.9812 B(  2-O ,  3-C ) :   1.1582 B(  3-C ,  4-O ) :   1.9709
B(  3-C ,  5-C ) :   1.0595 B(  5-C ,  6-C ) :   1.6417 B(  5-C , 12-C ) :   0.9581
B(  6-C ,  7-C ) :   0.9653 B(  6-C ,  8-N ) :   1.1518 B(  7-C , 25-H ) :   0.9587
B(  7-C , 26-H ) :   0.9907 B(  7-C , 27-H ) :   0.9618 B(  8-N ,  9-C ) :   1.1886
B(  8-N , 28-H ) :   0.9466 B(  9-C , 10-S ) :   1.6037 B(  9-C , 11-N ) :   1.3104
B( 11-N , 12-C ) :   0.9674 B( 11-N , 29-H ) :   0.9487 B( 12-C , 13-C ) :   0.9636
B( 12-C , 30-H ) :   1.0006 B( 13-C , 14-C ) :   1.3526 B( 13-C , 19-C ) :   1.3809
B( 14-C , 15-C ) :   1.3929 B( 14-C , 31-H ) :   0.9715 B( 15-C , 16-C ) :   1.3601
B( 15-C , 32-H ) :   0.9706 B( 16-C , 17-C ) :   1.3338 B( 16-C , 33-H ) :   0.9851
B( 17-C , 18-O ) :   1.1042 B( 17-C , 19-C ) :   1.3643 B( 18-O , 34-H ) :   0.9799
B( 19-C , 35-H ) :   0.9597

MP2 TOTAL ENERGY:    -1274.333694167 Eh
FINAL SINGLE POINT ENERGY     -1274.333694167477

DIPOLE MOMENT
-------------
                                X             Y             Z
Electronic contribution:      9.81415       9.87776       9.35610
Nuclear contribution   :    -10.85938     -11.68169      -9.73405
                        -----------------------------------------
Total Dipole Moment    :     -1.04523      -1.80392      -0.37795
                        -----------------------------------------
Magnitude (a.u.)       :      2.11884
Magnitude (Debye)      :      5.38567

Rotational constants in cm-1:     0.011128     0.008655     0.005854
Rotational constants in MHz :   333.623853   259.457709   175.491535

                             ****ORCA TERMINATED NORMALLY****
TOTAL RUN TIME: 0 days 1 hours 51 minutes 43 seconds 685 msec
