                         Program Version 4.2.0 -  RELEASE  -
|  1> ! ri-mp2 cc-pvtz cc-pvtz/c TightSCF NoKeepInts
|  2>
|  3> %scf
|  4>   MaxCore 4096
|  5> end
|  6> *xyz  0  1
|  7>     C       15.1185326   14.0974002   15.0919174
|  8>     C       15.0389969   15.4081575   15.8912270
|  9>     O       16.2115861   16.1760248   15.5731390
| 10>     C       16.0695248   17.5271359   15.4710409
| 11>     O       15.3173228   18.0196210   14.6490545
| 12>     C       16.8037859   18.2830510   16.5464730
| 13>     C       16.9151904   19.6353849   16.4889668
| 14>     C       16.1529659   20.5798116   15.5824665
| 15>     N       17.8133582   20.3197720   17.3110200
| 16>     C       18.7744955   19.7177553   18.0768881
| 17>     S       19.8724202   20.5917265   18.9522143
| 18>     N       18.7950350   18.3462231   18.0634023
| 19>     C       17.7947164   17.4820672   17.4092819
| 20>     C       17.1435289   16.5061525   18.3799872
| 21>     C       17.5070117   15.1467768   18.3773076
| 22>     C       16.8991277   14.2442959   19.2661313
| 23>     C       15.9244702   14.7064414   20.1672216
| 24>     C       15.5668868   16.0618420   20.1768241
| 25>     O       14.6263055   16.5107050   21.0452871
| 26>     C       16.1717439   16.9572428   19.2891803
| 27>     H       14.2398062   13.4717991   15.2897448
| 28>     H       16.0153982   13.5298928   15.3692417
| 29>     H       15.1576898   14.3049739   14.0150881
| 30>     H       14.1259039   15.9447385   15.5976759
| 31>     H       14.9900051   15.2042108   16.9687261
| 32>     H       15.0722093   20.4072252   15.6650691
| 33>     H       16.4311380   20.4174004   14.5332071
| 34>     H       16.3324697   21.6365279   15.8129832
| 35>     H       17.8251499   21.3272391   17.3101273
| 36>     H       19.4973053   17.9303265   18.6620443
| 37>     H       18.4369602   16.9453562   16.6963384
| 38>     H       18.2563256   14.7876320   17.6765357
| 39>     H       17.1842676   13.1935411   19.2555497
| 40>     H       15.4531613   14.0133809   20.8565517
| 41>     H       14.3652502   15.7642937   21.6056374
| 42>     H       15.8869547   18.0038743   19.3144486
| 43> *
| 44>
| 45>                          ****END OF INPUT****

CARTESIAN COORDINATES (ANGSTROEM)
---------------------------------
  C     15.118533   14.097400   15.091917
  C     15.038997   15.408157   15.891227
  O     16.211586   16.176025   15.573139
  C     16.069525   17.527136   15.471041
  O     15.317323   18.019621   14.649055
  C     16.803786   18.283051   16.546473
  C     16.915190   19.635385   16.488967
  C     16.152966   20.579812   15.582466
  N     17.813358   20.319772   17.311020
  C     18.774496   19.717755   18.076888
  S     19.872420   20.591726   18.952214
  N     18.795035   18.346223   18.063402
  C     17.794716   17.482067   17.409282
  C     17.143529   16.506152   18.379987
  C     17.507012   15.146777   18.377308
  C     16.899128   14.244296   19.266131
  C     15.924470   14.706441   20.167222
  C     15.566887   16.061842   20.176824
  O     14.626305   16.510705   21.045287
  C     16.171744   16.957243   19.289180
  H     14.239806   13.471799   15.289745
  H     16.015398   13.529893   15.369242
  H     15.157690   14.304974   14.015088
  H     14.125904   15.944738   15.597676
  H     14.990005   15.204211   16.968726
  H     15.072209   20.407225   15.665069
  H     16.431138   20.417400   14.533207
  H     16.332470   21.636528   15.812983
  H     17.825150   21.327239   17.310127
  H     19.497305   17.930326   18.662044
  H     18.436960   16.945356   16.696338
  H     18.256326   14.787632   17.676536
  H     17.184268   13.193541   19.255550
  H     15.453161   14.013381   20.856552
  H     14.365250   15.764294   21.605637
  H     15.886955   18.003874   19.314449

 Total Charge           Charge          ....    0
 Multiplicity           Mult            ....    1
 Number of Electrons    NEL             ....  154
 Basis Dimension        Dim             ....  828

ORBITAL ENERGIES
----------------

  NO   OCC          E(Eh)            E(eV)
   0   2.0000     -91.890484     -2500.4672
   1   2.0000     -20.601131      -560.5853
   2   2.0000     -20.586184      -560.1785
   3   2.0000     -20.544591      -559.0467
   4   2.0000     -15.630945      -425.3396
   5   2.0000     -15.608632      -424.7325
   6   2.0000     -11.392112      -309.9951
   7   2.0000     -11.385071      -309.8035
   8   2.0000     -11.338999      -308.5498
   9   2.0000     -11.319049      -308.0070
  10   2.0000     -11.309679      -307.7520
  11   2.0000     -11.293750      -307.3186
  12   2.0000     -11.265051      -306.5376
  13   2.0000     -11.260214      -306.4060
  14   2.0000     -11.258489      -306.3591
  15   2.0000     -11.252862      -306.2059
  16   2.0000     -11.248634      -306.0909
  17   2.0000     -11.243638      -305.9550
  18   2.0000     -11.243095      -305.9402
  19   2.0000     -11.225170      -305.4524
  20   2.0000      -8.895541      -242.0600
  21   2.0000      -6.577109      -178.9722
  22   2.0000      -6.575114      -178.9180
  23   2.0000      -6.574519      -178.9018
  24   2.0000      -1.448882       -39.4261
  25   2.0000      -1.420827       -38.6627
  26   2.0000      -1.353232       -36.8233
  27   2.0000      -1.342072       -36.5196
  28   2.0000      -1.240090       -33.7446
  29   2.0000      -1.162104       -31.6225
  30   2.0000      -1.122553       -30.5462
  31   2.0000      -1.046285       -28.4709
  32   2.0000      -1.035273       -28.1712
  33   2.0000      -1.019959       -27.7545
  34   2.0000      -0.997973       -27.1562
  35   2.0000      -0.986303       -26.8387
  36   2.0000      -0.924342       -25.1526
  37   2.0000      -0.880326       -23.9549
  38   2.0000      -0.848627       -23.0923
  39   2.0000      -0.841687       -22.9035
  40   2.0000      -0.838585       -22.8191
  41   2.0000      -0.826038       -22.4776
  42   2.0000      -0.762599       -20.7514
  43   2.0000      -0.737323       -20.0636
  44   2.0000      -0.724349       -19.7105
  45   2.0000      -0.699737       -19.0408
  46   2.0000      -0.689967       -18.7750
  47   2.0000      -0.678100       -18.4520
  48   2.0000      -0.673612       -18.3299
  49   2.0000      -0.653263       -17.7762
  50   2.0000      -0.649724       -17.6799
  51   2.0000      -0.640942       -17.4409
  52   2.0000      -0.628784       -17.1101
  53   2.0000      -0.620293       -16.8790
  54   2.0000      -0.611311       -16.6346
  55   2.0000      -0.603686       -16.4271
  56   2.0000      -0.601939       -16.3796
  57   2.0000      -0.580980       -15.8093
  58   2.0000      -0.571425       -15.5493
  59   2.0000      -0.566414       -15.4129
  60   2.0000      -0.560261       -15.2455
  61   2.0000      -0.542483       -14.7617
  62   2.0000      -0.534560       -14.5461
  63   2.0000      -0.528131       -14.3712
  64   2.0000      -0.516420       -14.0525
  65   2.0000      -0.514950       -14.0125
  66   2.0000      -0.503151       -13.6914
  67   2.0000      -0.497081       -13.5263
  68   2.0000      -0.488871       -13.3029
  69   2.0000      -0.464628       -12.6432
  70   2.0000      -0.456073       -12.4104
  71   2.0000      -0.446322       -12.1450
  72   2.0000      -0.355698        -9.6790
  73   2.0000      -0.353434        -9.6174
  74   2.0000      -0.330108        -8.9827
  75   2.0000      -0.326191        -8.8761
  76   2.0000      -0.319949        -8.7062
  77   0.0000       0.071985         1.9588
  78   0.0000       0.100265         2.7283
  79   0.0000       0.123126         3.3504
  80   0.0000       0.129818         3.5325
  81   0.0000       0.132317         3.6005

MULLIKEN ATOMIC CHARGES
-----------------------
   0 C :   -0.261379
   1 C :    0.013600
   2 O :   -0.376061
   3 C :    0.482547
   4 O :   -0.414834
   5 C :   -0.288655
   6 C :    0.184350
   7 C :   -0.265479
   8 N :   -0.127255
   9 C :    0.211625
  10 S :   -0.439760
  11 N :   -0.216973
  12 C :    0.075113
  13 C :   -0.006504
  14 C :   -0.165028
  15 C :   -0.133682
  16 C :   -0.274762
  17 C :    0.309608
  18 O :   -0.355890
  19 C :   -0.227642
  20 H :    0.086225
  21 H :    0.090148
  22 H :    0.104319
  23 H :    0.110017
  24 H :    0.117785
  25 H :    0.132529
  26 H :    0.131129
  27 H :    0.094569
  28 H :    0.199715
  29 H :    0.201062
  30 H :    0.151739
  31 H :    0.154204
  32 H :    0.163253
  33 H :    0.133352
  34 H :    0.241456
  35 H :    0.165561
Sum of atomic charges:   -0.0000000

LOEWDIN ATOMIC CHARGES
----------------------
   0 C :    0.108056
   1 C :   -0.019353
   2 O :    0.301017
   3 C :   -0.421273
   4 O :    0.108722
   5 C :   -0.100954
   6 C :   -0.054410
   7 C :    0.131786
   8 N :    0.407691
   9 C :   -0.456221
  10 S :   -0.034719
  11 N :    0.394340
  12 C :   -0.054756
  13 C :   -0.039953
  14 C :    0.017309
  15 C :    0.040004
  16 C :   -0.001070
  17 C :   -0.190569
  18 O :    0.396279
  19 C :    0.032323
  20 H :   -0.026936
  21 H :   -0.030211
  22 H :   -0.023481
  23 H :   -0.028481
  24 H :   -0.031547
  25 H :   -0.004369
  26 H :   -0.004159
  27 H :   -0.023465
  28 H :   -0.056829
  29 H :   -0.064456
  30 H :   -0.012322
  31 H :   -0.028145
  32 H :   -0.020045
  33 H :   -0.034423
  34 H :   -0.152930
  35 H :   -0.022447

  Mayer bond orders larger than 0.100000
B(  0-C ,  1-C ) :   0.9819 B(  0-C , 20-H ) :   0.9765 B(  0-C , 21-H ) :   0.9796
B(  0-C , 22-H ) :   0.9785 B(  1-C ,  2-O ) :   0.8771 B(  1-C , 23-H ) :   0.9742
B(  1-C , 24-H ) :   0.9667 B(  2-O ,  3-C ) :   1.1079 B(  3-C ,  4-O ) :   2.0115
B(  3-C ,  5-C ) :   1.0729 B(  5-C ,  6-C ) :   1.6266 B(  5-C , 12-C ) :   0.9513
B(  6-C ,  7-C ) :   0.9664 B(  6-C ,  8-N ) :   1.1575 B(  7-C , 25-H ) :   0.9614
B(  7-C , 26-H ) :   0.9578 B(  7-C , 27-H ) :   0.9900 B(  8-N ,  9-C ) :   1.1856
B(  8-N , 28-H ) :   0.9462 B(  9-C , 10-S ) :   1.6071 B(  9-C , 11-N ) :   1.3101
B( 11-N , 12-C ) :   0.9649 B( 11-N , 29-H ) :   0.9485 B( 12-C , 13-C ) :   0.9637
B( 12-C , 30-H ) :   1.0013 B( 13-C , 14-C ) :   1.3549 B( 13-C , 19-C ) :   1.3793
B( 14-C , 15-C ) :   1.3943 B( 14-C , 31-H ) :   0.9726 B( 15-C , 16-C ) :   1.3570
B( 15-C , 32-H ) :   0.9703 B( 16-C , 17-C ) :   1.3320 B( 16-C , 33-H ) :   0.9843
B( 17-C , 18-O ) :   1.1074 B( 17-C , 19-C ) :   1.3662 B( 18-O , 34-H ) :   0.9789
B( 19-C , 35-H ) :   0.9588

MP2 TOTAL ENERGY:    -1274.332795446 Eh
FINAL SINGLE POINT ENERGY     -1274.332795445890

DIPOLE MOMENT
-------------
                                X             Y             Z
Electronic contribution:      9.17092      11.10335       7.32629
Nuclear contribution   :    -10.27221     -12.64411      -7.21949
                        -----------------------------------------
Total Dipole Moment    :     -1.10129      -1.54076       0.10680
                        -----------------------------------------
Magnitude (a.u.)       :      1.89689
Magnitude (Debye)      :      4.82151

Rotational constants in cm-1:     0.012199     0.008339     0.005990
Rotational constants in MHz :   365.727310   249.998020   179.580590

                             ****ORCA TERMINATED NORMALLY****
TOTAL RUN TIME: 0 days 1 hours 46 minutes 34 seconds 640 msec
