                         Program Version 4.2.0 -  RELEASE  -
|  1> ! ri-mp2 cc-pvtz cc-pvtz/c TightSCF NoKeepInts
|  2>
|  3> %scf
|  4>   MaxCore 4096
|  5> end
|  6> *xyz  0  1
|  7>     C       14.9331896   15.0697341   13.8902858
|  8>     C       15.3979066   14.7847547   15.3354649
|  9>     O       16.0725408   15.8874735   15.9929993
| 10>     C       15.8484167   17.2288159   15.8034455
| 11>     O       15.0387538   17.6781365   15.0124757
| 12>     C       16.6862851   18.0732534   16.7295245
| 13>     C       16.8176943   19.4102578   16.5254388
| 14>     C       16.0050122   20.2824004   15.5902214
| 15>     N       17.7908740   20.1504326   17.2009530
| 16>     C       18.7967215   19.6054335   17.9515088
| 17>     S       19.9761600   20.5353920   18.6443239
| 18>     N       18.7892991   18.2401868   18.0814202
| 19>     C       17.7261195   17.3402365   17.5962235
| 20>     C       17.1264097   16.4937159   18.7116404
| 21>     C       17.3985245   15.1154138   18.7909452
| 22>     C       16.8478261   14.3378180   19.8236535
| 23>     C       16.0218221   14.9444892   20.7855695
| 24>     C       15.7534838   16.3184334   20.7108769
| 25>     O       14.9583057   16.9069104   21.6395939
| 26>     C       16.3032377   17.0896636   19.6820889
| 27>     H       14.0367575   15.7018885   13.8758021
| 28>     H       14.6774891   14.1314499   13.3836585
| 29>     H       15.7244304   15.5626441   13.3118088
| 30>     H       14.5163440   14.5058762   15.9273436
| 31>     H       16.0714447   13.9183174   15.3316391
| 32>     H       14.9314549   20.1558435   15.7806644
| 33>     H       16.1875964   20.0037583   14.5445957
| 34>     H       16.2297191   21.3505447   15.6926328
| 35>     H       17.8199633   21.1519268   17.0958069
| 36>     H       19.5243508   17.8695688   18.6702103
| 37>     H       18.3044784   16.7143048   16.9020928
| 38>     H       18.0338148   14.6453249   18.0452069
| 39>     H       17.0613355   13.2717249   19.8765537
| 40>     H       15.5944457   14.3484283   21.5851262
| 41>     H       14.6940815   16.2226394   22.2725889
| 42>     H       16.0907112   18.1528074   19.6436156
| 43> *
| 44>
| 45>                          ****END OF INPUT****

CARTESIAN COORDINATES (ANGSTROEM)
---------------------------------
  C     14.933190   15.069734   13.890286
  C     15.397907   14.784755   15.335465
  O     16.072541   15.887474   15.992999
  C     15.848417   17.228816   15.803446
  O     15.038754   17.678137   15.012476
  C     16.686285   18.073253   16.729525
  C     16.817694   19.410258   16.525439
  C     16.005012   20.282400   15.590221
  N     17.790874   20.150433   17.200953
  C     18.796722   19.605433   17.951509
  S     19.976160   20.535392   18.644324
  N     18.789299   18.240187   18.081420
  C     17.726119   17.340236   17.596224
  C     17.126410   16.493716   18.711640
  C     17.398524   15.115414   18.790945
  C     16.847826   14.337818   19.823653
  C     16.021822   14.944489   20.785569
  C     15.753484   16.318433   20.710877
  O     14.958306   16.906910   21.639594
  C     16.303238   17.089664   19.682089
  H     14.036757   15.701889   13.875802
  H     14.677489   14.131450   13.383658
  H     15.724430   15.562644   13.311809
  H     14.516344   14.505876   15.927344
  H     16.071445   13.918317   15.331639
  H     14.931455   20.155843   15.780664
  H     16.187596   20.003758   14.544596
  H     16.229719   21.350545   15.692633
  H     17.819963   21.151927   17.095807
  H     19.524351   17.869569   18.670210
  H     18.304478   16.714305   16.902093
  H     18.033815   14.645325   18.045207
  H     17.061335   13.271725   19.876554
  H     15.594446   14.348428   21.585126
  H     14.694081   16.222639   22.272589
  H     16.090711   18.152807   19.643616

 Total Charge           Charge          ....    0
 Multiplicity           Mult            ....    1
 Number of Electrons    NEL             ....  154
 Basis Dimension        Dim             ....  828

ORBITAL ENERGIES
----------------

  NO   OCC          E(Eh)            E(eV)
   0   2.0000     -91.887775     -2500.3935
   1   2.0000     -20.598772      -560.5211
   2   2.0000     -20.595210      -560.4242
   3   2.0000     -20.539761      -558.9153
   4   2.0000     -15.627979      -425.2589
   5   2.0000     -15.605738      -424.6537
   6   2.0000     -11.397816      -310.1503
   7   2.0000     -11.382278      -309.7275
   8   2.0000     -11.336141      -308.4721
   9   2.0000     -11.312204      -307.8207
  10   2.0000     -11.306051      -307.6533
  11   2.0000     -11.303325      -307.5791
  12   2.0000     -11.259313      -306.3815
  13   2.0000     -11.258618      -306.3626
  14   2.0000     -11.253764      -306.2305
  15   2.0000     -11.250744      -306.1483
  16   2.0000     -11.242020      -305.9109
  17   2.0000     -11.237359      -305.7841
  18   2.0000     -11.237261      -305.7814
  19   2.0000     -11.223111      -305.3964
  20   2.0000      -8.892859      -241.9870
  21   2.0000      -6.574436      -178.8995
  22   2.0000      -6.572434      -178.8450
  23   2.0000      -6.571847      -178.8290
  24   2.0000      -1.443722       -39.2857
  25   2.0000      -1.414852       -38.5001
  26   2.0000      -1.354148       -36.8482
  27   2.0000      -1.339317       -36.4447
  28   2.0000      -1.237142       -33.6643
  29   2.0000      -1.155956       -31.4552
  30   2.0000      -1.119410       -30.4607
  31   2.0000      -1.041406       -28.3381
  32   2.0000      -1.036700       -28.2101
  33   2.0000      -1.013479       -27.5782
  34   2.0000      -0.995022       -27.0759
  35   2.0000      -0.983005       -26.7489
  36   2.0000      -0.920504       -25.0482
  37   2.0000      -0.897643       -24.4261
  38   2.0000      -0.845893       -23.0179
  39   2.0000      -0.836852       -22.7719
  40   2.0000      -0.832713       -22.6593
  41   2.0000      -0.817719       -22.2513
  42   2.0000      -0.746422       -20.3112
  43   2.0000      -0.730767       -19.8852
  44   2.0000      -0.718175       -19.5425
  45   2.0000      -0.694156       -18.8889
  46   2.0000      -0.687414       -18.7055
  47   2.0000      -0.677225       -18.4282
  48   2.0000      -0.668014       -18.1776
  49   2.0000      -0.657631       -17.8950
  50   2.0000      -0.648326       -17.6419
  51   2.0000      -0.644073       -17.5261
  52   2.0000      -0.633630       -17.2420
  53   2.0000      -0.606195       -16.4954
  54   2.0000      -0.602752       -16.4017
  55   2.0000      -0.598116       -16.2756
  56   2.0000      -0.597320       -16.2539
  57   2.0000      -0.580836       -15.8054
  58   2.0000      -0.573782       -15.6134
  59   2.0000      -0.568888       -15.4802
  60   2.0000      -0.561139       -15.2694
  61   2.0000      -0.539209       -14.6726
  62   2.0000      -0.536325       -14.5942
  63   2.0000      -0.523472       -14.2444
  64   2.0000      -0.521580       -14.1929
  65   2.0000      -0.511482       -13.9181
  66   2.0000      -0.503289       -13.6952
  67   2.0000      -0.496710       -13.5162
  68   2.0000      -0.482222       -13.1219
  69   2.0000      -0.462160       -12.5760
  70   2.0000      -0.452995       -12.3266
  71   2.0000      -0.439574       -11.9614
  72   2.0000      -0.351766        -9.5720
  73   2.0000      -0.348274        -9.4770
  74   2.0000      -0.326989        -8.8978
  75   2.0000      -0.319633        -8.6977
  76   2.0000      -0.316952        -8.6247
  77   0.0000       0.079002         2.1498
  78   0.0000       0.107269         2.9189
  79   0.0000       0.123708         3.3663
  80   0.0000       0.133786         3.6405
  81   0.0000       0.136616         3.7175

MULLIKEN ATOMIC CHARGES
-----------------------
   0 C :   -0.289655
   1 C :    0.051581
   2 O :   -0.354649
   3 C :    0.439489
   4 O :   -0.436430
   5 C :   -0.213761
   6 C :    0.171683
   7 C :   -0.268258
   8 N :   -0.125632
   9 C :    0.211177
  10 S :   -0.443989
  11 N :   -0.215007
  12 C :    0.054766
  13 C :    0.055521
  14 C :   -0.181618
  15 C :   -0.133197
  16 C :   -0.276309
  17 C :    0.317137
  18 O :   -0.357145
  19 C :   -0.249627
  20 H :    0.121991
  21 H :    0.095144
  22 H :    0.097182
  23 H :    0.088510
  24 H :    0.095608
  25 H :    0.133629
  26 H :    0.127560
  27 H :    0.094418
  28 H :    0.199458
  29 H :    0.200198
  30 H :    0.149946
  31 H :    0.149453
  32 H :    0.159287
  33 H :    0.129201
  34 H :    0.240357
  35 H :    0.161982
Sum of atomic charges:   -0.0000000

LOEWDIN ATOMIC CHARGES
----------------------
   0 C :    0.102373
   1 C :   -0.008298
   2 O :    0.298163
   3 C :   -0.412911
   4 O :    0.104800
   5 C :   -0.093161
   6 C :   -0.057015
   7 C :    0.130099
   8 N :    0.406877
   9 C :   -0.457001
  10 S :   -0.038092
  11 N :    0.394590
  12 C :   -0.055162
  13 C :   -0.038370
  14 C :    0.016312
  15 C :    0.039217
  16 C :   -0.000885
  17 C :   -0.189429
  18 O :    0.394881
  19 C :    0.033318
  20 H :   -0.024995
  21 H :   -0.028720
  22 H :   -0.026884
  23 H :   -0.028090
  24 H :   -0.026027
  25 H :   -0.004507
  26 H :   -0.005758
  27 H :   -0.023928
  28 H :   -0.057391
  29 H :   -0.064539
  30 H :   -0.014756
  31 H :   -0.030152
  32 H :   -0.021655
  33 H :   -0.035701
  34 H :   -0.154201
  35 H :   -0.023002

  Mayer bond orders larger than 0.100000
B(  0-C ,  1-C ) :   0.9758 B(  0-C , 20-H ) :   0.9720 B(  0-C , 21-H ) :   0.9757
B(  0-C , 22-H ) :   0.9756 B(  1-C ,  2-O ) :   0.9028 B(  1-C , 23-H ) :   0.9765
B(  1-C , 24-H ) :   0.9821 B(  2-O ,  3-C ) :   1.1576 B(  3-C ,  4-O ) :   1.9594
B(  3-C ,  5-C ) :   1.0791 B(  5-C ,  6-C ) :   1.6406 B(  5-C , 12-C ) :   0.9540
B(  6-C ,  7-C ) :   0.9659 B(  6-C ,  8-N ) :   1.1523 B(  7-C , 25-H ) :   0.9613
B(  7-C , 26-H ) :   0.9589 B(  7-C , 27-H ) :   0.9911 B(  8-N ,  9-C ) :   1.1883
B(  8-N , 28-H ) :   0.9465 B(  9-C , 10-S ) :   1.6037 B(  9-C , 11-N ) :   1.3104
B( 11-N , 12-C ) :   0.9659 B( 11-N , 29-H ) :   0.9484 B( 12-C , 13-C ) :   0.9669
B( 12-C , 30-H ) :   1.0009 B( 13-C , 14-C ) :   1.3517 B( 13-C , 19-C ) :   1.3819
B( 14-C , 15-C ) :   1.3960 B( 14-C , 31-H ) :   0.9725 B( 15-C , 16-C ) :   1.3602
B( 15-C , 32-H ) :   0.9711 B( 16-C , 17-C ) :   1.3341 B( 16-C , 33-H ) :   0.9854
B( 17-C , 18-O ) :   1.1038 B( 17-C , 19-C ) :   1.3650 B( 18-O , 34-H ) :   0.9801
B( 19-C , 35-H ) :   0.9598

MP2 TOTAL ENERGY:    -1274.333710049 Eh
FINAL SINGLE POINT ENERGY     -1274.333710049140

DIPOLE MOMENT
-------------
                                X             Y             Z
Electronic contribution:      8.96060       9.51187      10.80365
Nuclear contribution   :    -10.01958     -11.27278     -11.19185
                        -----------------------------------------
Total Dipole Moment    :     -1.05899      -1.76091      -0.38820
                        -----------------------------------------
Magnitude (a.u.)       :      2.09116
Magnitude (Debye)      :      5.31531

Rotational constants in cm-1:     0.010281     0.008928     0.005756
Rotational constants in MHz :   308.213018   267.650447   172.546814

                             ****ORCA TERMINATED NORMALLY****
TOTAL RUN TIME: 0 days 1 hours 36 minutes 42 seconds 541 msec
