                         Program Version 4.2.0 -  RELEASE  -
|  1> ! ri-mp2 cc-pvtz cc-pvtz/c TightSCF NoKeepInts
|  2>
|  3> %scf
|  4>   MaxCore 4096
|  5> end
|  6> *xyz  0  1
|  7>     C       14.5494437   16.3111254   16.2593384
|  8>     C       15.0315064   16.1147405   14.8039888
|  9>     O       16.4702766   16.1413120   14.6003060
| 10>     C       17.4566095   16.4423766   15.5078490
| 11>     O       18.4656231   15.7632288   15.5609453
| 12>     C       17.2295844   17.5833334   16.4509724
| 13>     C       16.8618629   18.8037124   15.9856543
| 14>     C       16.4248869   19.1602074   14.5788259
| 15>     N       16.9368096   19.9325038   16.8043804
| 16>     C       17.6031907   19.9729709   18.0001079
| 17>     S       17.7568925   21.3739412   18.8650186
| 18>     N       18.1584391   18.7934276   18.4298464
| 19>     C       17.9472168   17.4750296   17.7995137
| 20>     C       17.3331684   16.4298128   18.7195318
| 21>     C       17.8564688   15.1251883   18.7607476
| 22>     C       17.2797002   14.1500699   19.5913874
| 23>     C       16.1687057   14.4820704   20.3855938
| 24>     C       15.6422950   15.7803621   20.3428300
| 25>     O       14.5632240   16.1009221   21.1001510
| 26>     C       16.2183454   16.7491071   19.5148383
| 27>     H       15.1144005   15.6756899   16.9531333
| 28>     H       13.4945308   16.0218451   16.3406440
| 29>     H       14.6163113   17.3551591   16.5832832
| 30>     H       14.6669195   15.1392059   14.4562565
| 31>     H       14.5572435   16.8697262   14.1649044
| 32>     H       16.9229296   18.5372664   13.8255871
| 33>     H       16.6749878   20.1985581   14.3265667
| 34>     H       15.3417973   19.0433356   14.4612162
| 35>     H       16.5644119   20.8127257   16.4848412
| 36>     H       18.6402184   18.8475322   19.3185981
| 37>     H       18.9878987   17.2072400   17.5632806
| 38>     H       18.7076586   14.8638884   18.1351084
| 39>     H       17.6918087   13.1425700   19.6126299
| 40>     H       15.7191077   13.7310211   21.0266897
| 41>     H       14.3389628   15.3215160   21.6306855
| 42>     H       15.7935632   17.7472779   19.4927479
| 43> *
| 44>
| 45>                          ****END OF INPUT****

CARTESIAN COORDINATES (ANGSTROEM)
---------------------------------
  C     14.549444   16.311125   16.259338
  C     15.031506   16.114740   14.803989
  O     16.470277   16.141312   14.600306
  C     17.456609   16.442377   15.507849
  O     18.465623   15.763229   15.560945
  C     17.229584   17.583333   16.450972
  C     16.861863   18.803712   15.985654
  C     16.424887   19.160207   14.578826
  N     16.936810   19.932504   16.804380
  C     17.603191   19.972971   18.000108
  S     17.756892   21.373941   18.865019
  N     18.158439   18.793428   18.429846
  C     17.947217   17.475030   17.799514
  C     17.333168   16.429813   18.719532
  C     17.856469   15.125188   18.760748
  C     17.279700   14.150070   19.591387
  C     16.168706   14.482070   20.385594
  C     15.642295   15.780362   20.342830
  O     14.563224   16.100922   21.100151
  C     16.218345   16.749107   19.514838
  H     15.114401   15.675690   16.953133
  H     13.494531   16.021845   16.340644
  H     14.616311   17.355159   16.583283
  H     14.666920   15.139206   14.456256
  H     14.557244   16.869726   14.164904
  H     16.922930   18.537266   13.825587
  H     16.674988   20.198558   14.326567
  H     15.341797   19.043336   14.461216
  H     16.564412   20.812726   16.484841
  H     18.640218   18.847532   19.318598
  H     18.987899   17.207240   17.563281
  H     18.707659   14.863888   18.135108
  H     17.691809   13.142570   19.612630
  H     15.719108   13.731021   21.026690
  H     14.338963   15.321516   21.630685
  H     15.793563   17.747278   19.492748

 Total Charge           Charge          ....    0
 Multiplicity           Mult            ....    1
 Number of Electrons    NEL             ....  154
 Basis Dimension        Dim             ....  828

ORBITAL ENERGIES
----------------

  NO   OCC          E(Eh)            E(eV)
   0   2.0000     -91.889962     -2500.4530
   1   2.0000     -20.597988      -560.4997
   2   2.0000     -20.595549      -560.4334
   3   2.0000     -20.548079      -559.1417
   4   2.0000     -15.629096      -425.2893
   5   2.0000     -15.608735      -424.7353
   6   2.0000     -11.398671      -310.1736
   7   2.0000     -11.385312      -309.8101
   8   2.0000     -11.335110      -308.4440
   9   2.0000     -11.314801      -307.8914
  10   2.0000     -11.312985      -307.8420
  11   2.0000     -11.308068      -307.7082
  12   2.0000     -11.265760      -306.5569
  13   2.0000     -11.262825      -306.4770
  14   2.0000     -11.261953      -306.4533
  15   2.0000     -11.255011      -306.2644
  16   2.0000     -11.244453      -305.9771
  17   2.0000     -11.240098      -305.8586
  18   2.0000     -11.237029      -305.7751
  19   2.0000     -11.236923      -305.7722
  20   2.0000      -8.895060      -242.0469
  21   2.0000      -6.576640      -178.9595
  22   2.0000      -6.574631      -178.9048
  23   2.0000      -6.574045      -178.8889
  24   2.0000      -1.442910       -39.2636
  25   2.0000      -1.417757       -38.5791
  26   2.0000      -1.356028       -36.8994
  27   2.0000      -1.341544       -36.5053
  28   2.0000      -1.239275       -33.7224
  29   2.0000      -1.159131       -31.5416
  30   2.0000      -1.124748       -30.6059
  31   2.0000      -1.046724       -28.4828
  32   2.0000      -1.039775       -28.2937
  33   2.0000      -1.017079       -27.6761
  34   2.0000      -1.005658       -27.3654
  35   2.0000      -0.989742       -26.9322
  36   2.0000      -0.926318       -25.2064
  37   2.0000      -0.901521       -24.5316
  38   2.0000      -0.852628       -23.2012
  39   2.0000      -0.840669       -22.8758
  40   2.0000      -0.834680       -22.7128
  41   2.0000      -0.826059       -22.4782
  42   2.0000      -0.744968       -20.2716
  43   2.0000      -0.733579       -19.9617
  44   2.0000      -0.730628       -19.8814
  45   2.0000      -0.694830       -18.9073
  46   2.0000      -0.686681       -18.6855
  47   2.0000      -0.679329       -18.4855
  48   2.0000      -0.673943       -18.3389
  49   2.0000      -0.663759       -18.0618
  50   2.0000      -0.657292       -17.8858
  51   2.0000      -0.650478       -17.7004
  52   2.0000      -0.639948       -17.4139
  53   2.0000      -0.617559       -16.8046
  54   2.0000      -0.607732       -16.5372
  55   2.0000      -0.605230       -16.4691
  56   2.0000      -0.601812       -16.3761
  57   2.0000      -0.586551       -15.9609
  58   2.0000      -0.576605       -15.6902
  59   2.0000      -0.566498       -15.4152
  60   2.0000      -0.564007       -15.3474
  61   2.0000      -0.554534       -15.0896
  62   2.0000      -0.545213       -14.8360
  63   2.0000      -0.532726       -14.4962
  64   2.0000      -0.522494       -14.2178
  65   2.0000      -0.512669       -13.9504
  66   2.0000      -0.500051       -13.6071
  67   2.0000      -0.493658       -13.4331
  68   2.0000      -0.485345       -13.2069
  69   2.0000      -0.471044       -12.8178
  70   2.0000      -0.456353       -12.4180
  71   2.0000      -0.447742       -12.1837
  72   2.0000      -0.355061        -9.6617
  73   2.0000      -0.349117        -9.5000
  74   2.0000      -0.329328        -8.9615
  75   2.0000      -0.322618        -8.7789
  76   2.0000      -0.319519        -8.6945
  77   0.0000       0.079669         2.1679
  78   0.0000       0.105749         2.8776
  79   0.0000       0.115626         3.1464
  80   0.0000       0.131013         3.5651
  81   0.0000       0.131356         3.5744

MULLIKEN ATOMIC CHARGES
-----------------------
   0 C :   -0.334737
   1 C :    0.036021
   2 O :   -0.346707
   3 C :    0.441707
   4 O :   -0.381010
   5 C :   -0.241347
   6 C :    0.159582
   7 C :   -0.330126
   8 N :   -0.137199
   9 C :    0.205248
  10 S :   -0.441990
  11 N :   -0.220031
  12 C :    0.073659
  13 C :    0.008377
  14 C :   -0.202837
  15 C :   -0.131522
  16 C :   -0.277785
  17 C :    0.317230
  18 O :   -0.357623
  19 C :   -0.253908
  20 H :    0.127183
  21 H :    0.122309
  22 H :    0.109780
  23 H :    0.126132
  24 H :    0.090638
  25 H :    0.145517
  26 H :    0.123192
  27 H :    0.117687
  28 H :    0.198549
  29 H :    0.202073
  30 H :    0.165439
  31 H :    0.176711
  32 H :    0.163927
  33 H :    0.131742
  34 H :    0.241104
  35 H :    0.173016
Sum of atomic charges:   -0.0000000

LOEWDIN ATOMIC CHARGES
----------------------
   0 C :    0.102921
   1 C :   -0.013316
   2 O :    0.289255
   3 C :   -0.418652
   4 O :    0.121212
   5 C :   -0.086373
   6 C :   -0.081672
   7 C :    0.127899
   8 N :    0.403749
   9 C :   -0.458311
  10 S :   -0.037576
  11 N :    0.396572
  12 C :   -0.047956
  13 C :   -0.044272
  14 C :    0.021332
  15 C :    0.043392
  16 C :   -0.000741
  17 C :   -0.193117
  18 O :    0.394660
  19 C :    0.029210
  20 H :   -0.020863
  21 H :   -0.021318
  22 H :   -0.033922
  23 H :   -0.020733
  24 H :   -0.034576
  25 H :   -0.006185
  26 H :   -0.013845
  27 H :   -0.017942
  28 H :   -0.057986
  29 H :   -0.063288
  30 H :   -0.004648
  31 H :   -0.021176
  32 H :   -0.018934
  33 H :   -0.035040
  34 H :   -0.153608
  35 H :   -0.024151

  Mayer bond orders larger than 0.100000
B(  0-C ,  1-C ) :   0.9588 B(  0-C , 20-H ) :   0.9668 B(  0-C , 21-H ) :   0.9764
B(  0-C , 22-H ) :   0.9720 B(  1-C ,  2-O ) :   0.9040 B(  1-C , 23-H ) :   0.9805
B(  1-C , 24-H ) :   0.9761 B(  2-O ,  3-C ) :   1.1464 B(  3-C ,  4-O ) :   2.0787
B(  3-C ,  5-C ) :   0.9451 B(  5-C ,  6-C ) :   1.7139 B(  5-C , 12-C ) :   0.9377
B(  6-C ,  7-C ) :   0.9398 B(  6-C ,  8-N ) :   1.1103 B(  7-C , 25-H ) :   0.9688
B(  7-C , 26-H ) :   0.9847 B(  7-C , 27-H ) :   0.9656 B(  8-N ,  9-C ) :   1.1930
B(  8-N , 28-H ) :   0.9490 B(  9-C , 10-S ) :   1.6102 B(  9-C , 11-N ) :   1.2947
B( 11-N , 12-C ) :   0.9800 B( 11-N , 29-H ) :   0.9482 B( 12-C , 13-C ) :   0.9680
B( 12-C , 30-H ) :   0.9912 B( 13-C , 14-C ) :   1.3882 B( 13-C , 19-C ) :   1.3518
B( 14-C , 15-C ) :   1.3950 B( 14-C , 31-H ) :   0.9578 B( 15-C , 16-C ) :   1.3608
B( 15-C , 32-H ) :   0.9703 B( 16-C , 17-C ) :   1.3309 B( 16-C , 33-H ) :   0.9848
B( 17-C , 18-O ) :   1.1085 B( 17-C , 19-C ) :   1.3661 B( 18-O , 34-H ) :   0.9797
B( 19-C , 35-H ) :   0.9575

MP2 TOTAL ENERGY:    -1274.323180646 Eh
FINAL SINGLE POINT ENERGY     -1274.323180646426

DIPOLE MOMENT
-------------
                                X             Y             Z
Electronic contribution:      9.03746       6.35675       6.93136
Nuclear contribution   :    -10.68062      -7.50197      -7.49251
                        -----------------------------------------
Total Dipole Moment    :     -1.64316      -1.14522      -0.56115
                        -----------------------------------------
Magnitude (a.u.)       :      2.07999
Magnitude (Debye)      :      5.28692

Rotational constants in cm-1:     0.011376     0.009320     0.006504
Rotational constants in MHz :   341.036777   279.402878   194.994916

                             ****ORCA TERMINATED NORMALLY****
TOTAL RUN TIME: 0 days 2 hours 3 minutes 46 seconds 141 msec
