                         Program Version 4.2.0 -  RELEASE  -
|  1> ! ri-mp2 cc-pvtz cc-pvtz/c TightSCF NoKeepInts
|  2>
|  3> %scf
|  4>   MaxCore 4096
|  5> end
|  6> *xyz  0  1
|  7>     C       14.5471504   16.0968643   16.0610611
|  8>     C       15.6403075   15.0364827   15.7901149
|  9>     O       16.9694831   15.5769495   15.5814229
| 10>     C       17.1737271   16.8685050   15.1968411
| 11>     O       17.2718202   17.1518307   14.0169869
| 12>     C       17.1345089   17.8617549   16.3274200
| 13>     C       16.9928101   19.1838373   16.0546723
| 14>     C       16.4789287   19.7977338   14.7689877
| 15>     N       17.3113855   20.1568821   17.0037604
| 16>     C       18.0057336   19.9087501   18.1564713
| 17>     S       18.4620592   21.1217159   19.1837399
| 18>     N       18.3256403   18.5979008   18.4048931
| 19>     C       17.8423029   17.4382418   17.6301415
| 20>     C       17.1316829   16.4118056   18.5036965
| 21>     C       17.5971570   15.0855772   18.5747393
| 22>     C       16.9515247   14.1445057   19.3941824
| 23>     C       15.8382119   14.5354657   20.1575290
| 24>     C       15.3838254   15.8602536   20.1033485
| 25>     O       14.3115182   16.2419756   20.8413239
| 26>     C       16.0292542   16.7946031   19.2873635
| 27>     H       14.7506402   16.6767782   16.9651442
| 28>     H       13.5779797   15.6031152   16.2018823
| 29>     H       14.4440749   16.7861603   15.2135468
| 30>     H       15.6673888   14.3190607   16.6203817
| 31>     H       15.3515882   14.4781652   14.8899606
| 32>     H       17.2747501   19.8282772   14.0133569
| 33>     H       16.1035867   20.8187186   14.9060748
| 34>     H       15.6559998   19.2037966   14.3520786
| 35>     H       17.1155884   21.1266290   16.8126193
| 36>     H       18.8224193   18.4432274   19.2734167
| 37>     H       18.8099794   17.0335537   17.3005623
| 38>     H       18.4558276   14.7804870   17.9816873
| 39>     H       17.3152251   13.1190753   19.4366275
| 40>     H       15.3363335   13.8121859   20.7920468
| 41>     H       14.0382970   15.4812805   21.3761069
| 42>     H       15.6682896   17.8178538   19.2638110
| 43> *
| 44>
| 45>                          ****END OF INPUT****

CARTESIAN COORDINATES (ANGSTROEM)
---------------------------------
  C     14.547150   16.096864   16.061061
  C     15.640307   15.036483   15.790115
  O     16.969483   15.576949   15.581423
  C     17.173727   16.868505   15.196841
  O     17.271820   17.151831   14.016987
  C     17.134509   17.861755   16.327420
  C     16.992810   19.183837   16.054672
  C     16.478929   19.797734   14.768988
  N     17.311386   20.156882   17.003760
  C     18.005734   19.908750   18.156471
  S     18.462059   21.121716   19.183740
  N     18.325640   18.597901   18.404893
  C     17.842303   17.438242   17.630142
  C     17.131683   16.411806   18.503697
  C     17.597157   15.085577   18.574739
  C     16.951525   14.144506   19.394182
  C     15.838212   14.535466   20.157529
  C     15.383825   15.860254   20.103348
  O     14.311518   16.241976   20.841324
  C     16.029254   16.794603   19.287364
  H     14.750640   16.676778   16.965144
  H     13.577980   15.603115   16.201882
  H     14.444075   16.786160   15.213547
  H     15.667389   14.319061   16.620382
  H     15.351588   14.478165   14.889961
  H     17.274750   19.828277   14.013357
  H     16.103587   20.818719   14.906075
  H     15.656000   19.203797   14.352079
  H     17.115588   21.126629   16.812619
  H     18.822419   18.443227   19.273417
  H     18.809979   17.033554   17.300562
  H     18.455828   14.780487   17.981687
  H     17.315225   13.119075   19.436628
  H     15.336334   13.812186   20.792047
  H     14.038297   15.481281   21.376107
  H     15.668290   17.817854   19.263811

 Total Charge           Charge          ....    0
 Multiplicity           Mult            ....    1
 Number of Electrons    NEL             ....  154
 Basis Dimension        Dim             ....  828

ORBITAL ENERGIES
----------------

  NO   OCC          E(Eh)            E(eV)
   0   2.0000     -91.891117     -2500.4844
   1   2.0000     -20.601585      -560.5976
   2   2.0000     -20.579640      -560.0005
   3   2.0000     -20.550323      -559.2027
   4   2.0000     -15.629925      -425.3119
   5   2.0000     -15.609809      -424.7645
   6   2.0000     -11.393146      -310.0233
   7   2.0000     -11.385562      -309.8169
   8   2.0000     -11.336010      -308.4685
   9   2.0000     -11.319130      -308.0092
  10   2.0000     -11.313473      -307.8552
  11   2.0000     -11.302320      -307.5518
  12   2.0000     -11.266347      -306.5729
  13   2.0000     -11.259875      -306.3968
  14   2.0000     -11.257867      -306.3421
  15   2.0000     -11.254072      -306.2389
  16   2.0000     -11.249353      -306.1105
  17   2.0000     -11.244706      -305.9840
  18   2.0000     -11.243404      -305.9486
  19   2.0000     -11.230889      -305.6080
  20   2.0000      -8.896169      -242.0771
  21   2.0000      -6.577736      -178.9893
  22   2.0000      -6.575744      -178.9351
  23   2.0000      -6.575146      -178.9188
  24   2.0000      -1.443576       -39.2817
  25   2.0000      -1.421384       -38.6778
  26   2.0000      -1.352608       -36.8063
  27   2.0000      -1.342165       -36.5222
  28   2.0000      -1.240819       -33.7644
  29   2.0000      -1.162355       -31.6293
  30   2.0000      -1.122530       -30.5456
  31   2.0000      -1.047102       -28.4931
  32   2.0000      -1.032854       -28.1054
  33   2.0000      -1.020625       -27.7726
  34   2.0000      -1.002046       -27.2670
  35   2.0000      -0.988392       -26.8955
  36   2.0000      -0.925245       -25.1772
  37   2.0000      -0.898585       -24.4517
  38   2.0000      -0.849291       -23.1104
  39   2.0000      -0.842926       -22.9372
  40   2.0000      -0.839738       -22.8504
  41   2.0000      -0.820539       -22.3280
  42   2.0000      -0.746425       -20.3113
  43   2.0000      -0.737310       -20.0632
  44   2.0000      -0.722879       -19.6705
  45   2.0000      -0.699615       -19.0375
  46   2.0000      -0.689752       -18.7691
  47   2.0000      -0.675287       -18.3755
  48   2.0000      -0.672453       -18.2984
  49   2.0000      -0.662371       -18.0240
  50   2.0000      -0.653026       -17.7697
  51   2.0000      -0.645860       -17.5747
  52   2.0000      -0.639011       -17.3884
  53   2.0000      -0.621868       -16.9219
  54   2.0000      -0.611458       -16.6386
  55   2.0000      -0.604243       -16.4423
  56   2.0000      -0.601652       -16.3718
  57   2.0000      -0.580606       -15.7991
  58   2.0000      -0.573738       -15.6122
  59   2.0000      -0.566047       -15.4029
  60   2.0000      -0.552187       -15.0258
  61   2.0000      -0.549391       -14.9497
  62   2.0000      -0.542923       -14.7737
  63   2.0000      -0.531071       -14.4512
  64   2.0000      -0.526860       -14.3366
  65   2.0000      -0.515567       -14.0293
  66   2.0000      -0.503224       -13.6934
  67   2.0000      -0.494556       -13.4576
  68   2.0000      -0.481718       -13.1082
  69   2.0000      -0.467585       -12.7236
  70   2.0000      -0.454103       -12.3568
  71   2.0000      -0.446985       -12.1631
  72   2.0000      -0.357172        -9.7191
  73   2.0000      -0.350157        -9.5283
  74   2.0000      -0.330268        -8.9870
  75   2.0000      -0.326388        -8.8815
  76   2.0000      -0.320969        -8.7340
  77   0.0000       0.073139         1.9902
  78   0.0000       0.099448         2.7061
  79   0.0000       0.120837         3.2881
  80   0.0000       0.128274         3.4905
  81   0.0000       0.130967         3.5638

MULLIKEN ATOMIC CHARGES
-----------------------
   0 C :   -0.333751
   1 C :    0.032766
   2 O :   -0.378152
   3 C :    0.453233
   4 O :   -0.382994
   5 C :   -0.254024
   6 C :    0.165245
   7 C :   -0.273061
   8 N :   -0.127886
   9 C :    0.206646
  10 S :   -0.437593
  11 N :   -0.212371
  12 C :    0.059424
  13 C :    0.035101
  14 C :   -0.197203
  15 C :   -0.137075
  16 C :   -0.274671
  17 C :    0.320778
  18 O :   -0.356611
  19 C :   -0.263763
  20 H :    0.116636
  21 H :    0.116949
  22 H :    0.104608
  23 H :    0.114436
  24 H :    0.120764
  25 H :    0.138915
  26 H :    0.094917
  27 H :    0.123300
  28 H :    0.199105
  29 H :    0.200361
  30 H :    0.151073
  31 H :    0.156954
  32 H :    0.167062
  33 H :    0.134109
  34 H :    0.241220
  35 H :    0.175551
Sum of atomic charges:    0.0000000

LOEWDIN ATOMIC CHARGES
----------------------
   0 C :    0.105104
   1 C :   -0.011012
   2 O :    0.285741
   3 C :   -0.428548
   4 O :    0.125151
   5 C :   -0.099582
   6 C :   -0.061489
   7 C :    0.129787
   8 N :    0.407232
   9 C :   -0.457908
  10 S :   -0.033589
  11 N :    0.395395
  12 C :   -0.052835
  13 C :   -0.042079
  14 C :    0.022928
  15 C :    0.039620
  16 C :   -0.000897
  17 C :   -0.192391
  18 O :    0.395965
  19 C :    0.033098
  20 H :   -0.034856
  21 H :   -0.021037
  22 H :   -0.028992
  23 H :   -0.025494
  24 H :   -0.027261
  25 H :   -0.004044
  26 H :   -0.022634
  27 H :   -0.008461
  28 H :   -0.056806
  29 H :   -0.063470
  30 H :   -0.011284
  31 H :   -0.026000
  32 H :   -0.019890
  33 H :   -0.034316
  34 H :   -0.152950
  35 H :   -0.022197

  Mayer bond orders larger than 0.100000
B(  0-C ,  1-C ) :   0.9594 B(  0-C , 20-H ) :   0.9678 B(  0-C , 21-H ) :   0.9758
B(  0-C , 22-H ) :   0.9737 B(  1-C ,  2-O ) :   0.8915 B(  1-C , 23-H ) :   0.9740
B(  1-C , 24-H ) :   0.9867 B(  2-O ,  3-C ) :   1.1132 B(  3-C ,  4-O ) :   2.0791
B(  3-C ,  5-C ) :   1.0050 B(  5-C ,  6-C ) :   1.6478 B(  5-C , 12-C ) :   0.9574
B(  6-C ,  7-C ) :   0.9604 B(  6-C ,  8-N ) :   1.1445 B(  7-C , 25-H ) :   0.9549
B(  7-C , 26-H ) :   0.9866 B(  7-C , 27-H ) :   0.9703 B(  8-N ,  9-C ) :   1.1889
B(  8-N , 28-H ) :   0.9480 B(  9-C , 10-S ) :   1.6152 B(  9-C , 11-N ) :   1.2972
B( 11-N , 12-C ) :   0.9792 B( 11-N , 29-H ) :   0.9478 B( 12-C , 13-C ) :   0.9617
B( 12-C , 30-H ) :   1.0020 B( 13-C , 14-C ) :   1.3542 B( 13-C , 19-C ) :   1.3537
B( 14-C , 15-C ) :   1.3956 B( 14-C , 31-H ) :   0.9713 B( 15-C , 16-C ) :   1.3544
B( 15-C , 32-H ) :   0.9696 B( 16-C , 17-C ) :   1.3333 B( 16-C , 33-H ) :   0.9838
B( 17-C , 18-O ) :   1.1085 B( 17-C , 19-C ) :   1.3589 B( 18-O , 34-H ) :   0.9793
B( 19-C , 35-H ) :   0.9586

MP2 TOTAL ENERGY:    -1274.318329361 Eh
FINAL SINGLE POINT ENERGY     -1274.318329360789

DIPOLE MOMENT
-------------
                                X             Y             Z
Electronic contribution:      9.17370       7.59728       6.26995
Nuclear contribution   :    -10.46563      -9.20527      -6.15205
                        -----------------------------------------
Total Dipole Moment    :     -1.29192      -1.60800       0.11790
                        -----------------------------------------
Magnitude (a.u.)       :      2.06606
Magnitude (Debye)      :      5.25151

Rotational constants in cm-1:     0.012250     0.009183     0.006293
Rotational constants in MHz :   367.236203   275.290502   188.647595

                             ****ORCA TERMINATED NORMALLY****
TOTAL RUN TIME: 0 days 2 hours 3 minutes 52 seconds 270 msec
