                         Program Version 4.2.0 -  RELEASE  -
|  1> ! ri-mp2 cc-pvtz cc-pvtz/c TightSCF NoKeepInts
|  2>
|  3> %scf
|  4>   MaxCore 4096
|  5> end
|  6> *xyz  0  1
|  7>     C       15.4331431   14.4850495   14.1516623
|  8>     C       14.9233531   15.2106481   15.4082729
|  9>     O       15.9546350   16.1199446   15.8317022
| 10>     C       15.7438068   17.4696786   15.7839641
| 11>     O       14.8919092   17.9691124   15.0685880
| 12>     C       16.6240026   18.2264610   16.7427482
| 13>     C       16.7538438   19.5750760   16.6500877
| 14>     C       15.9065042   20.5228370   15.8263657
| 15>     N       17.7590744   20.2510590   17.3454798
| 16>     C       18.7913552   19.6389644   18.0032432
| 17>     S       20.0037588   20.5013640   18.7257960
| 18>     N       18.7804533   18.2672408   18.0140019
| 19>     C       17.6928661   17.4158528   17.4957869
| 20>     C       17.1302919   16.4754339   18.5538517
| 21>     C       17.3543696   15.0886150   18.4729963
| 22>     C       16.8346398   14.2236860   19.4507548
| 23>     C       16.0882736   14.7507077   20.5188282
| 24>     C       15.8675812   16.1325367   20.6033922
| 25>     O       15.1484222   16.6439693   21.6340568
| 26>     C       16.3857035   16.9906749   19.6283692
| 27>     H       15.6079943   15.2016357   13.3391662
| 28>     H       14.6964163   13.7495076   13.8066841
| 29>     H       16.3732802   13.9598811   14.3606855
| 30>     H       13.9761909   15.7246118   15.1945801
| 31>     H       14.7382700   14.4756645   16.2023367
| 32>     H       14.8413739   20.3827239   16.0513341
| 33>     H       16.0429978   20.3316999   14.7543256
| 34>     H       16.1414996   21.5782921   16.0073571
| 35>     H       17.7909222   21.2578369   17.3263344
| 36>     H       19.5378909   17.8442017   18.5353062
| 37>     H       18.2373542   16.8516258   16.7253165
| 38>     H       17.9265173   14.6802593   17.6441282
| 39>     H       17.0107841   13.1518151   19.3792989
| 40>     H       15.6853745   14.0870073   21.2767617
| 41>     H       14.9016957   15.9063001   22.2117937
| 42>     H       16.2104510   18.0580256   19.7126430
| 43> *
| 44>
| 45>                          ****END OF INPUT****

CARTESIAN COORDINATES (ANGSTROEM)
---------------------------------
  C     15.433143   14.485050   14.151662
  C     14.923353   15.210648   15.408273
  O     15.954635   16.119945   15.831702
  C     15.743807   17.469679   15.783964
  O     14.891909   17.969112   15.068588
  C     16.624003   18.226461   16.742748
  C     16.753844   19.575076   16.650088
  C     15.906504   20.522837   15.826366
  N     17.759074   20.251059   17.345480
  C     18.791355   19.638964   18.003243
  S     20.003759   20.501364   18.725796
  N     18.780453   18.267241   18.014002
  C     17.692866   17.415853   17.495787
  C     17.130292   16.475434   18.553852
  C     17.354370   15.088615   18.472996
  C     16.834640   14.223686   19.450755
  C     16.088274   14.750708   20.518828
  C     15.867581   16.132537   20.603392
  O     15.148422   16.643969   21.634057
  C     16.385704   16.990675   19.628369
  H     15.607994   15.201636   13.339166
  H     14.696416   13.749508   13.806684
  H     16.373280   13.959881   14.360686
  H     13.976191   15.724612   15.194580
  H     14.738270   14.475665   16.202337
  H     14.841374   20.382724   16.051334
  H     16.042998   20.331700   14.754326
  H     16.141500   21.578292   16.007357
  H     17.790922   21.257837   17.326334
  H     19.537891   17.844202   18.535306
  H     18.237354   16.851626   16.725317
  H     17.926517   14.680259   17.644128
  H     17.010784   13.151815   19.379299
  H     15.685374   14.087007   21.276762
  H     14.901696   15.906300   22.211794
  H     16.210451   18.058026   19.712643

 Total Charge           Charge          ....    0
 Multiplicity           Mult            ....    1
 Number of Electrons    NEL             ....  154
 Basis Dimension        Dim             ....  828

ORBITAL ENERGIES
----------------

  NO   OCC          E(Eh)            E(eV)
   0   2.0000     -91.889025     -2500.4275
   1   2.0000     -20.599179      -560.5322
   2   2.0000     -20.596441      -560.4577
   3   2.0000     -20.541651      -558.9667
   4   2.0000     -15.629409      -425.2978
   5   2.0000     -15.607128      -424.6915
   6   2.0000     -11.395257      -310.0807
   7   2.0000     -11.383657      -309.7650
   8   2.0000     -11.337583      -308.5113
   9   2.0000     -11.313638      -307.8597
  10   2.0000     -11.307639      -307.6965
  11   2.0000     -11.295443      -307.3646
  12   2.0000     -11.260789      -306.4216
  13   2.0000     -11.259084      -306.3753
  14   2.0000     -11.255152      -306.2683
  15   2.0000     -11.251770      -306.1762
  16   2.0000     -11.243550      -305.9526
  17   2.0000     -11.238913      -305.8264
  18   2.0000     -11.238737      -305.8216
  19   2.0000     -11.226950      -305.5008
  20   2.0000      -8.894092      -242.0206
  21   2.0000      -6.575664      -178.9329
  22   2.0000      -6.573667      -178.8786
  23   2.0000      -6.573075      -178.8625
  24   2.0000      -1.450892       -39.4808
  25   2.0000      -1.416105       -38.5342
  26   2.0000      -1.354420       -36.8556
  27   2.0000      -1.340530       -36.4777
  28   2.0000      -1.238381       -33.6981
  29   2.0000      -1.157555       -31.4987
  30   2.0000      -1.121202       -30.5095
  31   2.0000      -1.043037       -28.3825
  32   2.0000      -1.038507       -28.2592
  33   2.0000      -1.014966       -27.6186
  34   2.0000      -0.996254       -27.1094
  35   2.0000      -0.984618       -26.7928
  36   2.0000      -0.921878       -25.0856
  37   2.0000      -0.889480       -24.2040
  38   2.0000      -0.846613       -23.0375
  39   2.0000      -0.837967       -22.8022
  40   2.0000      -0.834158       -22.6986
  41   2.0000      -0.818628       -22.2760
  42   2.0000      -0.762768       -20.7560
  43   2.0000      -0.733600       -19.9623
  44   2.0000      -0.722395       -19.6574
  45   2.0000      -0.695228       -18.9181
  46   2.0000      -0.688036       -18.7224
  47   2.0000      -0.679853       -18.4997
  48   2.0000      -0.672630       -18.3032
  49   2.0000      -0.653728       -17.7889
  50   2.0000      -0.647475       -17.6187
  51   2.0000      -0.640536       -17.4299
  52   2.0000      -0.627723       -17.0812
  53   2.0000      -0.615300       -16.7432
  54   2.0000      -0.606610       -16.5067
  55   2.0000      -0.600176       -16.3316
  56   2.0000      -0.598988       -16.2993
  57   2.0000      -0.578095       -15.7308
  58   2.0000      -0.570447       -15.5226
  59   2.0000      -0.568013       -15.4564
  60   2.0000      -0.563505       -15.3337
  61   2.0000      -0.541446       -14.7335
  62   2.0000      -0.534316       -14.5395
  63   2.0000      -0.529733       -14.4148
  64   2.0000      -0.524020       -14.2593
  65   2.0000      -0.513232       -13.9658
  66   2.0000      -0.500718       -13.6252
  67   2.0000      -0.496378       -13.5071
  68   2.0000      -0.485874       -13.2213
  69   2.0000      -0.463520       -12.6130
  70   2.0000      -0.453764       -12.3476
  71   2.0000      -0.449020       -12.2184
  72   2.0000      -0.353164        -9.6101
  73   2.0000      -0.349752        -9.5172
  74   2.0000      -0.328152        -8.9295
  75   2.0000      -0.321126        -8.7383
  76   2.0000      -0.318200        -8.6587
  77   0.0000       0.076586         2.0840
  78   0.0000       0.104997         2.8571
  79   0.0000       0.124024         3.3749
  80   0.0000       0.132521         3.6061
  81   0.0000       0.135591         3.6896

MULLIKEN ATOMIC CHARGES
-----------------------
   0 C :   -0.268630
   1 C :    0.021058
   2 O :   -0.351254
   3 C :    0.442822
   4 O :   -0.435662
   5 C :   -0.227278
   6 C :    0.173215
   7 C :   -0.268199
   8 N :   -0.126157
   9 C :    0.209610
  10 S :   -0.441499
  11 N :   -0.214960
  12 C :    0.059050
  13 C :    0.044498
  14 C :   -0.182904
  15 C :   -0.134878
  16 C :   -0.276553
  17 C :    0.316582
  18 O :   -0.356791
  19 C :   -0.247885
  20 H :    0.101788
  21 H :    0.090419
  22 H :    0.090606
  23 H :    0.115324
  24 H :    0.108819
  25 H :    0.133638
  26 H :    0.129072
  27 H :    0.094576
  28 H :    0.199961
  29 H :    0.200452
  30 H :    0.153338
  31 H :    0.153521
  32 H :    0.161085
  33 H :    0.130084
  34 H :    0.240507
  35 H :    0.162629
Sum of atomic charges:   -0.0000000

LOEWDIN ATOMIC CHARGES
----------------------
   0 C :    0.104519
   1 C :   -0.014040
   2 O :    0.310963
   3 C :   -0.415140
   4 O :    0.094840
   5 C :   -0.095580
   6 C :   -0.055977
   7 C :    0.131228
   8 N :    0.407248
   9 C :   -0.456687
  10 S :   -0.036213
  11 N :    0.394709
  12 C :   -0.054737
  13 C :   -0.039540
  14 C :    0.017063
  15 C :    0.038395
  16 C :   -0.000866
  17 C :   -0.189655
  18 O :    0.395040
  19 C :    0.033246
  20 H :   -0.024783
  21 H :   -0.026843
  22 H :   -0.029818
  23 H :   -0.027845
  24 H :   -0.028767
  25 H :   -0.004208
  26 H :   -0.005017
  27 H :   -0.023641
  28 H :   -0.057120
  29 H :   -0.064287
  30 H :   -0.013683
  31 H :   -0.029254
  32 H :   -0.021426
  33 H :   -0.035461
  34 H :   -0.153988
  35 H :   -0.022677

  Mayer bond orders larger than 0.100000
B(  0-C ,  1-C ) :   0.9729 B(  0-C , 20-H ) :   0.9786 B(  0-C , 21-H ) :   0.9757
B(  0-C , 22-H ) :   0.9792 B(  1-C ,  2-O ) :   0.8842 B(  1-C , 23-H ) :   0.9733
B(  1-C , 24-H ) :   0.9785 B(  2-O ,  3-C ) :   1.1601 B(  3-C ,  4-O ) :   1.9628
B(  3-C ,  5-C ) :   1.0717 B(  5-C ,  6-C ) :   1.6380 B(  5-C , 12-C ) :   0.9559
B(  6-C ,  7-C ) :   0.9652 B(  6-C ,  8-N ) :   1.1527 B(  7-C , 25-H ) :   0.9611
B(  7-C , 26-H ) :   0.9588 B(  7-C , 27-H ) :   0.9906 B(  8-N ,  9-C ) :   1.1874
B(  8-N , 28-H ) :   0.9463 B(  9-C , 10-S ) :   1.6067 B(  9-C , 11-N ) :   1.3090
B( 11-N , 12-C ) :   0.9690 B( 11-N , 29-H ) :   0.9484 B( 12-C , 13-C ) :   0.9624
B( 12-C , 30-H ) :   1.0013 B( 13-C , 14-C ) :   1.3531 B( 13-C , 19-C ) :   1.3807
B( 14-C , 15-C ) :   1.3934 B( 14-C , 31-H ) :   0.9712 B( 15-C , 16-C ) :   1.3592
B( 15-C , 32-H ) :   0.9707 B( 16-C , 17-C ) :   1.3339 B( 16-C , 33-H ) :   0.9851
B( 17-C , 18-O ) :   1.1044 B( 17-C , 19-C ) :   1.3645 B( 18-O , 34-H ) :   0.9799
B( 19-C , 35-H ) :   0.9596

MP2 TOTAL ENERGY:    -1274.341649772 Eh
FINAL SINGLE POINT ENERGY     -1274.341649771577

DIPOLE MOMENT
-------------
                                X             Y             Z
Electronic contribution:      8.55486      10.35636      10.09851
Nuclear contribution   :     -9.69889     -11.99955     -10.37915
                        -----------------------------------------
Total Dipole Moment    :     -1.14403      -1.64319      -0.28064
                        -----------------------------------------
Magnitude (a.u.)       :      2.02179
Magnitude (Debye)      :      5.13899

Rotational constants in cm-1:     0.010747     0.008632     0.005831
Rotational constants in MHz :   322.190087   258.787715   174.810042

                             ****ORCA TERMINATED NORMALLY****
TOTAL RUN TIME: 0 days 1 hours 43 minutes 52 seconds 705 msec
