                         Program Version 4.2.0 -  RELEASE  -
|  1> ! ri-mp2 cc-pvtz cc-pvtz/c TightSCF NoKeepInts
|  2>
|  3> %scf
|  4>   MaxCore 4096
|  5> end
|  6> *xyz  0  1
|  7>     C       14.2439921   15.7141932   15.1299733
|  8>     C       15.3771193   15.5263680   16.1549235
|  9>     O       16.6296195   15.7601399   15.4798737
| 10>     C       17.0772033   17.0316938   15.2581103
| 11>     O       17.4456468   17.3760851   14.1503751
| 12>     C       17.0665824   17.9435007   16.4501192
| 13>     C       16.8783522   19.2706070   16.2495160
| 14>     C       16.2732843   19.9131453   15.0192542
| 15>     N       17.2383595   20.2098646   17.2170850
| 16>     C       18.0213528   19.9278911   18.3040040
| 17>     S       18.5197025   21.1039606   19.3542270
| 18>     N       18.3926532   18.6160975   18.4649069
| 19>     C       17.8847475   17.4805297   17.6698496
| 20>     C       17.2800260   16.3786869   18.5274004
| 21>     C       17.7545339   15.0574216   18.4336130
| 22>     C       17.1909255   14.0398505   19.2214052
| 23>     C       16.1498021   14.3474766   20.1140554
| 24>     C       15.6820365   15.6647708   20.2162615
| 25>     O       14.6750212   15.9643452   21.0741376
| 26>     C       16.2428503   16.6753799   19.4288325
| 27>     H       14.2119479   16.7478310   14.7639769
| 28>     H       13.2729422   15.4817452   15.5838363
| 29>     H       14.3884155   15.0483139   14.2696481
| 30>     H       15.2184984   16.2047568   16.9997123
| 31>     H       15.3538966   14.4959922   16.5330915
| 32>     H       15.5046305   19.2700058   14.5731576
| 33>     H       17.0447686   20.0753859   14.2549173
| 34>     H       15.8023779   20.8789369   15.2378282
| 35>     H       17.0096014   21.1821562   17.0833790
| 36>     H       18.9608687   18.4365184   19.2835429
| 37>     H       18.8353486   17.1279191   17.2437379
| 38>     H       18.5548427   14.8159602   17.7380754
| 39>     H       17.5613807   13.0191460   19.1386550
| 40>     H       15.7121538   13.5642614   20.7247184
| 41>     H       14.4617263   15.1586435   21.5691188
| 42>     H       15.8697892   17.6904194   19.5226812
| 43> *
| 44>
| 45>                          ****END OF INPUT****

CARTESIAN COORDINATES (ANGSTROEM)
---------------------------------
  C     14.243992   15.714193   15.129973
  C     15.377119   15.526368   16.154923
  O     16.629620   15.760140   15.479874
  C     17.077203   17.031694   15.258110
  O     17.445647   17.376085   14.150375
  C     17.066582   17.943501   16.450119
  C     16.878352   19.270607   16.249516
  C     16.273284   19.913145   15.019254
  N     17.238360   20.209865   17.217085
  C     18.021353   19.927891   18.304004
  S     18.519703   21.103961   19.354227
  N     18.392653   18.616097   18.464907
  C     17.884747   17.480530   17.669850
  C     17.280026   16.378687   18.527400
  C     17.754534   15.057422   18.433613
  C     17.190925   14.039851   19.221405
  C     16.149802   14.347477   20.114055
  C     15.682037   15.664771   20.216262
  O     14.675021   15.964345   21.074138
  C     16.242850   16.675380   19.428832
  H     14.211948   16.747831   14.763977
  H     13.272942   15.481745   15.583836
  H     14.388415   15.048314   14.269648
  H     15.218498   16.204757   16.999712
  H     15.353897   14.495992   16.533092
  H     15.504630   19.270006   14.573158
  H     17.044769   20.075386   14.254917
  H     15.802378   20.878937   15.237828
  H     17.009601   21.182156   17.083379
  H     18.960869   18.436518   19.283543
  H     18.835349   17.127919   17.243738
  H     18.554843   14.815960   17.738075
  H     17.561381   13.019146   19.138655
  H     15.712154   13.564261   20.724718
  H     14.461726   15.158644   21.569119
  H     15.869789   17.690419   19.522681

 Total Charge           Charge          ....    0
 Multiplicity           Mult            ....    1
 Number of Electrons    NEL             ....  154
 Basis Dimension        Dim             ....  828

ORBITAL ENERGIES
----------------

  NO   OCC          E(Eh)            E(eV)
   0   2.0000     -91.891268     -2500.4885
   1   2.0000     -20.603673      -560.6544
   2   2.0000     -20.591701      -560.3287
   3   2.0000     -20.550426      -559.2055
   4   2.0000     -15.629252      -425.2936
   5   2.0000     -15.611082      -424.7991
   6   2.0000     -11.394097      -310.0491
   7   2.0000     -11.386214      -309.8346
   8   2.0000     -11.333863      -308.4101
   9   2.0000     -11.321814      -308.0822
  10   2.0000     -11.316295      -307.9321
  11   2.0000     -11.298309      -307.4426
  12   2.0000     -11.268602      -306.6343
  13   2.0000     -11.262723      -306.4743
  14   2.0000     -11.258165      -306.3502
  15   2.0000     -11.255840      -306.2870
  16   2.0000     -11.251774      -306.1763
  17   2.0000     -11.246444      -306.0313
  18   2.0000     -11.246112      -306.0223
  19   2.0000     -11.228885      -305.5535
  20   2.0000      -8.896325      -242.0813
  21   2.0000      -6.577893      -178.9936
  22   2.0000      -6.575898      -178.9393
  23   2.0000      -6.575303      -178.9231
  24   2.0000      -1.446772       -39.3687
  25   2.0000      -1.423452       -38.7341
  26   2.0000      -1.358212       -36.9588
  27   2.0000      -1.341928       -36.5157
  28   2.0000      -1.241195       -33.7746
  29   2.0000      -1.165010       -31.7015
  30   2.0000      -1.124329       -30.5945
  31   2.0000      -1.049754       -28.5653
  32   2.0000      -1.034036       -28.1376
  33   2.0000      -1.023100       -27.8400
  34   2.0000      -1.002613       -27.2825
  35   2.0000      -0.989261       -26.9192
  36   2.0000      -0.926851       -25.2209
  37   2.0000      -0.887439       -24.1484
  38   2.0000      -0.851824       -23.1793
  39   2.0000      -0.844203       -22.9719
  40   2.0000      -0.842044       -22.9132
  41   2.0000      -0.834183       -22.6993
  42   2.0000      -0.756371       -20.5819
  43   2.0000      -0.738588       -20.0980
  44   2.0000      -0.719541       -19.5797
  45   2.0000      -0.702037       -19.1034
  46   2.0000      -0.692067       -18.8321
  47   2.0000      -0.679178       -18.4814
  48   2.0000      -0.675367       -18.3777
  49   2.0000      -0.669403       -18.2154
  50   2.0000      -0.649449       -17.6724
  51   2.0000      -0.649087       -17.6626
  52   2.0000      -0.635605       -17.2957
  53   2.0000      -0.613527       -16.6949
  54   2.0000      -0.610512       -16.6129
  55   2.0000      -0.604715       -16.4551
  56   2.0000      -0.603167       -16.4130
  57   2.0000      -0.582789       -15.8585
  58   2.0000      -0.576988       -15.7006
  59   2.0000      -0.568397       -15.4669
  60   2.0000      -0.557588       -15.1727
  61   2.0000      -0.552121       -15.0240
  62   2.0000      -0.545655       -14.8480
  63   2.0000      -0.529388       -14.4054
  64   2.0000      -0.526057       -14.3147
  65   2.0000      -0.517511       -14.0822
  66   2.0000      -0.505391       -13.7524
  67   2.0000      -0.500517       -13.6197
  68   2.0000      -0.485186       -13.2026
  69   2.0000      -0.467237       -12.7142
  70   2.0000      -0.454602       -12.3704
  71   2.0000      -0.449476       -12.2309
  72   2.0000      -0.358202        -9.7472
  73   2.0000      -0.352145        -9.5824
  74   2.0000      -0.331057        -9.0085
  75   2.0000      -0.328863        -8.9488
  76   2.0000      -0.321348        -8.7443
  77   0.0000       0.078685         2.1411
  78   0.0000       0.095847         2.6081
  79   0.0000       0.121161         3.2970
  80   0.0000       0.127707         3.4751
  81   0.0000       0.128105         3.4859

MULLIKEN ATOMIC CHARGES
-----------------------
   0 C :   -0.267818
   1 C :    0.016538
   2 O :   -0.340836
   3 C :    0.410738
   4 O :   -0.371270
   5 C :   -0.227228
   6 C :    0.151707
   7 C :   -0.274873
   8 N :   -0.130931
   9 C :    0.209736
  10 S :   -0.437842
  11 N :   -0.211226
  12 C :    0.036039
  13 C :   -0.005703
  14 C :   -0.156268
  15 C :   -0.150267
  16 C :   -0.268656
  17 C :    0.306690
  18 O :   -0.354502
  19 C :   -0.232545
  20 H :    0.084494
  21 H :    0.095408
  22 H :    0.109653
  23 H :    0.102722
  24 H :    0.122476
  25 H :    0.118026
  26 H :    0.141563
  27 H :    0.097178
  28 H :    0.199159
  29 H :    0.200360
  30 H :    0.156767
  31 H :    0.152463
  32 H :    0.166138
  33 H :    0.135355
  34 H :    0.241631
  35 H :    0.175124
Sum of atomic charges:   -0.0000000

LOEWDIN ATOMIC CHARGES
----------------------
   0 C :    0.105981
   1 C :   -0.024034
   2 O :    0.303102
   3 C :   -0.426058
   4 O :    0.126759
   5 C :   -0.102104
   6 C :   -0.070060
   7 C :    0.129479
   8 N :    0.406363
   9 C :   -0.456424
  10 S :   -0.033698
  11 N :    0.395446
  12 C :   -0.053355
  13 C :   -0.044530
  14 C :    0.022366
  15 C :    0.043261
  16 C :    0.000986
  17 C :   -0.192151
  18 O :    0.396629
  19 C :    0.031557
  20 H :   -0.031682
  21 H :   -0.026449
  22 H :   -0.022590
  23 H :   -0.038583
  24 H :   -0.021653
  25 H :   -0.009919
  26 H :   -0.003809
  27 H :   -0.021486
  28 H :   -0.056675
  29 H :   -0.063449
  30 H :   -0.010639
  31 H :   -0.025995
  32 H :   -0.018800
  33 H :   -0.033713
  34 H :   -0.152381
  35 H :   -0.021691

  Mayer bond orders larger than 0.100000
B(  0-C ,  1-C ) :   0.9826 B(  0-C , 20-H ) :   0.9760 B(  0-C , 21-H ) :   0.9772
B(  0-C , 22-H ) :   0.9786 B(  1-C ,  2-O ) :   0.8808 B(  1-C , 23-H ) :   0.9566
B(  1-C , 24-H ) :   0.9778 B(  2-O ,  3-C ) :   1.1517 B(  3-C ,  4-O ) :   2.1143
B(  3-C ,  5-C ) :   0.9520 B(  5-C ,  6-C ) :   1.6707 B(  5-C , 12-C ) :   0.9573
B(  6-C ,  7-C ) :   0.9554 B(  6-C ,  8-N ) :   1.1388 B(  7-C , 25-H ) :   0.9742
B(  7-C , 26-H ) :   0.9549 B(  7-C , 27-H ) :   0.9845 B(  8-N ,  9-C ) :   1.1925
B(  8-N , 28-H ) :   0.9486 B(  9-C , 10-S ) :   1.6152 B(  9-C , 11-N ) :   1.2920
B( 11-N , 12-C ) :   0.9817 B( 11-N , 29-H ) :   0.9471 B( 12-C , 13-C ) :   0.9633
B( 12-C , 30-H ) :   1.0063 B( 13-C , 14-C ) :   1.3648 B( 13-C , 19-C ) :   1.3527
B( 14-C , 15-C ) :   1.3983 B( 14-C , 31-H ) :   0.9727 B( 15-C , 16-C ) :   1.3597
B( 15-C , 32-H ) :   0.9697 B( 16-C , 17-C ) :   1.3304 B( 16-C , 33-H ) :   0.9830
B( 17-C , 18-O ) :   1.1106 B( 17-C , 19-C ) :   1.3650 B( 18-O , 34-H ) :   0.9788
B( 19-C , 35-H ) :   0.9576

MP2 TOTAL ENERGY:    -1274.324837922 Eh
FINAL SINGLE POINT ENERGY     -1274.324837921772

DIPOLE MOMENT
-------------
                                X             Y             Z
Electronic contribution:     10.10869       7.79486       7.97278
Nuclear contribution   :    -11.50348      -9.41417      -7.73219
                        -----------------------------------------
Total Dipole Moment    :     -1.39479      -1.61931       0.24059
                        -----------------------------------------
Magnitude (a.u.)       :      2.15069
Magnitude (Debye)      :      5.46662

Rotational constants in cm-1:     0.011661     0.009121     0.006110
Rotational constants in MHz :   349.583905   273.450831   183.166462

                             ****ORCA TERMINATED NORMALLY****
TOTAL RUN TIME: 0 days 2 hours 7 minutes 34 seconds 227 msec
