                         Program Version 4.2.0 -  RELEASE  -
|  1> ! ri-mp2 cc-pvtz cc-pvtz/c TightSCF NoKeepInts
|  2>
|  3> %scf
|  4>   MaxCore 4096
|  5> end
|  6> *xyz  0  1
|  7>     C       14.2180106   16.4779908   15.4692725
|  8>     C       15.3050872   15.5263707   16.0059481
|  9>     O       16.5281634   15.7025109   15.2599967
| 10>     C       17.3458964   16.8022169   15.3198348
| 11>     O       18.2210616   16.9830621   14.4943236
| 12>     C       17.1109131   17.7642624   16.4350447
| 13>     C       16.8293367   19.0454866   16.1036458
| 14>     C       16.3748291   19.5264639   14.7418686
| 15>     N       17.0070522   20.0882504   17.0139828
| 16>     C       17.7092137   19.9679635   18.1839257
| 17>     S       17.9961353   21.2640651   19.1699827
| 18>     N       18.1890157   18.7160741   18.4826345
| 19>     C       17.8653558   17.4811109   17.7404410
| 20>     C       17.3023489   16.3618645   18.6006234
| 21>     C       17.8104814   15.0550861   18.4855776
| 22>     C       17.2791073   14.0129495   19.2634957
| 23>     C       16.2331022   14.2805651   20.1633781
| 24>     C       15.7262434   15.5821359   20.2804184
| 25>     O       14.7113529   15.8416698   21.1421116
| 26>     C       16.2548495   16.6175170   19.5028222
| 27>     H       14.3979801   17.5114672   15.7835686
| 28>     H       13.2347117   16.1827451   15.8555739
| 29>     H       14.1763819   16.4427502   14.3732040
| 30>     H       15.4419251   15.6751842   17.0795422
| 31>     H       14.9620773   14.4934825   15.8629510
| 32>     H       15.8135173   18.7542939   14.2022265
| 33>     H       17.2443150   19.7842369   14.1227069
| 34>     H       15.7298211   20.4107709   14.8092157
| 35>     H       16.7083610   21.0211355   16.7770442
| 36>     H       18.7026935   18.6556112   19.3530747
| 37>     H       18.8781834   17.2023037   17.4131016
| 38>     H       18.6145659   14.8445900   17.7839450
| 39>     H       17.6777778   13.0041127   19.1671600
| 40>     H       15.8202145   13.4781099   20.7662234
| 41>     H       14.5201720   15.0232904   21.6251218
| 42>     H       15.8467460   17.6182995   19.6040118
| 43> *
| 44>
| 45>                          ****END OF INPUT****

CARTESIAN COORDINATES (ANGSTROEM)
---------------------------------
  C     14.218011   16.477991   15.469272
  C     15.305087   15.526371   16.005948
  O     16.528163   15.702511   15.259997
  C     17.345896   16.802217   15.319835
  O     18.221062   16.983062   14.494324
  C     17.110913   17.764262   16.435045
  C     16.829337   19.045487   16.103646
  C     16.374829   19.526464   14.741869
  N     17.007052   20.088250   17.013983
  C     17.709214   19.967963   18.183926
  S     17.996135   21.264065   19.169983
  N     18.189016   18.716074   18.482634
  C     17.865356   17.481111   17.740441
  C     17.302349   16.361864   18.600623
  C     17.810481   15.055086   18.485578
  C     17.279107   14.012949   19.263496
  C     16.233102   14.280565   20.163378
  C     15.726243   15.582136   20.280418
  O     14.711353   15.841670   21.142112
  C     16.254849   16.617517   19.502822
  H     14.397980   17.511467   15.783569
  H     13.234712   16.182745   15.855574
  H     14.176382   16.442750   14.373204
  H     15.441925   15.675184   17.079542
  H     14.962077   14.493483   15.862951
  H     15.813517   18.754294   14.202227
  H     17.244315   19.784237   14.122707
  H     15.729821   20.410771   14.809216
  H     16.708361   21.021135   16.777044
  H     18.702693   18.655611   19.353075
  H     18.878183   17.202304   17.413102
  H     18.614566   14.844590   17.783945
  H     17.677778   13.004113   19.167160
  H     15.820214   13.478110   20.766223
  H     14.520172   15.023290   21.625122
  H     15.846746   17.618299   19.604012

 Total Charge           Charge          ....    0
 Multiplicity           Mult            ....    1
 Number of Electrons    NEL             ....  154
 Basis Dimension        Dim             ....  828

ORBITAL ENERGIES
----------------

  NO   OCC          E(Eh)            E(eV)
   0   2.0000     -91.889797     -2500.4485
   1   2.0000     -20.605282      -560.6982
   2   2.0000     -20.599190      -560.5324
   3   2.0000     -20.551575      -559.2368
   4   2.0000     -15.625995      -425.2049
   5   2.0000     -15.610997      -424.7968
   6   2.0000     -11.397864      -310.1516
   7   2.0000     -11.385378      -309.8119
   8   2.0000     -11.327633      -308.2406
   9   2.0000     -11.324062      -308.1434
  10   2.0000     -11.316995      -307.9511
  11   2.0000     -11.301194      -307.5211
  12   2.0000     -11.271120      -306.7028
  13   2.0000     -11.265184      -306.5412
  14   2.0000     -11.258697      -306.3647
  15   2.0000     -11.257674      -306.3369
  16   2.0000     -11.253342      -306.2190
  17   2.0000     -11.248260      -306.0807
  18   2.0000     -11.248195      -306.0789
  19   2.0000     -11.232881      -305.6622
  20   2.0000      -8.894878      -242.0419
  21   2.0000      -6.576455      -178.9544
  22   2.0000      -6.574450      -178.8999
  23   2.0000      -6.573864      -178.8839
  24   2.0000      -1.445936       -39.3459
  25   2.0000      -1.425013       -38.7766
  26   2.0000      -1.360501       -37.0211
  27   2.0000      -1.339751       -36.4565
  28   2.0000      -1.239724       -33.7346
  29   2.0000      -1.167394       -31.7664
  30   2.0000      -1.126258       -30.6470
  31   2.0000      -1.052038       -28.6274
  32   2.0000      -1.036802       -28.2128
  33   2.0000      -1.025422       -27.9032
  34   2.0000      -1.004559       -27.3354
  35   2.0000      -0.990225       -26.9454
  36   2.0000      -0.927724       -25.2447
  37   2.0000      -0.895125       -24.3576
  38   2.0000      -0.852016       -23.1845
  39   2.0000      -0.844894       -22.9907
  40   2.0000      -0.843436       -22.9511
  41   2.0000      -0.833388       -22.6776
  42   2.0000      -0.755555       -20.5597
  43   2.0000      -0.739783       -20.1305
  44   2.0000      -0.722939       -19.6722
  45   2.0000      -0.703609       -19.1462
  46   2.0000      -0.693782       -18.8788
  47   2.0000      -0.680158       -18.5080
  48   2.0000      -0.677551       -18.4371
  49   2.0000      -0.666340       -18.1320
  50   2.0000      -0.651797       -17.7363
  51   2.0000      -0.645266       -17.5586
  52   2.0000      -0.634292       -17.2600
  53   2.0000      -0.621926       -16.9235
  54   2.0000      -0.613821       -16.7029
  55   2.0000      -0.608467       -16.5572
  56   2.0000      -0.605208       -16.4686
  57   2.0000      -0.584828       -15.9140
  58   2.0000      -0.579413       -15.7666
  59   2.0000      -0.567075       -15.4309
  60   2.0000      -0.565490       -15.3878
  61   2.0000      -0.552640       -15.0381
  62   2.0000      -0.541948       -14.7472
  63   2.0000      -0.535986       -14.5849
  64   2.0000      -0.528772       -14.3886
  65   2.0000      -0.518264       -14.1027
  66   2.0000      -0.505969       -13.7681
  67   2.0000      -0.504842       -13.7374
  68   2.0000      -0.488083       -13.2814
  69   2.0000      -0.464830       -12.6487
  70   2.0000      -0.454484       -12.3671
  71   2.0000      -0.449723       -12.2376
  72   2.0000      -0.358360        -9.7515
  73   2.0000      -0.352682        -9.5970
  74   2.0000      -0.332477        -9.0472
  75   2.0000      -0.328801        -8.9471
  76   2.0000      -0.319625        -8.6975
  77   0.0000       0.087296         2.3754
  78   0.0000       0.096795         2.6339
  79   0.0000       0.120845         3.2883
  80   0.0000       0.126294         3.4366
  81   0.0000       0.128605         3.4995

MULLIKEN ATOMIC CHARGES
-----------------------
   0 C :   -0.321703
   1 C :    0.039568
   2 O :   -0.317895
   3 C :    0.419268
   4 O :   -0.377774
   5 C :   -0.207488
   6 C :    0.134437
   7 C :   -0.298028
   8 N :   -0.136187
   9 C :    0.213336
  10 S :   -0.441843
  11 N :   -0.221413
  12 C :    0.024362
  13 C :    0.013288
  14 C :   -0.206151
  15 C :   -0.131943
  16 C :   -0.270947
  17 C :    0.307604
  18 O :   -0.353439
  19 C :   -0.231708
  20 H :    0.101601
  21 H :    0.111174
  22 H :    0.110790
  23 H :    0.103167
  24 H :    0.122379
  25 H :    0.116269
  26 H :    0.150238
  27 H :    0.103185
  28 H :    0.197648
  29 H :    0.202297
  30 H :    0.165513
  31 H :    0.162154
  32 H :    0.165767
  33 H :    0.135464
  34 H :    0.241844
  35 H :    0.175166
Sum of atomic charges:    0.0000000

LOEWDIN ATOMIC CHARGES
----------------------
   0 C :    0.102036
   1 C :   -0.017466
   2 O :    0.304387
   3 C :   -0.418173
   4 O :    0.125390
   5 C :   -0.091447
   6 C :   -0.088045
   7 C :    0.128289
   8 N :    0.404920
   9 C :   -0.455080
  10 S :   -0.036910
  11 N :    0.395882
  12 C :   -0.054796
  13 C :   -0.047216
  14 C :    0.018071
  15 C :    0.045840
  16 C :    0.001941
  17 C :   -0.190896
  18 O :    0.397608
  19 C :    0.029464
  20 H :   -0.035260
  21 H :   -0.023695
  22 H :   -0.026189
  23 H :   -0.036497
  24 H :   -0.020041
  25 H :   -0.011033
  26 H :   -0.003436
  27 H :   -0.019140
  28 H :   -0.057817
  29 H :   -0.064065
  30 H :   -0.007616
  31 H :   -0.024932
  32 H :   -0.017652
  33 H :   -0.033294
  34 H :   -0.152057
  35 H :   -0.021077

  Mayer bond orders larger than 0.100000
B(  0-C ,  1-C ) :   0.9610 B(  0-C , 20-H ) :   0.9743 B(  0-C , 21-H ) :   0.9778
B(  0-C , 22-H ) :   0.9756 B(  1-C ,  2-O ) :   0.8958 B(  1-C , 23-H ) :   0.9601
B(  1-C , 24-H ) :   0.9841 B(  2-O ,  3-C ) :   1.1872 B(  3-C ,  4-O ) :   2.1209
B(  3-C ,  5-C ) :   0.9037 B(  5-C ,  6-C ) :   1.7170 B(  5-C , 12-C ) :   0.9568
B(  6-C ,  7-C ) :   0.9460 B(  6-C ,  8-N ) :   1.1171 B(  7-C , 25-H ) :   0.9781
B(  7-C , 26-H ) :   0.9587 B(  7-C , 27-H ) :   0.9808 B(  8-N ,  9-C ) :   1.2012
B(  8-N , 28-H ) :   0.9495 B(  9-C , 10-S ) :   1.6112 B(  9-C , 11-N ) :   1.2854
B( 11-N , 12-C ) :   0.9784 B( 11-N , 29-H ) :   0.9460 B( 12-C , 13-C ) :   0.9626
B( 12-C , 30-H ) :   1.0008 B( 13-C , 14-C ) :   1.3771 B( 13-C , 19-C ) :   1.3543
B( 14-C , 15-C ) :   1.3948 B( 14-C , 31-H ) :   0.9683 B( 15-C , 16-C ) :   1.3638
B( 15-C , 32-H ) :   0.9691 B( 16-C , 17-C ) :   1.3303 B( 16-C , 33-H ) :   0.9831
B( 17-C , 18-O ) :   1.1128 B( 17-C , 19-C ) :   1.3604 B( 18-O , 34-H ) :   0.9785
B( 19-C , 35-H ) :   0.9573

MP2 TOTAL ENERGY:    -1274.323833720 Eh
FINAL SINGLE POINT ENERGY     -1274.323833720425

DIPOLE MOMENT
-------------
                                X             Y             Z
Electronic contribution:      9.50295       6.39432       7.62283
Nuclear contribution   :    -11.03193      -8.11237      -7.46727
                        -----------------------------------------
Total Dipole Moment    :     -1.52899      -1.71805       0.15556
                        -----------------------------------------
Magnitude (a.u.)       :      2.30514
Magnitude (Debye)      :      5.85921

Rotational constants in cm-1:     0.011769     0.009085     0.006323
Rotational constants in MHz :   352.837003   272.367205   189.567852

                             ****ORCA TERMINATED NORMALLY****
TOTAL RUN TIME: 0 days 1 hours 43 minutes 32 seconds 198 msec
