                         Program Version 4.2.0 -  RELEASE  -
|  1> ! ri-mp2 cc-pvtz cc-pvtz/c TightSCF NoKeepInts
|  2>
|  3> %scf
|  4>   MaxCore 4096
|  5> end
|  6> *xyz  0  1
|  7>     C       14.4017348   15.1660404   13.6104131
|  8>     C       14.8084184   15.4831581   15.0590926
|  9>     O       15.8409761   16.4817162   15.0048121
| 10>     C       16.8629994   16.4045652   15.9027116
| 11>     O       17.4337799   15.3535690   16.1403390
| 12>     C       17.0870133   17.6518485   16.7089338
| 13>     C       16.8822308   18.8963632   16.2020877
| 14>     C       16.2060937   19.2702886   14.8975456
| 15>     N       17.3581237   20.0262074   16.8723222
| 16>     C       18.2318929   19.9912980   17.9253951
| 17>     S       18.8406442   21.3729914   18.6004602
| 18>     N       18.5936172   18.7473642   18.3767216
| 19>     C       18.0056026   17.4716956   17.9239360
| 20>     C       17.3703074   16.6684015   19.0511819
| 21>     C       17.7649544   15.3409457   19.2967928
| 22>     C       17.1782251   14.6018279   20.3376687
| 23>     C       16.1892302   15.1958362   21.1404322
| 24>     C       15.7925824   16.5179171   20.8963488
| 25>     O       14.8346033   17.0923682   21.6667686
| 26>     C       16.3778787   17.2507090   19.8588411
| 27>     H       15.2605766   14.7829683   13.0448643
| 28>     H       14.0276924   16.0657607   13.1064369
| 29>     H       13.6114216   14.4058299   13.5900008
| 30>     H       13.9486915   15.8536331   15.6323546
| 31>     H       15.1690763   14.5595823   15.5331739
| 32>     H       16.6767149   18.7532902   14.0516665
| 33>     H       16.2576955   20.3448244   14.6836381
| 34>     H       15.1451500   18.9916326   14.9161759
| 35>     H       17.1203024   20.9461258   16.5374508
| 36>     H       19.2232642   18.7494238   19.1693018
| 37>     H       18.9054428   16.9643425   17.5463766
| 38>     H       18.5191194   14.8762218   18.6658551
| 39>     H       17.4874779   13.5731953   20.5142833
| 40>     H       15.7326997   14.6281185   21.9443307
| 41>     H       14.5801149   16.4461054   22.3423778
| 42>     H       16.0606514   18.2738339   19.6869081
| 43> *
| 44>
| 45>                          ****END OF INPUT****

CARTESIAN COORDINATES (ANGSTROEM)
---------------------------------
  C     14.401735   15.166040   13.610413
  C     14.808418   15.483158   15.059093
  O     15.840976   16.481716   15.004812
  C     16.862999   16.404565   15.902712
  O     17.433780   15.353569   16.140339
  C     17.087013   17.651848   16.708934
  C     16.882231   18.896363   16.202088
  C     16.206094   19.270289   14.897546
  N     17.358124   20.026207   16.872322
  C     18.231893   19.991298   17.925395
  S     18.840644   21.372991   18.600460
  N     18.593617   18.747364   18.376722
  C     18.005603   17.471696   17.923936
  C     17.370307   16.668402   19.051182
  C     17.764954   15.340946   19.296793
  C     17.178225   14.601828   20.337669
  C     16.189230   15.195836   21.140432
  C     15.792582   16.517917   20.896349
  O     14.834603   17.092368   21.666769
  C     16.377879   17.250709   19.858841
  H     15.260577   14.782968   13.044864
  H     14.027692   16.065761   13.106437
  H     13.611422   14.405830   13.590001
  H     13.948692   15.853633   15.632355
  H     15.169076   14.559582   15.533174
  H     16.676715   18.753290   14.051666
  H     16.257696   20.344824   14.683638
  H     15.145150   18.991633   14.916176
  H     17.120302   20.946126   16.537451
  H     19.223264   18.749424   19.169302
  H     18.905443   16.964343   17.546377
  H     18.519119   14.876222   18.665855
  H     17.487478   13.573195   20.514283
  H     15.732700   14.628118   21.944331
  H     14.580115   16.446105   22.342378
  H     16.060651   18.273834   19.686908

 Total Charge           Charge          ....    0
 Multiplicity           Mult            ....    1
 Number of Electrons    NEL             ....  154
 Basis Dimension        Dim             ....  828

ORBITAL ENERGIES
----------------

  NO   OCC          E(Eh)            E(eV)
   0   2.0000     -91.888621     -2500.4165
   1   2.0000     -20.594626      -560.4083
   2   2.0000     -20.592633      -560.3540
   3   2.0000     -20.548772      -559.1605
   4   2.0000     -15.629415      -425.2980
   5   2.0000     -15.606155      -424.6651
   6   2.0000     -11.394822      -310.0689
   7   2.0000     -11.383215      -309.7530
   8   2.0000     -11.338862      -308.5461
   9   2.0000     -11.308659      -307.7243
  10   2.0000     -11.304501      -307.6111
  11   2.0000     -11.300644      -307.5062
  12   2.0000     -11.260242      -306.4068
  13   2.0000     -11.259884      -306.3970
  14   2.0000     -11.255878      -306.2880
  15   2.0000     -11.248685      -306.0923
  16   2.0000     -11.238866      -305.8251
  17   2.0000     -11.235025      -305.7206
  18   2.0000     -11.231700      -305.6301
  19   2.0000     -11.231525      -305.6253
  20   2.0000      -8.893700      -242.0099
  21   2.0000      -6.575275      -178.9223
  22   2.0000      -6.573274      -178.8679
  23   2.0000      -6.572684      -178.8518
  24   2.0000      -1.453537       -39.5527
  25   2.0000      -1.412376       -38.4327
  26   2.0000      -1.357805       -36.9477
  27   2.0000      -1.340486       -36.4765
  28   2.0000      -1.237536       -33.6751
  29   2.0000      -1.153202       -31.3802
  30   2.0000      -1.121359       -30.5137
  31   2.0000      -1.044212       -28.4145
  32   2.0000      -1.036374       -28.2012
  33   2.0000      -1.010760       -27.5042
  34   2.0000      -0.999336       -27.1933
  35   2.0000      -0.984358       -26.7858
  36   2.0000      -0.921248       -25.0684
  37   2.0000      -0.884879       -24.0788
  38   2.0000      -0.848176       -23.0800
  39   2.0000      -0.836256       -22.7557
  40   2.0000      -0.828897       -22.5554
  41   2.0000      -0.823763       -22.4157
  42   2.0000      -0.760827       -20.7032
  43   2.0000      -0.736242       -20.0342
  44   2.0000      -0.726938       -19.7810
  45   2.0000      -0.690802       -18.7977
  46   2.0000      -0.686785       -18.6884
  47   2.0000      -0.680234       -18.5101
  48   2.0000      -0.672600       -18.3024
  49   2.0000      -0.654412       -17.8074
  50   2.0000      -0.648882       -17.6570
  51   2.0000      -0.639871       -17.4118
  52   2.0000      -0.627962       -17.0877
  53   2.0000      -0.621265       -16.9055
  54   2.0000      -0.603762       -16.4292
  55   2.0000      -0.599339       -16.3088
  56   2.0000      -0.595910       -16.2155
  57   2.0000      -0.579630       -15.7725
  58   2.0000      -0.573894       -15.6164
  59   2.0000      -0.562391       -15.3035
  60   2.0000      -0.561662       -15.2836
  61   2.0000      -0.548531       -14.9263
  62   2.0000      -0.535125       -14.5615
  63   2.0000      -0.526393       -14.3239
  64   2.0000      -0.516844       -14.0640
  65   2.0000      -0.509790       -13.8721
  66   2.0000      -0.502503       -13.6738
  67   2.0000      -0.494733       -13.4624
  68   2.0000      -0.480954       -13.0874
  69   2.0000      -0.462898       -12.5961
  70   2.0000      -0.461196       -12.5498
  71   2.0000      -0.452032       -12.3004
  72   2.0000      -0.353647        -9.6232
  73   2.0000      -0.345320        -9.3966
  74   2.0000      -0.327661        -8.9161
  75   2.0000      -0.317794        -8.6476
  76   2.0000      -0.315340        -8.5808
  77   0.0000       0.074001         2.0137
  78   0.0000       0.110303         3.0015
  79   0.0000       0.120395         3.2761
  80   0.0000       0.135008         3.6737
  81   0.0000       0.138418         3.7666

MULLIKEN ATOMIC CHARGES
-----------------------
   0 C :   -0.262869
   1 C :    0.029774
   2 O :   -0.364267
   3 C :    0.449013
   4 O :   -0.407572
   5 C :   -0.191627
   6 C :    0.153683
   7 C :   -0.280799
   8 N :   -0.128378
   9 C :    0.207090
  10 S :   -0.441436
  11 N :   -0.210758
  12 C :    0.040471
  13 C :    0.032657
  14 C :   -0.170862
  15 C :   -0.134219
  16 C :   -0.277340
  17 C :    0.313725
  18 O :   -0.359027
  19 C :   -0.252250
  20 H :    0.102917
  21 H :    0.090436
  22 H :    0.089929
  23 H :    0.094806
  24 H :    0.112494
  25 H :    0.127492
  26 H :    0.103025
  27 H :    0.125888
  28 H :    0.198938
  29 H :    0.199967
  30 H :    0.156032
  31 H :    0.160173
  32 H :    0.160466
  33 H :    0.128510
  34 H :    0.240093
  35 H :    0.163823
Sum of atomic charges:   -0.0000000

LOEWDIN ATOMIC CHARGES
----------------------
   0 C :    0.106810
   1 C :   -0.015786
   2 O :    0.302133
   3 C :   -0.417939
   4 O :    0.113146
   5 C :   -0.094756
   6 C :   -0.064425
   7 C :    0.125508
   8 N :    0.405706
   9 C :   -0.458450
  10 S :   -0.036918
  11 N :    0.396266
  12 C :   -0.048449
  13 C :   -0.040861
  14 C :    0.024624
  15 C :    0.041030
  16 C :   -0.001214
  17 C :   -0.192737
  18 O :    0.393037
  19 C :    0.029108
  20 H :   -0.023374
  21 H :   -0.029939
  22 H :   -0.025635
  23 H :   -0.033072
  24 H :   -0.025658
  25 H :   -0.008328
  26 H :   -0.020884
  27 H :   -0.010005
  28 H :   -0.058520
  29 H :   -0.063215
  30 H :   -0.007886
  31 H :   -0.023741
  32 H :   -0.020873
  33 H :   -0.036078
  34 H :   -0.154712
  35 H :   -0.023914

  Mayer bond orders larger than 0.100000
B(  0-C ,  1-C ) :   0.9774 B(  0-C , 20-H ) :   0.9776 B(  0-C , 21-H ) :   0.9798
B(  0-C , 22-H ) :   0.9759 B(  1-C ,  2-O ) :   0.8922 B(  1-C , 23-H ) :   0.9751
B(  1-C , 24-H ) :   0.9733 B(  2-O ,  3-C ) :   1.0922 B(  3-C ,  4-O ) :   2.0167
B(  3-C ,  5-C ) :   1.0366 B(  5-C ,  6-C ) :   1.6600 B(  5-C , 12-C ) :   0.9479
B(  6-C ,  7-C ) :   0.9538 B(  6-C ,  8-N ) :   1.1374 B(  7-C , 25-H ) :   0.9655
B(  7-C , 26-H ) :   0.9905 B(  7-C , 27-H ) :   0.9644 B(  8-N ,  9-C ) :   1.1846
B(  8-N , 28-H ) :   0.9469 B(  9-C , 10-S ) :   1.6094 B(  9-C , 11-N ) :   1.3059
B( 11-N , 12-C ) :   0.9761 B( 11-N , 29-H ) :   0.9485 B( 12-C , 13-C ) :   0.9718
B( 12-C , 30-H ) :   0.9966 B( 13-C , 14-C ) :   1.3775 B( 13-C , 19-C ) :   1.3642
B( 14-C , 15-C ) :   1.3974 B( 14-C , 31-H ) :   0.9633 B( 15-C , 16-C ) :   1.3589
B( 15-C , 32-H ) :   0.9710 B( 16-C , 17-C ) :   1.3332 B( 16-C , 33-H ) :   0.9859
B( 17-C , 18-O ) :   1.1038 B( 17-C , 19-C ) :   1.3676 B( 18-O , 34-H ) :   0.9805
B( 19-C , 35-H ) :   0.9602

MP2 TOTAL ENERGY:    -1274.332056102 Eh
FINAL SINGLE POINT ENERGY     -1274.332056101553

DIPOLE MOMENT
-------------
                                X             Y             Z
Electronic contribution:     10.28073       9.86172      11.85869
Nuclear contribution   :    -11.80870     -11.14009     -12.63910
                        -----------------------------------------
Total Dipole Moment    :     -1.52798      -1.27837      -0.78041
                        -----------------------------------------
Magnitude (a.u.)       :      2.13962
Magnitude (Debye)      :      5.43849

Rotational constants in cm-1:     0.009784     0.009023     0.005544
Rotational constants in MHz :   293.310139   270.516035   166.198102

                             ****ORCA TERMINATED NORMALLY****
TOTAL RUN TIME: 0 days 1 hours 33 minutes 45 seconds 850 msec
