                         Program Version 4.2.0 -  RELEASE  -
|  1> ! ri-mp2 cc-pvtz cc-pvtz/c TightSCF NoKeepInts
|  2>
|  3> %scf
|  4>   MaxCore 4096
|  5> end
|  6> *xyz  0  1
|  7>     C       14.4536038   15.0998842   15.7435590
|  8>     C       15.8971187   14.8042033   15.2769564
|  9>     O       16.7991220   15.8834837   15.6022230
| 10>     C       16.4626326   17.1957746   15.4158089
| 11>     O       15.7742400   17.5594711   14.4776487
| 12>     C       17.0036912   18.0930159   16.4956834
| 13>     C       17.0456590   19.4395901   16.3294432
| 14>     C       16.3801350   20.2468256   15.2341919
| 15>     N       17.7678728   20.2504370   17.2079815
| 16>     C       18.6174248   19.7816328   18.1733828
| 17>     S       19.5092401   20.7993533   19.1245319
| 18>     N       18.7067544   18.4183346   18.2996633
| 19>     C       17.8823774   17.4349034   17.5721159
| 20>     C       17.1159847   16.5056835   18.5046641
| 21>     C       17.4897188   15.1555530   18.6360521
| 22>     C       16.7730002   14.2963146   19.4858441
| 23>     C       15.6761841   14.7924399   20.2113121
| 24>     C       15.3053885   16.1384667   20.0855283
| 25>     O       14.2464348   16.6197540   20.7839056
| 26>     C       16.0204559   16.9910193   19.2387037
| 27>     H       14.4421034   15.4107335   16.7961018
| 28>     H       13.8354079   14.1989970   15.6506880
| 29>     H       13.9823568   15.8846550   15.1396282
| 30>     H       16.2553331   13.8815216   15.7511416
| 31>     H       15.8921138   14.6455806   14.1903935
| 32>     H       16.8038299   19.9924274   14.2542757
| 33>     H       16.4881130   21.3292216   15.3708752
| 34>     H       15.3053541   20.0279663   15.1928660
| 35>     H       17.7274386   21.2525476   17.1123854
| 36>     H       19.3168513   18.1034829   19.0433113
| 37>     H       18.6616203   16.8826559   17.0278400
| 38>     H       18.3333868   14.7699710   18.0697955
| 39>     H       17.0676480   13.2525685   19.5801739
| 40>     H       15.1195450   14.1328970   20.8689758
| 41>     H       13.9070918   15.8978846   21.3340665
| 42>     H       15.7217674   18.0307489   19.1562818
| 43> *
| 44>
| 45>                          ****END OF INPUT****

CARTESIAN COORDINATES (ANGSTROEM)
---------------------------------
  C     14.453604   15.099884   15.743559
  C     15.897119   14.804203   15.276956
  O     16.799122   15.883484   15.602223
  C     16.462633   17.195775   15.415809
  O     15.774240   17.559471   14.477649
  C     17.003691   18.093016   16.495683
  C     17.045659   19.439590   16.329443
  C     16.380135   20.246826   15.234192
  N     17.767873   20.250437   17.207981
  C     18.617425   19.781633   18.173383
  S     19.509240   20.799353   19.124532
  N     18.706754   18.418335   18.299663
  C     17.882377   17.434903   17.572116
  C     17.115985   16.505683   18.504664
  C     17.489719   15.155553   18.636052
  C     16.773000   14.296315   19.485844
  C     15.676184   14.792440   20.211312
  C     15.305388   16.138467   20.085528
  O     14.246435   16.619754   20.783906
  C     16.020456   16.991019   19.238704
  H     14.442103   15.410733   16.796102
  H     13.835408   14.198997   15.650688
  H     13.982357   15.884655   15.139628
  H     16.255333   13.881522   15.751142
  H     15.892114   14.645581   14.190393
  H     16.803830   19.992427   14.254276
  H     16.488113   21.329222   15.370875
  H     15.305354   20.027966   15.192866
  H     17.727439   21.252548   17.112385
  H     19.316851   18.103483   19.043311
  H     18.661620   16.882656   17.027840
  H     18.333387   14.769971   18.069796
  H     17.067648   13.252569   19.580174
  H     15.119545   14.132897   20.868976
  H     13.907092   15.897885   21.334066
  H     15.721767   18.030749   19.156282

 Total Charge           Charge          ....    0
 Multiplicity           Mult            ....    1
 Number of Electrons    NEL             ....  154
 Basis Dimension        Dim             ....  828

ORBITAL ENERGIES
----------------

  NO   OCC          E(Eh)            E(eV)
   0   2.0000     -91.889193     -2500.4321
   1   2.0000     -20.598529      -560.5145
   2   2.0000     -20.592839      -560.3597
   3   2.0000     -20.541420      -558.9605
   4   2.0000     -15.629587      -425.3027
   5   2.0000     -15.607376      -424.6983
   6   2.0000     -11.394361      -310.0563
   7   2.0000     -11.383956      -309.7732
   8   2.0000     -11.337438      -308.5074
   9   2.0000     -11.315953      -307.9227
  10   2.0000     -11.307736      -307.6992
  11   2.0000     -11.299158      -307.4657
  12   2.0000     -11.262602      -306.4710
  13   2.0000     -11.258533      -306.3603
  14   2.0000     -11.257451      -306.3308
  15   2.0000     -11.251915      -306.1802
  16   2.0000     -11.245778      -306.0132
  17   2.0000     -11.240846      -305.8790
  18   2.0000     -11.240658      -305.8739
  19   2.0000     -11.222781      -305.3874
  20   2.0000      -8.894260      -242.0251
  21   2.0000      -6.575832      -178.9375
  22   2.0000      -6.573834      -178.8831
  23   2.0000      -6.573243      -178.8670
  24   2.0000      -1.446401       -39.3586
  25   2.0000      -1.418243       -38.5924
  26   2.0000      -1.352074       -36.7918
  27   2.0000      -1.340551       -36.4782
  28   2.0000      -1.238525       -33.7020
  29   2.0000      -1.159530       -31.5524
  30   2.0000      -1.121510       -30.5178
  31   2.0000      -1.044118       -28.4119
  32   2.0000      -1.033545       -28.1242
  33   2.0000      -1.017127       -27.6774
  34   2.0000      -0.996693       -27.1214
  35   2.0000      -0.985176       -26.8080
  36   2.0000      -0.922614       -25.1056
  37   2.0000      -0.896703       -24.4005
  38   2.0000      -0.847166       -23.0526
  39   2.0000      -0.839665       -22.8484
  40   2.0000      -0.836148       -22.7527
  41   2.0000      -0.816419       -22.2159
  42   2.0000      -0.747910       -20.3517
  43   2.0000      -0.734667       -19.9913
  44   2.0000      -0.722003       -19.6467
  45   2.0000      -0.697150       -18.9704
  46   2.0000      -0.689279       -18.7562
  47   2.0000      -0.676180       -18.3998
  48   2.0000      -0.672029       -18.2868
  49   2.0000      -0.659418       -17.9437
  50   2.0000      -0.648343       -17.6423
  51   2.0000      -0.639939       -17.4136
  52   2.0000      -0.634744       -17.2723
  53   2.0000      -0.618453       -16.8289
  54   2.0000      -0.608630       -16.5617
  55   2.0000      -0.601878       -16.3779
  56   2.0000      -0.600413       -16.3381
  57   2.0000      -0.578808       -15.7502
  58   2.0000      -0.570429       -15.5222
  59   2.0000      -0.566171       -15.4063
  60   2.0000      -0.553916       -15.0728
  61   2.0000      -0.544530       -14.8174
  62   2.0000      -0.534530       -14.5453
  63   2.0000      -0.525762       -14.3067
  64   2.0000      -0.525118       -14.2892
  65   2.0000      -0.513652       -13.9772
  66   2.0000      -0.500705       -13.6249
  67   2.0000      -0.498428       -13.5629
  68   2.0000      -0.483756       -13.1637
  69   2.0000      -0.463883       -12.6229
  70   2.0000      -0.454244       -12.3606
  71   2.0000      -0.443579       -12.0704
  72   2.0000      -0.353510        -9.6195
  73   2.0000      -0.351351        -9.5607
  74   2.0000      -0.328546        -8.9402
  75   2.0000      -0.323404        -8.8003
  76   2.0000      -0.318424        -8.6647
  77   0.0000       0.075559         2.0561
  78   0.0000       0.102655         2.7934
  79   0.0000       0.124428         3.3859
  80   0.0000       0.131555         3.5798
  81   0.0000       0.136253         3.7076

MULLIKEN ATOMIC CHARGES
-----------------------
   0 C :   -0.323773
   1 C :    0.034926
   2 O :   -0.371302
   3 C :    0.467361
   4 O :   -0.436387
   5 C :   -0.250376
   6 C :    0.175033
   7 C :   -0.268012
   8 N :   -0.125393
   9 C :    0.211421
  10 S :   -0.441483
  11 N :   -0.216392
  12 C :    0.072685
  13 C :    0.026444
  14 C :   -0.177899
  15 C :   -0.134519
  16 C :   -0.274514
  17 C :    0.315104
  18 O :   -0.357958
  19 C :   -0.248211
  20 H :    0.108150
  21 H :    0.100231
  22 H :    0.124073
  23 H :    0.109074
  24 H :    0.115456
  25 H :    0.129902
  26 H :    0.094853
  27 H :    0.133476
  28 H :    0.199560
  29 H :    0.200335
  30 H :    0.152994
  31 H :    0.156181
  32 H :    0.162094
  33 H :    0.131723
  34 H :    0.240866
  35 H :    0.164278
Sum of atomic charges:   -0.0000000

LOEWDIN ATOMIC CHARGES
----------------------
   0 C :    0.105070
   1 C :   -0.014754
   2 O :    0.298479
   3 C :   -0.415632
   4 O :    0.100554
   5 C :   -0.096580
   6 C :   -0.056346
   7 C :    0.131561
   8 N :    0.407275
   9 C :   -0.455942
  10 S :   -0.036269
  11 N :    0.394479
  12 C :   -0.054102
  13 C :   -0.040075
  14 C :    0.017898
  15 C :    0.038913
  16 C :   -0.001005
  17 C :   -0.190727
  18 O :    0.395741
  19 C :    0.032638
  20 H :   -0.026770
  21 H :   -0.026220
  22 H :   -0.026016
  23 H :   -0.025552
  24 H :   -0.028511
  25 H :   -0.004628
  26 H :   -0.023597
  27 H :   -0.004427
  28 H :   -0.057105
  29 H :   -0.064599
  30 H :   -0.012994
  31 H :   -0.028430
  32 H :   -0.020980
  33 H :   -0.035074
  34 H :   -0.153588
  35 H :   -0.022683

  Mayer bond orders larger than 0.100000
B(  0-C ,  1-C ) :   0.9560 B(  0-C , 20-H ) :   0.9704 B(  0-C , 21-H ) :   0.9780
B(  0-C , 22-H ) :   0.9734 B(  1-C ,  2-O ) :   0.8935 B(  1-C , 23-H ) :   0.9819
B(  1-C , 24-H ) :   0.9857 B(  2-O ,  3-C ) :   1.1368 B(  3-C ,  4-O ) :   1.9692
B(  3-C ,  5-C ) :   1.0650 B(  5-C ,  6-C ) :   1.6371 B(  5-C , 12-C ) :   0.9539
B(  6-C ,  7-C ) :   0.9643 B(  6-C ,  8-N ) :   1.1579 B(  7-C , 25-H ) :   0.9591
B(  7-C , 26-H ) :   0.9901 B(  7-C , 27-H ) :   0.9614 B(  8-N ,  9-C ) :   1.1863
B(  8-N , 28-H ) :   0.9464 B(  9-C , 10-S ) :   1.6063 B(  9-C , 11-N ) :   1.3091
B( 11-N , 12-C ) :   0.9701 B( 11-N , 29-H ) :   0.9486 B( 12-C , 13-C ) :   0.9604
B( 12-C , 30-H ) :   0.9998 B( 13-C , 14-C ) :   1.3548 B( 13-C , 19-C ) :   1.3809
B( 14-C , 15-C ) :   1.3909 B( 14-C , 31-H ) :   0.9704 B( 15-C , 16-C ) :   1.3597
B( 15-C , 32-H ) :   0.9705 B( 16-C , 17-C ) :   1.3334 B( 16-C , 33-H ) :   0.9845
B( 17-C , 18-O ) :   1.1055 B( 17-C , 19-C ) :   1.3632 B( 18-O , 34-H ) :   0.9796
B( 19-C , 35-H ) :   0.9597

MP2 TOTAL ENERGY:    -1274.338941447 Eh
FINAL SINGLE POINT ENERGY     -1274.338941447125

DIPOLE MOMENT
-------------
                                X             Y             Z
Electronic contribution:      9.62109       9.76981       7.23969
Nuclear contribution   :    -10.61741     -11.52148      -7.47391
                        -----------------------------------------
Total Dipole Moment    :     -0.99632      -1.75167      -0.23421
                        -----------------------------------------
Magnitude (a.u.)       :      2.02876
Magnitude (Debye)      :      5.15669

Rotational constants in cm-1:     0.012228     0.008597     0.006116
Rotational constants in MHz :   366.573440   257.729536   183.363962

                             ****ORCA TERMINATED NORMALLY****
TOTAL RUN TIME: 0 days 2 hours 0 minutes 1 seconds 858 msec
