                         Program Version 4.2.0 -  RELEASE  -
|  1> ! ri-mp2 cc-pvtz cc-pvtz/c TightSCF NoKeepInts
|  2>
|  3> %scf
|  4>   MaxCore 4096
|  5> end
|  6> *xyz  0  1
|  7>     C       14.5723398   14.7196969   15.5916888
|  8>     C       15.9780103   14.8659385   14.9743423
|  9>     O       16.6851377   15.9153501   15.6597817
| 10>     C       16.3236162   17.2233852   15.4866019
| 11>     O       15.6010100   17.5823199   14.5719176
| 12>     C       16.9012856   18.1276445   16.5419461
| 13>     C       16.9275202   19.4739813   16.3689325
| 14>     C       16.2093749   20.2737453   15.3016672
| 15>     N       17.6827681   20.2929828   17.2114216
| 16>     C       18.5803517   19.8337505   18.1370150
| 17>     S       19.5093678   20.8612286   19.0408982
| 18>     N       18.6852650   18.4716334   18.2630803
| 19>     C       17.8323054   17.4801518   17.5806057
| 20>     C       17.1160543   16.5524577   18.5537378
| 21>     C       17.4729645   15.1944327   18.6446132
| 22>     C       16.8051653   14.3393072   19.5373618
| 23>     C       15.7749335   14.8475021   20.3471916
| 24>     C       15.4208484   16.2011732   20.2612396
| 25>     O       14.4268489   16.6943545   21.0420979
| 26>     C       16.0871550   17.0495964   19.3715172
| 27>     H       14.6409064   14.5694676   16.6767410
| 28>     H       14.0519152   13.8574119   15.1580140
| 29>     H       13.9614594   15.6113372   15.4032998
| 30>     H       16.5237563   13.9218269   15.0974172
| 31>     H       15.9041675   15.0816103   13.8996170
| 32>     H       16.5955990   20.0240056   14.3052643
| 33>     H       16.3108168   21.3572748   15.4344075
| 34>     H       15.1361633   20.0435027   15.3042892
| 35>     H       17.6304343   21.2944397   17.1148973
| 36>     H       19.3314373   18.1634210   18.9785239
| 37>     H       18.5897247   16.9297647   17.0047116
| 38>     H       18.2643297   14.7994486   18.0132358
| 39>     H       17.0855818   13.2892835   19.5989533
| 40>     H       15.2562409   14.1911960   21.0381839
| 41>     H       14.1091924   15.9699903   21.6017167
| 42>     H       15.8029522   18.0953868   19.3210692
| 43> *
| 44>
| 45>                          ****END OF INPUT****

CARTESIAN COORDINATES (ANGSTROEM)
---------------------------------
  C     14.572340   14.719697   15.591689
  C     15.978010   14.865938   14.974342
  O     16.685138   15.915350   15.659782
  C     16.323616   17.223385   15.486602
  O     15.601010   17.582320   14.571918
  C     16.901286   18.127644   16.541946
  C     16.927520   19.473981   16.368932
  C     16.209375   20.273745   15.301667
  N     17.682768   20.292983   17.211422
  C     18.580352   19.833751   18.137015
  S     19.509368   20.861229   19.040898
  N     18.685265   18.471633   18.263080
  C     17.832305   17.480152   17.580606
  C     17.116054   16.552458   18.553738
  C     17.472964   15.194433   18.644613
  C     16.805165   14.339307   19.537362
  C     15.774933   14.847502   20.347192
  C     15.420848   16.201173   20.261240
  O     14.426849   16.694354   21.042098
  C     16.087155   17.049596   19.371517
  H     14.640906   14.569468   16.676741
  H     14.051915   13.857412   15.158014
  H     13.961459   15.611337   15.403300
  H     16.523756   13.921827   15.097417
  H     15.904167   15.081610   13.899617
  H     16.595599   20.024006   14.305264
  H     16.310817   21.357275   15.434408
  H     15.136163   20.043503   15.304289
  H     17.630434   21.294440   17.114897
  H     19.331437   18.163421   18.978524
  H     18.589725   16.929765   17.004712
  H     18.264330   14.799449   18.013236
  H     17.085582   13.289283   19.598953
  H     15.256241   14.191196   21.038184
  H     14.109192   15.969990   21.601717
  H     15.802952   18.095387   19.321069

 Total Charge           Charge          ....    0
 Multiplicity           Mult            ....    1
 Number of Electrons    NEL             ....  154
 Basis Dimension        Dim             ....  828

ORBITAL ENERGIES
----------------

  NO   OCC          E(Eh)            E(eV)
   0   2.0000     -91.888818     -2500.4218
   1   2.0000     -20.599701      -560.5464
   2   2.0000     -20.596738      -560.4657
   3   2.0000     -20.541294      -558.9570
   4   2.0000     -15.629192      -425.2919
   5   2.0000     -15.607023      -424.6887
   6   2.0000     -11.395388      -310.0843
   7   2.0000     -11.383555      -309.7623
   8   2.0000     -11.337266      -308.5027
   9   2.0000     -11.313996      -307.8695
  10   2.0000     -11.307384      -307.6895
  11   2.0000     -11.297337      -307.4162
  12   2.0000     -11.260868      -306.4238
  13   2.0000     -11.259222      -306.3790
  14   2.0000     -11.255333      -306.2732
  15   2.0000     -11.251714      -306.1747
  16   2.0000     -11.243992      -305.9646
  17   2.0000     -11.239253      -305.8356
  18   2.0000     -11.238841      -305.8244
  19   2.0000     -11.222634      -305.3834
  20   2.0000      -8.893889      -242.0150
  21   2.0000      -6.575462      -178.9274
  22   2.0000      -6.573463      -178.8730
  23   2.0000      -6.572873      -178.8570
  24   2.0000      -1.450552       -39.4715
  25   2.0000      -1.416426       -38.5429
  26   2.0000      -1.354005       -36.8444
  27   2.0000      -1.340261       -36.4704
  28   2.0000      -1.238164       -33.6921
  29   2.0000      -1.157877       -31.5074
  30   2.0000      -1.121263       -30.5111
  31   2.0000      -1.042982       -28.3810
  32   2.0000      -1.035383       -28.1742
  33   2.0000      -1.015217       -27.6255
  34   2.0000      -0.995903       -27.0999
  35   2.0000      -0.984534       -26.7905
  36   2.0000      -0.921882       -25.0857
  37   2.0000      -0.894652       -24.3447
  38   2.0000      -0.846549       -23.0358
  39   2.0000      -0.838212       -22.8089
  40   2.0000      -0.834402       -22.7052
  41   2.0000      -0.815588       -22.1933
  42   2.0000      -0.754940       -20.5429
  43   2.0000      -0.733786       -19.9673
  44   2.0000      -0.722382       -19.6570
  45   2.0000      -0.695729       -18.9317
  46   2.0000      -0.689195       -18.7539
  47   2.0000      -0.679027       -18.4773
  48   2.0000      -0.671159       -18.2632
  49   2.0000      -0.658663       -17.9231
  50   2.0000      -0.647243       -17.6124
  51   2.0000      -0.639611       -17.4047
  52   2.0000      -0.633277       -17.2323
  53   2.0000      -0.611559       -16.6414
  54   2.0000      -0.606734       -16.5101
  55   2.0000      -0.600498       -16.3404
  56   2.0000      -0.599194       -16.3049
  57   2.0000      -0.577490       -15.7143
  58   2.0000      -0.569858       -15.5066
  59   2.0000      -0.567446       -15.4410
  60   2.0000      -0.559064       -15.2129
  61   2.0000      -0.544816       -14.8252
  62   2.0000      -0.534002       -14.5309
  63   2.0000      -0.529364       -14.4047
  64   2.0000      -0.523953       -14.2575
  65   2.0000      -0.513076       -13.9615
  66   2.0000      -0.500153       -13.6099
  67   2.0000      -0.497999       -13.5512
  68   2.0000      -0.482267       -13.1231
  69   2.0000      -0.463527       -12.6132
  70   2.0000      -0.455328       -12.3901
  71   2.0000      -0.446322       -12.1450
  72   2.0000      -0.353156        -9.6099
  73   2.0000      -0.350061        -9.5257
  74   2.0000      -0.328015        -8.9258
  75   2.0000      -0.321314        -8.7434
  76   2.0000      -0.318009        -8.6535
  77   0.0000       0.077330         2.1043
  78   0.0000       0.104909         2.8547
  79   0.0000       0.124889         3.3984
  80   0.0000       0.132620         3.6088
  81   0.0000       0.137871         3.7517

MULLIKEN ATOMIC CHARGES
-----------------------
   0 C :   -0.303276
   1 C :    0.019052
   2 O :   -0.353698
   3 C :    0.444295
   4 O :   -0.439607
   5 C :   -0.224509
   6 C :    0.172456
   7 C :   -0.268325
   8 N :   -0.126041
   9 C :    0.210294
  10 S :   -0.441969
  11 N :   -0.215540
  12 C :    0.063851
  13 C :    0.041919
  14 C :   -0.182350
  15 C :   -0.134293
  16 C :   -0.277147
  17 C :    0.315856
  18 O :   -0.356630
  19 C :   -0.247234
  20 H :    0.107692
  21 H :    0.096178
  22 H :    0.113909
  23 H :    0.110692
  24 H :    0.115774
  25 H :    0.128964
  26 H :    0.094774
  27 H :    0.133873
  28 H :    0.199711
  29 H :    0.200254
  30 H :    0.153232
  31 H :    0.152896
  32 H :    0.160725
  33 H :    0.130576
  34 H :    0.240514
  35 H :    0.163133
Sum of atomic charges:   -0.0000000

LOEWDIN ATOMIC CHARGES
----------------------
   0 C :    0.105374
   1 C :   -0.018234
   2 O :    0.307462
   3 C :   -0.413486
   4 O :    0.095067
   5 C :   -0.094403
   6 C :   -0.056861
   7 C :    0.131257
   8 N :    0.407103
   9 C :   -0.456382
  10 S :   -0.036649
  11 N :    0.394667
  12 C :   -0.054311
  13 C :   -0.040027
  14 C :    0.016729
  15 C :    0.038649
  16 C :   -0.001094
  17 C :   -0.189970
  18 O :    0.395233
  19 C :    0.033304
  20 H :   -0.026075
  21 H :   -0.027539
  22 H :   -0.025650
  23 H :   -0.025623
  24 H :   -0.027954
  25 H :   -0.005041
  26 H :   -0.023624
  27 H :   -0.004321
  28 H :   -0.057162
  29 H :   -0.064410
  30 H :   -0.013675
  31 H :   -0.029065
  32 H :   -0.021391
  33 H :   -0.035317
  34 H :   -0.153967
  35 H :   -0.022616

  Mayer bond orders larger than 0.100000
B(  0-C ,  1-C ) :   0.9598 B(  0-C , 20-H ) :   0.9728 B(  0-C , 21-H ) :   0.9773
B(  0-C , 22-H ) :   0.9754 B(  1-C ,  2-O ) :   0.8967 B(  1-C , 23-H ) :   0.9845
B(  1-C , 24-H ) :   0.9806 B(  2-O ,  3-C ) :   1.1570 B(  3-C ,  4-O ) :   1.9552
B(  3-C ,  5-C ) :   1.0687 B(  5-C ,  6-C ) :   1.6425 B(  5-C , 12-C ) :   0.9558
B(  6-C ,  7-C ) :   0.9644 B(  6-C ,  8-N ) :   1.1540 B(  7-C , 25-H ) :   0.9592
B(  7-C , 26-H ) :   0.9904 B(  7-C , 27-H ) :   0.9612 B(  8-N ,  9-C ) :   1.1874
B(  8-N , 28-H ) :   0.9463 B(  9-C , 10-S ) :   1.6062 B(  9-C , 11-N ) :   1.3088
B( 11-N , 12-C ) :   0.9700 B( 11-N , 29-H ) :   0.9485 B( 12-C , 13-C ) :   0.9616
B( 12-C , 30-H ) :   0.9999 B( 13-C , 14-C ) :   1.3541 B( 13-C , 19-C ) :   1.3802
B( 14-C , 15-C ) :   1.3944 B( 14-C , 31-H ) :   0.9714 B( 15-C , 16-C ) :   1.3582
B( 15-C , 32-H ) :   0.9709 B( 16-C , 17-C ) :   1.3336 B( 16-C , 33-H ) :   0.9851
B( 17-C , 18-O ) :   1.1053 B( 17-C , 19-C ) :   1.3649 B( 18-O , 34-H ) :   0.9799
B( 19-C , 35-H ) :   0.9592

MP2 TOTAL ENERGY:    -1274.344597737 Eh
FINAL SINGLE POINT ENERGY     -1274.344597737085

DIPOLE MOMENT
-------------
                                X             Y             Z
Electronic contribution:      9.18642      10.58427       7.93867
Nuclear contribution   :    -10.08341     -12.36478      -8.34517
                        -----------------------------------------
Total Dipole Moment    :     -0.89699      -1.78051      -0.40650
                        -----------------------------------------
Magnitude (a.u.)       :      2.03471
Magnitude (Debye)      :      5.17183

Rotational constants in cm-1:     0.011764     0.008597     0.005980
Rotational constants in MHz :   352.687740   257.739169   179.267746

                             ****ORCA TERMINATED NORMALLY****
TOTAL RUN TIME: 0 days 1 hours 52 minutes 52 seconds 3 msec
