                         Program Version 4.2.0 -  RELEASE  -
|  1> ! ri-mp2 cc-pvtz cc-pvtz/c TightSCF NoKeepInts
|  2>
|  3> %scf
|  4>   MaxCore 4096
|  5> end
|  6> *xyz  0  1
|  7>     C       15.2723845   14.6574458   13.8987457
|  8>     C       14.5454773   15.9381257   14.3639873
|  9>     O       15.3645694   16.8849875   15.0985193
| 10>     C       16.4294255   16.6007586   15.9152381
| 11>     O       16.9303430   15.4963151   16.0346412
| 12>     C       16.8714667   17.7602317   16.7660432
| 13>     C       16.7708550   19.0548232   16.3605742
| 14>     C       16.0294162   19.6042075   15.1571035
| 15>     N       17.4357556   20.0723070   17.0501499
| 16>     C       18.3922701   19.8647868   18.0065340
| 17>     S       19.2198249   21.1178715   18.6998303
| 18>     N       18.6445526   18.5592742   18.3419416
| 19>     C       17.8701885   17.3939545   17.8729459
| 20>     C       17.2528667   16.5891154   19.0092587
| 21>     C       17.5144996   15.2132005   19.1386182
| 22>     C       16.9468609   14.4733446   20.1895251
| 23>     C       16.1116634   15.1154207   21.1198795
| 24>     C       15.8478094   16.4861671   20.9921361
| 25>     O       15.0387076   17.1077043   21.8868310
| 26>     C       16.4139607   17.2197320   19.9446226
| 27>     H       16.2364047   14.8983944   13.4335289
| 28>     H       14.6633275   14.1243309   13.1589610
| 29>     H       15.4443786   13.9695106   14.7358821
| 30>     H       14.1253494   16.4487387   13.4880238
| 31>     H       13.7009895   15.6359136   14.9970110
| 32>     H       14.9498029   19.4366412   15.2577156
| 33>     H       16.3656749   19.1143928   14.2347468
| 34>     H       16.1795480   20.6819566   15.0192919
| 35>     H       17.2769596   21.0349415   16.7994731
| 36>     H       19.3388971   18.4332275   19.0675244
| 37>     H       18.6663663   16.8179793   17.3791548
| 38>     H       18.1480419   14.7133356   18.4096521
| 39>     H       17.1509660   13.4076322   20.2752268
| 40>     H       15.6699478   14.5475085   21.9317995
| 41>     H       14.7664392   16.4453669   22.5394144
| 42>     H       16.2010091   18.2803559   19.8634684
| 43> *
| 44>
| 45>                          ****END OF INPUT****

CARTESIAN COORDINATES (ANGSTROEM)
---------------------------------
  C     15.272384   14.657446   13.898746
  C     14.545477   15.938126   14.363987
  O     15.364569   16.884988   15.098519
  C     16.429426   16.600759   15.915238
  O     16.930343   15.496315   16.034641
  C     16.871467   17.760232   16.766043
  C     16.770855   19.054823   16.360574
  C     16.029416   19.604208   15.157103
  N     17.435756   20.072307   17.050150
  C     18.392270   19.864787   18.006534
  S     19.219825   21.117871   18.699830
  N     18.644553   18.559274   18.341942
  C     17.870189   17.393954   17.872946
  C     17.252867   16.589115   19.009259
  C     17.514500   15.213200   19.138618
  C     16.946861   14.473345   20.189525
  C     16.111663   15.115421   21.119879
  C     15.847809   16.486167   20.992136
  O     15.038708   17.107704   21.886831
  C     16.413961   17.219732   19.944623
  H     16.236405   14.898394   13.433529
  H     14.663327   14.124331   13.158961
  H     15.444379   13.969511   14.735882
  H     14.125349   16.448739   13.488024
  H     13.700990   15.635914   14.997011
  H     14.949803   19.436641   15.257716
  H     16.365675   19.114393   14.234747
  H     16.179548   20.681957   15.019292
  H     17.276960   21.034941   16.799473
  H     19.338897   18.433228   19.067524
  H     18.666366   16.817979   17.379155
  H     18.148042   14.713336   18.409652
  H     17.150966   13.407632   20.275227
  H     15.669948   14.547508   21.931800
  H     14.766439   16.445367   22.539414
  H     16.201009   18.280356   19.863468

 Total Charge           Charge          ....    0
 Multiplicity           Mult            ....    1
 Number of Electrons    NEL             ....  154
 Basis Dimension        Dim             ....  828

ORBITAL ENERGIES
----------------

  NO   OCC          E(Eh)            E(eV)
   0   2.0000     -91.886835     -2500.3679
   1   2.0000     -20.601609      -560.5983
   2   2.0000     -20.590870      -560.3061
   3   2.0000     -20.544005      -559.0308
   4   2.0000     -15.626865      -425.2286
   5   2.0000     -15.604576      -424.6221
   6   2.0000     -11.398921      -310.1804
   7   2.0000     -11.381280      -309.7004
   8   2.0000     -11.336053      -308.4697
   9   2.0000     -11.306941      -307.6775
  10   2.0000     -11.306833      -307.6746
  11   2.0000     -11.303051      -307.5716
  12   2.0000     -11.259795      -306.3946
  13   2.0000     -11.257993      -306.3456
  14   2.0000     -11.254027      -306.2376
  15   2.0000     -11.247004      -306.0465
  16   2.0000     -11.237142      -305.7782
  17   2.0000     -11.233125      -305.6689
  18   2.0000     -11.229999      -305.5838
  19   2.0000     -11.224931      -305.4459
  20   2.0000      -8.891932      -241.9618
  21   2.0000      -6.573514      -178.8744
  22   2.0000      -6.571508      -178.8198
  23   2.0000      -6.570923      -178.8039
  24   2.0000      -1.446215       -39.3535
  25   2.0000      -1.410611       -38.3847
  26   2.0000      -1.357431       -36.9376
  27   2.0000      -1.338526       -36.4231
  28   2.0000      -1.235795       -33.6277
  29   2.0000      -1.151255       -31.3272
  30   2.0000      -1.119066       -30.4513
  31   2.0000      -1.042016       -28.3547
  32   2.0000      -1.034340       -28.1458
  33   2.0000      -1.008872       -27.4528
  34   2.0000      -0.997150       -27.1338
  35   2.0000      -0.982043       -26.7227
  36   2.0000      -0.920075       -25.0365
  37   2.0000      -0.896662       -24.3994
  38   2.0000      -0.847039       -23.0491
  39   2.0000      -0.834372       -22.7044
  40   2.0000      -0.827136       -22.5075
  41   2.0000      -0.817652       -22.2494
  42   2.0000      -0.744348       -20.2547
  43   2.0000      -0.727619       -19.7995
  44   2.0000      -0.724416       -19.7124
  45   2.0000      -0.689616       -18.7654
  46   2.0000      -0.684017       -18.6130
  47   2.0000      -0.678012       -18.4497
  48   2.0000      -0.669689       -18.2232
  49   2.0000      -0.666731       -18.1427
  50   2.0000      -0.643785       -17.5183
  51   2.0000      -0.643089       -17.4993
  52   2.0000      -0.632371       -17.2077
  53   2.0000      -0.604070       -16.4376
  54   2.0000      -0.598507       -16.2862
  55   2.0000      -0.596623       -16.2349
  56   2.0000      -0.593878       -16.1602
  57   2.0000      -0.587514       -15.9871
  58   2.0000      -0.571461       -15.5502
  59   2.0000      -0.568965       -15.4823
  60   2.0000      -0.559106       -15.2140
  61   2.0000      -0.544222       -14.8090
  62   2.0000      -0.538080       -14.6419
  63   2.0000      -0.524311       -14.2672
  64   2.0000      -0.514829       -14.0092
  65   2.0000      -0.510032       -13.8787
  66   2.0000      -0.498972       -13.5777
  67   2.0000      -0.493067       -13.4170
  68   2.0000      -0.479836       -13.0570
  69   2.0000      -0.462021       -12.5722
  70   2.0000      -0.454639       -12.3714
  71   2.0000      -0.445516       -12.1231
  72   2.0000      -0.351676        -9.5696
  73   2.0000      -0.343508        -9.3473
  74   2.0000      -0.326001        -8.8709
  75   2.0000      -0.316011        -8.5991
  76   2.0000      -0.313502        -8.5308
  77   0.0000       0.079268         2.1570
  78   0.0000       0.112680         3.0662
  79   0.0000       0.120919         3.2904
  80   0.0000       0.136413         3.7120
  81   0.0000       0.139486         3.7956

MULLIKEN ATOMIC CHARGES
-----------------------
   0 C :   -0.290216
   1 C :    0.049373
   2 O :   -0.357279
   3 C :    0.412204
   4 O :   -0.423655
   5 C :   -0.144369
   6 C :    0.156597
   7 C :   -0.283026
   8 N :   -0.128989
   9 C :    0.207753
  10 S :   -0.444521
  11 N :   -0.210712
  12 C :    0.037824
  13 C :    0.033472
  14 C :   -0.168900
  15 C :   -0.134600
  16 C :   -0.277101
  17 C :    0.314097
  18 O :   -0.359017
  19 C :   -0.249807
  20 H :    0.100082
  21 H :    0.095916
  22 H :    0.120483
  23 H :    0.094955
  24 H :    0.090815
  25 H :    0.130201
  26 H :    0.122243
  27 H :    0.102550
  28 H :    0.198470
  29 H :    0.199746
  30 H :    0.155705
  31 H :    0.159170
  32 H :    0.159505
  33 H :    0.127884
  34 H :    0.239729
  35 H :    0.163416
Sum of atomic charges:   -0.0000000

LOEWDIN ATOMIC CHARGES
----------------------
   0 C :    0.102270
   1 C :   -0.008955
   2 O :    0.294219
   3 C :   -0.412972
   4 O :    0.113498
   5 C :   -0.089659
   6 C :   -0.065222
   7 C :    0.124260
   8 N :    0.404956
   9 C :   -0.458966
  10 S :   -0.039285
  11 N :    0.396507
  12 C :   -0.048170
  13 C :   -0.040262
  14 C :    0.024290
  15 C :    0.040581
  16 C :   -0.001330
  17 C :   -0.192336
  18 O :    0.393098
  19 C :    0.030085
  20 H :   -0.025943
  21 H :   -0.028623
  22 H :   -0.024645
  23 H :   -0.026141
  24 H :   -0.028378
  25 H :   -0.009386
  26 H :   -0.010327
  27 H :   -0.021460
  28 H :   -0.059109
  29 H :   -0.063186
  30 H :   -0.008789
  31 H :   -0.024216
  32 H :   -0.021293
  33 H :   -0.036314
  34 H :   -0.155028
  35 H :   -0.023767

  Mayer bond orders larger than 0.100000
B(  0-C ,  1-C ) :   0.9747 B(  0-C , 20-H ) :   0.9752 B(  0-C , 21-H ) :   0.9743
B(  0-C , 22-H ) :   0.9720 B(  1-C ,  2-O ) :   0.9038 B(  1-C , 23-H ) :   0.9818
B(  1-C , 24-H ) :   0.9796 B(  2-O ,  3-C ) :   1.1349 B(  3-C ,  4-O ) :   1.9795
B(  3-C ,  5-C ) :   1.0509 B(  5-C ,  6-C ) :   1.6576 B(  5-C , 12-C ) :   0.9482
B(  6-C ,  7-C ) :   0.9534 B(  6-C ,  8-N ) :   1.1318 B(  7-C , 25-H ) :   0.9630
B(  7-C , 26-H ) :   0.9663 B(  7-C , 27-H ) :   0.9922 B(  8-N ,  9-C ) :   1.1870
B(  8-N , 28-H ) :   0.9472 B(  9-C , 10-S ) :   1.6061 B(  9-C , 11-N ) :   1.3064
B( 11-N , 12-C ) :   0.9766 B( 11-N , 29-H ) :   0.9486 B( 12-C , 13-C ) :   0.9748
B( 12-C , 30-H ) :   0.9971 B( 13-C , 14-C ) :   1.3757 B( 13-C , 19-C ) :   1.3672
B( 14-C , 15-C ) :   1.3971 B( 14-C , 31-H ) :   0.9638 B( 15-C , 16-C ) :   1.3589
B( 15-C , 32-H ) :   0.9713 B( 16-C , 17-C ) :   1.3332 B( 16-C , 33-H ) :   0.9861
B( 17-C , 18-O ) :   1.1032 B( 17-C , 19-C ) :   1.3674 B( 18-O , 34-H ) :   0.9808
B( 19-C , 35-H ) :   0.9600

MP2 TOTAL ENERGY:    -1274.331121370 Eh
FINAL SINGLE POINT ENERGY     -1274.331121370136

DIPOLE MOMENT
-------------
                                X             Y             Z
Electronic contribution:      8.71862      10.09905      12.24308
Nuclear contribution   :    -10.33376     -11.30059     -13.36097
                        -----------------------------------------
Total Dipole Moment    :     -1.61514      -1.20154      -1.11789
                        -----------------------------------------
Magnitude (a.u.)       :      2.30262
Magnitude (Debye)      :      5.85280

Rotational constants in cm-1:     0.009893     0.008966     0.005491
Rotational constants in MHz :   296.571060   268.784039   164.601492

                             ****ORCA TERMINATED NORMALLY****
TOTAL RUN TIME: 0 days 1 hours 52 minutes 47 seconds 667 msec
