                         Program Version 4.2.0 -  RELEASE  -
|  1> ! ri-mp2 cc-pvtz cc-pvtz/c TightSCF NoKeepInts
|  2>
|  3> %scf
|  4>   MaxCore 4096
|  5> end
|  6> *xyz  0  1
|  7>     C       14.5133553   16.4327870   16.2242588
|  8>     C       15.0440032   16.0825279   14.8156325
|  9>     O       16.4887382   16.0557413   14.6511472
| 10>     C       17.4895141   16.4453999   15.5108676
| 11>     O       18.5466912   15.8419294   15.5253235
| 12>     C       17.2279101   17.5707430   16.4600310
| 13>     C       16.8581831   18.7860130   15.9845374
| 14>     C       16.4387268   19.1267222   14.5682349
| 15>     N       16.9131413   19.9194853   16.7981067
| 16>     C       17.5676636   19.9710619   18.0001701
| 17>     S       17.7011292   21.3772538   18.8599530
| 18>     N       18.1299849   18.7984043   18.4403191
| 19>     C       17.9349546   17.4751461   17.8145307
| 20>     C       17.3307521   16.4215180   18.7310765
| 21>     C       17.8487681   15.1141907   18.7442780
| 22>     C       17.2826011   14.1298770   19.5713391
| 23>     C       16.1873865   14.4553371   20.3898139
| 24>     C       15.6658452   15.7562360   20.3745410
| 25>     O       14.6018448   16.0704643   21.1554615
| 26>     C       16.2312369   16.7342294   19.5500105
| 27>     H       15.0455519   15.8672595   16.9992222
| 28>     H       13.4536821   16.1585724   16.2956083
| 29>     H       14.5749611   17.5034387   16.4430484
| 30>     H       14.6643114   15.0872143   14.5497616
| 31>     H       14.6109678   16.7830995   14.0906843
| 32>     H       16.9289420   18.4817144   13.8284893
| 33>     H       16.7114595   20.1558825   14.3020224
| 34>     H       15.3544208   19.0282347   14.4434958
| 35>     H       16.5373100   20.7950517   16.4698487
| 36>     H       18.6049065   18.8611089   19.3321923
| 37>     H       18.9802695   17.2185904   17.5862417
| 38>     H       18.6883693   14.8585993   18.1007254
| 39>     H       17.6908707   13.1205751   19.5716044
| 40>     H       15.7460958   13.6972921   21.0284594
| 41>     H       14.3828053   15.2842562   21.6780732
| 42>     H       15.8096460   17.7340429   19.5488897
| 43> *
| 44>
| 45>                          ****END OF INPUT****

CARTESIAN COORDINATES (ANGSTROEM)
---------------------------------
  C     14.513355   16.432787   16.224259
  C     15.044003   16.082528   14.815632
  O     16.488738   16.055741   14.651147
  C     17.489514   16.445400   15.510868
  O     18.546691   15.841929   15.525324
  C     17.227910   17.570743   16.460031
  C     16.858183   18.786013   15.984537
  C     16.438727   19.126722   14.568235
  N     16.913141   19.919485   16.798107
  C     17.567664   19.971062   18.000170
  S     17.701129   21.377254   18.859953
  N     18.129985   18.798404   18.440319
  C     17.934955   17.475146   17.814531
  C     17.330752   16.421518   18.731076
  C     17.848768   15.114191   18.744278
  C     17.282601   14.129877   19.571339
  C     16.187386   14.455337   20.389814
  C     15.665845   15.756236   20.374541
  O     14.601845   16.070464   21.155462
  C     16.231237   16.734229   19.550010
  H     15.045552   15.867259   16.999222
  H     13.453682   16.158572   16.295608
  H     14.574961   17.503439   16.443048
  H     14.664311   15.087214   14.549762
  H     14.610968   16.783099   14.090684
  H     16.928942   18.481714   13.828489
  H     16.711460   20.155883   14.302022
  H     15.354421   19.028235   14.443496
  H     16.537310   20.795052   16.469849
  H     18.604906   18.861109   19.332192
  H     18.980269   17.218590   17.586242
  H     18.688369   14.858599   18.100725
  H     17.690871   13.120575   19.571604
  H     15.746096   13.697292   21.028459
  H     14.382805   15.284256   21.678073
  H     15.809646   17.734043   19.548890

 Total Charge           Charge          ....    0
 Multiplicity           Mult            ....    1
 Number of Electrons    NEL             ....  154
 Basis Dimension        Dim             ....  828

ORBITAL ENERGIES
----------------

  NO   OCC          E(Eh)            E(eV)
   0   2.0000     -91.889887     -2500.4509
   1   2.0000     -20.598437      -560.5120
   2   2.0000     -20.597385      -560.4833
   3   2.0000     -20.547191      -559.1175
   4   2.0000     -15.628711      -425.2788
   5   2.0000     -15.608958      -424.7413
   6   2.0000     -11.399601      -310.1989
   7   2.0000     -11.385383      -309.8120
   8   2.0000     -11.333792      -308.4082
   9   2.0000     -11.315455      -307.9092
  10   2.0000     -11.313820      -307.8647
  11   2.0000     -11.308543      -307.7211
  12   2.0000     -11.266500      -306.5771
  13   2.0000     -11.262834      -306.4773
  14   2.0000     -11.262595      -306.4708
  15   2.0000     -11.255736      -306.2841
  16   2.0000     -11.244866      -305.9884
  17   2.0000     -11.240571      -305.8715
  18   2.0000     -11.237595      -305.7905
  19   2.0000     -11.237559      -305.7895
  20   2.0000      -8.894986      -242.0449
  21   2.0000      -6.576567      -178.9575
  22   2.0000      -6.574557      -178.9028
  23   2.0000      -6.573972      -178.8869
  24   2.0000      -1.442189       -39.2439
  25   2.0000      -1.418194       -38.5910
  26   2.0000      -1.355697       -36.8904
  27   2.0000      -1.341248       -36.4972
  28   2.0000      -1.239168       -33.7195
  29   2.0000      -1.159735       -31.5580
  30   2.0000      -1.125289       -30.6207
  31   2.0000      -1.047226       -28.4965
  32   2.0000      -1.040918       -28.3248
  33   2.0000      -1.017728       -27.6938
  34   2.0000      -1.005834       -27.3701
  35   2.0000      -0.990132       -26.9429
  36   2.0000      -0.926581       -25.2136
  37   2.0000      -0.902092       -24.5472
  38   2.0000      -0.852779       -23.2053
  39   2.0000      -0.840979       -22.8842
  40   2.0000      -0.835216       -22.7274
  41   2.0000      -0.826747       -22.4969
  42   2.0000      -0.745168       -20.2770
  43   2.0000      -0.734033       -19.9741
  44   2.0000      -0.730872       -19.8880
  45   2.0000      -0.695249       -18.9187
  46   2.0000      -0.686856       -18.6903
  47   2.0000      -0.678838       -18.4721
  48   2.0000      -0.673595       -18.3295
  49   2.0000      -0.663240       -18.0477
  50   2.0000      -0.658690       -17.9239
  51   2.0000      -0.650620       -17.7043
  52   2.0000      -0.640249       -17.4221
  53   2.0000      -0.616106       -16.7651
  54   2.0000      -0.606963       -16.5163
  55   2.0000      -0.605716       -16.4824
  56   2.0000      -0.602176       -16.3860
  57   2.0000      -0.588280       -16.0079
  58   2.0000      -0.576848       -15.6968
  59   2.0000      -0.569633       -15.5005
  60   2.0000      -0.563911       -15.3448
  61   2.0000      -0.556074       -15.1315
  62   2.0000      -0.545320       -14.8389
  63   2.0000      -0.531832       -14.4719
  64   2.0000      -0.522572       -14.2199
  65   2.0000      -0.513061       -13.9611
  66   2.0000      -0.500476       -13.6186
  67   2.0000      -0.495934       -13.4951
  68   2.0000      -0.484926       -13.1955
  69   2.0000      -0.469628       -12.7792
  70   2.0000      -0.455930       -12.4065
  71   2.0000      -0.448127       -12.1941
  72   2.0000      -0.354870        -9.6565
  73   2.0000      -0.349390        -9.5074
  74   2.0000      -0.329299        -8.9607
  75   2.0000      -0.323289        -8.7972
  76   2.0000      -0.319446        -8.6926
  77   0.0000       0.081709         2.2234
  78   0.0000       0.105724         2.8769
  79   0.0000       0.115409         3.1404
  80   0.0000       0.129578         3.5260
  81   0.0000       0.130812         3.5596

MULLIKEN ATOMIC CHARGES
-----------------------
   0 C :   -0.334980
   1 C :    0.038978
   2 O :   -0.341790
   3 C :    0.440519
   4 O :   -0.382575
   5 C :   -0.229984
   6 C :    0.145268
   7 C :   -0.330588
   8 N :   -0.139359
   9 C :    0.206794
  10 S :   -0.442363
  11 N :   -0.222932
  12 C :    0.077233
  13 C :    0.009238
  14 C :   -0.210326
  15 C :   -0.131022
  16 C :   -0.277358
  17 C :    0.319245
  18 O :   -0.357215
  19 C :   -0.257169
  20 H :    0.127426
  21 H :    0.122653
  22 H :    0.108746
  23 H :    0.126597
  24 H :    0.089864
  25 H :    0.143622
  26 H :    0.125211
  27 H :    0.117829
  28 H :    0.198635
  29 H :    0.202998
  30 H :    0.167022
  31 H :    0.178487
  32 H :    0.164200
  33 H :    0.131942
  34 H :    0.241135
  35 H :    0.174019
Sum of atomic charges:    0.0000000

LOEWDIN ATOMIC CHARGES
----------------------
   0 C :    0.102734
   1 C :   -0.012986
   2 O :    0.290053
   3 C :   -0.417673
   4 O :    0.119457
   5 C :   -0.085029
   6 C :   -0.084762
   7 C :    0.127894
   8 N :    0.403454
   9 C :   -0.457773
  10 S :   -0.037863
  11 N :    0.396625
  12 C :   -0.047960
  13 C :   -0.044473
  14 C :    0.020580
  15 C :    0.044009
  16 C :   -0.000650
  17 C :   -0.192732
  18 O :    0.394942
  19 C :    0.028487
  20 H :   -0.021719
  21 H :   -0.021338
  22 H :   -0.034136
  23 H :   -0.020087
  24 H :   -0.033840
  25 H :   -0.006037
  26 H :   -0.013094
  27 H :   -0.018148
  28 H :   -0.058051
  29 H :   -0.063392
  30 H :   -0.004347
  31 H :   -0.021011
  32 H :   -0.018744
  33 H :   -0.034988
  34 H :   -0.153503
  35 H :   -0.023900

  Mayer bond orders larger than 0.100000
B(  0-C ,  1-C ) :   0.9591 B(  0-C , 20-H ) :   0.9659 B(  0-C , 21-H ) :   0.9771
B(  0-C , 22-H ) :   0.9727 B(  1-C ,  2-O ) :   0.9042 B(  1-C , 23-H ) :   0.9796
B(  1-C , 24-H ) :   0.9758 B(  2-O ,  3-C ) :   1.1572 B(  3-C ,  4-O ) :   2.0785
B(  3-C ,  5-C ) :   0.9404 B(  5-C ,  6-C ) :   1.7208 B(  5-C , 12-C ) :   0.9339
B(  6-C ,  7-C ) :   0.9399 B(  6-C ,  8-N ) :   1.1034 B(  7-C , 25-H ) :   0.9702
B(  7-C , 26-H ) :   0.9838 B(  7-C , 27-H ) :   0.9650 B(  8-N ,  9-C ) :   1.1945
B(  8-N , 28-H ) :   0.9493 B(  9-C , 10-S ) :   1.6096 B(  9-C , 11-N ) :   1.2935
B( 11-N , 12-C ) :   0.9787 B( 11-N , 29-H ) :   0.9478 B( 12-C , 13-C ) :   0.9682
B( 12-C , 30-H ) :   0.9899 B( 13-C , 14-C ) :   1.3881 B( 13-C , 19-C ) :   1.3503
B( 14-C , 15-C ) :   1.3955 B( 14-C , 31-H ) :   0.9574 B( 15-C , 16-C ) :   1.3608
B( 15-C , 32-H ) :   0.9702 B( 16-C , 17-C ) :   1.3313 B( 16-C , 33-H ) :   0.9847
B( 17-C , 18-O ) :   1.1088 B( 17-C , 19-C ) :   1.3639 B( 18-O , 34-H ) :   0.9796
B( 19-C , 35-H ) :   0.9573

MP2 TOTAL ENERGY:    -1274.321840077 Eh
FINAL SINGLE POINT ENERGY     -1274.321840077072

DIPOLE MOMENT
-------------
                                X             Y             Z
Electronic contribution:      9.04406       6.13863       7.10817
Nuclear contribution   :    -10.71520      -7.31654      -7.66312
                        -----------------------------------------
Total Dipole Moment    :     -1.67114      -1.17791      -0.55495
                        -----------------------------------------
Magnitude (a.u.)       :      2.11852
Magnitude (Debye)      :      5.38486

Rotational constants in cm-1:     0.011350     0.009292     0.006494
Rotational constants in MHz :   340.255177   278.564520   194.688085

                             ****ORCA TERMINATED NORMALLY****
TOTAL RUN TIME: 0 days 2 hours 2 minutes 19 seconds 135 msec
