                         Program Version 4.2.0 -  RELEASE  -
|  1> ! ri-mp2 cc-pvtz cc-pvtz/c TightSCF NoKeepInts
|  2>
|  3> %scf
|  4>   MaxCore 4096
|  5> end
|  6> *xyz  0  1
|  7>     C       14.5475040   15.2936807   15.9996507
|  8>     C       15.9040542   14.8071151   15.4410192
|  9>     O       16.9333412   15.8147434   15.5492704
| 10>     C       16.6609501   17.1263983   15.2872593
| 11>     O       16.0911873   17.4587496   14.2623324
| 12>     C       17.0343761   18.0473023   16.4188828
| 13>     C       17.0248188   19.3940116   16.2426917
| 14>     C       16.4107400   20.1640004   15.0916501
| 15>     N       17.6316824   20.2461005   17.1681661
| 16>     C       18.4439301   19.8286001   18.1871889
| 17>     S       19.2165640   20.8966444   19.1860918
| 18>     N       18.6028579   18.4730413   18.3239424
| 19>     C       17.8672318   17.4445738   17.5640527
| 20>     C       17.0996049   16.4901367   18.4688527
| 21>     C       17.4900445   15.1437030   18.5892036
| 22>     C       16.7772261   14.2661409   19.4233865
| 23>     C       15.6698811   14.7409987   20.1471508
| 24>     C       15.2852923   16.0844600   20.0361310
| 25>     O       14.2166038   16.5454114   20.7331973
| 26>     C       15.9956801   16.9549609   19.2036461
| 27>     H       14.6535342   15.6549884   17.0289336
| 28>     H       13.8258598   14.4680896   16.0070705
| 29>     H       14.1219724   16.0974548   15.3861596
| 30>     H       16.2227370   13.9053369   15.9793416
| 31>     H       15.7712835   14.5384508   14.3845700
| 32>     H       16.9491345   19.9580186   14.1576706
| 33>     H       16.4188759   21.2492888   15.2466998
| 34>     H       15.3657348   19.8644948   14.9402611
| 35>     H       17.5433030   21.2441549   17.0627125
| 36>     H       19.1853433   18.1942581   19.1033780
| 37>     H       18.7078865   16.9285803   17.0786858
| 38>     H       18.3436498   14.7753569   18.0261224
| 39>     H       17.0840870   13.2250519   19.5083096
| 40>     H       15.1166228   14.0673063   20.7932972
| 41>     H       13.8862374   15.8156190   21.2784508
| 42>     H       15.6871677   17.9927766   19.1325709
| 43> *
| 44>
| 45>                          ****END OF INPUT****

CARTESIAN COORDINATES (ANGSTROEM)
---------------------------------
  C     14.547504   15.293681   15.999651
  C     15.904054   14.807115   15.441019
  O     16.933341   15.814743   15.549270
  C     16.660950   17.126398   15.287259
  O     16.091187   17.458750   14.262332
  C     17.034376   18.047302   16.418883
  C     17.024819   19.394012   16.242692
  C     16.410740   20.164000   15.091650
  N     17.631682   20.246100   17.168166
  C     18.443930   19.828600   18.187189
  S     19.216564   20.896644   19.186092
  N     18.602858   18.473041   18.323942
  C     17.867232   17.444574   17.564053
  C     17.099605   16.490137   18.468853
  C     17.490044   15.143703   18.589204
  C     16.777226   14.266141   19.423386
  C     15.669881   14.740999   20.147151
  C     15.285292   16.084460   20.036131
  O     14.216604   16.545411   20.733197
  C     15.995680   16.954961   19.203646
  H     14.653534   15.654988   17.028934
  H     13.825860   14.468090   16.007071
  H     14.121972   16.097455   15.386160
  H     16.222737   13.905337   15.979342
  H     15.771283   14.538451   14.384570
  H     16.949134   19.958019   14.157671
  H     16.418876   21.249289   15.246700
  H     15.365735   19.864495   14.940261
  H     17.543303   21.244155   17.062712
  H     19.185343   18.194258   19.103378
  H     18.707887   16.928580   17.078686
  H     18.343650   14.775357   18.026122
  H     17.084087   13.225052   19.508310
  H     15.116623   14.067306   20.793297
  H     13.886237   15.815619   21.278451
  H     15.687168   17.992777   19.132571

 Total Charge           Charge          ....    0
 Multiplicity           Mult            ....    1
 Number of Electrons    NEL             ....  154
 Basis Dimension        Dim             ....  828

ORBITAL ENERGIES
----------------

  NO   OCC          E(Eh)            E(eV)
   0   2.0000     -91.890244     -2500.4607
   1   2.0000     -20.599721      -560.5469
   2   2.0000     -20.586878      -560.1974
   3   2.0000     -20.542529      -558.9906
   4   2.0000     -15.630688      -425.3327
   5   2.0000     -15.608233      -424.7216
   6   2.0000     -11.393232      -310.0256
   7   2.0000     -11.384724      -309.7941
   8   2.0000     -11.338924      -308.5478
   9   2.0000     -11.317272      -307.9586
  10   2.0000     -11.309125      -307.7369
  11   2.0000     -11.298576      -307.4499
  12   2.0000     -11.263856      -306.5051
  13   2.0000     -11.259109      -306.3759
  14   2.0000     -11.258924      -306.3709
  15   2.0000     -11.252594      -306.1986
  16   2.0000     -11.247373      -306.0566
  17   2.0000     -11.242159      -305.9147
  18   2.0000     -11.241989      -305.9101
  19   2.0000     -11.223135      -305.3970
  20   2.0000      -8.895299      -242.0534
  21   2.0000      -6.576867      -178.9656
  22   2.0000      -6.574873      -178.9114
  23   2.0000      -6.574278      -178.8952
  24   2.0000      -1.445733       -39.3404
  25   2.0000      -1.419474       -38.6258
  26   2.0000      -1.350807       -36.7573
  27   2.0000      -1.341863       -36.5140
  28   2.0000      -1.239768       -33.7358
  29   2.0000      -1.160817       -31.5874
  30   2.0000      -1.122155       -30.5354
  31   2.0000      -1.045266       -28.4431
  32   2.0000      -1.032011       -28.0824
  33   2.0000      -1.018605       -27.7177
  34   2.0000      -0.998117       -27.1601
  35   2.0000      -0.986491       -26.8438
  36   2.0000      -0.923711       -25.1355
  37   2.0000      -0.896255       -24.3883
  38   2.0000      -0.848113       -23.0783
  39   2.0000      -0.841136       -22.8885
  40   2.0000      -0.837668       -22.7941
  41   2.0000      -0.816608       -22.2210
  42   2.0000      -0.747377       -20.3372
  43   2.0000      -0.735809       -20.0224
  44   2.0000      -0.722488       -19.6599
  45   2.0000      -0.698279       -19.0011
  46   2.0000      -0.690244       -18.7825
  47   2.0000      -0.674746       -18.3608
  48   2.0000      -0.672207       -18.2917
  49   2.0000      -0.661550       -18.0017
  50   2.0000      -0.648771       -17.6540
  51   2.0000      -0.640849       -17.4384
  52   2.0000      -0.636279       -17.3140
  53   2.0000      -0.619791       -16.8654
  54   2.0000      -0.609960       -16.5978
  55   2.0000      -0.602882       -16.4052
  56   2.0000      -0.601238       -16.3605
  57   2.0000      -0.579788       -15.7768
  58   2.0000      -0.570539       -15.5252
  59   2.0000      -0.566433       -15.4134
  60   2.0000      -0.548931       -14.9372
  61   2.0000      -0.546383       -14.8678
  62   2.0000      -0.533826       -14.5261
  63   2.0000      -0.529943       -14.4205
  64   2.0000      -0.526218       -14.3191
  65   2.0000      -0.514535       -14.0012
  66   2.0000      -0.501375       -13.6431
  67   2.0000      -0.498627       -13.5683
  68   2.0000      -0.481895       -13.1130
  69   2.0000      -0.464615       -12.6428
  70   2.0000      -0.453653       -12.3445
  71   2.0000      -0.443602       -12.0710
  72   2.0000      -0.353912        -9.6304
  73   2.0000      -0.353034        -9.6066
  74   2.0000      -0.329512        -8.9665
  75   2.0000      -0.325014        -8.8441
  76   2.0000      -0.319611        -8.6971
  77   0.0000       0.072612         1.9759
  78   0.0000       0.101200         2.7538
  79   0.0000       0.123541         3.3617
  80   0.0000       0.130308         3.5459
  81   0.0000       0.134690         3.6651

MULLIKEN ATOMIC CHARGES
-----------------------
   0 C :   -0.330162
   1 C :    0.029118
   2 O :   -0.382583
   3 C :    0.477336
   4 O :   -0.427376
   5 C :   -0.250057
   6 C :    0.171433
   7 C :   -0.267296
   8 N :   -0.125511
   9 C :    0.208659
  10 S :   -0.439289
  11 N :   -0.213853
  12 C :    0.061844
  13 C :    0.006780
  14 C :   -0.170450
  15 C :   -0.137148
  16 C :   -0.269868
  17 C :    0.312053
  18 O :   -0.359412
  19 C :   -0.241879
  20 H :    0.112508
  21 H :    0.105475
  22 H :    0.119154
  23 H :    0.111746
  24 H :    0.121514
  25 H :    0.131502
  26 H :    0.094759
  27 H :    0.132609
  28 H :    0.200138
  29 H :    0.200233
  30 H :    0.154334
  31 H :    0.160657
  32 H :    0.163856
  33 H :    0.132910
  34 H :    0.240852
  35 H :    0.165413
Sum of atomic charges:   -0.0000000

LOEWDIN ATOMIC CHARGES
----------------------
   0 C :    0.106095
   1 C :   -0.015592
   2 O :    0.292780
   3 C :   -0.420023
   4 O :    0.104752
   5 C :   -0.099102
   6 C :   -0.054163
   7 C :    0.131687
   8 N :    0.407722
   9 C :   -0.457287
  10 S :   -0.034618
  11 N :    0.394971
  12 C :   -0.054027
  13 C :   -0.041619
  14 C :    0.019978
  15 C :    0.039360
  16 C :   -0.000582
  17 C :   -0.191517
  18 O :    0.396223
  19 C :    0.032799
  20 H :   -0.028404
  21 H :   -0.024646
  22 H :   -0.026378
  23 H :   -0.026033
  24 H :   -0.028446
  25 H :   -0.004211
  26 H :   -0.023528
  27 H :   -0.004621
  28 H :   -0.056866
  29 H :   -0.064100
  30 H :   -0.012092
  31 H :   -0.027385
  32 H :   -0.020643
  33 H :   -0.034739
  34 H :   -0.153309
  35 H :   -0.022438

  Mayer bond orders larger than 0.100000
B(  0-C ,  1-C ) :   0.9539 B(  0-C , 20-H ) :   0.9686 B(  0-C , 21-H ) :   0.9780
B(  0-C , 22-H ) :   0.9734 B(  1-C ,  2-O ) :   0.8905 B(  1-C , 23-H ) :   0.9802
B(  1-C , 24-H ) :   0.9865 B(  2-O ,  3-C ) :   1.1173 B(  3-C ,  4-O ) :   1.9892
B(  3-C ,  5-C ) :   1.0677 B(  5-C ,  6-C ) :   1.6316 B(  5-C , 12-C ) :   0.9545
B(  6-C ,  7-C ) :   0.9656 B(  6-C ,  8-N ) :   1.1552 B(  7-C , 25-H ) :   0.9576
B(  7-C , 26-H ) :   0.9900 B(  7-C , 27-H ) :   0.9621 B(  8-N ,  9-C ) :   1.1855
B(  8-N , 28-H ) :   0.9464 B(  9-C , 10-S ) :   1.6104 B(  9-C , 11-N ) :   1.3073
B( 11-N , 12-C ) :   0.9704 B( 11-N , 29-H ) :   0.9487 B( 12-C , 13-C ) :   0.9585
B( 12-C , 30-H ) :   1.0014 B( 13-C , 14-C ) :   1.3576 B( 13-C , 19-C ) :   1.3779
B( 14-C , 15-C ) :   1.3871 B( 14-C , 31-H ) :   0.9691 B( 15-C , 16-C ) :   1.3604
B( 15-C , 32-H ) :   0.9701 B( 16-C , 17-C ) :   1.3335 B( 16-C , 33-H ) :   0.9839
B( 17-C , 18-O ) :   1.1053 B( 17-C , 19-C ) :   1.3621 B( 18-O , 34-H ) :   0.9795
B( 19-C , 35-H ) :   0.9609

MP2 TOTAL ENERGY:    -1274.334127094 Eh
FINAL SINGLE POINT ENERGY     -1274.334127093700

DIPOLE MOMENT
-------------
                                X             Y             Z
Electronic contribution:      9.31857       9.45184       6.53961
Nuclear contribution   :    -10.32869     -11.15389      -6.61143
                        -----------------------------------------
Total Dipole Moment    :     -1.01012      -1.70205      -0.07182
                        -----------------------------------------
Magnitude (a.u.)       :      1.98053
Magnitude (Debye)      :      5.03410

Rotational constants in cm-1:     0.012343     0.008806     0.006196
Rotational constants in MHz :   370.040586   263.991040   185.760619

                             ****ORCA TERMINATED NORMALLY****
TOTAL RUN TIME: 0 days 2 hours 5 minutes 32 seconds 977 msec
