                         Program Version 4.2.0 -  RELEASE  -
|  1> ! ri-mp2 cc-pvtz cc-pvtz/c TightSCF NoKeepInts
|  2>
|  3> %scf
|  4>   MaxCore 4096
|  5> end
|  6> *xyz  0  1
|  7>     C       14.4953650   15.3269718   15.9331663
|  8>     C       15.8904506   14.8002911   15.5243866
|  9>     O       16.9112760   15.8242422   15.5528513
| 10>     C       16.6251190   17.1366006   15.3060858
| 11>     O       16.0322363   17.4762661   14.2968864
| 12>     C       17.0392699   18.0526599   16.4269553
| 13>     C       17.0423434   19.3996384   16.2543680
| 14>     C       16.4175545   20.1788733   15.1154957
| 15>     N       17.6751811   20.2417583   17.1715319
| 16>     C       18.4925841   19.8112680   18.1811362
| 17>     S       19.2908215   20.8669679   19.1730429
| 18>     N       18.6336649   18.4533621   18.3151512
| 19>     C       17.8802747   17.4359290   17.5580773
| 20>     C       17.1106515   16.4851263   18.4651164
| 21>     C       17.5253274   15.1496174   18.6206436
| 22>     C       16.8089106   14.2725504   19.4522611
| 23>     C       15.6727210   14.7368593   20.1370757
| 24>     C       15.2636312   16.0696451   19.9907764
| 25>     O       14.1670340   16.5204554   20.6500994
| 26>     C       15.9782937   16.9398971   19.1617811
| 27>     H       14.5369843   15.8428156   16.8998671
| 28>     H       13.7918330   14.4914038   16.0295943
| 29>     H       14.0868774   16.0148438   15.1825691
| 30>     H       16.1846716   13.9799006   16.1914660
| 31>     H       15.8208119   14.3934044   14.5070136
| 32>     H       16.9316831   19.9615275   14.1704808
| 33>     H       16.4489311   21.2640832   15.2680635
| 34>     H       15.3643123   19.8979317   14.9873045
| 35>     H       17.5993118   21.2411134   17.0686648
| 36>     H       19.2197867   18.1656506   19.0885530
| 37>     H       18.7082896   16.9119267   17.0597058
| 38>     H       18.4010311   14.7891177   18.0871978
| 39>     H       17.1350242   13.2399736   19.5651518
| 40>     H       15.1162887   14.0634901   20.7808504
| 41>     H       13.8380167   15.7943499   21.2011010
| 42>     H       15.6504359   17.9694876   19.0635278
| 43> *
| 44>
| 45>                          ****END OF INPUT****

CARTESIAN COORDINATES (ANGSTROEM)
---------------------------------
  C     14.495365   15.326972   15.933166
  C     15.890451   14.800291   15.524387
  O     16.911276   15.824242   15.552851
  C     16.625119   17.136601   15.306086
  O     16.032236   17.476266   14.296886
  C     17.039270   18.052660   16.426955
  C     17.042343   19.399638   16.254368
  C     16.417555   20.178873   15.115496
  N     17.675181   20.241758   17.171532
  C     18.492584   19.811268   18.181136
  S     19.290821   20.866968   19.173043
  N     18.633665   18.453362   18.315151
  C     17.880275   17.435929   17.558077
  C     17.110651   16.485126   18.465116
  C     17.525327   15.149617   18.620644
  C     16.808911   14.272550   19.452261
  C     15.672721   14.736859   20.137076
  C     15.263631   16.069645   19.990776
  O     14.167034   16.520455   20.650099
  C     15.978294   16.939897   19.161781
  H     14.536984   15.842816   16.899867
  H     13.791833   14.491404   16.029594
  H     14.086877   16.014844   15.182569
  H     16.184672   13.979901   16.191466
  H     15.820812   14.393404   14.507014
  H     16.931683   19.961527   14.170481
  H     16.448931   21.264083   15.268064
  H     15.364312   19.897932   14.987304
  H     17.599312   21.241113   17.068665
  H     19.219787   18.165651   19.088553
  H     18.708290   16.911927   17.059706
  H     18.401031   14.789118   18.087198
  H     17.135024   13.239974   19.565152
  H     15.116289   14.063490   20.780850
  H     13.838017   15.794350   21.201101
  H     15.650436   17.969488   19.063528

 Total Charge           Charge          ....    0
 Multiplicity           Mult            ....    1
 Number of Electrons    NEL             ....  154
 Basis Dimension        Dim             ....  828

ORBITAL ENERGIES
----------------

  NO   OCC          E(Eh)            E(eV)
   0   2.0000     -91.890052     -2500.4554
   1   2.0000     -20.600207      -560.5601
   2   2.0000     -20.585834      -560.1690
   3   2.0000     -20.542525      -558.9905
   4   2.0000     -15.630480      -425.3270
   5   2.0000     -15.608115      -424.7184
   6   2.0000     -11.393211      -310.0250
   7   2.0000     -11.384621      -309.7913
   8   2.0000     -11.338531      -308.5371
   9   2.0000     -11.317694      -307.9701
  10   2.0000     -11.308893      -307.7306
  11   2.0000     -11.298825      -307.4566
  12   2.0000     -11.264263      -306.5162
  13   2.0000     -11.259375      -306.3832
  14   2.0000     -11.258680      -306.3643
  15   2.0000     -11.252447      -306.1947
  16   2.0000     -11.247722      -306.0661
  17   2.0000     -11.242469      -305.9231
  18   2.0000     -11.242425      -305.9219
  19   2.0000     -11.223638      -305.4107
  20   2.0000      -8.895110      -242.0483
  21   2.0000      -6.576679      -178.9605
  22   2.0000      -6.574684      -178.9063
  23   2.0000      -6.574090      -178.8901
  24   2.0000      -1.444245       -39.2999
  25   2.0000      -1.419937       -38.6385
  26   2.0000      -1.350442       -36.7474
  27   2.0000      -1.341593       -36.5066
  28   2.0000      -1.239563       -33.7302
  29   2.0000      -1.161183       -31.5974
  30   2.0000      -1.122031       -30.5320
  31   2.0000      -1.045487       -28.4492
  32   2.0000      -1.031931       -28.0803
  33   2.0000      -1.019060       -27.7300
  34   2.0000      -0.998060       -27.1586
  35   2.0000      -0.986335       -26.8396
  36   2.0000      -0.923710       -25.1354
  37   2.0000      -0.896595       -24.3976
  38   2.0000      -0.848122       -23.0786
  39   2.0000      -0.841360       -22.8946
  40   2.0000      -0.838023       -22.8038
  41   2.0000      -0.817231       -22.2380
  42   2.0000      -0.745747       -20.2928
  43   2.0000      -0.735650       -20.0181
  44   2.0000      -0.721757       -19.6400
  45   2.0000      -0.698724       -19.0133
  46   2.0000      -0.689990       -18.7756
  47   2.0000      -0.674413       -18.3517
  48   2.0000      -0.672385       -18.2965
  49   2.0000      -0.660256       -17.9665
  50   2.0000      -0.649474       -17.6731
  51   2.0000      -0.640867       -17.4389
  52   2.0000      -0.636140       -17.3103
  53   2.0000      -0.622231       -16.9318
  54   2.0000      -0.610427       -16.6106
  55   2.0000      -0.603253       -16.4153
  56   2.0000      -0.601404       -16.3650
  57   2.0000      -0.580127       -15.7861
  58   2.0000      -0.570656       -15.5283
  59   2.0000      -0.566415       -15.4129
  60   2.0000      -0.548204       -14.9174
  61   2.0000      -0.545739       -14.8503
  62   2.0000      -0.534462       -14.5434
  63   2.0000      -0.527273       -14.3478
  64   2.0000      -0.526766       -14.3340
  65   2.0000      -0.514548       -14.0016
  66   2.0000      -0.501465       -13.6456
  67   2.0000      -0.496861       -13.5203
  68   2.0000      -0.484327       -13.1792
  69   2.0000      -0.464059       -12.6277
  70   2.0000      -0.454258       -12.3610
  71   2.0000      -0.442758       -12.0481
  72   2.0000      -0.353999        -9.6328
  73   2.0000      -0.353010        -9.6059
  74   2.0000      -0.329477        -8.9655
  75   2.0000      -0.325263        -8.8509
  76   2.0000      -0.319420        -8.6919
  77   0.0000       0.072961         1.9854
  78   0.0000       0.100386         2.7316
  79   0.0000       0.123309         3.3554
  80   0.0000       0.130397         3.5483
  81   0.0000       0.134110         3.6493

MULLIKEN ATOMIC CHARGES
-----------------------
   0 C :   -0.329692
   1 C :    0.033484
   2 O :   -0.385168
   3 C :    0.490524
   4 O :   -0.428133
   5 C :   -0.268219
   6 C :    0.174694
   7 C :   -0.267771
   8 N :   -0.125651
   9 C :    0.210174
  10 S :   -0.439992
  11 N :   -0.215152
  12 C :    0.068530
  13 C :    0.028718
  14 C :   -0.185969
  15 C :   -0.129722
  16 C :   -0.274142
  17 C :    0.323108
  18 O :   -0.359334
  19 C :   -0.265024
  20 H :    0.108653
  21 H :    0.104358
  22 H :    0.123270
  23 H :    0.110295
  24 H :    0.119286
  25 H :    0.131382
  26 H :    0.094784
  27 H :    0.132660
  28 H :    0.199892
  29 H :    0.200496
  30 H :    0.153665
  31 H :    0.159836
  32 H :    0.165092
  33 H :    0.132993
  34 H :    0.241052
  35 H :    0.167023
Sum of atomic charges:    0.0000000

LOEWDIN ATOMIC CHARGES
----------------------
   0 C :    0.105676
   1 C :   -0.013717
   2 O :    0.291279
   3 C :   -0.419574
   4 O :    0.105978
   5 C :   -0.099593
   6 C :   -0.054767
   7 C :    0.131684
   8 N :    0.407622
   9 C :   -0.456669
  10 S :   -0.035080
  11 N :    0.394694
  12 C :   -0.054214
  13 C :   -0.040584
  14 C :    0.019930
  15 C :    0.039597
  16 C :   -0.000622
  17 C :   -0.190918
  18 O :    0.396147
  19 C :    0.033138
  20 H :   -0.029206
  21 H :   -0.024507
  22 H :   -0.025895
  23 H :   -0.027228
  24 H :   -0.028656
  25 H :   -0.004211
  26 H :   -0.023552
  27 H :   -0.004586
  28 H :   -0.056915
  29 H :   -0.064342
  30 H :   -0.012204
  31 H :   -0.027527
  32 H :   -0.020593
  33 H :   -0.034698
  34 H :   -0.153196
  35 H :   -0.022695

  Mayer bond orders larger than 0.100000
B(  0-C ,  1-C ) :   0.9545 B(  0-C , 20-H ) :   0.9699 B(  0-C , 21-H ) :   0.9776
B(  0-C , 22-H ) :   0.9728 B(  1-C ,  2-O ) :   0.8900 B(  1-C , 23-H ) :   0.9781
B(  1-C , 24-H ) :   0.9868 B(  2-O ,  3-C ) :   1.1134 B(  3-C ,  4-O ) :   1.9875
B(  3-C ,  5-C ) :   1.0674 B(  5-C ,  6-C ) :   1.6326 B(  5-C , 12-C ) :   0.9538
B(  6-C ,  7-C ) :   0.9652 B(  6-C ,  8-N ) :   1.1573 B(  7-C , 25-H ) :   0.9579
B(  7-C , 26-H ) :   0.9898 B(  7-C , 27-H ) :   0.9620 B(  8-N ,  9-C ) :   1.1854
B(  8-N , 28-H ) :   0.9464 B(  9-C , 10-S ) :   1.6086 B(  9-C , 11-N ) :   1.3084
B( 11-N , 12-C ) :   0.9691 B( 11-N , 29-H ) :   0.9487 B( 12-C , 13-C ) :   0.9600
B( 12-C , 30-H ) :   1.0009 B( 13-C , 14-C ) :   1.3493 B( 13-C , 19-C ) :   1.3739
B( 14-C , 15-C ) :   1.3864 B( 14-C , 31-H ) :   0.9705 B( 15-C , 16-C ) :   1.3610
B( 15-C , 32-H ) :   0.9695 B( 16-C , 17-C ) :   1.3328 B( 16-C , 33-H ) :   0.9838
B( 17-C , 18-O ) :   1.1039 B( 17-C , 19-C ) :   1.3585 B( 18-O , 34-H ) :   0.9794
B( 19-C , 35-H ) :   0.9613

MP2 TOTAL ENERGY:    -1274.332866612 Eh
FINAL SINGLE POINT ENERGY     -1274.332866612371

DIPOLE MOMENT
-------------
                                X             Y             Z
Electronic contribution:      9.43897       9.35670       6.49814
Nuclear contribution   :    -10.46370     -11.05762      -6.53304
                        -----------------------------------------
Total Dipole Moment    :     -1.02473      -1.70093      -0.03491
                        -----------------------------------------
Magnitude (a.u.)       :      1.98606
Magnitude (Debye)      :      5.04817

Rotational constants in cm-1:     0.012446     0.008730     0.006218
Rotational constants in MHz :   373.129412   261.728882   186.413307

                             ****ORCA TERMINATED NORMALLY****
TOTAL RUN TIME: 0 days 2 hours 0 minutes 48 seconds 140 msec
