                         Program Version 4.2.0 -  RELEASE  -
|  1> ! ri-mp2 cc-pvtz cc-pvtz/c TightSCF NoKeepInts
|  2>
|  3> %scf
|  4>   MaxCore 4096
|  5> end
|  6> *xyz  0  1
|  7>     C       14.5986639   15.8001012   16.6001124
|  8>     C       15.3202922   15.6302572   15.2516918
|  9>     O       16.7536319   15.5833829   15.4083078
| 10>     C       17.4893161   16.7305418   15.3193265
| 11>     O       18.3073773   16.8957216   14.4338548
| 12>     C       17.1811907   17.7700415   16.3424573
| 13>     C       16.9533619   19.0342599   15.9190553
| 14>     C       16.5929361   19.4375556   14.5054391
| 15>     N       17.0695924   20.1218958   16.7860426
| 16>     C       17.6598685   20.0537060   18.0203299
| 17>     S       17.8827001   21.3968936   18.9588747
| 18>     N       18.0831372   18.8121643   18.4283354
| 19>     C       17.8010017   17.5426492   17.7276991
| 20>     C       17.1481929   16.4779209   18.5976013
| 21>     C       17.5937151   15.1446403   18.5375866
| 22>     C       17.0081434   14.1584479   19.3489881
| 23>     C       15.9710815   14.5089342   20.2303807
| 24>     C       15.5282148   15.8371491   20.2958449
| 25>     O       14.5243274   16.1774627   21.1423824
| 26>     C       16.1131028   16.8172856   19.4875029
| 27>     H       14.9464919   15.0523497   17.3226241
| 28>     H       13.5185967   15.6612308   16.4704982
| 29>     H       14.7530085   16.8008783   17.0172501
| 30>     H       14.9943983   14.6780057   14.8132532
| 31>     H       15.0283977   16.4277859   14.5556392
| 32>     H       17.4973735   19.4950257   13.8848825
| 33>     H       16.0919356   20.4121049   14.4627058
| 34>     H       15.9232004   18.7050428   14.0401064
| 35>     H       16.8090154   21.0447224   16.4763949
| 36>     H       18.5116142   18.7903591   19.3454525
| 37>     H       18.8337497   17.2305806   17.5128617
| 38>     H       18.3917462   14.8698394   17.8518815
| 39>     H       17.3574821   13.1288323   19.2912500
| 40>     H       15.5154297   13.7500549   20.8580169
| 41>     H       14.2795021   15.3824637   21.6396449
| 42>     H       15.7552102   17.8397128   19.5537241
| 43> *
| 44>
| 45>                          ****END OF INPUT****

CARTESIAN COORDINATES (ANGSTROEM)
---------------------------------
  C     14.598664   15.800101   16.600112
  C     15.320292   15.630257   15.251692
  O     16.753632   15.583383   15.408308
  C     17.489316   16.730542   15.319327
  O     18.307377   16.895722   14.433855
  C     17.181191   17.770041   16.342457
  C     16.953362   19.034260   15.919055
  C     16.592936   19.437556   14.505439
  N     17.069592   20.121896   16.786043
  C     17.659868   20.053706   18.020330
  S     17.882700   21.396894   18.958875
  N     18.083137   18.812164   18.428335
  C     17.801002   17.542649   17.727699
  C     17.148193   16.477921   18.597601
  C     17.593715   15.144640   18.537587
  C     17.008143   14.158448   19.348988
  C     15.971081   14.508934   20.230381
  C     15.528215   15.837149   20.295845
  O     14.524327   16.177463   21.142382
  C     16.113103   16.817286   19.487503
  H     14.946492   15.052350   17.322624
  H     13.518597   15.661231   16.470498
  H     14.753008   16.800878   17.017250
  H     14.994398   14.678006   14.813253
  H     15.028398   16.427786   14.555639
  H     17.497373   19.495026   13.884882
  H     16.091936   20.412105   14.462706
  H     15.923200   18.705043   14.040106
  H     16.809015   21.044722   16.476395
  H     18.511614   18.790359   19.345453
  H     18.833750   17.230581   17.512862
  H     18.391746   14.869839   17.851881
  H     17.357482   13.128832   19.291250
  H     15.515430   13.750055   20.858017
  H     14.279502   15.382464   21.639645
  H     15.755210   17.839713   19.553724

 Total Charge           Charge          ....    0
 Multiplicity           Mult            ....    1
 Number of Electrons    NEL             ....  154
 Basis Dimension        Dim             ....  828

ORBITAL ENERGIES
----------------

  NO   OCC          E(Eh)            E(eV)
   0   2.0000     -91.890037     -2500.4550
   1   2.0000     -20.600457      -560.5669
   2   2.0000     -20.589040      -560.2563
   3   2.0000     -20.560619      -559.4829
   4   2.0000     -15.626962      -425.2313
   5   2.0000     -15.610453      -424.7820
   6   2.0000     -11.396651      -310.1186
   7   2.0000     -11.385413      -309.8128
   8   2.0000     -11.328938      -308.2761
   9   2.0000     -11.318087      -307.9808
  10   2.0000     -11.315619      -307.9137
  11   2.0000     -11.306505      -307.6656
  12   2.0000     -11.266352      -306.5730
  13   2.0000     -11.259477      -306.3860
  14   2.0000     -11.259378      -306.3832
  15   2.0000     -11.256536      -306.3059
  16   2.0000     -11.248175      -306.0784
  17   2.0000     -11.243036      -305.9386
  18   2.0000     -11.242972      -305.9368
  19   2.0000     -11.224602      -305.4369
  20   2.0000      -8.895105      -242.0481
  21   2.0000      -6.576679      -178.9605
  22   2.0000      -6.574677      -178.9061
  23   2.0000      -6.574088      -178.8900
  24   2.0000      -1.449748       -39.4496
  25   2.0000      -1.420241       -38.6467
  26   2.0000      -1.362641       -37.0793
  27   2.0000      -1.339896       -36.4604
  28   2.0000      -1.239353       -33.7245
  29   2.0000      -1.162260       -31.6267
  30   2.0000      -1.125300       -30.6210
  31   2.0000      -1.048339       -28.5267
  32   2.0000      -1.035439       -28.1757
  33   2.0000      -1.020243       -27.7622
  34   2.0000      -1.003633       -27.3102
  35   2.0000      -0.989596       -26.9283
  36   2.0000      -0.925958       -25.1966
  37   2.0000      -0.890190       -24.2233
  38   2.0000      -0.850321       -23.1384
  39   2.0000      -0.842345       -22.9214
  40   2.0000      -0.838351       -22.8127
  41   2.0000      -0.829781       -22.5795
  42   2.0000      -0.756793       -20.5934
  43   2.0000      -0.737188       -20.0599
  44   2.0000      -0.729856       -19.8604
  45   2.0000      -0.698870       -19.0172
  46   2.0000      -0.692317       -18.8389
  47   2.0000      -0.680251       -18.5106
  48   2.0000      -0.675610       -18.3843
  49   2.0000      -0.666088       -18.1252
  50   2.0000      -0.650902       -17.7119
  51   2.0000      -0.645036       -17.5523
  52   2.0000      -0.633956       -17.2508
  53   2.0000      -0.611432       -16.6379
  54   2.0000      -0.605187       -16.4680
  55   2.0000      -0.603867       -16.4321
  56   2.0000      -0.597690       -16.2640
  57   2.0000      -0.587532       -15.9875
  58   2.0000      -0.581667       -15.8280
  59   2.0000      -0.577662       -15.7190
  60   2.0000      -0.565470       -15.3872
  61   2.0000      -0.557799       -15.1785
  62   2.0000      -0.539812       -14.6890
  63   2.0000      -0.525573       -14.3016
  64   2.0000      -0.520311       -14.1584
  65   2.0000      -0.514371       -13.9967
  66   2.0000      -0.502886       -13.6842
  67   2.0000      -0.498750       -13.5717
  68   2.0000      -0.486443       -13.2368
  69   2.0000      -0.464544       -12.6409
  70   2.0000      -0.457943       -12.4613
  71   2.0000      -0.453401       -12.3377
  72   2.0000      -0.356562        -9.7026
  73   2.0000      -0.348196        -9.4749
  74   2.0000      -0.329285        -8.9603
  75   2.0000      -0.325976        -8.8703
  76   2.0000      -0.319751        -8.7009
  77   0.0000       0.082979         2.2580
  78   0.0000       0.101413         2.7596
  79   0.0000       0.121008         3.2928
  80   0.0000       0.128206         3.4887
  81   0.0000       0.129964         3.5365

MULLIKEN ATOMIC CHARGES
-----------------------
   0 C :   -0.314016
   1 C :    0.034324
   2 O :   -0.342757
   3 C :    0.407766
   4 O :   -0.358254
   5 C :   -0.202980
   6 C :    0.144374
   7 C :   -0.289574
   8 N :   -0.133166
   9 C :    0.214409
  10 S :   -0.440303
  11 N :   -0.231581
  12 C :    0.045472
  13 C :    0.020123
  14 C :   -0.195029
  15 C :   -0.140044
  16 C :   -0.275826
  17 C :    0.316582
  18 O :   -0.356256
  19 C :   -0.233334
  20 H :    0.116277
  21 H :    0.115327
  22 H :    0.103476
  23 H :    0.122818
  24 H :    0.080798
  25 H :    0.145505
  26 H :    0.100563
  27 H :    0.112784
  28 H :    0.197089
  29 H :    0.205223
  30 H :    0.161952
  31 H :    0.152553
  32 H :    0.163735
  33 H :    0.133144
  34 H :    0.241219
  35 H :    0.177607
Sum of atomic charges:   -0.0000000

LOEWDIN ATOMIC CHARGES
----------------------
   0 C :    0.103301
   1 C :   -0.019556
   2 O :    0.293004
   3 C :   -0.422058
   4 O :    0.139418
   5 C :   -0.090845
   6 C :   -0.084087
   7 C :    0.128717
   8 N :    0.404817
   9 C :   -0.455040
  10 S :   -0.035973
  11 N :    0.396460
  12 C :   -0.052974
  13 C :   -0.041671
  14 C :    0.020229
  15 C :    0.042350
  16 C :   -0.000456
  17 C :   -0.191380
  18 O :    0.396666
  19 C :    0.032721
  20 H :   -0.021573
  21 H :   -0.026455
  22 H :   -0.035574
  23 H :   -0.019940
  24 H :   -0.035498
  25 H :   -0.003421
  26 H :   -0.019840
  27 H :   -0.014364
  28 H :   -0.058518
  29 H :   -0.063933
  30 H :   -0.008789
  31 H :   -0.026221
  32 H :   -0.019043
  33 H :   -0.034405
  34 H :   -0.153096
  35 H :   -0.022973

  Mayer bond orders larger than 0.100000
B(  0-C ,  1-C ) :   0.9665 B(  0-C , 20-H ) :   0.9702 B(  0-C , 21-H ) :   0.9764
B(  0-C , 22-H ) :   0.9699 B(  1-C ,  2-O ) :   0.8971 B(  1-C , 23-H ) :   0.9842
B(  1-C , 24-H ) :   0.9798 B(  2-O ,  3-C ) :   1.1309 B(  3-C ,  4-O ) :   2.1414
B(  3-C ,  5-C ) :   0.9225 B(  5-C ,  6-C ) :   1.6925 B(  5-C , 12-C ) :   0.9511
B(  6-C ,  7-C ) :   0.9416 B(  6-C ,  8-N ) :   1.1224 B(  7-C , 25-H ) :   0.9582
B(  7-C , 26-H ) :   0.9852 B(  7-C , 27-H ) :   0.9777 B(  8-N ,  9-C ) :   1.1988
B(  8-N , 28-H ) :   0.9495 B(  9-C , 10-S ) :   1.6111 B(  9-C , 11-N ) :   1.2878
B( 11-N , 12-C ) :   0.9721 B( 11-N , 29-H ) :   0.9450 B( 12-C , 13-C ) :   0.9596
B( 12-C , 30-H ) :   1.0008 B( 13-C , 14-C ) :   1.3749 B( 13-C , 19-C ) :   1.3458
B( 14-C , 15-C ) :   1.4038 B( 14-C , 31-H ) :   0.9715 B( 15-C , 16-C ) :   1.3551
B( 15-C , 32-H ) :   0.9703 B( 16-C , 17-C ) :   1.3328 B( 16-C , 33-H ) :   0.9844
B( 17-C , 18-O ) :   1.1088 B( 17-C , 19-C ) :   1.3629 B( 18-O , 34-H ) :   0.9792
B( 19-C , 35-H ) :   0.9560

MP2 TOTAL ENERGY:    -1274.314834906 Eh
FINAL SINGLE POINT ENERGY     -1274.314834905720

DIPOLE MOMENT
-------------
                                X             Y             Z
Electronic contribution:      8.77633       7.94189       6.19221
Nuclear contribution   :    -10.27284      -9.54394      -6.45440
                        -----------------------------------------
Total Dipole Moment    :     -1.49651      -1.60205      -0.26219
                        -----------------------------------------
Magnitude (a.u.)       :      2.20790
Magnitude (Debye)      :      5.61205

Rotational constants in cm-1:     0.012135     0.009178     0.006237
Rotational constants in MHz :   363.803586   275.163821   186.984423

                             ****ORCA TERMINATED NORMALLY****
TOTAL RUN TIME: 0 days 1 hours 46 minutes 42 seconds 635 msec
