                         Program Version 4.2.0 -  RELEASE  -
|  1> ! ri-mp2 cc-pvtz cc-pvtz/c TightSCF NoKeepInts
|  2>
|  3> %scf
|  4>   MaxCore 4096
|  5> end
|  6> *xyz  0  1
|  7>     C       14.0897346   15.1276193   14.8996049
|  8>     C       14.9395598   16.2559388   15.5059476
|  9>     O       16.2428239   16.1805833   14.8984488
| 10>     C       17.3470085   16.4322960   15.6627668
| 11>     O       18.3014509   15.6771011   15.6728540
| 12>     C       17.2641606   17.6442709   16.5366105
| 13>     C       16.9544159   18.8593780   16.0194869
| 14>     C       16.4760536   19.1672514   14.6139219
| 15>     N       17.1547198   20.0226783   16.7655080
| 16>     C       17.8782553   20.0768126   17.9274997
| 17>     S       18.1728989   21.5064132   18.7044035
| 18>     N       18.3658390   18.8836151   18.4009215
| 19>     C       18.0392036   17.5526350   17.8514514
| 20>     C       17.3915306   16.6008145   18.8463057
| 21>     C       17.8446650   15.2741803   18.9569541
| 22>     C       17.2360807   14.3844944   19.8578522
| 23>     C       16.1634698   14.8247826   20.6522333
| 24>     C       15.7057434   16.1447134   20.5388786
| 25>     O       14.6636589   16.5697032   21.2965658
| 26>     C       16.3124861   17.0279098   19.6399421
| 27>     H       14.5521679   14.1510378   15.0918602
| 28>     H       13.9935911   15.2557600   13.8141904
| 29>     H       13.0838658   15.1232746   15.3367906
| 30>     H       14.4702088   17.2293845   15.3214551
| 31>     H       15.0058987   16.0964469   16.5917361
| 32>     H       16.8609558   18.4458943   13.8822923
| 33>     H       16.8204729   20.1530984   14.2764149
| 34>     H       15.3818614   19.1616332   14.5547174
| 35>     H       16.8327202   20.9100064   16.4121948
| 36>     H       18.8905001   18.9500318   19.2642948
| 37>     H       19.0455440   17.1976547   17.5829897
| 38>     H       18.6654404   14.9288318   18.3313501
| 39>     H       17.5939716   13.3589892   19.9334089
| 40>     H       15.6898602   14.1400782   21.3480796
| 41>     H       14.4134764   15.8393569   21.8825733
| 42>     H       15.9427058   18.0453301   19.5654944
| 43> *
| 44>
| 45>                          ****END OF INPUT****

CARTESIAN COORDINATES (ANGSTROEM)
---------------------------------
  C     14.089735   15.127619   14.899605
  C     14.939560   16.255939   15.505948
  O     16.242824   16.180583   14.898449
  C     17.347009   16.432296   15.662767
  O     18.301451   15.677101   15.672854
  C     17.264161   17.644271   16.536610
  C     16.954416   18.859378   16.019487
  C     16.476054   19.167251   14.613922
  N     17.154720   20.022678   16.765508
  C     17.878255   20.076813   17.927500
  S     18.172899   21.506413   18.704404
  N     18.365839   18.883615   18.400921
  C     18.039204   17.552635   17.851451
  C     17.391531   16.600814   18.846306
  C     17.844665   15.274180   18.956954
  C     17.236081   14.384494   19.857852
  C     16.163470   14.824783   20.652233
  C     15.705743   16.144713   20.538879
  O     14.663659   16.569703   21.296566
  C     16.312486   17.027910   19.639942
  H     14.552168   14.151038   15.091860
  H     13.993591   15.255760   13.814190
  H     13.083866   15.123275   15.336791
  H     14.470209   17.229384   15.321455
  H     15.005899   16.096447   16.591736
  H     16.860956   18.445894   13.882292
  H     16.820473   20.153098   14.276415
  H     15.381861   19.161633   14.554717
  H     16.832720   20.910006   16.412195
  H     18.890500   18.950032   19.264295
  H     19.045544   17.197655   17.582990
  H     18.665440   14.928832   18.331350
  H     17.593972   13.358989   19.933409
  H     15.689860   14.140078   21.348080
  H     14.413476   15.839357   21.882573
  H     15.942706   18.045330   19.565494

 Total Charge           Charge          ....    0
 Multiplicity           Mult            ....    1
 Number of Electrons    NEL             ....  154
 Basis Dimension        Dim             ....  828

ORBITAL ENERGIES
----------------

  NO   OCC          E(Eh)            E(eV)
   0   2.0000     -91.890036     -2500.4550
   1   2.0000     -20.598391      -560.5107
   2   2.0000     -20.598357      -560.5098
   3   2.0000     -20.552826      -559.2708
   4   2.0000     -15.629090      -425.2892
   5   2.0000     -15.608947      -424.7410
   6   2.0000     -11.396790      -310.1224
   7   2.0000     -11.385606      -309.8181
   8   2.0000     -11.336755      -308.4888
   9   2.0000     -11.315399      -307.9077
  10   2.0000     -11.308342      -307.7156
  11   2.0000     -11.306975      -307.6784
  12   2.0000     -11.265288      -306.5441
  13   2.0000     -11.262761      -306.4753
  14   2.0000     -11.262592      -306.4707
  15   2.0000     -11.255439      -306.2761
  16   2.0000     -11.244785      -305.9862
  17   2.0000     -11.240974      -305.8825
  18   2.0000     -11.237724      -305.7940
  19   2.0000     -11.233557      -305.6806
  20   2.0000      -8.895134      -242.0489
  21   2.0000      -6.576713      -178.9615
  22   2.0000      -6.574704      -178.9068
  23   2.0000      -6.574119      -178.8909
  24   2.0000      -1.451779       -39.5049
  25   2.0000      -1.418128       -38.5892
  26   2.0000      -1.363346       -37.0985
  27   2.0000      -1.341426       -36.5021
  28   2.0000      -1.239294       -33.7229
  29   2.0000      -1.159696       -31.5569
  30   2.0000      -1.125117       -30.6160
  31   2.0000      -1.047382       -28.5007
  32   2.0000      -1.039885       -28.2967
  33   2.0000      -1.017433       -27.6858
  34   2.0000      -1.004750       -27.3406
  35   2.0000      -0.988705       -26.9040
  36   2.0000      -0.925564       -25.1859
  37   2.0000      -0.880335       -23.9551
  38   2.0000      -0.855595       -23.2819
  39   2.0000      -0.842698       -22.9310
  40   2.0000      -0.836766       -22.7696
  41   2.0000      -0.834764       -22.7151
  42   2.0000      -0.757964       -20.6252
  43   2.0000      -0.738793       -20.1036
  44   2.0000      -0.731550       -19.9065
  45   2.0000      -0.695984       -18.9387
  46   2.0000      -0.688441       -18.7334
  47   2.0000      -0.682662       -18.5762
  48   2.0000      -0.675209       -18.3734
  49   2.0000      -0.663860       -18.0645
  50   2.0000      -0.656722       -17.8703
  51   2.0000      -0.647654       -17.6236
  52   2.0000      -0.639576       -17.4038
  53   2.0000      -0.611489       -16.6395
  54   2.0000      -0.605566       -16.4783
  55   2.0000      -0.601998       -16.3812
  56   2.0000      -0.597380       -16.2555
  57   2.0000      -0.582794       -15.8586
  58   2.0000      -0.576915       -15.6987
  59   2.0000      -0.567533       -15.4434
  60   2.0000      -0.563348       -15.3295
  61   2.0000      -0.559739       -15.2313
  62   2.0000      -0.548875       -14.9356
  63   2.0000      -0.524850       -14.2819
  64   2.0000      -0.517726       -14.0880
  65   2.0000      -0.514271       -13.9940
  66   2.0000      -0.502278       -13.6677
  67   2.0000      -0.500290       -13.6136
  68   2.0000      -0.489859       -13.3297
  69   2.0000      -0.471368       -12.8266
  70   2.0000      -0.458799       -12.4846
  71   2.0000      -0.452311       -12.3080
  72   2.0000      -0.356588        -9.7032
  73   2.0000      -0.350775        -9.5451
  74   2.0000      -0.329382        -8.9629
  75   2.0000      -0.322845        -8.7851
  76   2.0000      -0.319832        -8.7031
  77   0.0000       0.079202         2.1552
  78   0.0000       0.104625         2.8470
  79   0.0000       0.117333         3.1928
  80   0.0000       0.131054         3.5662
  81   0.0000       0.132611         3.6085

MULLIKEN ATOMIC CHARGES
-----------------------
   0 C :   -0.252740
   1 C :    0.022563
   2 O :   -0.329687
   3 C :    0.429618
   4 O :   -0.377331
   5 C :   -0.221544
   6 C :    0.148562
   7 C :   -0.319035
   8 N :   -0.135878
   9 C :    0.207241
  10 S :   -0.441442
  11 N :   -0.218351
  12 C :    0.062153
  13 C :    0.021940
  14 C :   -0.207545
  15 C :   -0.129182
  16 C :   -0.277212
  17 C :    0.313862
  18 O :   -0.356723
  19 C :   -0.250644
  20 H :    0.107009
  21 H :    0.097300
  22 H :    0.088984
  23 H :    0.084961
  24 H :    0.105682
  25 H :    0.139890
  26 H :    0.120509
  27 H :    0.122045
  28 H :    0.198171
  29 H :    0.201283
  30 H :    0.163556
  31 H :    0.174269
  32 H :    0.163879
  33 H :    0.131433
  34 H :    0.241121
  35 H :    0.171283
Sum of atomic charges:   -0.0000000

LOEWDIN ATOMIC CHARGES
----------------------
   0 C :    0.111089
   1 C :   -0.024222
   2 O :    0.303183
   3 C :   -0.420178
   4 O :    0.124677
   5 C :   -0.090618
   6 C :   -0.080017
   7 C :    0.127611
   8 N :    0.403662
   9 C :   -0.457320
  10 S :   -0.037120
  11 N :    0.395888
  12 C :   -0.049361
  13 C :   -0.044213
  14 C :    0.021035
  15 C :    0.043674
  16 C :   -0.000372
  17 C :   -0.192629
  18 O :    0.394414
  19 C :    0.027001
  20 H :   -0.021335
  21 H :   -0.026278
  22 H :   -0.025602
  23 H :   -0.037901
  24 H :   -0.027532
  25 H :   -0.006964
  26 H :   -0.014210
  27 H :   -0.017837
  28 H :   -0.057481
  29 H :   -0.063566
  30 H :   -0.005130
  31 H :   -0.021506
  32 H :   -0.019042
  33 H :   -0.035028
  34 H :   -0.153397
  35 H :   -0.023377

  Mayer bond orders larger than 0.100000
B(  0-C ,  1-C ) :   0.9829 B(  0-C , 20-H ) :   0.9770 B(  0-C , 21-H ) :   0.9786
B(  0-C , 22-H ) :   0.9762 B(  1-C ,  2-O ) :   0.9004 B(  1-C , 23-H ) :   0.9724
B(  1-C , 24-H ) :   0.9687 B(  2-O ,  3-C ) :   1.1514 B(  3-C ,  4-O ) :   2.0906
B(  3-C ,  5-C ) :   0.9464 B(  5-C ,  6-C ) :   1.7019 B(  5-C , 12-C ) :   0.9416
B(  6-C ,  7-C ) :   0.9376 B(  6-C ,  8-N ) :   1.1194 B(  7-C , 25-H ) :   0.9693
B(  7-C , 26-H ) :   0.9829 B(  7-C , 27-H ) :   0.9671 B(  8-N ,  9-C ) :   1.1922
B(  8-N , 28-H ) :   0.9499 B(  9-C , 10-S ) :   1.6114 B(  9-C , 11-N ) :   1.2945
B( 11-N , 12-C ) :   0.9844 B( 11-N , 29-H ) :   0.9482 B( 12-C , 13-C ) :   0.9680
B( 12-C , 30-H ) :   0.9910 B( 13-C , 14-C ) :   1.3852 B( 13-C , 19-C ) :   1.3551
B( 14-C , 15-C ) :   1.3942 B( 14-C , 31-H ) :   0.9591 B( 15-C , 16-C ) :   1.3613
B( 15-C , 32-H ) :   0.9702 B( 16-C , 17-C ) :   1.3315 B( 16-C , 33-H ) :   0.9848
B( 17-C , 18-O ) :   1.1082 B( 17-C , 19-C ) :   1.3657 B( 18-O , 34-H ) :   0.9795
B( 19-C , 35-H ) :   0.9574

MP2 TOTAL ENERGY:    -1274.330666614 Eh
FINAL SINGLE POINT ENERGY     -1274.330666614106

DIPOLE MOMENT
-------------
                                X             Y             Z
Electronic contribution:     10.39006       8.91967       8.83137
Nuclear contribution   :    -11.99425     -10.03816      -9.21545
                        -----------------------------------------
Total Dipole Moment    :     -1.60418      -1.11848      -0.38408
                        -----------------------------------------
Magnitude (a.u.)       :      1.99297
Magnitude (Debye)      :      5.06573

Rotational constants in cm-1:     0.010528     0.009184     0.006128
Rotational constants in MHz :   315.635393   275.327053   183.722994

                             ****ORCA TERMINATED NORMALLY****
TOTAL RUN TIME: 0 days 1 hours 38 minutes 47 seconds 489 msec
