                         Program Version 4.2.0 -  RELEASE  -
|  1> ! ri-mp2 cc-pvtz cc-pvtz/c TightSCF NoKeepInts
|  2>
|  3> %scf
|  4>   MaxCore 4096
|  5> end
|  6> *xyz  0  1
|  7>     C       14.6993590   14.7027705   15.0439588
|  8>     C       14.9936691   15.9180634   14.1345167
|  9>     O       15.7903640   16.9462149   14.7721867
| 10>     C       16.7559708   16.7112823   15.7126538
| 11>     O       17.3511176   15.6508390   15.8028968
| 12>     C       17.0091830   17.8545039   16.6565453
| 13>     C       16.8101615   19.1568813   16.3188155
| 14>     C       16.1099988   19.7099336   15.0927838
| 15>     N       17.3094224   20.1857404   17.1219766
| 16>     C       18.1942203   20.0076477   18.1507466
| 17>     S       18.8265199   21.2854544   18.9892400
| 18>     N       18.5454049   18.7127961   18.4350708
| 19>     C       17.9400609   17.5120263   17.8274168
| 20>     C       17.3073669   16.5774307   18.8503632
| 21>     C       17.6919155   15.2264027   18.9221043
| 22>     C       17.1065875   14.3657071   19.8657780
| 23>     C       16.1292957   14.8608152   20.7461805
| 24>     C       15.7428205   16.2063571   20.6754691
| 25>     O       14.7962592   16.6858743   21.5213049
| 26>     C       16.3267886   17.0603614   19.7344199
| 27>     H       15.5734680   14.0470166   15.1380966
| 28>     H       13.8876708   14.1010566   14.6178263
| 29>     H       14.3908773   15.0256165   16.0462787
| 30>     H       15.5192967   15.5585187   13.2401868
| 31>     H       14.0461935   16.3616891   13.8028035
| 32>     H       15.0553320   19.4079888   15.0794503
| 33>     H       16.5818885   19.3392696   14.1741891
| 34>     H       16.1342641   20.8054628   15.0454549
| 35>     H       17.0780265   21.1433702   16.9118729
| 36>     H       19.1824053   18.6063797   19.2144302
| 37>     H       18.8305638   17.0490517   17.3777146
| 38>     H       18.4363820   14.8395533   18.2301390
| 39>     H       17.4074779   13.3204598   19.9072389
| 40>     H       15.6736561   14.1992361   21.4752884
| 41>     H       14.5360808   15.9589154   22.1066075
| 42>     H       16.0169305   18.0993125   19.6959940
| 43> *
| 44>
| 45>                          ****END OF INPUT****

CARTESIAN COORDINATES (ANGSTROEM)
---------------------------------
  C     14.699359   14.702770   15.043959
  C     14.993669   15.918063   14.134517
  O     15.790364   16.946215   14.772187
  C     16.755971   16.711282   15.712654
  O     17.351118   15.650839   15.802897
  C     17.009183   17.854504   16.656545
  C     16.810161   19.156881   16.318815
  C     16.109999   19.709934   15.092784
  N     17.309422   20.185740   17.121977
  C     18.194220   20.007648   18.150747
  S     18.826520   21.285454   18.989240
  N     18.545405   18.712796   18.435071
  C     17.940061   17.512026   17.827417
  C     17.307367   16.577431   18.850363
  C     17.691916   15.226403   18.922104
  C     17.106587   14.365707   19.865778
  C     16.129296   14.860815   20.746180
  C     15.742820   16.206357   20.675469
  O     14.796259   16.685874   21.521305
  C     16.326789   17.060361   19.734420
  H     15.573468   14.047017   15.138097
  H     13.887671   14.101057   14.617826
  H     14.390877   15.025616   16.046279
  H     15.519297   15.558519   13.240187
  H     14.046193   16.361689   13.802803
  H     15.055332   19.407989   15.079450
  H     16.581889   19.339270   14.174189
  H     16.134264   20.805463   15.045455
  H     17.078026   21.143370   16.911873
  H     19.182405   18.606380   19.214430
  H     18.830564   17.049052   17.377715
  H     18.436382   14.839553   18.230139
  H     17.407478   13.320460   19.907239
  H     15.673656   14.199236   21.475288
  H     14.536081   15.958915   22.106607
  H     16.016931   18.099312   19.695994

 Total Charge           Charge          ....    0
 Multiplicity           Mult            ....    1
 Number of Electrons    NEL             ....  154
 Basis Dimension        Dim             ....  828

ORBITAL ENERGIES
----------------

  NO   OCC          E(Eh)            E(eV)
   0   2.0000     -91.887346     -2500.3818
   1   2.0000     -20.599019      -560.5278
   2   2.0000     -20.591834      -560.3323
   3   2.0000     -20.544899      -559.0551
   4   2.0000     -15.627617      -425.2491
   5   2.0000     -15.605120      -424.6369
   6   2.0000     -11.397252      -310.1350
   7   2.0000     -11.381840      -309.7156
   8   2.0000     -11.337039      -308.4965
   9   2.0000     -11.307841      -307.7020
  10   2.0000     -11.305708      -307.6440
  11   2.0000     -11.303570      -307.5858
  12   2.0000     -11.260367      -306.4102
  13   2.0000     -11.257919      -306.3435
  14   2.0000     -11.254941      -306.2625
  15   2.0000     -11.247917      -306.0714
  16   2.0000     -11.238113      -305.8046
  17   2.0000     -11.234164      -305.6972
  18   2.0000     -11.230868      -305.6075
  19   2.0000     -11.226131      -305.4786
  20   2.0000      -8.892436      -241.9755
  21   2.0000      -6.574016      -178.8881
  22   2.0000      -6.572011      -178.8335
  23   2.0000      -6.571425      -178.8176
  24   2.0000      -1.448095       -39.4047
  25   2.0000      -1.411587       -38.4112
  26   2.0000      -1.356054       -36.9001
  27   2.0000      -1.339088       -36.4384
  28   2.0000      -1.236364       -33.6432
  29   2.0000      -1.152232       -31.3538
  30   2.0000      -1.119719       -30.4691
  31   2.0000      -1.042045       -28.3555
  32   2.0000      -1.033571       -28.1249
  33   2.0000      -1.009815       -27.4785
  34   2.0000      -0.997988       -27.1566
  35   2.0000      -0.982818       -26.7438
  36   2.0000      -0.920689       -25.0532
  37   2.0000      -0.897336       -24.4178
  38   2.0000      -0.847368       -23.0581
  39   2.0000      -0.835014       -22.7219
  40   2.0000      -0.828071       -22.5330
  41   2.0000      -0.816770       -22.2254
  42   2.0000      -0.744582       -20.2611
  43   2.0000      -0.731389       -19.9021
  44   2.0000      -0.725536       -19.7428
  45   2.0000      -0.689630       -18.7658
  46   2.0000      -0.684864       -18.6361
  47   2.0000      -0.677894       -18.4464
  48   2.0000      -0.670202       -18.2371
  49   2.0000      -0.660564       -17.9749
  50   2.0000      -0.649989       -17.6871
  51   2.0000      -0.643364       -17.5068
  52   2.0000      -0.630940       -17.1687
  53   2.0000      -0.616578       -16.7779
  54   2.0000      -0.602712       -16.4006
  55   2.0000      -0.598056       -16.2739
  56   2.0000      -0.595152       -16.1949
  57   2.0000      -0.576490       -15.6871
  58   2.0000      -0.573366       -15.6021
  59   2.0000      -0.564928       -15.3725
  60   2.0000      -0.556618       -15.1464
  61   2.0000      -0.544543       -14.8178
  62   2.0000      -0.538042       -14.6409
  63   2.0000      -0.524612       -14.2754
  64   2.0000      -0.514975       -14.0132
  65   2.0000      -0.510058       -13.8794
  66   2.0000      -0.500615       -13.6224
  67   2.0000      -0.493790       -13.4367
  68   2.0000      -0.479247       -13.0410
  69   2.0000      -0.463728       -12.6187
  70   2.0000      -0.456088       -12.4108
  71   2.0000      -0.448110       -12.1937
  72   2.0000      -0.352174        -9.5831
  73   2.0000      -0.344509        -9.3746
  74   2.0000      -0.326490        -8.8842
  75   2.0000      -0.316499        -8.6124
  76   2.0000      -0.314436        -8.5562
  77   0.0000       0.077765         2.1161
  78   0.0000       0.111452         3.0328
  79   0.0000       0.122130         3.3233
  80   0.0000       0.135821         3.6959
  81   0.0000       0.140772         3.8306

MULLIKEN ATOMIC CHARGES
-----------------------
   0 C :   -0.309664
   1 C :    0.052647
   2 O :   -0.356319
   3 C :    0.431834
   4 O :   -0.422361
   5 C :   -0.173933
   6 C :    0.156491
   7 C :   -0.279641
   8 N :   -0.128406
   9 C :    0.207883
  10 S :   -0.443547
  11 N :   -0.211197
  12 C :    0.043738
  13 C :    0.032577
  14 C :   -0.171290
  15 C :   -0.134042
  16 C :   -0.277541
  17 C :    0.314580
  18 O :   -0.358917
  19 C :   -0.253157
  20 H :    0.127960
  21 H :    0.097362
  22 H :    0.100953
  23 H :    0.093098
  24 H :    0.099437
  25 H :    0.127810
  26 H :    0.125837
  27 H :    0.101293
  28 H :    0.198643
  29 H :    0.199856
  30 H :    0.156156
  31 H :    0.159801
  32 H :    0.159961
  33 H :    0.128313
  34 H :    0.239894
  35 H :    0.163890
Sum of atomic charges:   -0.0000000

LOEWDIN ATOMIC CHARGES
----------------------
   0 C :    0.105140
   1 C :   -0.009849
   2 O :    0.294673
   3 C :   -0.414876
   4 O :    0.110422
   5 C :   -0.091594
   6 C :   -0.064442
   7 C :    0.124756
   8 N :    0.405265
   9 C :   -0.458728
  10 S :   -0.038577
  11 N :    0.396538
  12 C :   -0.048298
  13 C :   -0.040645
  14 C :    0.024574
  15 C :    0.040552
  16 C :   -0.001399
  17 C :   -0.192715
  18 O :    0.393099
  19 C :    0.029501
  20 H :   -0.024286
  21 H :   -0.027034
  22 H :   -0.026026
  23 H :   -0.029364
  24 H :   -0.025734
  25 H :   -0.009682
  26 H :   -0.009110
  27 H :   -0.021578
  28 H :   -0.058921
  29 H :   -0.063220
  30 H :   -0.008481
  31 H :   -0.023992
  32 H :   -0.021124
  33 H :   -0.036197
  34 H :   -0.154898
  35 H :   -0.023748

  Mayer bond orders larger than 0.100000
B(  0-C ,  1-C ) :   0.9632 B(  0-C , 20-H ) :   0.9721 B(  0-C , 21-H ) :   0.9753
B(  0-C , 22-H ) :   0.9742 B(  1-C ,  2-O ) :   0.9043 B(  1-C , 23-H ) :   0.9819
B(  1-C , 24-H ) :   0.9822 B(  2-O ,  3-C ) :   1.1355 B(  3-C ,  4-O ) :   1.9827
B(  3-C ,  5-C ) :   1.0341 B(  5-C ,  6-C ) :   1.6580 B(  5-C , 12-C ) :   0.9491
B(  6-C ,  7-C ) :   0.9549 B(  6-C ,  8-N ) :   1.1372 B(  7-C , 25-H ) :   0.9640
B(  7-C , 26-H ) :   0.9649 B(  7-C , 27-H ) :   0.9913 B(  8-N ,  9-C ) :   1.1859
B(  8-N , 28-H ) :   0.9470 B(  9-C , 10-S ) :   1.6071 B(  9-C , 11-N ) :   1.3063
B( 11-N , 12-C ) :   0.9768 B( 11-N , 29-H ) :   0.9486 B( 12-C , 13-C ) :   0.9720
B( 12-C , 30-H ) :   0.9974 B( 13-C , 14-C ) :   1.3765 B( 13-C , 19-C ) :   1.3657
B( 14-C , 15-C ) :   1.3969 B( 14-C , 31-H ) :   0.9634 B( 15-C , 16-C ) :   1.3587
B( 15-C , 32-H ) :   0.9712 B( 16-C , 17-C ) :   1.3333 B( 16-C , 33-H ) :   0.9859
B( 17-C , 18-O ) :   1.1036 B( 17-C , 19-C ) :   1.3669 B( 18-O , 34-H ) :   0.9806
B( 19-C , 35-H ) :   0.9600

MP2 TOTAL ENERGY:    -1274.333870937 Eh
FINAL SINGLE POINT ENERGY     -1274.333870937341

DIPOLE MOMENT
-------------
                                X             Y             Z
Electronic contribution:      9.30638      10.37036      10.15516
Nuclear contribution   :    -10.81244     -11.65649     -11.29292
                        -----------------------------------------
Total Dipole Moment    :     -1.50607      -1.28613      -1.13776
                        -----------------------------------------
Magnitude (a.u.)       :      2.28404
Magnitude (Debye)      :      5.80557

Rotational constants in cm-1:     0.010182     0.009237     0.005693
Rotational constants in MHz :   305.233853   276.923694   170.669904

                             ****ORCA TERMINATED NORMALLY****
TOTAL RUN TIME: 0 days 1 hours 35 minutes 59 seconds 447 msec
