                         Program Version 4.2.0 -  RELEASE  -
|  1> ! ri-mp2 cc-pvtz cc-pvtz/c TightSCF NoKeepInts
|  2>
|  3> %scf
|  4>   MaxCore 4096
|  5> end
|  6> *xyz  0  1
|  7>     C       14.6802329   15.0919360   16.2292815
|  8>     C       15.8764810   14.8529108   15.2862739
|  9>     O       16.9217453   15.8084332   15.5529370
| 10>     C       16.7006330   17.1190455   15.2430008
| 11>     O       16.1968797   17.4366855   14.1794940
| 12>     C       16.9917601   18.0587458   16.3839850
| 13>     C       16.9293258   19.4033405   16.1977472
| 14>     C       16.3019797   20.1422163   15.0332597
| 15>     N       17.4811911   20.2869914   17.1279923
| 16>     C       18.3016898   19.9130257   18.1568638
| 17>     S       19.0158737   21.0207014   19.1561237
| 18>     N       18.5220053   18.5671530   18.3011397
| 19>     C       17.8344347   17.5024908   17.5461645
| 20>     C       17.1112035   16.5239812   18.4608952
| 21>     C       17.5876980   15.2104940   18.6274337
| 22>     C       16.9307444   14.3177753   19.4911631
| 23>     C       15.7923513   14.7442483   20.1969750
| 24>     C       15.3203014   16.0546709   20.0374088
| 25>     O       14.2216810   16.4688273   20.7171395
| 26>     C       15.9755630   16.9404525   19.1762028
| 27>     H       14.9757195   14.9558782   17.2749559
| 28>     H       13.8777831   14.3768222   16.0121492
| 29>     H       14.2714424   16.1027919   16.1089209
| 30>     H       16.2625404   13.8383923   15.4479359
| 31>     H       15.5501936   14.9265029   14.2397027
| 32>     H       16.8842366   19.9842388   14.1163765
| 33>     H       16.2296630   21.2236135   15.1986391
| 34>     H       15.2854623   19.7743378   14.8437563
| 35>     H       17.3493347   21.2794094   17.0151134
| 36>     H       19.1093205   18.3190991   19.0873241
| 37>     H       18.7019384   17.0208381   17.0729691
| 38>     H       18.4668393   14.8799617   18.0805186
| 39>     H       17.3046168   13.3025161   19.6123717
| 40>     H       15.2823244   14.0587396   20.8658346
| 41>     H       13.9389975   15.7387576   21.2882028
| 42>     H       15.6028128   17.9539752   19.0717478
| 43> *
| 44>
| 45>                          ****END OF INPUT****

CARTESIAN COORDINATES (ANGSTROEM)
---------------------------------
  C     14.680233   15.091936   16.229281
  C     15.876481   14.852911   15.286274
  O     16.921745   15.808433   15.552937
  C     16.700633   17.119045   15.243001
  O     16.196880   17.436685   14.179494
  C     16.991760   18.058746   16.383985
  C     16.929326   19.403340   16.197747
  C     16.301980   20.142216   15.033260
  N     17.481191   20.286991   17.127992
  C     18.301690   19.913026   18.156864
  S     19.015874   21.020701   19.156124
  N     18.522005   18.567153   18.301140
  C     17.834435   17.502491   17.546164
  C     17.111203   16.523981   18.460895
  C     17.587698   15.210494   18.627434
  C     16.930744   14.317775   19.491163
  C     15.792351   14.744248   20.196975
  C     15.320301   16.054671   20.037409
  O     14.221681   16.468827   20.717139
  C     15.975563   16.940452   19.176203
  H     14.975719   14.955878   17.274956
  H     13.877783   14.376822   16.012149
  H     14.271442   16.102792   16.108921
  H     16.262540   13.838392   15.447936
  H     15.550194   14.926503   14.239703
  H     16.884237   19.984239   14.116376
  H     16.229663   21.223613   15.198639
  H     15.285462   19.774338   14.843756
  H     17.349335   21.279409   17.015113
  H     19.109320   18.319099   19.087324
  H     18.701938   17.020838   17.072969
  H     18.466839   14.879962   18.080519
  H     17.304617   13.302516   19.612372
  H     15.282324   14.058740   20.865835
  H     13.938997   15.738758   21.288203
  H     15.602813   17.953975   19.071748

 Total Charge           Charge          ....    0
 Multiplicity           Mult            ....    1
 Number of Electrons    NEL             ....  154
 Basis Dimension        Dim             ....  828

ORBITAL ENERGIES
----------------

  NO   OCC          E(Eh)            E(eV)
   0   2.0000     -91.890305     -2500.4623
   1   2.0000     -20.599202      -560.5328
   2   2.0000     -20.589314      -560.2637
   3   2.0000     -20.543081      -559.0057
   4   2.0000     -15.630799      -425.3357
   5   2.0000     -15.608180      -424.7202
   6   2.0000     -11.393238      -310.0258
   7   2.0000     -11.384638      -309.7918
   8   2.0000     -11.339393      -308.5606
   9   2.0000     -11.316702      -307.9431
  10   2.0000     -11.309382      -307.7439
  11   2.0000     -11.295888      -307.3767
  12   2.0000     -11.263173      -306.4865
  13   2.0000     -11.259617      -306.3898
  14   2.0000     -11.258185      -306.3508
  15   2.0000     -11.252735      -306.2025
  16   2.0000     -11.246810      -306.0413
  17   2.0000     -11.241460      -305.8957
  18   2.0000     -11.241227      -305.8893
  19   2.0000     -11.222319      -305.3748
  20   2.0000      -8.895356      -242.0549
  21   2.0000      -6.576923      -178.9672
  22   2.0000      -6.574931      -178.9130
  23   2.0000      -6.574334      -178.8967
  24   2.0000      -1.448385       -39.4126
  25   2.0000      -1.418938       -38.6113
  26   2.0000      -1.351870       -36.7862
  27   2.0000      -1.342149       -36.5217
  28   2.0000      -1.239971       -33.7413
  29   2.0000      -1.160191       -31.5704
  30   2.0000      -1.122211       -30.5369
  31   2.0000      -1.044846       -28.4317
  32   2.0000      -1.032395       -28.0929
  33   2.0000      -1.017821       -27.6963
  34   2.0000      -0.998247       -27.1637
  35   2.0000      -0.986403       -26.8414
  36   2.0000      -0.923634       -25.1334
  37   2.0000      -0.893381       -24.3101
  38   2.0000      -0.847989       -23.0750
  39   2.0000      -0.840635       -22.8749
  40   2.0000      -0.836882       -22.7727
  41   2.0000      -0.815296       -22.1853
  42   2.0000      -0.753459       -20.5027
  43   2.0000      -0.735791       -20.0219
  44   2.0000      -0.722905       -19.6712
  45   2.0000      -0.697913       -18.9912
  46   2.0000      -0.689886       -18.7727
  47   2.0000      -0.676132       -18.3985
  48   2.0000      -0.671359       -18.2686
  49   2.0000      -0.664878       -18.0922
  50   2.0000      -0.647437       -17.6177
  51   2.0000      -0.642280       -17.4773
  52   2.0000      -0.636609       -17.3230
  53   2.0000      -0.609703       -16.5909
  54   2.0000      -0.608377       -16.5548
  55   2.0000      -0.601140       -16.3578
  56   2.0000      -0.601068       -16.3559
  57   2.0000      -0.579293       -15.7634
  58   2.0000      -0.570298       -15.5186
  59   2.0000      -0.566687       -15.4203
  60   2.0000      -0.553743       -15.0681
  61   2.0000      -0.546231       -14.8637
  62   2.0000      -0.538780       -14.6610
  63   2.0000      -0.528053       -14.3690
  64   2.0000      -0.525956       -14.3120
  65   2.0000      -0.514477       -13.9996
  66   2.0000      -0.502684       -13.6787
  67   2.0000      -0.499988       -13.6054
  68   2.0000      -0.477674       -12.9982
  69   2.0000      -0.464887       -12.6502
  70   2.0000      -0.452421       -12.3110
  71   2.0000      -0.445296       -12.1171
  72   2.0000      -0.354202        -9.6383
  73   2.0000      -0.352794        -9.6000
  74   2.0000      -0.329481        -8.9656
  75   2.0000      -0.324534        -8.8310
  76   2.0000      -0.319782        -8.7017
  77   0.0000       0.072564         1.9746
  78   0.0000       0.102271         2.7829
  79   0.0000       0.123009         3.3472
  80   0.0000       0.130607         3.5540
  81   0.0000       0.134931         3.6717

MULLIKEN ATOMIC CHARGES
-----------------------
   0 C :   -0.312883
   1 C :    0.023298
   2 O :   -0.372514
   3 C :    0.443732
   4 O :   -0.421545
   5 C :   -0.228535
   6 C :    0.170991
   7 C :   -0.265597
   8 N :   -0.125596
   9 C :    0.208658
  10 S :   -0.439137
  11 N :   -0.213491
  12 C :    0.057087
  13 C :    0.010786
  14 C :   -0.176430
  15 C :   -0.133487
  16 C :   -0.274215
  17 C :    0.303926
  18 O :   -0.358832
  19 C :   -0.219741
  20 H :    0.109240
  21 H :    0.110989
  22 H :    0.102127
  23 H :    0.111128
  24 H :    0.121949
  25 H :    0.131993
  26 H :    0.094343
  27 H :    0.131192
  28 H :    0.200150
  29 H :    0.200474
  30 H :    0.153892
  31 H :    0.156860
  32 H :    0.162000
  33 H :    0.132020
  34 H :    0.240978
  35 H :    0.164188
Sum of atomic charges:   -0.0000000

LOEWDIN ATOMIC CHARGES
----------------------
   0 C :    0.106250
   1 C :   -0.018320
   2 O :    0.296533
   3 C :   -0.420002
   4 O :    0.104151
   5 C :   -0.099668
   6 C :   -0.053523
   7 C :    0.131311
   8 N :    0.407894
   9 C :   -0.457602
  10 S :   -0.034348
  11 N :    0.395253
  12 C :   -0.053950
  13 C :   -0.040982
  14 C :    0.017776
  15 C :    0.038929
  16 C :   -0.001517
  17 C :   -0.191473
  18 O :    0.396290
  19 C :    0.034374
  20 H :   -0.026540
  21 H :   -0.025654
  22 H :   -0.027848
  23 H :   -0.024366
  24 H :   -0.028147
  25 H :   -0.004235
  26 H :   -0.023529
  27 H :   -0.004849
  28 H :   -0.056801
  29 H :   -0.063913
  30 H :   -0.012154
  31 H :   -0.027710
  32 H :   -0.020593
  33 H :   -0.034915
  34 H :   -0.153403
  35 H :   -0.022716

  Mayer bond orders larger than 0.100000
B(  0-C ,  1-C ) :   0.9569 B(  0-C , 20-H ) :   0.9707 B(  0-C , 21-H ) :   0.9782
B(  0-C , 22-H ) :   0.9748 B(  1-C ,  2-O ) :   0.8919 B(  1-C , 23-H ) :   0.9838
B(  1-C , 24-H ) :   0.9821 B(  2-O ,  3-C ) :   1.1201 B(  3-C ,  4-O ) :   1.9958
B(  3-C ,  5-C ) :   1.0677 B(  5-C ,  6-C ) :   1.6278 B(  5-C , 12-C ) :   0.9568
B(  6-C ,  7-C ) :   0.9673 B(  6-C ,  8-N ) :   1.1549 B(  7-C , 25-H ) :   0.9568
B(  7-C , 26-H ) :   0.9900 B(  7-C , 27-H ) :   0.9625 B(  8-N ,  9-C ) :   1.1854
B(  8-N , 28-H ) :   0.9464 B(  9-C , 10-S ) :   1.6100 B(  9-C , 11-N ) :   1.3083
B( 11-N , 12-C ) :   0.9674 B( 11-N , 29-H ) :   0.9486 B( 12-C , 13-C ) :   0.9580
B( 12-C , 30-H ) :   1.0033 B( 13-C , 14-C ) :   1.3569 B( 13-C , 19-C ) :   1.3805
B( 14-C , 15-C ) :   1.3912 B( 14-C , 31-H ) :   0.9700 B( 15-C , 16-C ) :   1.3557
B( 15-C , 32-H ) :   0.9713 B( 16-C , 17-C ) :   1.3343 B( 16-C , 33-H ) :   0.9849
B( 17-C , 18-O ) :   1.1065 B( 17-C , 19-C ) :   1.3649 B( 18-O , 34-H ) :   0.9794
B( 19-C , 35-H ) :   0.9590

MP2 TOTAL ENERGY:    -1274.336250636 Eh
FINAL SINGLE POINT ENERGY     -1274.336250635519

DIPOLE MOMENT
-------------
                                X             Y             Z
Electronic contribution:      8.84988       9.93252       6.12908
Nuclear contribution   :     -9.79677     -11.64458      -6.22107
                        -----------------------------------------
Total Dipole Moment    :     -0.94689      -1.71206      -0.09199
                        -----------------------------------------
Magnitude (a.u.)       :      1.95862
Magnitude (Debye)      :      4.97843

Rotational constants in cm-1:     0.012264     0.008847     0.006165
Rotational constants in MHz :   367.676186   265.216001   184.816694

                             ****ORCA TERMINATED NORMALLY****
TOTAL RUN TIME: 0 days 1 hours 59 minutes 7 seconds 218 msec
