                         Program Version 4.2.0 -  RELEASE  -
|  1> ! ri-mp2 cc-pvtz cc-pvtz/c TightSCF NoKeepInts
|  2>
|  3> %scf
|  4>   MaxCore 4096
|  5> end
|  6> *xyz  0  1
|  7>     C       14.3668756   14.8227328   14.5551791
|  8>     C       14.7518138   16.1076805   15.3069265
|  9>     O       16.0323909   16.5294435   14.8114602
| 10>     C       17.0663656   16.4987132   15.6946997
| 11>     O       17.7485879   15.5001350   15.8371438
| 12>     C       17.1838910   17.7082966   16.5739965
| 13>     C       16.9455513   18.9634168   16.1133027
| 14>     C       16.3421281   19.3601541   14.7804937
| 15>     N       17.3217990   20.0805300   16.8630126
| 16>     C       18.1329460   20.0342772   17.9651315
| 17>     S       18.6259802   21.4078311   18.7429581
| 18>     N       18.5323600   18.7879029   18.3778535
| 19>     C       18.0401394   17.5093119   17.8285309
| 20>     C       17.3766343   16.6146709   18.8667090
| 21>     C       17.7868069   15.2791575   19.0278178
| 22>     C       17.1678854   14.4513471   19.9793626
| 23>     C       16.1297846   14.9636078   20.7764037
| 24>     C       15.7166552   16.2932447   20.6152921
| 25>     O       14.7095607   16.7885180   21.3778099
| 26>     C       16.3337225   17.1144447   19.6661200
| 27>     H       15.1053547   14.0324937   14.7427793
| 28>     H       14.3230824   15.0039589   13.4740184
| 29>     H       13.3855149   14.4607346   14.8847615
| 30>     H       14.0012979   16.8847133   15.1133740
| 31>     H       14.7815810   15.9145489   16.3890523
| 32>     H       16.8478715   18.8461188   13.9529734
| 33>     H       16.4257572   20.4357254   14.5816186
| 34>     H       15.2777362   19.1003990   14.7396246
| 35>     H       17.0592576   21.0038947   16.5568445
| 36>     H       19.1172525   18.7806385   19.2041246
| 37>     H       18.9849651   17.0655531   17.4813412
| 38>     H       18.5792287   14.8776792   18.3999051
| 39>     H       17.4905877   13.4176585   20.0912051
| 40>     H       15.6482771   14.3269661   21.5112352
| 41>     H       14.4455851   16.0918814   21.9976535
| 42>     H       16.0017720   18.1416194   19.5572850
| 43> *
| 44>
| 45>                          ****END OF INPUT****

CARTESIAN COORDINATES (ANGSTROEM)
---------------------------------
  C     14.366876   14.822733   14.555179
  C     14.751814   16.107681   15.306926
  O     16.032391   16.529443   14.811460
  C     17.066366   16.498713   15.694700
  O     17.748588   15.500135   15.837144
  C     17.183891   17.708297   16.573996
  C     16.945551   18.963417   16.113303
  C     16.342128   19.360154   14.780494
  N     17.321799   20.080530   16.863013
  C     18.132946   20.034277   17.965131
  S     18.625980   21.407831   18.742958
  N     18.532360   18.787903   18.377853
  C     18.040139   17.509312   17.828531
  C     17.376634   16.614671   18.866709
  C     17.786807   15.279157   19.027818
  C     17.167885   14.451347   19.979363
  C     16.129785   14.963608   20.776404
  C     15.716655   16.293245   20.615292
  O     14.709561   16.788518   21.377810
  C     16.333723   17.114445   19.666120
  H     15.105355   14.032494   14.742779
  H     14.323082   15.003959   13.474018
  H     13.385515   14.460735   14.884761
  H     14.001298   16.884713   15.113374
  H     14.781581   15.914549   16.389052
  H     16.847872   18.846119   13.952973
  H     16.425757   20.435725   14.581619
  H     15.277736   19.100399   14.739625
  H     17.059258   21.003895   16.556845
  H     19.117252   18.780638   19.204125
  H     18.984965   17.065553   17.481341
  H     18.579229   14.877679   18.399905
  H     17.490588   13.417658   20.091205
  H     15.648277   14.326966   21.511235
  H     14.445585   16.091881   21.997653
  H     16.001772   18.141619   19.557285

 Total Charge           Charge          ....    0
 Multiplicity           Mult            ....    1
 Number of Electrons    NEL             ....  154
 Basis Dimension        Dim             ....  828

ORBITAL ENERGIES
----------------

  NO   OCC          E(Eh)            E(eV)
   0   2.0000     -91.890162     -2500.4584
   1   2.0000     -20.595406      -560.4295
   2   2.0000     -20.587291      -560.2087
   3   2.0000     -20.553702      -559.2947
   4   2.0000     -15.631068      -425.3430
   5   2.0000     -15.607818      -424.7103
   6   2.0000     -11.394423      -310.0580
   7   2.0000     -11.385008      -309.8018
   8   2.0000     -11.340383      -308.5875
   9   2.0000     -11.311752      -307.8084
  10   2.0000     -11.306408      -307.6630
  11   2.0000     -11.305902      -307.6492
  12   2.0000     -11.262783      -306.4759
  13   2.0000     -11.260567      -306.4156
  14   2.0000     -11.258880      -306.3697
  15   2.0000     -11.251606      -306.1718
  16   2.0000     -11.241689      -305.9019
  17   2.0000     -11.237986      -305.8012
  18   2.0000     -11.234360      -305.7025
  19   2.0000     -11.227816      -305.5244
  20   2.0000      -8.895236      -242.0517
  21   2.0000      -6.576808      -178.9641
  22   2.0000      -6.574808      -178.9096
  23   2.0000      -6.574216      -178.8935
  24   2.0000      -1.453144       -39.5421
  25   2.0000      -1.415163       -38.5085
  26   2.0000      -1.360629       -37.0246
  27   2.0000      -1.342033       -36.5186
  28   2.0000      -1.239085       -33.7172
  29   2.0000      -1.156159       -31.4607
  30   2.0000      -1.123167       -30.5629
  31   2.0000      -1.044956       -28.4347
  32   2.0000      -1.035607       -28.1803
  33   2.0000      -1.013781       -27.5864
  34   2.0000      -1.001992       -27.2656
  35   2.0000      -0.986670       -26.8487
  36   2.0000      -0.923526       -25.1304
  37   2.0000      -0.881533       -23.9877
  38   2.0000      -0.852441       -23.1961
  39   2.0000      -0.840621       -22.8745
  40   2.0000      -0.832381       -22.6502
  41   2.0000      -0.831173       -22.6174
  42   2.0000      -0.757041       -20.6001
  43   2.0000      -0.736339       -20.0368
  44   2.0000      -0.729341       -19.8464
  45   2.0000      -0.693593       -18.8736
  46   2.0000      -0.687687       -18.7129
  47   2.0000      -0.680550       -18.5187
  48   2.0000      -0.673211       -18.3190
  49   2.0000      -0.663647       -18.0587
  50   2.0000      -0.650131       -17.6910
  51   2.0000      -0.645724       -17.5710
  52   2.0000      -0.637037       -17.3347
  53   2.0000      -0.608073       -16.5465
  54   2.0000      -0.602189       -16.3864
  55   2.0000      -0.599142       -16.3035
  56   2.0000      -0.595203       -16.1963
  57   2.0000      -0.585937       -15.9442
  58   2.0000      -0.576653       -15.6915
  59   2.0000      -0.569104       -15.4861
  60   2.0000      -0.562869       -15.3164
  61   2.0000      -0.554039       -15.0762
  62   2.0000      -0.541076       -14.7234
  63   2.0000      -0.520403       -14.1609
  64   2.0000      -0.514972       -14.0131
  65   2.0000      -0.512275       -13.9397
  66   2.0000      -0.503128       -13.6908
  67   2.0000      -0.497046       -13.5253
  68   2.0000      -0.483880       -13.1670
  69   2.0000      -0.466810       -12.7025
  70   2.0000      -0.457882       -12.4596
  71   2.0000      -0.452721       -12.3192
  72   2.0000      -0.355727        -9.6798
  73   2.0000      -0.348139        -9.4733
  74   2.0000      -0.329209        -8.9582
  75   2.0000      -0.319605        -8.6969
  76   2.0000      -0.318510        -8.6671
  77   0.0000       0.072476         1.9722
  78   0.0000       0.107090         2.9141
  79   0.0000       0.119601         3.2545
  80   0.0000       0.133195         3.6244
  81   0.0000       0.138470         3.7679

MULLIKEN ATOMIC CHARGES
-----------------------
   0 C :   -0.254955
   1 C :    0.035617
   2 O :   -0.370664
   3 C :    0.453631
   4 O :   -0.387080
   5 C :   -0.221789
   6 C :    0.154949
   7 C :   -0.286969
   8 N :   -0.128047
   9 C :    0.206029
  10 S :   -0.439469
  11 N :   -0.212239
  12 C :    0.051941
  13 C :    0.029686
  14 C :   -0.182459
  15 C :   -0.132059
  16 C :   -0.277908
  17 C :    0.314467
  18 O :   -0.358286
  19 C :   -0.255852
  20 H :    0.110322
  21 H :    0.094564
  22 H :    0.086986
  23 H :    0.092727
  24 H :    0.095528
  25 H :    0.132682
  26 H :    0.107063
  27 H :    0.120893
  28 H :    0.198674
  29 H :    0.199962
  30 H :    0.157718
  31 H :    0.165367
  32 H :    0.161930
  33 H :    0.129987
  34 H :    0.240634
  35 H :    0.166417
Sum of atomic charges:   -0.0000000

LOEWDIN ATOMIC CHARGES
----------------------
   0 C :    0.108600
   1 C :   -0.020574
   2 O :    0.298482
   3 C :   -0.426930
   4 O :    0.126613
   5 C :   -0.097699
   6 C :   -0.066707
   7 C :    0.127135
   8 N :    0.405687
   9 C :   -0.458141
  10 S :   -0.035511
  11 N :    0.396124
  12 C :   -0.049105
  13 C :   -0.042483
  14 C :    0.023776
  15 C :    0.042035
  16 C :   -0.000947
  17 C :   -0.193388
  18 O :    0.393351
  19 C :    0.027618
  20 H :   -0.020857
  21 H :   -0.026467
  22 H :   -0.028291
  23 H :   -0.033168
  24 H :   -0.026753
  25 H :   -0.006274
  26 H :   -0.019391
  27 H :   -0.011903
  28 H :   -0.058152
  29 H :   -0.063295
  30 H :   -0.007025
  31 H :   -0.022803
  32 H :   -0.020076
  33 H :   -0.035581
  34 H :   -0.154086
  35 H :   -0.023812

  Mayer bond orders larger than 0.100000
B(  0-C ,  1-C ) :   0.9854 B(  0-C , 20-H ) :   0.9756 B(  0-C , 21-H ) :   0.9780
B(  0-C , 22-H ) :   0.9758 B(  1-C ,  2-O ) :   0.8880 B(  1-C , 23-H ) :   0.9778
B(  1-C , 24-H ) :   0.9687 B(  2-O ,  3-C ) :   1.0805 B(  3-C ,  4-O ) :   2.0523
B(  3-C ,  5-C ) :   1.0155 B(  5-C ,  6-C ) :   1.6712 B(  5-C , 12-C ) :   0.9493
B(  6-C ,  7-C ) :   0.9483 B(  6-C ,  8-N ) :   1.1362 B(  7-C , 25-H ) :   0.9651
B(  7-C , 26-H ) :   0.9892 B(  7-C , 27-H ) :   0.9671 B(  8-N ,  9-C ) :   1.1845
B(  8-N , 28-H ) :   0.9473 B(  9-C , 10-S ) :   1.6124 B(  9-C , 11-N ) :   1.3025
B( 11-N , 12-C ) :   0.9817 B( 11-N , 29-H ) :   0.9486 B( 12-C , 13-C ) :   0.9703
B( 12-C , 30-H ) :   0.9942 B( 13-C , 14-C ) :   1.3816 B( 13-C , 19-C ) :   1.3604
B( 14-C , 15-C ) :   1.3961 B( 14-C , 31-H ) :   0.9613 B( 15-C , 16-C ) :   1.3599
B( 15-C , 32-H ) :   0.9706 B( 16-C , 17-C ) :   1.3325 B( 16-C , 33-H ) :   0.9853
B( 17-C , 18-O ) :   1.1056 B( 17-C , 19-C ) :   1.3661 B( 18-O , 34-H ) :   0.9800
B( 19-C , 35-H ) :   0.9593

MP2 TOTAL ENERGY:    -1274.325813900 Eh
FINAL SINGLE POINT ENERGY     -1274.325813899772

DIPOLE MOMENT
-------------
                                X             Y             Z
Electronic contribution:     10.46816       9.84648       9.52099
Nuclear contribution   :    -12.02168     -10.91015     -10.06391
                        -----------------------------------------
Total Dipole Moment    :     -1.55352      -1.06367      -0.54292
                        -----------------------------------------
Magnitude (a.u.)       :      1.95949
Magnitude (Debye)      :      4.98062

Rotational constants in cm-1:     0.010293     0.009233     0.005885
Rotational constants in MHz :   308.573735   276.802334   176.441805

                             ****ORCA TERMINATED NORMALLY****
TOTAL RUN TIME: 0 days 1 hours 36 minutes 35 seconds 298 msec
