                         Program Version 4.2.0 -  RELEASE  -
|  1> ! ri-mp2 cc-pvtz cc-pvtz/c TightSCF NoKeepInts
|  2>
|  3> %scf
|  4>   MaxCore 4096
|  5> end
|  6> *xyz  0  1
|  7>     C       14.4266962   16.2633145   15.7525358
|  8>     C       15.5352544   15.2182829   16.0113222
|  9>     O       16.8060651   15.5923746   15.4244043
| 10>     C       17.2191295   16.8794027   15.2068104
| 11>     O       17.6437220   17.2048888   14.1133394
| 12>     C       17.1164110   17.8319257   16.3635000
| 13>     C       16.9154528   19.1466623   16.0982268
| 14>     C       16.3696055   19.7298221   14.8115917
| 15>     N       17.1946040   20.1316597   17.0466749
| 16>     C       17.9150995   19.9116948   18.1891271
| 17>     S       18.3253446   21.1398469   19.2177783
| 18>     N       18.3025652   18.6163607   18.4245011
| 19>     C       17.8653481   17.4391049   17.6487125
| 20>     C       17.2187963   16.3767462   18.5202349
| 21>     C       17.8078461   15.1063288   18.6580732
| 22>     C       17.2083478   14.1286484   19.4698891
| 23>     C       16.0161542   14.4266572   20.1525507
| 24>     C       15.4342929   15.6955565   20.0246494
| 25>     O       14.2823016   15.9851638   20.6795117
| 26>     C       16.0316728   16.6664468   19.2146815
| 27>     H       14.5542081   17.1554737   16.3759174
| 28>     H       13.4468697   15.8352161   15.9971853
| 29>     H       14.4071730   16.5625381   14.6967639
| 30>     H       15.6268326   15.0448488   17.0864448
| 31>     H       15.2269974   14.2620067   15.5693333
| 32>     H       15.6465977   19.0506398   14.3432376
| 33>     H       17.1816447   19.8877542   14.0895822
| 34>     H       15.8608928   20.6886291   14.9668801
| 35>     H       16.9549312   21.0922813   16.8590077
| 36>     H       18.8206588   18.4819757   19.2839017
| 37>     H       18.8464788   17.0863608   17.2990917
| 38>     H       18.7276417   14.8729263   18.1272817
| 39>     H       17.6678430   13.1462625   19.5683534
| 40>     H       15.5504287   13.6740076   20.7806352
| 41>     H       14.0609199   15.2220895   21.2348552
| 42>     H       15.5721725   17.6461012   19.1314138
| 43> *
| 44>
| 45>                          ****END OF INPUT****

CARTESIAN COORDINATES (ANGSTROEM)
---------------------------------
  C     14.426696   16.263314   15.752536
  C     15.535254   15.218283   16.011322
  O     16.806065   15.592375   15.424404
  C     17.219130   16.879403   15.206810
  O     17.643722   17.204889   14.113339
  C     17.116411   17.831926   16.363500
  C     16.915453   19.146662   16.098227
  C     16.369605   19.729822   14.811592
  N     17.194604   20.131660   17.046675
  C     17.915100   19.911695   18.189127
  S     18.325345   21.139847   19.217778
  N     18.302565   18.616361   18.424501
  C     17.865348   17.439105   17.648712
  C     17.218796   16.376746   18.520235
  C     17.807846   15.106329   18.658073
  C     17.208348   14.128648   19.469889
  C     16.016154   14.426657   20.152551
  C     15.434293   15.695557   20.024649
  O     14.282302   15.985164   20.679512
  C     16.031673   16.666447   19.214682
  H     14.554208   17.155474   16.375917
  H     13.446870   15.835216   15.997185
  H     14.407173   16.562538   14.696764
  H     15.626833   15.044849   17.086445
  H     15.226997   14.262007   15.569333
  H     15.646598   19.050640   14.343238
  H     17.181645   19.887754   14.089582
  H     15.860893   20.688629   14.966880
  H     16.954931   21.092281   16.859008
  H     18.820659   18.481976   19.283902
  H     18.846479   17.086361   17.299092
  H     18.727642   14.872926   18.127282
  H     17.667843   13.146263   19.568353
  H     15.550429   13.674008   20.780635
  H     14.060920   15.222089   21.234855
  H     15.572172   17.646101   19.131414

 Total Charge           Charge          ....    0
 Multiplicity           Mult            ....    1
 Number of Electrons    NEL             ....  154
 Basis Dimension        Dim             ....  828

ORBITAL ENERGIES
----------------

  NO   OCC          E(Eh)            E(eV)
   0   2.0000     -91.890536     -2500.4686
   1   2.0000     -20.605242      -560.6971
   2   2.0000     -20.587362      -560.2106
   3   2.0000     -20.549037      -559.1677
   4   2.0000     -15.628310      -425.2679
   5   2.0000     -15.610341      -424.7790
   6   2.0000     -11.394120      -310.0498
   7   2.0000     -11.385305      -309.8099
   8   2.0000     -11.332170      -308.3640
   9   2.0000     -11.323615      -308.1312
  10   2.0000     -11.315577      -307.9125
  11   2.0000     -11.299170      -307.4660
  12   2.0000     -11.269249      -306.6518
  13   2.0000     -11.264512      -306.5230
  14   2.0000     -11.256938      -306.3169
  15   2.0000     -11.254495      -306.2504
  16   2.0000     -11.253729      -306.2295
  17   2.0000     -11.248072      -306.0756
  18   2.0000     -11.247816      -306.0686
  19   2.0000     -11.232930      -305.6636
  20   2.0000      -8.895600      -242.0616
  21   2.0000      -6.577170      -178.9739
  22   2.0000      -6.575173      -178.9196
  23   2.0000      -6.574581      -178.9034
  24   2.0000      -1.441577       -39.2273
  25   2.0000      -1.425016       -38.7767
  26   2.0000      -1.353647       -36.8346
  27   2.0000      -1.341382       -36.5009
  28   2.0000      -1.240754       -33.7626
  29   2.0000      -1.166598       -31.7447
  30   2.0000      -1.123844       -30.5813
  31   2.0000      -1.050490       -28.5853
  32   2.0000      -1.033183       -28.1143
  33   2.0000      -1.024490       -27.8778
  34   2.0000      -1.003084       -27.2953
  35   2.0000      -0.988997       -26.9120
  36   2.0000      -0.926884       -25.2218
  37   2.0000      -0.897578       -24.4243
  38   2.0000      -0.850381       -23.1400
  39   2.0000      -0.845010       -22.9939
  40   2.0000      -0.843415       -22.9505
  41   2.0000      -0.826754       -22.4971
  42   2.0000      -0.749531       -20.3958
  43   2.0000      -0.739838       -20.1320
  44   2.0000      -0.717530       -19.5250
  45   2.0000      -0.703505       -19.1434
  46   2.0000      -0.690509       -18.7897
  47   2.0000      -0.678736       -18.4693
  48   2.0000      -0.675076       -18.3698
  49   2.0000      -0.662330       -18.0229
  50   2.0000      -0.653655       -17.7869
  51   2.0000      -0.648017       -17.6334
  52   2.0000      -0.638485       -17.3741
  53   2.0000      -0.622625       -16.9425
  54   2.0000      -0.614371       -16.7179
  55   2.0000      -0.607631       -16.5345
  56   2.0000      -0.602979       -16.4079
  57   2.0000      -0.583678       -15.8827
  58   2.0000      -0.576129       -15.6773
  59   2.0000      -0.566997       -15.4288
  60   2.0000      -0.554105       -15.0780
  61   2.0000      -0.548978       -14.9384
  62   2.0000      -0.541120       -14.7246
  63   2.0000      -0.535558       -14.5733
  64   2.0000      -0.530890       -14.4462
  65   2.0000      -0.517279       -14.0759
  66   2.0000      -0.505352       -13.7513
  67   2.0000      -0.496847       -13.5199
  68   2.0000      -0.481976       -13.1152
  69   2.0000      -0.469282       -12.7698
  70   2.0000      -0.449960       -12.2440
  71   2.0000      -0.447801       -12.1853
  72   2.0000      -0.358855        -9.7649
  73   2.0000      -0.352638        -9.5958
  74   2.0000      -0.332811        -9.0562
  75   2.0000      -0.328851        -8.9485
  76   2.0000      -0.320002        -8.7077
  77   0.0000       0.078097         2.1251
  78   0.0000       0.096073         2.6143
  79   0.0000       0.120547         3.2802
  80   0.0000       0.126246         3.4353
  81   0.0000       0.129245         3.5169

MULLIKEN ATOMIC CHARGES
-----------------------
   0 C :   -0.332562
   1 C :    0.035177
   2 O :   -0.344396
   3 C :    0.427814
   4 O :   -0.370955
   5 C :   -0.270264
   6 C :    0.173928
   7 C :   -0.278927
   8 N :   -0.128923
   9 C :    0.207921
  10 S :   -0.439742
  11 N :   -0.208087
  12 C :    0.046590
  13 C :   -0.005314
  14 C :   -0.161819
  15 C :   -0.133163
  16 C :   -0.271225
  17 C :    0.305405
  18 O :   -0.356228
  19 C :   -0.239915
  20 H :    0.108884
  21 H :    0.115679
  22 H :    0.112544
  23 H :    0.100726
  24 H :    0.123095
  25 H :    0.119456
  26 H :    0.144839
  27 H :    0.096573
  28 H :    0.198497
  29 H :    0.199610
  30 H :    0.155195
  31 H :    0.154758
  32 H :    0.164729
  33 H :    0.135247
  34 H :    0.242209
  35 H :    0.172644
Sum of atomic charges:   -0.0000000

LOEWDIN ATOMIC CHARGES
----------------------
   0 C :    0.102709
   1 C :   -0.012345
   2 O :    0.291202
   3 C :   -0.424910
   4 O :    0.127848
   5 C :   -0.096766
   6 C :   -0.070288
   7 C :    0.128988
   8 N :    0.406602
   9 C :   -0.456716
  10 S :   -0.034945
  11 N :    0.395662
  12 C :   -0.055271
  13 C :   -0.045574
  14 C :    0.019934
  15 C :    0.043940
  16 C :    0.001654
  17 C :   -0.192420
  18 O :    0.397109
  19 C :    0.033785
  20 H :   -0.035855
  21 H :   -0.021744
  22 H :   -0.026856
  23 H :   -0.035746
  24 H :   -0.022754
  25 H :   -0.009501
  26 H :   -0.003714
  27 H :   -0.021818
  28 H :   -0.056766
  29 H :   -0.063746
  30 H :   -0.010359
  31 H :   -0.026070
  32 H :   -0.018359
  33 H :   -0.033159
  34 H :   -0.152083
  35 H :   -0.021670

  Mayer bond orders larger than 0.100000
B(  0-C ,  1-C ) :   0.9597 B(  0-C , 20-H ) :   0.9688 B(  0-C , 21-H ) :   0.9768
B(  0-C , 22-H ) :   0.9749 B(  1-C ,  2-O ) :   0.9027 B(  1-C , 23-H ) :   0.9662
B(  1-C , 24-H ) :   0.9843 B(  2-O ,  3-C ) :   1.1548 B(  3-C ,  4-O ) :   2.1073
B(  3-C ,  5-C ) :   0.9606 B(  5-C ,  6-C ) :   1.6634 B(  5-C , 12-C ) :   0.9647
B(  6-C ,  7-C ) :   0.9489 B(  6-C ,  8-N ) :   1.1388 B(  7-C , 25-H ) :   0.9734
B(  7-C , 26-H ) :   0.9560 B(  7-C , 27-H ) :   0.9847 B(  8-N ,  9-C ) :   1.1942
B(  8-N , 28-H ) :   0.9488 B(  9-C , 10-S ) :   1.6127 B(  9-C , 11-N ) :   1.2940
B( 11-N , 12-C ) :   0.9761 B( 11-N , 29-H ) :   0.9481 B( 12-C , 13-C ) :   0.9553
B( 12-C , 30-H ) :   1.0061 B( 13-C , 14-C ) :   1.3646 B( 13-C , 19-C ) :   1.3616
B( 14-C , 15-C ) :   1.3948 B( 14-C , 31-H ) :   0.9700 B( 15-C , 16-C ) :   1.3619
B( 15-C , 32-H ) :   0.9699 B( 16-C , 17-C ) :   1.3288 B( 16-C , 33-H ) :   0.9834
B( 17-C , 18-O ) :   1.1104 B( 17-C , 19-C ) :   1.3657 B( 18-O , 34-H ) :   0.9784
B( 19-C , 35-H ) :   0.9581

MP2 TOTAL ENERGY:    -1274.320632394 Eh
FINAL SINGLE POINT ENERGY     -1274.320632393580

DIPOLE MOMENT
-------------
                                X             Y             Z
Electronic contribution:      9.28694       6.95019       6.47835
Nuclear contribution   :    -10.69570      -8.61530      -6.13595
                        -----------------------------------------
Total Dipole Moment    :     -1.40877      -1.66512       0.34240
                        -----------------------------------------
Magnitude (a.u.)       :      2.20782
Magnitude (Debye)      :      5.61183

Rotational constants in cm-1:     0.012183     0.009087     0.006386
Rotational constants in MHz :   365.224646   272.426504   191.433033

                             ****ORCA TERMINATED NORMALLY****
TOTAL RUN TIME: 0 days 1 hours 51 minutes 54 seconds 447 msec
