                         Program Version 4.2.0 -  RELEASE  -
|  1> ! ri-mp2 cc-pvtz cc-pvtz/c TightSCF NoKeepInts
|  2>
|  3> %scf
|  4>   MaxCore 4096
|  5> end
|  6> *xyz  0  1
|  7>     C       14.2208490   16.5712530   15.6320985
|  8>     C       15.3021621   15.5223563   15.9610923
|  9>     O       16.4905757   15.7452245   15.1720156
| 10>     C       17.3808731   16.7790720   15.3215926
| 11>     O       18.3307292   16.9080040   14.5726371
| 12>     C       17.1274452   17.7449081   16.4271840
| 13>     C       16.8263775   19.0171371   16.0809323
| 14>     C       16.3775565   19.4705157   14.7081417
| 15>     N       16.9814285   20.0718178   16.9817110
| 16>     C       17.6758042   19.9731060   18.1585393
| 17>     S       17.9330307   21.2825587   19.1351301
| 18>     N       18.1729894   18.7316200   18.4729040
| 19>     C       17.8776344   17.4855132   17.7375157
| 20>     C       17.3136612   16.3651600   18.5947110
| 21>     C       17.8566691   15.0698327   18.5165083
| 22>     C       17.3224407   14.0258476   19.2900480
| 23>     C       16.2379464   14.2801218   20.1473163
| 24>     C       15.6958770   15.5703312   20.2266995
| 25>     O       14.6436084   15.8166078   21.0464302
| 26>     C       16.2277243   16.6075097   19.4537967
| 27>     H       14.4423639   17.5413880   16.0886800
| 28>     H       13.2495200   16.2423297   16.0215020
| 29>     H       14.1224646   16.7017699   14.5470948
| 30>     H       15.5145497   15.5121883   17.0335071
| 31>     H       14.9059417   14.5315919   15.7034524
| 32>     H       15.7647122   18.7095550   14.2104048
| 33>     H       17.2498853   19.6549451   14.0669722
| 34>     H       15.7843202   20.3919786   14.7475898
| 35>     H       16.6696217   20.9975960   16.7341284
| 36>     H       18.6801008   18.6870360   19.3480987
| 37>     H       18.8972768   17.2186937   17.4212697
| 38>     H       18.6908486   14.8697617   17.8476916
| 39>     H       17.7484982   13.0258542   19.2231529
| 40>     H       15.8225984   13.4761254   20.7464102
| 41>     H       14.4560959   15.0011927   21.5358789
| 42>     H       15.7928193   17.5994969   19.5251623
| 43> *
| 44>
| 45>                          ****END OF INPUT****

CARTESIAN COORDINATES (ANGSTROEM)
---------------------------------
  C     14.220849   16.571253   15.632098
  C     15.302162   15.522356   15.961092
  O     16.490576   15.745224   15.172016
  C     17.380873   16.779072   15.321593
  O     18.330729   16.908004   14.572637
  C     17.127445   17.744908   16.427184
  C     16.826377   19.017137   16.080932
  C     16.377557   19.470516   14.708142
  N     16.981428   20.071818   16.981711
  C     17.675804   19.973106   18.158539
  S     17.933031   21.282559   19.135130
  N     18.172989   18.731620   18.472904
  C     17.877634   17.485513   17.737516
  C     17.313661   16.365160   18.594711
  C     17.856669   15.069833   18.516508
  C     17.322441   14.025848   19.290048
  C     16.237946   14.280122   20.147316
  C     15.695877   15.570331   20.226699
  O     14.643608   15.816608   21.046430
  C     16.227724   16.607510   19.453797
  H     14.442364   17.541388   16.088680
  H     13.249520   16.242330   16.021502
  H     14.122465   16.701770   14.547095
  H     15.514550   15.512188   17.033507
  H     14.905942   14.531592   15.703452
  H     15.764712   18.709555   14.210405
  H     17.249885   19.654945   14.066972
  H     15.784320   20.391979   14.747590
  H     16.669622   20.997596   16.734128
  H     18.680101   18.687036   19.348099
  H     18.897277   17.218694   17.421270
  H     18.690849   14.869762   17.847692
  H     17.748498   13.025854   19.223153
  H     15.822598   13.476125   20.746410
  H     14.456096   15.001193   21.535879
  H     15.792819   17.599497   19.525162

 Total Charge           Charge          ....    0
 Multiplicity           Mult            ....    1
 Number of Electrons    NEL             ....  154
 Basis Dimension        Dim             ....  828

ORBITAL ENERGIES
----------------

  NO   OCC          E(Eh)            E(eV)
   0   2.0000     -91.889474     -2500.4397
   1   2.0000     -20.605776      -560.7117
   2   2.0000     -20.599490      -560.5406
   3   2.0000     -20.551537      -559.2357
   4   2.0000     -15.625696      -425.1968
   5   2.0000     -15.610757      -424.7903
   6   2.0000     -11.398280      -310.1630
   7   2.0000     -11.385111      -309.8046
   8   2.0000     -11.326479      -308.2092
   9   2.0000     -11.324619      -308.1585
  10   2.0000     -11.316393      -307.9347
  11   2.0000     -11.301815      -307.5380
  12   2.0000     -11.271392      -306.7102
  13   2.0000     -11.265790      -306.5577
  14   2.0000     -11.259022      -306.3736
  15   2.0000     -11.256826      -306.3138
  16   2.0000     -11.253913      -306.2345
  17   2.0000     -11.248874      -306.0974
  18   2.0000     -11.248578      -306.0894
  19   2.0000     -11.232693      -305.6571
  20   2.0000      -8.894560      -242.0333
  21   2.0000      -6.576138      -178.9458
  22   2.0000      -6.574131      -178.8912
  23   2.0000      -6.573547      -178.8753
  24   2.0000      -1.445498       -39.3340
  25   2.0000      -1.425499       -38.7898
  26   2.0000      -1.360442       -37.0195
  27   2.0000      -1.339328       -36.4450
  28   2.0000      -1.239304       -33.7232
  29   2.0000      -1.167964       -31.7819
  30   2.0000      -1.126687       -30.6587
  31   2.0000      -1.052567       -28.6418
  32   2.0000      -1.036713       -28.2104
  33   2.0000      -1.025914       -27.9165
  34   2.0000      -1.004727       -27.3400
  35   2.0000      -0.990357       -26.9490
  36   2.0000      -0.927842       -25.2479
  37   2.0000      -0.895441       -24.3662
  38   2.0000      -0.852069       -23.1860
  39   2.0000      -0.845005       -22.9937
  40   2.0000      -0.843941       -22.9648
  41   2.0000      -0.833053       -22.6685
  42   2.0000      -0.755261       -20.5517
  43   2.0000      -0.740050       -20.1378
  44   2.0000      -0.724093       -19.7036
  45   2.0000      -0.704152       -19.1610
  46   2.0000      -0.693944       -18.8832
  47   2.0000      -0.680039       -18.5048
  48   2.0000      -0.677301       -18.4303
  49   2.0000      -0.665670       -18.1138
  50   2.0000      -0.652308       -17.7502
  51   2.0000      -0.643898       -17.5214
  52   2.0000      -0.635429       -17.2909
  53   2.0000      -0.620599       -16.8874
  54   2.0000      -0.613948       -16.7064
  55   2.0000      -0.608669       -16.5627
  56   2.0000      -0.605638       -16.4802
  57   2.0000      -0.585021       -15.9192
  58   2.0000      -0.579763       -15.7761
  59   2.0000      -0.569662       -15.5013
  60   2.0000      -0.567144       -15.4328
  61   2.0000      -0.553376       -15.0581
  62   2.0000      -0.539004       -14.6670
  63   2.0000      -0.537306       -14.6209
  64   2.0000      -0.528955       -14.3936
  65   2.0000      -0.518227       -14.1017
  66   2.0000      -0.505764       -13.7625
  67   2.0000      -0.504419       -13.7259
  68   2.0000      -0.489518       -13.3205
  69   2.0000      -0.463704       -12.6180
  70   2.0000      -0.454125       -12.3574
  71   2.0000      -0.450066       -12.2469
  72   2.0000      -0.358568        -9.7571
  73   2.0000      -0.352381        -9.5888
  74   2.0000      -0.333276        -9.0689
  75   2.0000      -0.328536        -8.9399
  76   2.0000      -0.318932        -8.6786
  77   0.0000       0.087813         2.3895
  78   0.0000       0.096420         2.6237
  79   0.0000       0.120421         3.2768
  80   0.0000       0.126156         3.4329
  81   0.0000       0.128750         3.5035

MULLIKEN ATOMIC CHARGES
-----------------------
   0 C :   -0.325527
   1 C :    0.038590
   2 O :   -0.314719
   3 C :    0.423035
   4 O :   -0.380585
   5 C :   -0.211576
   6 C :    0.135604
   7 C :   -0.298416
   8 N :   -0.136120
   9 C :    0.213454
  10 S :   -0.442471
  11 N :   -0.219707
  12 C :    0.025860
  13 C :    0.007553
  14 C :   -0.205812
  15 C :   -0.131474
  16 C :   -0.270948
  17 C :    0.306913
  18 O :   -0.353596
  19 C :   -0.229654
  20 H :    0.105801
  21 H :    0.114540
  22 H :    0.108015
  23 H :    0.102206
  24 H :    0.123442
  25 H :    0.116994
  26 H :    0.149868
  27 H :    0.100948
  28 H :    0.197580
  29 H :    0.201558
  30 H :    0.166842
  31 H :    0.163762
  32 H :    0.165685
  33 H :    0.135604
  34 H :    0.241973
  35 H :    0.174777
Sum of atomic charges:    0.0000000

LOEWDIN ATOMIC CHARGES
----------------------
   0 C :    0.101649
   1 C :   -0.016344
   2 O :    0.303245
   3 C :   -0.416201
   4 O :    0.124787
   5 C :   -0.089409
   6 C :   -0.090032
   7 C :    0.129046
   8 N :    0.404470
   9 C :   -0.454814
  10 S :   -0.037562
  11 N :    0.395852
  12 C :   -0.055343
  13 C :   -0.047424
  14 C :    0.016485
  15 C :    0.045954
  16 C :    0.002049
  17 C :   -0.190802
  18 O :    0.397712
  19 C :    0.030151
  20 H :   -0.035596
  21 H :   -0.023459
  22 H :   -0.028127
  23 H :   -0.035431
  24 H :   -0.019845
  25 H :   -0.010887
  26 H :   -0.003227
  27 H :   -0.018942
  28 H :   -0.058406
  29 H :   -0.064242
  30 H :   -0.006919
  31 H :   -0.024719
  32 H :   -0.017545
  33 H :   -0.033164
  34 H :   -0.151979
  35 H :   -0.020977

  Mayer bond orders larger than 0.100000
B(  0-C ,  1-C ) :   0.9569 B(  0-C , 20-H ) :   0.9734 B(  0-C , 21-H ) :   0.9778
B(  0-C , 22-H ) :   0.9763 B(  1-C ,  2-O ) :   0.9006 B(  1-C , 23-H ) :   0.9619
B(  1-C , 24-H ) :   0.9850 B(  2-O ,  3-C ) :   1.1956 B(  3-C ,  4-O ) :   2.1195
B(  3-C ,  5-C ) :   0.9029 B(  5-C ,  6-C ) :   1.7277 B(  5-C , 12-C ) :   0.9530
B(  6-C ,  7-C ) :   0.9430 B(  6-C ,  8-N ) :   1.1108 B(  7-C , 25-H ) :   0.9772
B(  7-C , 26-H ) :   0.9597 B(  7-C , 27-H ) :   0.9824 B(  8-N ,  9-C ) :   1.2015
B(  8-N , 28-H ) :   0.9492 B(  9-C , 10-S ) :   1.6109 B(  9-C , 11-N ) :   1.2851
B( 11-N , 12-C ) :   0.9789 B( 11-N , 29-H ) :   0.9466 B( 12-C , 13-C ) :   0.9619
B( 12-C , 30-H ) :   0.9993 B( 13-C , 14-C ) :   1.3779 B( 13-C , 19-C ) :   1.3564
B( 14-C , 15-C ) :   1.3942 B( 14-C , 31-H ) :   0.9676 B( 15-C , 16-C ) :   1.3651
B( 15-C , 32-H ) :   0.9693 B( 16-C , 17-C ) :   1.3289 B( 16-C , 33-H ) :   0.9831
B( 17-C , 18-O ) :   1.1133 B( 17-C , 19-C ) :   1.3613 B( 18-O , 34-H ) :   0.9784
B( 19-C , 35-H ) :   0.9573

MP2 TOTAL ENERGY:    -1274.323369370 Eh
FINAL SINGLE POINT ENERGY     -1274.323369369687

DIPOLE MOMENT
-------------
                                X             Y             Z
Electronic contribution:      9.39590       6.29815       7.23537
Nuclear contribution   :    -10.92846      -8.03204      -7.07178
                        -----------------------------------------
Total Dipole Moment    :     -1.53256      -1.73390       0.16359
                        -----------------------------------------
Magnitude (a.u.)       :      2.31989
Magnitude (Debye)      :      5.89669

Rotational constants in cm-1:     0.011863     0.009054     0.006409
Rotational constants in MHz :   355.647751   271.419051   192.145707

                             ****ORCA TERMINATED NORMALLY****
TOTAL RUN TIME: 0 days 1 hours 40 minutes 24 seconds 197 msec
