                         Program Version 4.2.0 -  RELEASE  -
|  1> ! ri-mp2 cc-pvtz cc-pvtz/c TightSCF NoKeepInts
|  2>
|  3> %scf
|  4>   MaxCore 4096
|  5> end
|  6> *xyz  0  1
|  7>     C       14.0435721   15.1369775   15.2943122
|  8>     C       15.0037182   16.3106595   15.5458548
|  9>     O       16.3282972   15.8492305   15.2206045
| 10>     C       17.4723338   16.5038240   15.5993105
| 11>     O       18.5766759   16.0754396   15.3225786
| 12>     C       17.2868102   17.6687474   16.5094450
| 13>     C       16.9833965   18.8804721   15.9885517
| 14>     C       16.5454598   19.1755614   14.5685351
| 15>     N       17.1327550   20.0425236   16.7470243
| 16>     C       17.8086236   20.0975804   17.9382114
| 17>     S       18.0499428   21.5249382   18.7372827
| 18>     N       18.2963906   18.9075547   18.4221914
| 19>     C       18.0142280   17.5764138   17.8477525
| 20>     C       17.3641312   16.5830218   18.7977793
| 21>     C       17.8091452   15.2495439   18.8354819
| 22>     C       17.1967348   14.3170112   19.6891984
| 23>     C       16.1280946   14.7210647   20.5078874
| 24>     C       15.6779016   16.0478313   20.4657464
| 25>     O       14.6391158   16.4378139   21.2463974
| 26>     C       16.2886437   16.9741904   19.6141984
| 27>     H       14.3140617   14.2771366   15.9203259
| 28>     H       14.0817674   14.8239535   14.2433495
| 29>     H       13.0117910   15.4233588   15.5315716
| 30>     H       14.7194059   17.1675176   14.9236641
| 31>     H       14.9350617   16.5945378   16.6050349
| 32>     H       16.6824381   18.3199978   13.8957763
| 33>     H       17.1328194   19.9993499   14.1425115
| 34>     H       15.4879740   19.4644347   14.5340610
| 35>     H       16.8174420   20.9280267   16.3828830
| 36>     H       18.7892506   18.9754261   19.3040193
| 37>     H       19.0366375   17.2494567   17.6047180
| 38>     H       18.6273957   14.9332559   18.1914993
| 39>     H       17.5482561   13.2867019   19.7100483
| 40>     H       15.6513123   14.0032000   21.1672212
| 41>     H       14.3823759   15.6775903   21.7900434
| 42>     H       15.9230402   17.9956557   19.5929286
| 43> *
| 44>
| 45>                          ****END OF INPUT****

CARTESIAN COORDINATES (ANGSTROEM)
---------------------------------
  C     14.043572   15.136978   15.294312
  C     15.003718   16.310659   15.545855
  O     16.328297   15.849231   15.220604
  C     17.472334   16.503824   15.599310
  O     18.576676   16.075440   15.322579
  C     17.286810   17.668747   16.509445
  C     16.983396   18.880472   15.988552
  C     16.545460   19.175561   14.568535
  N     17.132755   20.042524   16.747024
  C     17.808624   20.097580   17.938211
  S     18.049943   21.524938   18.737283
  N     18.296391   18.907555   18.422191
  C     18.014228   17.576414   17.847752
  C     17.364131   16.583022   18.797779
  C     17.809145   15.249544   18.835482
  C     17.196735   14.317011   19.689198
  C     16.128095   14.721065   20.507887
  C     15.677902   16.047831   20.465746
  O     14.639116   16.437814   21.246397
  C     16.288644   16.974190   19.614198
  H     14.314062   14.277137   15.920326
  H     14.081767   14.823954   14.243350
  H     13.011791   15.423359   15.531572
  H     14.719406   17.167518   14.923664
  H     14.935062   16.594538   16.605035
  H     16.682438   18.319998   13.895776
  H     17.132819   19.999350   14.142511
  H     15.487974   19.464435   14.534061
  H     16.817442   20.928027   16.382883
  H     18.789251   18.975426   19.304019
  H     19.036638   17.249457   17.604718
  H     18.627396   14.933256   18.191499
  H     17.548256   13.286702   19.710048
  H     15.651312   14.003200   21.167221
  H     14.382376   15.677590   21.790043
  H     15.923040   17.995656   19.592929

 Total Charge           Charge          ....    0
 Multiplicity           Mult            ....    1
 Number of Electrons    NEL             ....  154
 Basis Dimension        Dim             ....  828

ORBITAL ENERGIES
----------------

  NO   OCC          E(Eh)            E(eV)
   0   2.0000     -91.888996     -2500.4267
   1   2.0000     -20.605744      -560.7108
   2   2.0000     -20.600765      -560.5753
   3   2.0000     -20.551821      -559.2435
   4   2.0000     -15.625791      -425.1994
   5   2.0000     -15.609729      -424.7623
   6   2.0000     -11.399287      -310.1904
   7   2.0000     -11.385284      -309.8093
   8   2.0000     -11.329572      -308.2933
   9   2.0000     -11.318425      -307.9900
  10   2.0000     -11.312054      -307.8166
  11   2.0000     -11.306179      -307.6568
  12   2.0000     -11.268147      -306.6219
  13   2.0000     -11.266404      -306.5744
  14   2.0000     -11.262286      -306.4624
  15   2.0000     -11.258986      -306.3726
  16   2.0000     -11.247304      -306.0547
  17   2.0000     -11.243376      -305.9478
  18   2.0000     -11.241649      -305.9008
  19   2.0000     -11.234406      -305.7037
  20   2.0000      -8.894114      -242.0211
  21   2.0000      -6.575699      -178.9339
  22   2.0000      -6.573683      -178.8790
  23   2.0000      -6.573104      -178.8633
  24   2.0000      -1.450372       -39.4666
  25   2.0000      -1.420461       -38.6527
  26   2.0000      -1.364321       -37.1251
  27   2.0000      -1.339531       -36.4505
  28   2.0000      -1.238675       -33.7061
  29   2.0000      -1.162740       -31.6398
  30   2.0000      -1.126832       -30.6627
  31   2.0000      -1.049606       -28.5612
  32   2.0000      -1.042214       -28.3601
  33   2.0000      -1.020528       -27.7700
  34   2.0000      -1.006444       -27.3867
  35   2.0000      -0.989503       -26.9257
  36   2.0000      -0.926994       -25.2248
  37   2.0000      -0.882098       -24.0031
  38   2.0000      -0.855916       -23.2907
  39   2.0000      -0.842328       -22.9209
  40   2.0000      -0.838852       -22.8263
  41   2.0000      -0.837520       -22.7901
  42   2.0000      -0.758276       -20.6338
  43   2.0000      -0.739888       -20.1334
  44   2.0000      -0.732925       -19.9439
  45   2.0000      -0.698634       -19.0108
  46   2.0000      -0.690788       -18.7973
  47   2.0000      -0.683457       -18.5978
  48   2.0000      -0.675067       -18.3695
  49   2.0000      -0.661633       -18.0040
  50   2.0000      -0.661233       -17.9931
  51   2.0000      -0.648890       -17.6572
  52   2.0000      -0.638257       -17.3678
  53   2.0000      -0.613716       -16.7001
  54   2.0000      -0.609306       -16.5801
  55   2.0000      -0.604163       -16.4401
  56   2.0000      -0.596178       -16.2228
  57   2.0000      -0.580691       -15.8014
  58   2.0000      -0.578790       -15.7497
  59   2.0000      -0.571300       -15.5459
  60   2.0000      -0.562346       -15.3022
  61   2.0000      -0.558453       -15.1963
  62   2.0000      -0.554656       -15.0929
  63   2.0000      -0.529559       -14.4100
  64   2.0000      -0.519951       -14.1486
  65   2.0000      -0.515084       -14.0161
  66   2.0000      -0.509289       -13.8585
  67   2.0000      -0.502394       -13.6708
  68   2.0000      -0.489163       -13.3108
  69   2.0000      -0.469374       -12.7723
  70   2.0000      -0.456939       -12.4339
  71   2.0000      -0.452598       -12.3158
  72   2.0000      -0.355563        -9.6754
  73   2.0000      -0.352793        -9.6000
  74   2.0000      -0.328722        -8.9450
  75   2.0000      -0.326023        -8.8715
  76   2.0000      -0.318964        -8.6794
  77   0.0000       0.090428         2.4607
  78   0.0000       0.102971         2.8020
  79   0.0000       0.115373         3.1395
  80   0.0000       0.128334         3.4922
  81   0.0000       0.129507         3.5241

MULLIKEN ATOMIC CHARGES
-----------------------
   0 C :   -0.257360
   1 C :    0.029298
   2 O :   -0.300752
   3 C :    0.406613
   4 O :   -0.381543
   5 C :   -0.206589
   6 C :    0.158039
   7 C :   -0.340415
   8 N :   -0.141106
   9 C :    0.211575
  10 S :   -0.444301
  11 N :   -0.223973
  12 C :    0.057121
  13 C :    0.033719
  14 C :   -0.223108
  15 C :   -0.127625
  16 C :   -0.276652
  17 C :    0.317202
  18 O :   -0.355288
  19 C :   -0.259313
  20 H :    0.105802
  21 H :    0.101396
  22 H :    0.088563
  23 H :    0.083450
  24 H :    0.103611
  25 H :    0.127424
  26 H :    0.136408
  27 H :    0.124920
  28 H :    0.197058
  29 H :    0.202354
  30 H :    0.168508
  31 H :    0.171876
  32 H :    0.164735
  33 H :    0.132067
  34 H :    0.241502
  35 H :    0.174783
Sum of atomic charges:   -0.0000000

LOEWDIN ATOMIC CHARGES
----------------------
   0 C :    0.112100
   1 C :   -0.025044
   2 O :    0.310317
   3 C :   -0.416375
   4 O :    0.120215
   5 C :   -0.081918
   6 C :   -0.096766
   7 C :    0.123717
   8 N :    0.401920
   9 C :   -0.455169
  10 S :   -0.039413
  11 N :    0.395902
  12 C :   -0.050384
  13 C :   -0.043842
  14 C :    0.019005
  15 C :    0.045899
  16 C :    0.000508
  17 C :   -0.190861
  18 O :    0.395485
  19 C :    0.027539
  20 H :   -0.022360
  21 H :   -0.025451
  22 H :   -0.025033
  23 H :   -0.036886
  24 H :   -0.032032
  25 H :   -0.008331
  26 H :   -0.009566
  27 H :   -0.017687
  28 H :   -0.057498
  29 H :   -0.064003
  30 H :   -0.003429
  31 H :   -0.021830
  32 H :   -0.018282
  33 H :   -0.034563
  34 H :   -0.152915
  35 H :   -0.022970

  Mayer bond orders larger than 0.100000
B(  0-C ,  1-C ) :   0.9829 B(  0-C , 20-H ) :   0.9784 B(  0-C , 21-H ) :   0.9782
B(  0-C , 22-H ) :   0.9770 B(  1-C ,  2-O ) :   0.9141 B(  1-C , 23-H ) :   0.9709
B(  1-C , 24-H ) :   0.9594 B(  2-O ,  3-C ) :   1.1899 B(  3-C ,  4-O ) :   2.1085
B(  3-C ,  5-C ) :   0.9082 B(  5-C ,  6-C ) :   1.7213 B(  5-C , 12-C ) :   0.9405
B(  6-C ,  7-C ) :   0.9351 B(  6-C ,  8-N ) :   1.1052 B(  7-C , 25-H ) :   0.9786
B(  7-C , 26-H ) :   0.9717 B(  7-C , 27-H ) :   0.9674 B(  8-N ,  9-C ) :   1.2007
B(  8-N , 28-H ) :   0.9518 B(  9-C , 10-S ) :   1.6088 B(  9-C , 11-N ) :   1.2881
B( 11-N , 12-C ) :   0.9838 B( 11-N , 29-H ) :   0.9471 B( 12-C , 13-C ) :   0.9664
B( 12-C , 30-H ) :   0.9896 B( 13-C , 14-C ) :   1.3831 B( 13-C , 19-C ) :   1.3520
B( 14-C , 15-C ) :   1.3948 B( 14-C , 31-H ) :   0.9620 B( 15-C , 16-C ) :   1.3630
B( 15-C , 32-H ) :   0.9694 B( 16-C , 17-C ) :   1.3305 B( 16-C , 33-H ) :   0.9848
B( 17-C , 18-O ) :   1.1101 B( 17-C , 19-C ) :   1.3624 B( 18-O , 34-H ) :   0.9791
B( 19-C , 35-H ) :   0.9564

MP2 TOTAL ENERGY:    -1274.330610129 Eh
FINAL SINGLE POINT ENERGY     -1274.330610129213

DIPOLE MOMENT
-------------
                                X             Y             Z
Electronic contribution:     10.34655       8.62531       8.39076
Nuclear contribution   :    -12.07273      -9.84997      -8.70952
                        -----------------------------------------
Total Dipole Moment    :     -1.72618      -1.22466      -0.31876
                        -----------------------------------------
Magnitude (a.u.)       :      2.14035
Magnitude (Debye)      :      5.44033

Rotational constants in cm-1:     0.010994     0.008992     0.006229
Rotational constants in MHz :   329.598993   269.574026   186.736352

                             ****ORCA TERMINATED NORMALLY****
TOTAL RUN TIME: 0 days 1 hours 41 minutes 26 seconds 719 msec
