                         Program Version 4.2.0 -  RELEASE  -
|  1> ! ri-mp2 cc-pvtz cc-pvtz/c TightSCF NoKeepInts
|  2>
|  3> %scf
|  4>   MaxCore 4096
|  5> end
|  6> *xyz  0  1
|  7>     C       14.8075277   14.7459240   14.3614089
|  8>     C       15.2248319   15.1835434   15.7781594
|  9>     O       16.3375448   16.0887556   15.6770946
| 10>     C       16.0855536   17.4285238   15.6041828
| 11>     O       15.2642783   17.8874482   14.8298251
| 12>     C       16.8083932   18.2148449   16.6647786
| 13>     C       16.8675613   19.5701508   16.6062457
| 14>     C       16.0663880   20.4832048   15.7012658
| 15>     N       17.7445979   20.2881589   17.4224532
| 16>     C       18.7272955   19.7224751   18.1888956
| 17>     S       19.7938967   20.6373798   19.0611961
| 18>     N       18.7963639   18.3523572   18.1797962
| 19>     C       17.8302360   17.4510285   17.5241998
| 20>     C       17.2079648   16.4543375   18.4935462
| 21>     C       17.5939719   15.1013749   18.4736217
| 22>     C       17.0134082   14.1807019   19.3621062
| 23>     C       16.0424388   14.6179179   20.2794681
| 24>     C       15.6610210   15.9666432   20.3049949
| 25>     O       14.7244392   16.3915692   21.1898209
| 26>     C       16.2395571   16.8802216   19.4183504
| 27>     H       14.4383814   15.5992572   13.7789207
| 28>     H       14.0070704   13.9980803   14.4109261
| 29>     H       15.6575722   14.3049390   13.8264212
| 30>     H       14.3817986   15.6510407   16.3054196
| 31>     H       15.5324194   14.2966213   16.3469953
| 32>     H       14.9916165   20.2897336   15.8116065
| 33>     H       16.3240693   20.3081985   14.6488724
| 34>     H       16.2295971   21.5471900   15.9092838
| 35>     H       17.7193349   21.2953491   17.4204327
| 36>     H       19.5124068   17.9632341   18.7800649
| 37>     H       18.4912193   16.9366102   16.8120475
| 38>     H       18.3411872   14.7618853   17.7609675
| 39>     H       17.3170842   13.1353944   19.3392893
| 40>     H       15.5921741   13.9110183   20.9687380
| 41>     H       14.4772985   15.6335696   21.7406725
| 42>     H       15.9365004   17.9213173   19.4559314
| 43> *
| 44>
| 45>                          ****END OF INPUT****

CARTESIAN COORDINATES (ANGSTROEM)
---------------------------------
  C     14.807528   14.745924   14.361409
  C     15.224832   15.183543   15.778159
  O     16.337545   16.088756   15.677095
  C     16.085554   17.428524   15.604183
  O     15.264278   17.887448   14.829825
  C     16.808393   18.214845   16.664779
  C     16.867561   19.570151   16.606246
  C     16.066388   20.483205   15.701266
  N     17.744598   20.288159   17.422453
  C     18.727296   19.722475   18.188896
  S     19.793897   20.637380   19.061196
  N     18.796364   18.352357   18.179796
  C     17.830236   17.451028   17.524200
  C     17.207965   16.454338   18.493546
  C     17.593972   15.101375   18.473622
  C     17.013408   14.180702   19.362106
  C     16.042439   14.617918   20.279468
  C     15.661021   15.966643   20.304995
  O     14.724439   16.391569   21.189821
  C     16.239557   16.880222   19.418350
  H     14.438381   15.599257   13.778921
  H     14.007070   13.998080   14.410926
  H     15.657572   14.304939   13.826421
  H     14.381799   15.651041   16.305420
  H     15.532419   14.296621   16.346995
  H     14.991616   20.289734   15.811606
  H     16.324069   20.308198   14.648872
  H     16.229597   21.547190   15.909284
  H     17.719335   21.295349   17.420433
  H     19.512407   17.963234   18.780065
  H     18.491219   16.936610   16.812047
  H     18.341187   14.761885   17.760967
  H     17.317084   13.135394   19.339289
  H     15.592174   13.911018   20.968738
  H     14.477298   15.633570   21.740672
  H     15.936500   17.921317   19.455931

 Total Charge           Charge          ....    0
 Multiplicity           Mult            ....    1
 Number of Electrons    NEL             ....  154
 Basis Dimension        Dim             ....  828

ORBITAL ENERGIES
----------------

  NO   OCC          E(Eh)            E(eV)
   0   2.0000     -91.889962     -2500.4530
   1   2.0000     -20.599259      -560.5343
   2   2.0000     -20.589155      -560.2594
   3   2.0000     -20.545029      -559.0587
   4   2.0000     -15.630520      -425.3281
   5   2.0000     -15.608010      -424.7155
   6   2.0000     -11.394178      -310.0513
   7   2.0000     -11.384619      -309.7912
   8   2.0000     -11.338574      -308.5383
   9   2.0000     -11.316769      -307.9450
  10   2.0000     -11.308637      -307.7237
  11   2.0000     -11.296963      -307.4060
  12   2.0000     -11.263446      -306.4939
  13   2.0000     -11.258562      -306.3611
  14   2.0000     -11.258118      -306.3490
  15   2.0000     -11.252862      -306.2059
  16   2.0000     -11.246431      -306.0309
  17   2.0000     -11.241670      -305.9014
  18   2.0000     -11.241299      -305.8913
  19   2.0000     -11.217969      -305.2564
  20   2.0000      -8.895023      -242.0459
  21   2.0000      -6.576592      -178.9582
  22   2.0000      -6.574597      -178.9039
  23   2.0000      -6.574003      -178.8877
  24   2.0000      -1.449207       -39.4349
  25   2.0000      -1.418927       -38.6110
  26   2.0000      -1.354538       -36.8589
  27   2.0000      -1.341495       -36.5039
  28   2.0000      -1.239378       -33.7252
  29   2.0000      -1.160183       -31.5702
  30   2.0000      -1.122074       -30.5332
  31   2.0000      -1.044848       -28.4318
  32   2.0000      -1.033035       -28.1103
  33   2.0000      -1.017904       -27.6986
  34   2.0000      -0.996742       -27.1227
  35   2.0000      -0.985318       -26.8119
  36   2.0000      -0.923364       -25.1260
  37   2.0000      -0.885437       -24.0940
  38   2.0000      -0.848223       -23.0813
  39   2.0000      -0.840384       -22.8680
  40   2.0000      -0.836840       -22.7716
  41   2.0000      -0.823870       -22.4186
  42   2.0000      -0.757569       -20.6145
  43   2.0000      -0.735146       -20.0043
  44   2.0000      -0.722453       -19.6589
  45   2.0000      -0.697914       -18.9912
  46   2.0000      -0.689899       -18.7731
  47   2.0000      -0.679269       -18.4839
  48   2.0000      -0.671475       -18.2718
  49   2.0000      -0.653067       -17.7709
  50   2.0000      -0.647732       -17.6257
  51   2.0000      -0.645358       -17.5611
  52   2.0000      -0.634817       -17.2742
  53   2.0000      -0.609664       -16.5898
  54   2.0000      -0.604257       -16.4427
  55   2.0000      -0.601224       -16.3601
  56   2.0000      -0.596582       -16.2338
  57   2.0000      -0.581761       -15.8305
  58   2.0000      -0.575366       -15.6565
  59   2.0000      -0.570376       -15.5207
  60   2.0000      -0.565011       -15.3747
  61   2.0000      -0.541407       -14.7324
  62   2.0000      -0.535045       -14.5593
  63   2.0000      -0.526368       -14.3232
  64   2.0000      -0.516035       -14.0420
  65   2.0000      -0.512743       -13.9525
  66   2.0000      -0.501319       -13.6416
  67   2.0000      -0.497387       -13.5346
  68   2.0000      -0.487922       -13.2770
  69   2.0000      -0.464226       -12.6322
  70   2.0000      -0.454915       -12.3789
  71   2.0000      -0.443654       -12.0724
  72   2.0000      -0.354287        -9.6406
  73   2.0000      -0.352151        -9.5825
  74   2.0000      -0.329265        -8.9598
  75   2.0000      -0.324098        -8.8192
  76   2.0000      -0.319278        -8.6880
  77   0.0000       0.073054         1.9879
  78   0.0000       0.101757         2.7690
  79   0.0000       0.124378         3.3845
  80   0.0000       0.131280         3.5723
  81   0.0000       0.135014         3.6739

MULLIKEN ATOMIC CHARGES
-----------------------
   0 C :   -0.273113
   1 C :    0.037290
   2 O :   -0.367260
   3 C :    0.443941
   4 O :   -0.423114
   5 C :   -0.243188
   6 C :    0.181194
   7 C :   -0.267089
   8 N :   -0.125996
   9 C :    0.211694
  10 S :   -0.440419
  11 N :   -0.217074
  12 C :    0.073906
  13 C :    0.035244
  14 C :   -0.193490
  15 C :   -0.127722
  16 C :   -0.277891
  17 C :    0.315851
  18 O :   -0.356017
  19 C :   -0.248379
  20 H :    0.117976
  21 H :    0.087895
  22 H :    0.089873
  23 H :    0.089574
  24 H :    0.108604
  25 H :    0.133291
  26 H :    0.129695
  27 H :    0.095020
  28 H :    0.199528
  29 H :    0.200880
  30 H :    0.152458
  31 H :    0.155209
  32 H :    0.164322
  33 H :    0.131935
  34 H :    0.241131
  35 H :    0.164240
Sum of atomic charges:   -0.0000000

LOEWDIN ATOMIC CHARGES
----------------------
   0 C :    0.104968
   1 C :   -0.017946
   2 O :    0.299868
   3 C :   -0.417724
   4 O :    0.108426
   5 C :   -0.098527
   6 C :   -0.055003
   7 C :    0.131628
   8 N :    0.407511
   9 C :   -0.456105
  10 S :   -0.035287
  11 N :    0.394335
  12 C :   -0.054620
  13 C :   -0.038912
  14 C :    0.017964
  15 C :    0.039123
  16 C :   -0.000972
  17 C :   -0.189932
  18 O :    0.395517
  19 C :    0.032457
  20 H :   -0.025089
  21 H :   -0.030417
  22 H :   -0.028960
  23 H :   -0.029518
  24 H :   -0.026211
  25 H :   -0.004361
  26 H :   -0.004534
  27 H :   -0.023435
  28 H :   -0.056981
  29 H :   -0.064489
  30 H :   -0.012658
  31 H :   -0.028278
  32 H :   -0.020786
  33 H :   -0.034969
  34 H :   -0.153392
  35 H :   -0.022690

  Mayer bond orders larger than 0.100000
B(  0-C ,  1-C ) :   0.9827 B(  0-C , 20-H ) :   0.9736 B(  0-C , 21-H ) :   0.9776
B(  0-C , 22-H ) :   0.9768 B(  1-C ,  2-O ) :   0.8867 B(  1-C , 23-H ) :   0.9715
B(  1-C , 24-H ) :   0.9779 B(  2-O ,  3-C ) :   1.1082 B(  3-C ,  4-O ) :   1.9803
B(  3-C ,  5-C ) :   1.0788 B(  5-C ,  6-C ) :   1.6279 B(  5-C , 12-C ) :   0.9528
B(  6-C ,  7-C ) :   0.9659 B(  6-C ,  8-N ) :   1.1569 B(  7-C , 25-H ) :   0.9607
B(  7-C , 26-H ) :   0.9586 B(  7-C , 27-H ) :   0.9905 B(  8-N ,  9-C ) :   1.1856
B(  8-N , 28-H ) :   0.9462 B(  9-C , 10-S ) :   1.6067 B(  9-C , 11-N ) :   1.3101
B( 11-N , 12-C ) :   0.9650 B( 11-N , 29-H ) :   0.9483 B( 12-C , 13-C ) :   0.9612
B( 12-C , 30-H ) :   1.0011 B( 13-C , 14-C ) :   1.3479 B( 13-C , 19-C ) :   1.3782
B( 14-C , 15-C ) :   1.3895 B( 14-C , 31-H ) :   0.9724 B( 15-C , 16-C ) :   1.3594
B( 15-C , 32-H ) :   0.9697 B( 16-C , 17-C ) :   1.3330 B( 16-C , 33-H ) :   0.9844
B( 17-C , 18-O ) :   1.1058 B( 17-C , 19-C ) :   1.3648 B( 18-O , 34-H ) :   0.9793
B( 19-C , 35-H ) :   0.9597

MP2 TOTAL ENERGY:    -1274.334135450 Eh
FINAL SINGLE POINT ENERGY     -1274.334135449901

DIPOLE MOMENT
-------------
                                X             Y             Z
Electronic contribution:      9.65620      10.02243       9.33077
Nuclear contribution   :    -10.69668     -11.61629      -9.41284
                        -----------------------------------------
Total Dipole Moment    :     -1.04048      -1.59386      -0.08207
                        -----------------------------------------
Magnitude (a.u.)       :      1.90519
Magnitude (Debye)      :      4.84260

Rotational constants in cm-1:     0.011521     0.008560     0.005888
Rotational constants in MHz :   345.403541   256.630284   176.509964

                             ****ORCA TERMINATED NORMALLY****
TOTAL RUN TIME: 0 days 1 hours 58 minutes 56 seconds 961 msec
