                         Program Version 4.2.0 -  RELEASE  -
|  1> ! ri-mp2 cc-pvtz cc-pvtz/c TightSCF NoKeepInts
|  2>
|  3> %scf
|  4>   MaxCore 4096
|  5> end
|  6> *xyz  0  1
|  7>     C       14.5201548   15.7374936   16.3565565
|  8>     C       15.0711825   16.2621395   15.0173137
|  9>     O       16.4585159   15.8869140   14.8907920
| 10>     C       17.5261510   16.5244633   15.4747864
| 11>     O       18.6598241   16.1073333   15.3290289
| 12>     C       17.2235211   17.6380634   16.4201913
| 13>     C       16.9261455   18.8649029   15.9270134
| 14>     C       16.6290884   19.2252790   14.4845035
| 15>     N       16.9889801   19.9995060   16.7377720
| 16>     C       17.6011894   20.0330000   17.9628487
| 17>     S       17.7612995   21.4382490   18.8194991
| 18>     N       18.1058983   18.8428369   18.4257532
| 19>     C       17.8798565   17.5248742   17.7989484
| 20>     C       17.2386857   16.4781508   18.6985496
| 21>     C       17.6389198   15.1330286   18.6041134
| 22>     C       17.0401483   14.1509388   19.4103821
| 23>     C       16.0315904   14.5169297   20.3180237
| 24>     C       15.6288065   15.8560620   20.4125959
| 25>     O       14.6486066   16.2103918   21.2810076
| 26>     C       16.2259728   16.8322052   19.6082960
| 27>     H       14.8798802   16.3390276   17.1970548
| 28>     H       14.8209302   14.6949242   16.5216888
| 29>     H       13.4243412   15.7812502   16.3626778
| 30>     H       14.5114737   15.7774461   14.2067412
| 31>     H       14.9084916   17.3400934   14.9281311
| 32>     H       16.8038099   18.3932343   13.7917600
| 33>     H       17.2774219   20.0451728   14.1486639
| 34>     H       15.5887015   19.5510856   14.3639932
| 35>     H       16.6672755   20.8883391   16.3878379
| 36>     H       18.5591213   18.8932271   19.3296934
| 37>     H       18.9229249   17.2372595   17.5978187
| 38>     H       18.4133914   14.8472638   17.8947360
| 39>     H       17.3571481   13.1126275   19.3273066
| 40>     H       15.5655489   13.7610649   20.9415490
| 41>     H       14.3896885   15.4138175   21.7685184
| 42>     H       15.8923142   17.8614045   19.6918538
| 43> *
| 44>
| 45>                          ****END OF INPUT****

CARTESIAN COORDINATES (ANGSTROEM)
---------------------------------
  C     14.520155   15.737494   16.356556
  C     15.071182   16.262139   15.017314
  O     16.458516   15.886914   14.890792
  C     17.526151   16.524463   15.474786
  O     18.659824   16.107333   15.329029
  C     17.223521   17.638063   16.420191
  C     16.926146   18.864903   15.927013
  C     16.629088   19.225279   14.484504
  N     16.988980   19.999506   16.737772
  C     17.601189   20.033000   17.962849
  S     17.761299   21.438249   18.819499
  N     18.105898   18.842837   18.425753
  C     17.879856   17.524874   17.798948
  C     17.238686   16.478151   18.698550
  C     17.638920   15.133029   18.604113
  C     17.040148   14.150939   19.410382
  C     16.031590   14.516930   20.318024
  C     15.628806   15.856062   20.412596
  O     14.648607   16.210392   21.281008
  C     16.225973   16.832205   19.608296
  H     14.879880   16.339028   17.197055
  H     14.820930   14.694924   16.521689
  H     13.424341   15.781250   16.362678
  H     14.511474   15.777446   14.206741
  H     14.908492   17.340093   14.928131
  H     16.803810   18.393234   13.791760
  H     17.277422   20.045173   14.148664
  H     15.588701   19.551086   14.363993
  H     16.667275   20.888339   16.387838
  H     18.559121   18.893227   19.329693
  H     18.922925   17.237260   17.597819
  H     18.413391   14.847264   17.894736
  H     17.357148   13.112628   19.327307
  H     15.565549   13.761065   20.941549
  H     14.389688   15.413818   21.768518
  H     15.892314   17.861404   19.691854

 Total Charge           Charge          ....    0
 Multiplicity           Mult            ....    1
 Number of Electrons    NEL             ....  154
 Basis Dimension        Dim             ....  828

ORBITAL ENERGIES
----------------

  NO   OCC          E(Eh)            E(eV)
   0   2.0000     -91.889796     -2500.4485
   1   2.0000     -20.603886      -560.6602
   2   2.0000     -20.599831      -560.5499
   3   2.0000     -20.551608      -559.2377
   4   2.0000     -15.626914      -425.2300
   5   2.0000     -15.610131      -424.7733
   6   2.0000     -11.401585      -310.2529
   7   2.0000     -11.385817      -309.8238
   8   2.0000     -11.332597      -308.3756
   9   2.0000     -11.317531      -307.9657
  10   2.0000     -11.312244      -307.8218
  11   2.0000     -11.307983      -307.7059
  12   2.0000     -11.269380      -306.6554
  13   2.0000     -11.265874      -306.5600
  14   2.0000     -11.265522      -306.5504
  15   2.0000     -11.258202      -306.3513
  16   2.0000     -11.246195      -306.0245
  17   2.0000     -11.241964      -305.9094
  18   2.0000     -11.239762      -305.8495
  19   2.0000     -11.228073      -305.5314
  20   2.0000      -8.894903      -242.0426
  21   2.0000      -6.576487      -178.9553
  22   2.0000      -6.574471      -178.9005
  23   2.0000      -6.573891      -178.8847
  24   2.0000      -1.448607       -39.4186
  25   2.0000      -1.419542       -38.6277
  26   2.0000      -1.362817       -37.0841
  27   2.0000      -1.340976       -36.4898
  28   2.0000      -1.239679       -33.7334
  29   2.0000      -1.161749       -31.6128
  30   2.0000      -1.127141       -30.6711
  31   2.0000      -1.049167       -28.5493
  32   2.0000      -1.038185       -28.2504
  33   2.0000      -1.020111       -27.7586
  34   2.0000      -1.007085       -27.4042
  35   2.0000      -0.990593       -26.9554
  36   2.0000      -0.927294       -25.2330
  37   2.0000      -0.894025       -24.3276
  38   2.0000      -0.854565       -23.2539
  39   2.0000      -0.842223       -22.9180
  40   2.0000      -0.836934       -22.7741
  41   2.0000      -0.833088       -22.6695
  42   2.0000      -0.751707       -20.4550
  43   2.0000      -0.740659       -20.1544
  44   2.0000      -0.732403       -19.9297
  45   2.0000      -0.697250       -18.9731
  46   2.0000      -0.690635       -18.7931
  47   2.0000      -0.682331       -18.5672
  48   2.0000      -0.674516       -18.3545
  49   2.0000      -0.664971       -18.0948
  50   2.0000      -0.652649       -17.7595
  51   2.0000      -0.641466       -17.4552
  52   2.0000      -0.638230       -17.3671
  53   2.0000      -0.620574       -16.8867
  54   2.0000      -0.613407       -16.6916
  55   2.0000      -0.607771       -16.5383
  56   2.0000      -0.603094       -16.4110
  57   2.0000      -0.588586       -16.0162
  58   2.0000      -0.578301       -15.7364
  59   2.0000      -0.571160       -15.5420
  60   2.0000      -0.564014       -15.3476
  61   2.0000      -0.556650       -15.1472
  62   2.0000      -0.538301       -14.6479
  63   2.0000      -0.536561       -14.6006
  64   2.0000      -0.520213       -14.1557
  65   2.0000      -0.512199       -13.9376
  66   2.0000      -0.506930       -13.7943
  67   2.0000      -0.502511       -13.6740
  68   2.0000      -0.486365       -13.2347
  69   2.0000      -0.466479       -12.6935
  70   2.0000      -0.454392       -12.3646
  71   2.0000      -0.452631       -12.3167
  72   2.0000      -0.357772        -9.7355
  73   2.0000      -0.350549        -9.5389
  74   2.0000      -0.329416        -8.9639
  75   2.0000      -0.325330        -8.8527
  76   2.0000      -0.320226        -8.7138
  77   0.0000       0.089497         2.4353
  78   0.0000       0.104776         2.8511
  79   0.0000       0.114199         3.1075
  80   0.0000       0.125147         3.4054
  81   0.0000       0.129627         3.5273

MULLIKEN ATOMIC CHARGES
-----------------------
   0 C :   -0.299680
   1 C :    0.025613
   2 O :   -0.318182
   3 C :    0.429016
   4 O :   -0.383098
   5 C :   -0.212393
   6 C :    0.131643
   7 C :   -0.331138
   8 N :   -0.140890
   9 C :    0.211462
  10 S :   -0.443512
  11 N :   -0.235149
  12 C :    0.079318
  13 C :    0.013084
  14 C :   -0.223043
  15 C :   -0.135251
  16 C :   -0.272356
  17 C :    0.321641
  18 O :   -0.355475
  19 C :   -0.253581
  20 H :    0.107190
  21 H :    0.113054
  22 H :    0.103956
  23 H :    0.124278
  24 H :    0.086363
  25 H :    0.127371
  26 H :    0.138966
  27 H :    0.122995
  28 H :    0.196344
  29 H :    0.206308
  30 H :    0.170217
  31 H :    0.177286
  32 H :    0.165605
  33 H :    0.132492
  34 H :    0.241202
  35 H :    0.178344
Sum of atomic charges:   -0.0000000

LOEWDIN ATOMIC CHARGES
----------------------
   0 C :    0.106923
   1 C :   -0.022121
   2 O :    0.306417
   3 C :   -0.415753
   4 O :    0.120375
   5 C :   -0.080212
   6 C :   -0.097401
   7 C :    0.122408
   8 N :    0.402375
   9 C :   -0.456848
  10 S :   -0.038578
  11 N :    0.396765
  12 C :   -0.048229
  13 C :   -0.043285
  14 C :    0.019334
  15 C :    0.046022
  16 C :   -0.000201
  17 C :   -0.190326
  18 O :    0.396275
  19 C :    0.026810
  20 H :   -0.032717
  21 H :   -0.022040
  22 H :   -0.026474
  23 H :   -0.021025
  24 H :   -0.038019
  25 H :   -0.008420
  26 H :   -0.008468
  27 H :   -0.017965
  28 H :   -0.057147
  29 H :   -0.063601
  30 H :   -0.003186
  31 H :   -0.021712
  32 H :   -0.018234
  33 H :   -0.034738
  34 H :   -0.153039
  35 H :   -0.023965

  Mayer bond orders larger than 0.100000
B(  0-C ,  1-C ) :   0.9649 B(  0-C , 20-H ) :   0.9693 B(  0-C , 21-H ) :   0.9731
B(  0-C , 22-H ) :   0.9772 B(  1-C ,  2-O ) :   0.9000 B(  1-C , 23-H ) :   0.9839
B(  1-C , 24-H ) :   0.9684 B(  2-O ,  3-C ) :   1.1746 B(  3-C ,  4-O ) :   2.0921
B(  3-C ,  5-C ) :   0.9135 B(  5-C ,  6-C ) :   1.7264 B(  5-C , 12-C ) :   0.9316
B(  6-C ,  7-C ) :   0.9348 B(  6-C ,  8-N ) :   1.1041 B(  7-C , 25-H ) :   0.9783
B(  7-C , 26-H ) :   0.9709 B(  7-C , 27-H ) :   0.9674 B(  8-N ,  9-C ) :   1.2010
B(  8-N , 28-H ) :   0.9518 B(  9-C , 10-S ) :   1.6075 B(  9-C , 11-N ) :   1.2902
B( 11-N , 12-C ) :   0.9730 B( 11-N , 29-H ) :   0.9456 B( 12-C , 13-C ) :   0.9743
B( 12-C , 30-H ) :   0.9879 B( 13-C , 14-C ) :   1.3856 B( 13-C , 19-C ) :   1.3411
B( 14-C , 15-C ) :   1.4005 B( 14-C , 31-H ) :   0.9589 B( 15-C , 16-C ) :   1.3581
B( 15-C , 32-H ) :   0.9691 B( 16-C , 17-C ) :   1.3329 B( 16-C , 33-H ) :   0.9844
B( 17-C , 18-O ) :   1.1099 B( 17-C , 19-C ) :   1.3604 B( 18-O , 34-H ) :   0.9793
B( 19-C , 35-H ) :   0.9571

MP2 TOTAL ENERGY:    -1274.327677924 Eh
FINAL SINGLE POINT ENERGY     -1274.327677923591

DIPOLE MOMENT
-------------
                                X             Y             Z
Electronic contribution:      8.84780       7.30165       6.81334
Nuclear contribution   :    -10.51104      -8.48773      -7.35683
                        -----------------------------------------
Total Dipole Moment    :     -1.66324      -1.18608      -0.54349
                        -----------------------------------------
Magnitude (a.u.)       :      2.11389
Magnitude (Debye)      :      5.37309

Rotational constants in cm-1:     0.011650     0.009219     0.006373
Rotational constants in MHz :   349.267779   276.374997   191.045616

                             ****ORCA TERMINATED NORMALLY****
TOTAL RUN TIME: 0 days 1 hours 46 minutes 12 seconds 881 msec
