                         Program Version 4.2.0 -  RELEASE  -
|  1> ! ri-mp2 cc-pvtz cc-pvtz/c TightSCF NoKeepInts
|  2>
|  3> %scf
|  4>   MaxCore 4096
|  5> end
|  6> *xyz  0  1
|  7>     C       15.5910134   14.1664447   14.6126189
|  8>     C       14.7935972   15.3723122   15.1371098
|  9>     O       15.7136687   16.2061718   15.8631714
| 10>     C       15.6033088   17.5682155   15.8135944
| 11>     O       14.7798723   18.1301065   15.1112042
| 12>     C       16.5857755   18.2597653   16.7216160
| 13>     C       16.8135615   19.5941703   16.6114366
| 14>     C       15.9978446   20.6022701   15.8283340
| 15>     N       17.9029801   20.1938283   17.2475286
| 16>     C       18.9193809   19.5071603   17.8542742
| 17>     S       20.2315341   20.2769635   18.5034491
| 18>     N       18.8042548   18.1404609   17.8767736
| 19>     C       17.6282235   17.3730585   17.4248260
| 20>     C       17.0548968   16.4826887   18.5196493
| 21>     C       17.1683577   15.0825253   18.4382074
| 22>     C       16.6413665   14.2638923   19.4512997
| 23>     C       15.9995838   14.8508099   20.5554971
| 24>     C       15.8894097   16.2457839   20.6404600
| 25>     O       15.2715672   16.8148672   21.7060779
| 26>     C       16.4147681   17.0578352   19.6304672
| 27>     H       14.9381949   13.4916032   14.0456936
| 28>     H       16.0292798   13.6019019   15.4449054
| 29>     H       16.4012619   14.4967127   13.9507212
| 30>     H       14.3619584   15.9015588   14.2766162
| 31>     H       13.9753327   15.0463994   15.7923499
| 32>     H       14.9363941   20.5337203   16.0992594
| 33>     H       16.0745055   20.4089124   14.7507927
| 34>     H       16.3115148   21.6382053   16.0027643
| 35>     H       18.0104785   21.1951134   17.2186501
| 36>     H       19.5533559   17.6627189   18.3615726
| 37>     H       18.0865754   16.7655389   16.6316534
| 38>     H       17.6590827   14.6283309   17.5816413
| 39>     H       16.7302637   13.1814382   19.3786958
| 40>     H       15.5910186   14.2229482   21.3403926
| 41>     H       14.9965473   16.0998210   22.2992206
| 42>     H       16.3262708   18.1357460   19.7154754
| 43> *
| 44>
| 45>                          ****END OF INPUT****

CARTESIAN COORDINATES (ANGSTROEM)
---------------------------------
  C     15.591013   14.166445   14.612619
  C     14.793597   15.372312   15.137110
  O     15.713669   16.206172   15.863171
  C     15.603309   17.568215   15.813594
  O     14.779872   18.130107   15.111204
  C     16.585776   18.259765   16.721616
  C     16.813561   19.594170   16.611437
  C     15.997845   20.602270   15.828334
  N     17.902980   20.193828   17.247529
  C     18.919381   19.507160   17.854274
  S     20.231534   20.276964   18.503449
  N     18.804255   18.140461   17.876774
  C     17.628224   17.373058   17.424826
  C     17.054897   16.482689   18.519649
  C     17.168358   15.082525   18.438207
  C     16.641367   14.263892   19.451300
  C     15.999584   14.850810   20.555497
  C     15.889410   16.245784   20.640460
  O     15.271567   16.814867   21.706078
  C     16.414768   17.057835   19.630467
  H     14.938195   13.491603   14.045694
  H     16.029280   13.601902   15.444905
  H     16.401262   14.496713   13.950721
  H     14.361958   15.901559   14.276616
  H     13.975333   15.046399   15.792350
  H     14.936394   20.533720   16.099259
  H     16.074506   20.408912   14.750793
  H     16.311515   21.638205   16.002764
  H     18.010479   21.195113   17.218650
  H     19.553356   17.662719   18.361573
  H     18.086575   16.765539   16.631653
  H     17.659083   14.628331   17.581641
  H     16.730264   13.181438   19.378696
  H     15.591019   14.222948   21.340393
  H     14.996547   16.099821   22.299221
  H     16.326271   18.135746   19.715475

 Total Charge           Charge          ....    0
 Multiplicity           Mult            ....    1
 Number of Electrons    NEL             ....  154
 Basis Dimension        Dim             ....  828

ORBITAL ENERGIES
----------------

  NO   OCC          E(Eh)            E(eV)
   0   2.0000     -91.888669     -2500.4178
   1   2.0000     -20.602149      -560.6130
   2   2.0000     -20.595628      -560.4355
   3   2.0000     -20.540733      -558.9418
   4   2.0000     -15.628963      -425.2857
   5   2.0000     -15.606823      -424.6833
   6   2.0000     -11.395220      -310.0797
   7   2.0000     -11.383287      -309.7550
   8   2.0000     -11.337196      -308.5008
   9   2.0000     -11.312735      -307.8352
  10   2.0000     -11.307363      -307.6890
  11   2.0000     -11.295816      -307.3748
  12   2.0000     -11.259961      -306.3991
  13   2.0000     -11.259375      -306.3832
  14   2.0000     -11.254242      -306.2435
  15   2.0000     -11.251351      -306.1648
  16   2.0000     -11.242708      -305.9296
  17   2.0000     -11.238146      -305.8055
  18   2.0000     -11.238002      -305.8016
  19   2.0000     -11.231688      -305.6298
  20   2.0000      -8.893741      -242.0110
  21   2.0000      -6.575315      -178.9234
  22   2.0000      -6.573316      -178.8690
  23   2.0000      -6.572726      -178.8530
  24   2.0000      -1.451501       -39.4974
  25   2.0000      -1.415292       -38.5120
  26   2.0000      -1.354589       -36.8602
  27   2.0000      -1.340199       -36.4687
  28   2.0000      -1.238073       -33.6897
  29   2.0000      -1.156804       -31.4782
  30   2.0000      -1.120834       -30.4994
  31   2.0000      -1.043383       -28.3919
  32   2.0000      -1.040417       -28.3112
  33   2.0000      -1.014202       -27.5978
  34   2.0000      -0.996326       -27.1114
  35   2.0000      -0.984507       -26.7898
  36   2.0000      -0.921421       -25.0731
  37   2.0000      -0.889667       -24.2091
  38   2.0000      -0.846044       -23.0220
  39   2.0000      -0.837203       -22.7815
  40   2.0000      -0.833362       -22.6769
  41   2.0000      -0.816880       -22.2284
  42   2.0000      -0.765560       -20.8319
  43   2.0000      -0.732816       -19.9409
  44   2.0000      -0.720525       -19.6065
  45   2.0000      -0.694459       -18.8972
  46   2.0000      -0.685689       -18.6585
  47   2.0000      -0.679222       -18.4826
  48   2.0000      -0.678085       -18.4516
  49   2.0000      -0.662781       -18.0352
  50   2.0000      -0.646444       -17.5906
  51   2.0000      -0.640702       -17.4344
  52   2.0000      -0.633286       -17.2326
  53   2.0000      -0.606009       -16.4903
  54   2.0000      -0.600966       -16.3531
  55   2.0000      -0.598353       -16.2820
  56   2.0000      -0.596544       -16.2328
  57   2.0000      -0.577148       -15.7050
  58   2.0000      -0.569412       -15.4945
  59   2.0000      -0.568626       -15.4731
  60   2.0000      -0.562129       -15.2963
  61   2.0000      -0.549113       -14.9421
  62   2.0000      -0.541321       -14.7301
  63   2.0000      -0.526249       -14.3200
  64   2.0000      -0.523465       -14.2442
  65   2.0000      -0.512838       -13.9550
  66   2.0000      -0.501115       -13.6360
  67   2.0000      -0.496636       -13.5142
  68   2.0000      -0.483874       -13.1669
  69   2.0000      -0.463504       -12.6126
  70   2.0000      -0.458806       -12.4847
  71   2.0000      -0.447431       -12.1752
  72   2.0000      -0.352882        -9.6024
  73   2.0000      -0.349035        -9.4977
  74   2.0000      -0.327794        -8.9197
  75   2.0000      -0.320153        -8.7118
  76   2.0000      -0.317817        -8.6482
  77   0.0000       0.077929         2.1206
  78   0.0000       0.105486         2.8704
  79   0.0000       0.124047         3.3755
  80   0.0000       0.132877         3.6158
  81   0.0000       0.135640         3.6910

MULLIKEN ATOMIC CHARGES
-----------------------
   0 C :   -0.269986
   1 C :    0.023440
   2 O :   -0.337968
   3 C :    0.440040
   4 O :   -0.436727
   5 C :   -0.222168
   6 C :    0.171344
   7 C :   -0.269313
   8 N :   -0.126304
   9 C :    0.209928
  10 S :   -0.442210
  11 N :   -0.214384
  12 C :    0.050801
  13 C :    0.047628
  14 C :   -0.176718
  15 C :   -0.134479
  16 C :   -0.275399
  17 C :    0.316606
  18 O :   -0.356974
  19 C :   -0.248296
  20 H :    0.096866
  21 H :    0.091552
  22 H :    0.095525
  23 H :    0.119246
  24 H :    0.095356
  25 H :    0.133824
  26 H :    0.128683
  27 H :    0.094298
  28 H :    0.199853
  29 H :    0.200420
  30 H :    0.152689
  31 H :    0.151297
  32 H :    0.159450
  33 H :    0.129422
  34 H :    0.240397
  35 H :    0.162261
Sum of atomic charges:   -0.0000000

LOEWDIN ATOMIC CHARGES
----------------------
   0 C :    0.104677
   1 C :   -0.011979
   2 O :    0.311920
   3 C :   -0.413856
   4 O :    0.094110
   5 C :   -0.094653
   6 C :   -0.056544
   7 C :    0.130923
   8 N :    0.407096
   9 C :   -0.456846
  10 S :   -0.036783
  11 N :    0.394739
  12 C :   -0.055049
  13 C :   -0.039336
  14 C :    0.016792
  15 C :    0.038959
  16 C :   -0.000305
  17 C :   -0.189499
  18 O :    0.394935
  19 C :    0.033580
  20 H :   -0.024610
  21 H :   -0.030641
  22 H :   -0.026886
  23 H :   -0.027637
  24 H :   -0.029348
  25 H :   -0.004122
  26 H :   -0.005285
  27 H :   -0.023723
  28 H :   -0.057152
  29 H :   -0.064288
  30 H :   -0.014400
  31 H :   -0.030685
  32 H :   -0.021670
  33 H :   -0.035524
  34 H :   -0.154120
  35 H :   -0.022788

  Mayer bond orders larger than 0.100000
B(  0-C ,  1-C ) :   0.9712 B(  0-C , 20-H ) :   0.9775 B(  0-C , 21-H ) :   0.9791
B(  0-C , 22-H ) :   0.9774 B(  1-C ,  2-O ) :   0.8952 B(  1-C , 23-H ) :   0.9766
B(  1-C , 24-H ) :   0.9782 B(  2-O ,  3-C ) :   1.1807 B(  3-C ,  4-O ) :   1.9641
B(  3-C ,  5-C ) :   1.0665 B(  5-C ,  6-C ) :   1.6448 B(  5-C , 12-C ) :   0.9544
B(  6-C ,  7-C ) :   0.9657 B(  6-C ,  8-N ) :   1.1531 B(  7-C , 25-H ) :   0.9615
B(  7-C , 26-H ) :   0.9587 B(  7-C , 27-H ) :   0.9904 B(  8-N ,  9-C ) :   1.1879
B(  8-N , 28-H ) :   0.9464 B(  9-C , 10-S ) :   1.6060 B(  9-C , 11-N ) :   1.3089
B( 11-N , 12-C ) :   0.9697 B( 11-N , 29-H ) :   0.9484 B( 12-C , 13-C ) :   0.9649
B( 12-C , 30-H ) :   1.0016 B( 13-C , 14-C ) :   1.3573 B( 13-C , 19-C ) :   1.3804
B( 14-C , 15-C ) :   1.3944 B( 14-C , 31-H ) :   0.9708 B( 15-C , 16-C ) :   1.3608
B( 15-C , 32-H ) :   0.9709 B( 16-C , 17-C ) :   1.3346 B( 16-C , 33-H ) :   0.9853
B( 17-C , 18-O ) :   1.1041 B( 17-C , 19-C ) :   1.3649 B( 18-O , 34-H ) :   0.9800
B( 19-C , 35-H ) :   0.9597

MP2 TOTAL ENERGY:    -1274.343753649 Eh
FINAL SINGLE POINT ENERGY     -1274.343753649136

DIPOLE MOMENT
-------------
                                X             Y             Z
Electronic contribution:      8.31471      10.57257       9.23493
Nuclear contribution   :     -9.51730     -12.16993      -9.60337
                        -----------------------------------------
Total Dipole Moment    :     -1.20258      -1.59735      -0.36843
                        -----------------------------------------
Magnitude (a.u.)       :      2.03310
Magnitude (Debye)      :      5.16772

Rotational constants in cm-1:     0.010740     0.008563     0.005905
Rotational constants in MHz :   321.964787   256.709770   177.035641

                             ****ORCA TERMINATED NORMALLY****
TOTAL RUN TIME: 0 days 1 hours 38 minutes 14 seconds 501 msec
