                         Program Version 4.2.0 -  RELEASE  -
|  1> ! ri-mp2 cc-pvtz cc-pvtz/c TightSCF NoKeepInts
|  2>
|  3> %scf
|  4>   MaxCore 4096
|  5> end
|  6> *xyz  0  1
|  7>     C       14.2773144   16.3459144   15.9500881
|  8>     C       15.2272963   15.6448028   14.9581578
|  9>     O       16.3167784   16.5126680   14.5911797
| 10>     C       17.3504541   16.6308231   15.4716587
| 11>     O       18.2228728   15.7839285   15.5433510
| 12>     C       17.1948837   17.7290259   16.4776032
| 13>     C       16.7915797   18.9697904   16.1055452
| 14>     C       16.2672271   19.3933749   14.7477954
| 15>     N       16.9166933   20.0516483   16.9800048
| 16>     C       17.6396578   20.0231657   18.1428725
| 17>     S       17.8390327   21.3718890   19.0788425
| 18>     N       18.2104821   18.8207040   18.4790799
| 19>     C       17.9766170   17.5412016   17.7804556
| 20>     C       17.3974183   16.4488213   18.6688563
| 21>     C       17.9753718   15.1669861   18.6937984
| 22>     C       17.4320144   14.1536413   19.5010121
| 23>     C       16.3001702   14.4243201   20.2890249
| 24>     C       15.7201104   15.7000098   20.2633748
| 25>     O       14.6219229   15.9619572   21.0157980
| 26>     C       16.2631844   16.7066300   19.4586527
| 27>     H       14.7672640   16.5245214   16.9143243
| 28>     H       13.3995681   15.7159523   16.1394004
| 29>     H       13.9236781   17.3028024   15.5496650
| 30>     H       15.6089427   14.7095490   15.3914074
| 31>     H       14.6608367   15.3872396   14.0539068
| 32>     H       15.2592259   19.0002781   14.5741212
| 33>     H       16.9147534   19.0199283   13.9442086
| 34>     H       16.2201461   20.4834705   14.6350971
| 35>     H       16.5281186   20.9475379   16.7317339
| 36>     H       18.7276956   18.8238732   19.3493030
| 37>     H       19.0047628   17.2898335   17.4806753
| 38>     H       18.8421803   14.9527190   18.0722439
| 39>     H       17.8859300   13.1641470   19.5089529
| 40>     H       15.8763594   13.6438514   20.9122637
| 41>     H       14.4267566   15.1653072   21.5319589
| 42>     H       15.7997000   17.6876869   19.4515858
| 43> *
| 44>
| 45>                          ****END OF INPUT****

CARTESIAN COORDINATES (ANGSTROEM)
---------------------------------
  C     14.277314   16.345914   15.950088
  C     15.227296   15.644803   14.958158
  O     16.316778   16.512668   14.591180
  C     17.350454   16.630823   15.471659
  O     18.222873   15.783929   15.543351
  C     17.194884   17.729026   16.477603
  C     16.791580   18.969790   16.105545
  C     16.267227   19.393375   14.747795
  N     16.916693   20.051648   16.980005
  C     17.639658   20.023166   18.142872
  S     17.839033   21.371889   19.078842
  N     18.210482   18.820704   18.479080
  C     17.976617   17.541202   17.780456
  C     17.397418   16.448821   18.668856
  C     17.975372   15.166986   18.693798
  C     17.432014   14.153641   19.501012
  C     16.300170   14.424320   20.289025
  C     15.720110   15.700010   20.263375
  O     14.621923   15.961957   21.015798
  C     16.263184   16.706630   19.458653
  H     14.767264   16.524521   16.914324
  H     13.399568   15.715952   16.139400
  H     13.923678   17.302802   15.549665
  H     15.608943   14.709549   15.391407
  H     14.660837   15.387240   14.053907
  H     15.259226   19.000278   14.574121
  H     16.914753   19.019928   13.944209
  H     16.220146   20.483470   14.635097
  H     16.528119   20.947538   16.731734
  H     18.727696   18.823873   19.349303
  H     19.004763   17.289834   17.480675
  H     18.842180   14.952719   18.072244
  H     17.885930   13.164147   19.508953
  H     15.876359   13.643851   20.912264
  H     14.426757   15.165307   21.531959
  H     15.799700   17.687687   19.451586

 Total Charge           Charge          ....    0
 Multiplicity           Mult            ....    1
 Number of Electrons    NEL             ....  154
 Basis Dimension        Dim             ....  828

ORBITAL ENERGIES
----------------

  NO   OCC          E(Eh)            E(eV)
   0   2.0000     -91.889961     -2500.4530
   1   2.0000     -20.596870      -560.4693
   2   2.0000     -20.586221      -560.1796
   3   2.0000     -20.554348      -559.3123
   4   2.0000     -15.629926      -425.3119
   5   2.0000     -15.608108      -424.7182
   6   2.0000     -11.394102      -310.0493
   7   2.0000     -11.384997      -309.8015
   8   2.0000     -11.337273      -308.5029
   9   2.0000     -11.313539      -307.8571
  10   2.0000     -11.307050      -307.6805
  11   2.0000     -11.305167      -307.6292
  12   2.0000     -11.261282      -306.4351
  13   2.0000     -11.260711      -306.4195
  14   2.0000     -11.258959      -306.3719
  15   2.0000     -11.253548      -306.2246
  16   2.0000     -11.243280      -305.9452
  17   2.0000     -11.239375      -305.8389
  18   2.0000     -11.235925      -305.7451
  19   2.0000     -11.230935      -305.6093
  20   2.0000      -8.895038      -242.0463
  21   2.0000      -6.576612      -178.9587
  22   2.0000      -6.574611      -178.9043
  23   2.0000      -6.574020      -178.8882
  24   2.0000      -1.450761       -39.4772
  25   2.0000      -1.416643       -38.5488
  26   2.0000      -1.358814       -36.9752
  27   2.0000      -1.341273       -36.4979
  28   2.0000      -1.238774       -33.7088
  29   2.0000      -1.157725       -31.5033
  30   2.0000      -1.123605       -30.5748
  31   2.0000      -1.045618       -28.4527
  32   2.0000      -1.034587       -28.1525
  33   2.0000      -1.015376       -27.6298
  34   2.0000      -1.002567       -27.2812
  35   2.0000      -0.988344       -26.8942
  36   2.0000      -0.924244       -25.1500
  37   2.0000      -0.892343       -24.2819
  38   2.0000      -0.849665       -23.1206
  39   2.0000      -0.839565       -22.8457
  40   2.0000      -0.833532       -22.6816
  41   2.0000      -0.823216       -22.4008
  42   2.0000      -0.755688       -20.5633
  43   2.0000      -0.736410       -20.0387
  44   2.0000      -0.729348       -19.8466
  45   2.0000      -0.694928       -18.9100
  46   2.0000      -0.686993       -18.6940
  47   2.0000      -0.677606       -18.4386
  48   2.0000      -0.675222       -18.3737
  49   2.0000      -0.662216       -18.0198
  50   2.0000      -0.653775       -17.7901
  51   2.0000      -0.645987       -17.5782
  52   2.0000      -0.637040       -17.3347
  53   2.0000      -0.609997       -16.5989
  54   2.0000      -0.602843       -16.4042
  55   2.0000      -0.600437       -16.3387
  56   2.0000      -0.597658       -16.2631
  57   2.0000      -0.587464       -15.9857
  58   2.0000      -0.576349       -15.6833
  59   2.0000      -0.569929       -15.5086
  60   2.0000      -0.562895       -15.3171
  61   2.0000      -0.551902       -15.0180
  62   2.0000      -0.547671       -14.9029
  63   2.0000      -0.523804       -14.2534
  64   2.0000      -0.520424       -14.1615
  65   2.0000      -0.512338       -13.9414
  66   2.0000      -0.500281       -13.6133
  67   2.0000      -0.495512       -13.4836
  68   2.0000      -0.484418       -13.1817
  69   2.0000      -0.464562       -12.6414
  70   2.0000      -0.457455       -12.4480
  71   2.0000      -0.453780       -12.3480
  72   2.0000      -0.354407        -9.6439
  73   2.0000      -0.348901        -9.4941
  74   2.0000      -0.329103        -8.9554
  75   2.0000      -0.320838        -8.7304
  76   2.0000      -0.319151        -8.6845
  77   0.0000       0.072919         1.9842
  78   0.0000       0.105058         2.8588
  79   0.0000       0.120223         3.2714
  80   0.0000       0.132146         3.5959
  81   0.0000       0.134212         3.6521

MULLIKEN ATOMIC CHARGES
-----------------------
   0 C :   -0.316878
   1 C :    0.041945
   2 O :   -0.374699
   3 C :    0.476343
   4 O :   -0.388990
   5 C :   -0.260854
   6 C :    0.173904
   7 C :   -0.285112
   8 N :   -0.131115
   9 C :    0.205916
  10 S :   -0.440030
  11 N :   -0.215421
  12 C :    0.067912
  13 C :    0.037970
  14 C :   -0.198120
  15 C :   -0.130837
  16 C :   -0.278068
  17 C :    0.327424
  18 O :   -0.358506
  19 C :   -0.286761
  20 H :    0.117191
  21 H :    0.116998
  22 H :    0.093450
  23 H :    0.100671
  24 H :    0.110324
  25 H :    0.123979
  26 H :    0.128955
  27 H :    0.105451
  28 H :    0.198202
  29 H :    0.200258
  30 H :    0.159405
  31 H :    0.170034
  32 H :    0.163044
  33 H :    0.130885
  34 H :    0.240664
  35 H :    0.174464
Sum of atomic charges:   -0.0000000

LOEWDIN ATOMIC CHARGES
----------------------
   0 C :    0.104125
   1 C :   -0.017457
   2 O :    0.289575
   3 C :   -0.419791
   4 O :    0.127233
   5 C :   -0.094210
   6 C :   -0.069500
   7 C :    0.127353
   8 N :    0.405700
   9 C :   -0.457608
  10 S :   -0.036095
  11 N :    0.395940
  12 C :   -0.048825
  13 C :   -0.043284
  14 C :    0.023074
  15 C :    0.042481
  16 C :   -0.000772
  17 C :   -0.193293
  18 O :    0.394229
  19 C :    0.028552
  20 H :   -0.030654
  21 H :   -0.023423
  22 H :   -0.032248
  23 H :   -0.025836
  24 H :   -0.021928
  25 H :   -0.014372
  26 H :   -0.006581
  27 H :   -0.019335
  28 H :   -0.058333
  29 H :   -0.063616
  30 H :   -0.006175
  31 H :   -0.022270
  32 H :   -0.019683
  33 H :   -0.035348
  34 H :   -0.153812
  35 H :   -0.023812

  Mayer bond orders larger than 0.100000
B(  0-C ,  1-C ) :   0.9643 B(  0-C , 20-H ) :   0.9662 B(  0-C , 21-H ) :   0.9786
B(  0-C , 22-H ) :   0.9778 B(  1-C ,  2-O ) :   0.8977 B(  1-C , 23-H ) :   0.9771
B(  1-C , 24-H ) :   0.9842 B(  2-O ,  3-C ) :   1.0870 B(  3-C ,  4-O ) :   2.0549
B(  3-C ,  5-C ) :   0.9889 B(  5-C ,  6-C ) :   1.6764 B(  5-C , 12-C ) :   0.9413
B(  6-C ,  7-C ) :   0.9502 B(  6-C ,  8-N ) :   1.1345 B(  7-C , 25-H ) :   0.9648
B(  7-C , 26-H ) :   0.9670 B(  7-C , 27-H ) :   0.9884 B(  8-N ,  9-C ) :   1.1875
B(  8-N , 28-H ) :   0.9477 B(  9-C , 10-S ) :   1.6124 B(  9-C , 11-N ) :   1.2981
B( 11-N , 12-C ) :   0.9817 B( 11-N , 29-H ) :   0.9486 B( 12-C , 13-C ) :   0.9676
B( 12-C , 30-H ) :   0.9936 B( 13-C , 14-C ) :   1.3853 B( 13-C , 19-C ) :   1.3481
B( 14-C , 15-C ) :   1.3955 B( 14-C , 31-H ) :   0.9595 B( 15-C , 16-C ) :   1.3603
B( 15-C , 32-H ) :   0.9704 B( 16-C , 17-C ) :   1.3324 B( 16-C , 33-H ) :   0.9848
B( 17-C , 18-O ) :   1.1069 B( 17-C , 19-C ) :   1.3568 B( 18-O , 34-H ) :   0.9801
B( 19-C , 35-H ) :   0.9585

MP2 TOTAL ENERGY:    -1274.325291340 Eh
FINAL SINGLE POINT ENERGY     -1274.325291339827

DIPOLE MOMENT
-------------
                                X             Y             Z
Electronic contribution:      9.34177       7.27709       7.27843
Nuclear contribution   :    -10.68675      -8.60885      -7.92345
                        -----------------------------------------
Total Dipole Moment    :     -1.34497      -1.33176      -0.64502
                        -----------------------------------------
Magnitude (a.u.)       :      1.99965
Magnitude (Debye)      :      5.08270

Rotational constants in cm-1:     0.011252     0.009290     0.006445
Rotational constants in MHz :   337.316478   278.503889   193.225452

                             ****ORCA TERMINATED NORMALLY****
TOTAL RUN TIME: 0 days 1 hours 44 minutes 38 seconds 270 msec
