                         Program Version 4.2.0 -  RELEASE  -
|  1> ! ri-mp2 cc-pvtz cc-pvtz/c TightSCF NoKeepInts
|  2>
|  3> %scf
|  4>   MaxCore 4096
|  5> end
|  6> *xyz  0  1
|  7>     C       14.6699964   15.6371325   16.5328104
|  8>     C       15.5189780   15.3623235   15.2797474
|  9>     O       16.9217560   15.6016929   15.5148659
| 10>     C       17.4059146   16.8485332   15.2542655
| 11>     O       17.8790753   17.1179442   14.1653762
| 12>     C       17.1483640   17.8585706   16.3293966
| 13>     C       16.9147279   19.1460981   15.9766026
| 14>     C       16.4703936   19.6360052   14.6146180
| 15>     N       17.0642245   20.1880162   16.8932001
| 16>     C       17.6888793   20.0579470   18.1043717
| 17>     S       17.9509165   21.3530548   19.0987429
| 18>     N       18.1105911   18.7955811   18.4408278
| 19>     C       17.7944300   17.5616914   17.6932833
| 20>     C       17.1406877   16.4901783   18.5544387
| 21>     C       17.6442932   15.1762543   18.5631268
| 22>     C       17.0643950   14.1943832   19.3840119
| 23>     C       15.9767580   14.5307199   20.2082710
| 24>     C       15.4780774   15.8407239   20.2078563
| 25>     O       14.4270322   16.1678322   21.0006577
| 26>     C       16.0567275   16.8160230   19.3892591
| 27>     H       14.9951295   15.0021049   17.3644508
| 28>     H       13.6164254   15.4077061   16.3329603
| 29>     H       14.7289769   16.6875212   16.8386844
| 30>     H       15.3878112   14.3079905   15.0037025
| 31>     H       15.1611244   15.9688641   14.4363544
| 32>     H       15.8130048   18.9061059   14.1265211
| 33>     H       17.3391573   19.7817418   13.9591544
| 34>     H       15.9214303   20.5837143   14.6674549
| 35>     H       16.7988125   21.1256130   16.6366344
| 36>     H       18.5570463   18.7271032   19.3470101
| 37>     H       18.8182149   17.2449817   17.4467812
| 38>     H       18.4835621   14.9131416   17.9240297
| 39>     H       17.4581623   13.1793405   19.3790240
| 40>     H       15.5260174   13.7754115   20.8437130
| 41>     H       14.1960112   15.3819841   21.5185976
| 42>     H       15.6598952   17.8259704   19.4071973
| 43> *
| 44>
| 45>                          ****END OF INPUT****

CARTESIAN COORDINATES (ANGSTROEM)
---------------------------------
  C     14.669996   15.637132   16.532810
  C     15.518978   15.362323   15.279747
  O     16.921756   15.601693   15.514866
  C     17.405915   16.848533   15.254265
  O     17.879075   17.117944   14.165376
  C     17.148364   17.858571   16.329397
  C     16.914728   19.146098   15.976603
  C     16.470394   19.636005   14.614618
  N     17.064225   20.188016   16.893200
  C     17.688879   20.057947   18.104372
  S     17.950917   21.353055   19.098743
  N     18.110591   18.795581   18.440828
  C     17.794430   17.561691   17.693283
  C     17.140688   16.490178   18.554439
  C     17.644293   15.176254   18.563127
  C     17.064395   14.194383   19.384012
  C     15.976758   14.530720   20.208271
  C     15.478077   15.840724   20.207856
  O     14.427032   16.167832   21.000658
  C     16.056728   16.816023   19.389259
  H     14.995129   15.002105   17.364451
  H     13.616425   15.407706   16.332960
  H     14.728977   16.687521   16.838684
  H     15.387811   14.307991   15.003702
  H     15.161124   15.968864   14.436354
  H     15.813005   18.906106   14.126521
  H     17.339157   19.781742   13.959154
  H     15.921430   20.583714   14.667455
  H     16.798813   21.125613   16.636634
  H     18.557046   18.727103   19.347010
  H     18.818215   17.244982   17.446781
  H     18.483562   14.913142   17.924030
  H     17.458162   13.179340   19.379024
  H     15.526017   13.775412   20.843713
  H     14.196011   15.381984   21.518598
  H     15.659895   17.825970   19.407197

 Total Charge           Charge          ....    0
 Multiplicity           Mult            ....    1
 Number of Electrons    NEL             ....  154
 Basis Dimension        Dim             ....  828

ORBITAL ENERGIES
----------------

  NO   OCC          E(Eh)            E(eV)
   0   2.0000     -91.890828     -2500.4765
   1   2.0000     -20.599520      -560.5414
   2   2.0000     -20.582976      -560.0912
   3   2.0000     -20.557921      -559.4095
   4   2.0000     -15.628967      -425.2858
   5   2.0000     -15.610070      -424.7716
   6   2.0000     -11.394497      -310.0600
   7   2.0000     -11.385647      -309.8192
   8   2.0000     -11.333574      -308.4022
   9   2.0000     -11.316821      -307.9464
  10   2.0000     -11.314452      -307.8819
  11   2.0000     -11.303427      -307.5819
  12   2.0000     -11.264598      -306.5253
  13   2.0000     -11.258115      -306.3489
  14   2.0000     -11.257623      -306.3355
  15   2.0000     -11.256579      -306.3071
  16   2.0000     -11.247468      -306.0592
  17   2.0000     -11.242118      -305.9136
  18   2.0000     -11.241918      -305.9081
  19   2.0000     -11.223242      -305.3999
  20   2.0000      -8.895880      -242.0692
  21   2.0000      -6.577448      -178.9815
  22   2.0000      -6.575453      -178.9272
  23   2.0000      -6.574858      -178.9110
  24   2.0000      -1.449636       -39.4466
  25   2.0000      -1.419331       -38.6220
  26   2.0000      -1.358720       -36.9727
  27   2.0000      -1.341442       -36.5025
  28   2.0000      -1.240280       -33.7497
  29   2.0000      -1.160904       -31.5898
  30   2.0000      -1.123901       -30.5829
  31   2.0000      -1.046669       -28.4813
  32   2.0000      -1.033872       -28.1331
  33   2.0000      -1.018692       -27.7200
  34   2.0000      -1.002353       -27.2754
  35   2.0000      -0.988769       -26.9058
  36   2.0000      -0.925240       -25.1771
  37   2.0000      -0.889073       -24.1929
  38   2.0000      -0.849220       -23.1085
  39   2.0000      -0.841745       -22.9051
  40   2.0000      -0.837536       -22.7905
  41   2.0000      -0.825598       -22.4657
  42   2.0000      -0.757807       -20.6210
  43   2.0000      -0.736377       -20.0378
  44   2.0000      -0.727033       -19.7836
  45   2.0000      -0.698020       -18.9941
  46   2.0000      -0.690861       -18.7993
  47   2.0000      -0.677741       -18.4423
  48   2.0000      -0.675201       -18.3731
  49   2.0000      -0.667082       -18.1522
  50   2.0000      -0.649300       -17.6684
  51   2.0000      -0.646631       -17.5957
  52   2.0000      -0.634851       -17.2752
  53   2.0000      -0.610277       -16.6065
  54   2.0000      -0.604626       -16.4527
  55   2.0000      -0.602296       -16.3893
  56   2.0000      -0.589682       -16.0461
  57   2.0000      -0.586765       -15.9667
  58   2.0000      -0.579644       -15.7729
  59   2.0000      -0.575061       -15.6482
  60   2.0000      -0.565627       -15.3915
  61   2.0000      -0.553987       -15.0748
  62   2.0000      -0.540363       -14.7040
  63   2.0000      -0.524718       -14.2783
  64   2.0000      -0.516582       -14.0569
  65   2.0000      -0.514502       -14.0003
  66   2.0000      -0.503104       -13.6901
  67   2.0000      -0.502276       -13.6676
  68   2.0000      -0.479483       -13.0474
  69   2.0000      -0.464079       -12.6282
  70   2.0000      -0.455892       -12.4055
  71   2.0000      -0.452999       -12.3267
  72   2.0000      -0.356721        -9.7069
  73   2.0000      -0.348386        -9.4801
  74   2.0000      -0.329848        -8.9756
  75   2.0000      -0.324771        -8.8375
  76   2.0000      -0.320629        -8.7247
  77   0.0000       0.076044         2.0693
  78   0.0000       0.101643         2.7658
  79   0.0000       0.119628         3.2552
  80   0.0000       0.128699         3.5021
  81   0.0000       0.129497         3.5238

MULLIKEN ATOMIC CHARGES
-----------------------
   0 C :   -0.313209
   1 C :    0.040230
   2 O :   -0.362569
   3 C :    0.429624
   4 O :   -0.366476
   5 C :   -0.217318
   6 C :    0.151130
   7 C :   -0.277473
   8 N :   -0.130766
   9 C :    0.209300
  10 S :   -0.437956
  11 N :   -0.219983
  12 C :    0.036356
  13 C :    0.022688
  14 C :   -0.180074
  15 C :   -0.138703
  16 C :   -0.276474
  17 C :    0.313789
  18 O :   -0.357578
  19 C :   -0.235229
  20 H :    0.112980
  21 H :    0.116911
  22 H :    0.101135
  23 H :    0.115984
  24 H :    0.089047
  25 H :    0.116030
  26 H :    0.141774
  27 H :    0.097912
  28 H :    0.198949
  29 H :    0.202811
  30 H :    0.155396
  31 H :    0.151518
  32 H :    0.163107
  33 H :    0.132735
  34 H :    0.241015
  35 H :    0.173390
Sum of atomic charges:   -0.0000000

LOEWDIN ATOMIC CHARGES
----------------------
   0 C :    0.103411
   1 C :   -0.018164
   2 O :    0.289645
   3 C :   -0.424595
   4 O :    0.136032
   5 C :   -0.096407
   6 C :   -0.071240
   7 C :    0.128552
   8 N :    0.406522
   9 C :   -0.456759
  10 S :   -0.033931
  11 N :    0.396204
  12 C :   -0.053238
  13 C :   -0.042067
  14 C :    0.021160
  15 C :    0.040402
  16 C :   -0.000870
  17 C :   -0.192573
  18 O :    0.396266
  19 C :    0.034035
  20 H :   -0.023048
  21 H :   -0.026335
  22 H :   -0.035305
  23 H :   -0.020488
  24 H :   -0.032155
  25 H :   -0.010232
  26 H :   -0.004308
  27 H :   -0.021348
  28 H :   -0.057116
  29 H :   -0.063485
  30 H :   -0.011206
  31 H :   -0.026956
  32 H :   -0.019720
  33 H :   -0.034597
  34 H :   -0.153336
  35 H :   -0.022750

  Mayer bond orders larger than 0.100000
B(  0-C ,  1-C ) :   0.9671 B(  0-C , 20-H ) :   0.9716 B(  0-C , 21-H ) :   0.9766
B(  0-C , 22-H ) :   0.9692 B(  1-C ,  2-O ) :   0.8894 B(  1-C , 23-H ) :   0.9853
B(  1-C , 24-H ) :   0.9798 B(  2-O ,  3-C ) :   1.1168 B(  3-C ,  4-O ) :   2.1128
B(  3-C ,  5-C ) :   0.9670 B(  5-C ,  6-C ) :   1.6618 B(  5-C , 12-C ) :   0.9583
B(  6-C ,  7-C ) :   0.9540 B(  6-C ,  8-N ) :   1.1355 B(  7-C , 25-H ) :   0.9746
B(  7-C , 26-H ) :   0.9563 B(  7-C , 27-H ) :   0.9846 B(  8-N ,  9-C ) :   1.1926
B(  8-N , 28-H ) :   0.9487 B(  9-C , 10-S ) :   1.6143 B(  9-C , 11-N ) :   1.2929
B( 11-N , 12-C ) :   0.9763 B( 11-N , 29-H ) :   0.9462 B( 12-C , 13-C ) :   0.9557
B( 12-C , 30-H ) :   1.0049 B( 13-C , 14-C ) :   1.3722 B( 13-C , 19-C ) :   1.3524
B( 14-C , 15-C ) :   1.4010 B( 14-C , 31-H ) :   0.9700 B( 15-C , 16-C ) :   1.3541
B( 15-C , 32-H ) :   0.9706 B( 16-C , 17-C ) :   1.3336 B( 16-C , 33-H ) :   0.9846
B( 17-C , 18-O ) :   1.1077 B( 17-C , 19-C ) :   1.3625 B( 18-O , 34-H ) :   0.9794
B( 19-C , 35-H ) :   0.9579

MP2 TOTAL ENERGY:    -1274.315426408 Eh
FINAL SINGLE POINT ENERGY     -1274.315426408024

DIPOLE MOMENT
-------------
                                X             Y             Z
Electronic contribution:      8.60453       8.57622       6.16320
Nuclear contribution   :     -9.89778     -10.22261      -6.35183
                        -----------------------------------------
Total Dipole Moment    :     -1.29325      -1.64640      -0.18863
                        -----------------------------------------
Magnitude (a.u.)       :      2.10207
Magnitude (Debye)      :      5.34304

Rotational constants in cm-1:     0.012112     0.009211     0.006195
Rotational constants in MHz :   363.121818   276.148374   185.712714

                             ****ORCA TERMINATED NORMALLY****
TOTAL RUN TIME: 0 days 1 hours 46 minutes 29 seconds 771 msec
