                         Program Version 4.2.0 -  RELEASE  -
|  1> ! ri-mp2 cc-pvtz cc-pvtz/c TightSCF NoKeepInts
|  2>
|  3> %scf
|  4>   MaxCore 4096
|  5> end
|  6> *xyz  0  1
|  7>     C       14.2391186   14.8920126   15.3577382
|  8>     C       15.2291194   15.7046265   16.2078689
|  9>     O       16.3986106   15.9236863   15.3974343
| 10>     C       16.8843034   17.1846978   15.1951006
| 11>     O       17.1769890   17.5549372   14.0732344
| 12>     C       17.0252354   18.0529993   16.4130908
| 13>     C       16.9085038   19.3957996   16.2624935
| 14>     C       16.2492726   20.1154340   15.1044825
| 15>     N       17.3995933   20.2816349   17.2226909
| 16>     C       18.2433535   19.9200020   18.2375753
| 17>     S       18.8959421   21.0311102   19.2740034
| 18>     N       18.5407212   18.5837977   18.3350710
| 19>     C       17.9013902   17.5064986   17.5546127
| 20>     C       17.2862761   16.4363845   18.4402197
| 21>     C       17.8052785   15.1285324   18.4493929
| 22>     C       17.2373604   14.1436095   19.2750316
| 23>     C       16.1482525   14.4715523   20.1010649
| 24>     C       15.6378403   15.7770322   20.1014102
| 25>     O       14.5852975   16.0961500   20.8950994
| 26>     C       16.2031405   16.7551918   19.2771232
| 27>     H       13.3258542   14.6792543   15.9265010
| 28>     H       14.6854148   13.9368970   15.0534942
| 29>     H       13.9606952   15.4462992   14.4525566
| 30>     H       14.7613178   16.6494286   16.5156315
| 31>     H       15.4797365   15.1218433   17.1009210
| 32>     H       15.4092265   19.5351765   14.7028282
| 33>     H       16.9666042   20.2580738   14.2854369
| 34>     H       15.8575690   21.0993860   15.3885970
| 35>     H       17.2242424   21.2697903   17.1311533
| 36>     H       19.1546259   18.3449051   19.1039800
| 37>     H       18.7917515   17.1042533   17.0497467
| 38>     H       18.6450740   14.8719377   17.8081761
| 39>     H       17.6413402   13.1322899   19.2730096
| 40>     H       15.7070752   13.7132328   20.7400063
| 41>     H       14.3788798   15.3180752   21.4353516
| 42>     H       15.8019942   17.7634676   19.2958716
| 43> *
| 44>
| 45>                          ****END OF INPUT****

CARTESIAN COORDINATES (ANGSTROEM)
---------------------------------
  C     14.239119   14.892013   15.357738
  C     15.229119   15.704626   16.207869
  O     16.398611   15.923686   15.397434
  C     16.884303   17.184698   15.195101
  O     17.176989   17.554937   14.073234
  C     17.025235   18.052999   16.413091
  C     16.908504   19.395800   16.262494
  C     16.249273   20.115434   15.104482
  N     17.399593   20.281635   17.222691
  C     18.243354   19.920002   18.237575
  S     18.895942   21.031110   19.274003
  N     18.540721   18.583798   18.335071
  C     17.901390   17.506499   17.554613
  C     17.286276   16.436384   18.440220
  C     17.805278   15.128532   18.449393
  C     17.237360   14.143609   19.275032
  C     16.148253   14.471552   20.101065
  C     15.637840   15.777032   20.101410
  O     14.585297   16.096150   20.895099
  C     16.203140   16.755192   19.277123
  H     13.325854   14.679254   15.926501
  H     14.685415   13.936897   15.053494
  H     13.960695   15.446299   14.452557
  H     14.761318   16.649429   16.515632
  H     15.479736   15.121843   17.100921
  H     15.409227   19.535176   14.702828
  H     16.966604   20.258074   14.285437
  H     15.857569   21.099386   15.388597
  H     17.224242   21.269790   17.131153
  H     19.154626   18.344905   19.103980
  H     18.791752   17.104253   17.049747
  H     18.645074   14.871938   17.808176
  H     17.641340   13.132290   19.273010
  H     15.707075   13.713233   20.740006
  H     14.378880   15.318075   21.435352
  H     15.801994   17.763468   19.295872

 Total Charge           Charge          ....    0
 Multiplicity           Mult            ....    1
 Number of Electrons    NEL             ....  154
 Basis Dimension        Dim             ....  828

ORBITAL ENERGIES
----------------

  NO   OCC          E(Eh)            E(eV)
   0   2.0000     -91.890974     -2500.4805
   1   2.0000     -20.605080      -560.6927
   2   2.0000     -20.591961      -560.3358
   3   2.0000     -20.548438      -559.1514
   4   2.0000     -15.629144      -425.2906
   5   2.0000     -15.610741      -424.7899
   6   2.0000     -11.393454      -310.0316
   7   2.0000     -11.385784      -309.8229
   8   2.0000     -11.333954      -308.4126
   9   2.0000     -11.323319      -308.1232
  10   2.0000     -11.316085      -307.9263
  11   2.0000     -11.295829      -307.3751
  12   2.0000     -11.268958      -306.6439
  13   2.0000     -11.264561      -306.5243
  14   2.0000     -11.258303      -306.3540
  15   2.0000     -11.255225      -306.2702
  16   2.0000     -11.253820      -306.2320
  17   2.0000     -11.248037      -306.0746
  18   2.0000     -11.247595      -306.0626
  19   2.0000     -11.226005      -305.4751
  20   2.0000      -8.896034      -242.0734
  21   2.0000      -6.577603      -178.9857
  22   2.0000      -6.575607      -178.9314
  23   2.0000      -6.575013      -178.9152
  24   2.0000      -1.446362       -39.3575
  25   2.0000      -1.424857       -38.7723
  26   2.0000      -1.357320       -36.9346
  27   2.0000      -1.342032       -36.5185
  28   2.0000      -1.241271       -33.7767
  29   2.0000      -1.166507       -31.7423
  30   2.0000      -1.124374       -30.5958
  31   2.0000      -1.050643       -28.5895
  32   2.0000      -1.034016       -28.1370
  33   2.0000      -1.024459       -27.8769
  34   2.0000      -1.002306       -27.2741
  35   2.0000      -0.988822       -26.9072
  36   2.0000      -0.927244       -25.2316
  37   2.0000      -0.877538       -23.8790
  38   2.0000      -0.852401       -23.1950
  39   2.0000      -0.844975       -22.9929
  40   2.0000      -0.843296       -22.9473
  41   2.0000      -0.836656       -22.7666
  42   2.0000      -0.759877       -20.6773
  43   2.0000      -0.740062       -20.1381
  44   2.0000      -0.723596       -19.6901
  45   2.0000      -0.703920       -19.1546
  46   2.0000      -0.692463       -18.8429
  47   2.0000      -0.676808       -18.4169
  48   2.0000      -0.674288       -18.3483
  49   2.0000      -0.670206       -18.2372
  50   2.0000      -0.650104       -17.6902
  51   2.0000      -0.648685       -17.6516
  52   2.0000      -0.638313       -17.3694
  53   2.0000      -0.614855       -16.7311
  54   2.0000      -0.609163       -16.5762
  55   2.0000      -0.604156       -16.4399
  56   2.0000      -0.588143       -16.0042
  57   2.0000      -0.583751       -15.8847
  58   2.0000      -0.575313       -15.6551
  59   2.0000      -0.571714       -15.5571
  60   2.0000      -0.563892       -15.3443
  61   2.0000      -0.551299       -15.0016
  62   2.0000      -0.544596       -14.8192
  63   2.0000      -0.531167       -14.4538
  64   2.0000      -0.520932       -14.1753
  65   2.0000      -0.515335       -14.0230
  66   2.0000      -0.505559       -13.7570
  67   2.0000      -0.500048       -13.6070
  68   2.0000      -0.487312       -13.2604
  69   2.0000      -0.468949       -12.7608
  70   2.0000      -0.452403       -12.3105
  71   2.0000      -0.447526       -12.1778
  72   2.0000      -0.358745        -9.7620
  73   2.0000      -0.353642        -9.6231
  74   2.0000      -0.332963        -9.0604
  75   2.0000      -0.329138        -8.9563
  76   2.0000      -0.320788        -8.7291
  77   0.0000       0.078190         2.1277
  78   0.0000       0.094922         2.5830
  79   0.0000       0.118441         3.2229
  80   0.0000       0.126763         3.4494
  81   0.0000       0.128461         3.4956

MULLIKEN ATOMIC CHARGES
-----------------------
   0 C :   -0.252324
   1 C :    0.008106
   2 O :   -0.327068
   3 C :    0.414389
   4 O :   -0.373369
   5 C :   -0.251167
   6 C :    0.169242
   7 C :   -0.272978
   8 N :   -0.129936
   9 C :    0.209791
  10 S :   -0.439016
  11 N :   -0.208068
  12 C :    0.028376
  13 C :   -0.023262
  14 C :   -0.154510
  15 C :   -0.138813
  16 C :   -0.269511
  17 C :    0.294951
  18 O :   -0.355616
  19 C :   -0.200091
  20 H :    0.087257
  21 H :    0.099669
  22 H :    0.098822
  23 H :    0.097402
  24 H :    0.113951
  25 H :    0.116907
  26 H :    0.141664
  27 H :    0.096414
  28 H :    0.199118
  29 H :    0.199736
  30 H :    0.154944
  31 H :    0.154588
  32 H :    0.164707
  33 H :    0.135493
  34 H :    0.242178
  35 H :    0.168021
Sum of atomic charges:   -0.0000000

LOEWDIN ATOMIC CHARGES
----------------------
   0 C :    0.107718
   1 C :   -0.025768
   2 O :    0.305865
   3 C :   -0.425688
   4 O :    0.125083
   5 C :   -0.102049
   6 C :   -0.069451
   7 C :    0.129078
   8 N :    0.406468
   9 C :   -0.456433
  10 S :   -0.034199
  11 N :    0.395473
  12 C :   -0.054652
  13 C :   -0.044853
  14 C :    0.018521
  15 C :    0.042734
  16 C :    0.001736
  17 C :   -0.192143
  18 O :    0.396914
  19 C :    0.036010
  20 H :   -0.027582
  21 H :   -0.024951
  22 H :   -0.026377
  23 H :   -0.035340
  24 H :   -0.029357
  25 H :   -0.008640
  26 H :   -0.003857
  27 H :   -0.021784
  28 H :   -0.056477
  29 H :   -0.063568
  30 H :   -0.010797
  31 H :   -0.026481
  32 H :   -0.018492
  33 H :   -0.033087
  34 H :   -0.152003
  35 H :   -0.021573

  Mayer bond orders larger than 0.100000
B(  0-C ,  1-C ) :   0.9833 B(  0-C , 20-H ) :   0.9776 B(  0-C , 21-H ) :   0.9797
B(  0-C , 22-H ) :   0.9791 B(  1-C ,  2-O ) :   0.8873 B(  1-C , 23-H ) :   0.9658
B(  1-C , 24-H ) :   0.9721 B(  2-O ,  3-C ) :   1.1707 B(  3-C ,  4-O ) :   2.1055
B(  3-C ,  5-C ) :   0.9701 B(  5-C ,  6-C ) :   1.6606 B(  5-C , 12-C ) :   0.9652
B(  6-C ,  7-C ) :   0.9551 B(  6-C ,  8-N ) :   1.1434 B(  7-C , 25-H ) :   0.9743
B(  7-C , 26-H ) :   0.9548 B(  7-C , 27-H ) :   0.9849 B(  8-N ,  9-C ) :   1.1922
B(  8-N , 28-H ) :   0.9485 B(  9-C , 10-S ) :   1.6128 B(  9-C , 11-N ) :   1.2964
B( 11-N , 12-C ) :   0.9730 B( 11-N , 29-H ) :   0.9481 B( 12-C , 13-C ) :   0.9645
B( 12-C , 30-H ) :   1.0077 B( 13-C , 14-C ) :   1.3589 B( 13-C , 19-C ) :   1.3640
B( 14-C , 15-C ) :   1.3959 B( 14-C , 31-H ) :   0.9709 B( 15-C , 16-C ) :   1.3624
B( 15-C , 32-H ) :   0.9702 B( 16-C , 17-C ) :   1.3275 B( 16-C , 33-H ) :   0.9833
B( 17-C , 18-O ) :   1.1100 B( 17-C , 19-C ) :   1.3713 B( 18-O , 34-H ) :   0.9783
B( 19-C , 35-H ) :   0.9602

MP2 TOTAL ENERGY:    -1274.324967784 Eh
FINAL SINGLE POINT ENERGY     -1274.324967784138

DIPOLE MOMENT
-------------
                                X             Y             Z
Electronic contribution:     10.38068       9.31497       6.88638
Nuclear contribution   :    -11.77780     -10.86548      -6.45278
                        -----------------------------------------
Total Dipole Moment    :     -1.39712      -1.55051       0.43360
                        -----------------------------------------
Magnitude (a.u.)       :      2.13167
Magnitude (Debye)      :      5.41828

Rotational constants in cm-1:     0.011972     0.008821     0.006031
Rotational constants in MHz :   358.915084   264.447198   180.791835

                             ****ORCA TERMINATED NORMALLY****
TOTAL RUN TIME: 0 days 1 hours 45 minutes 57 seconds 322 msec
