                         Program Version 4.2.0 -  RELEASE  -
|  1> ! ri-mp2 cc-pvtz cc-pvtz/c TightSCF NoKeepInts
|  2>
|  3> %scf
|  4>   MaxCore 4096
|  5> end
|  6> *xyz  0  1
|  7>     C       14.1474345   15.0783132   15.1797452
|  8>     C       14.9291413   16.3865668   15.3809834
|  9>     O       16.2606724   16.1630963   14.8762195
| 10>     C       17.3660799   16.4562089   15.6292069
| 11>     O       18.3491406   15.7387678   15.6123942
| 12>     C       17.2667118   17.6548457   16.5199818
| 13>     C       16.9600853   18.8762947   16.0165323
| 14>     C       16.4936220   19.2046303   14.6120868
| 15>     N       17.1496019   20.0298935   16.7800267
| 16>     C       17.8620323   20.0702856   17.9493978
| 17>     S       18.1456700   21.4902065   18.7478148
| 18>     N       18.3484209   18.8720422   18.4110717
| 19>     C       18.0300238   17.5479310   17.8405200
| 20>     C       17.3775998   16.5788871   18.8153018
| 21>     C       17.8269679   15.2490476   18.8999180
| 22>     C       17.2142581   14.3430025   19.7815048
| 23>     C       16.1411479   14.7700455   20.5824221
| 24>     C       15.6870293   16.0931905   20.4946998
| 25>     O       14.6445174   16.5055533   21.2587863
| 26>     C       16.2980580   16.9928563   19.6152037
| 27>     H       14.6218271   14.2571190   15.7321802
| 28>     H       14.1155131   14.8057071   14.1173564
| 29>     H       13.1168008   15.1839102   15.5396615
| 30>     H       14.4391378   17.2002859   14.8327540
| 31>     H       14.9319551   16.6289311   16.4524727
| 32>     H       16.8124602   18.4512993   13.8812671
| 33>     H       16.9122286   20.1579032   14.2645627
| 34>     H       15.4016222   19.2863202   14.5658127
| 35>     H       16.8297724   20.9212831   16.4349548
| 36>     H       18.8655468   18.9278600   19.2797320
| 37>     H       19.0399205   17.1999066   17.5762662
| 38>     H       18.6480854   14.9142544   18.2690144
| 39>     H       17.5692326   13.3152188   19.8370134
| 40>     H       15.6642453   14.0726959   21.2632751
| 41>     H       14.3896400   15.7632387   21.8274485
| 42>     H       15.9307966   18.0124010   19.5604108
| 43> *
| 44>
| 45>                          ****END OF INPUT****

CARTESIAN COORDINATES (ANGSTROEM)
---------------------------------
  C     14.147434   15.078313   15.179745
  C     14.929141   16.386567   15.380983
  O     16.260672   16.163096   14.876219
  C     17.366080   16.456209   15.629207
  O     18.349141   15.738768   15.612394
  C     17.266712   17.654846   16.519982
  C     16.960085   18.876295   16.016532
  C     16.493622   19.204630   14.612087
  N     17.149602   20.029894   16.780027
  C     17.862032   20.070286   17.949398
  S     18.145670   21.490206   18.747815
  N     18.348421   18.872042   18.411072
  C     18.030024   17.547931   17.840520
  C     17.377600   16.578887   18.815302
  C     17.826968   15.249048   18.899918
  C     17.214258   14.343002   19.781505
  C     16.141148   14.770046   20.582422
  C     15.687029   16.093190   20.494700
  O     14.644517   16.505553   21.258786
  C     16.298058   16.992856   19.615204
  H     14.621827   14.257119   15.732180
  H     14.115513   14.805707   14.117356
  H     13.116801   15.183910   15.539661
  H     14.439138   17.200286   14.832754
  H     14.931955   16.628931   16.452473
  H     16.812460   18.451299   13.881267
  H     16.912229   20.157903   14.264563
  H     15.401622   19.286320   14.565813
  H     16.829772   20.921283   16.434955
  H     18.865547   18.927860   19.279732
  H     19.039921   17.199907   17.576266
  H     18.648085   14.914254   18.269014
  H     17.569233   13.315219   19.837013
  H     15.664245   14.072696   21.263275
  H     14.389640   15.763239   21.827448
  H     15.930797   18.012401   19.560411

 Total Charge           Charge          ....    0
 Multiplicity           Mult            ....    1
 Number of Electrons    NEL             ....  154
 Basis Dimension        Dim             ....  828

ORBITAL ENERGIES
----------------

  NO   OCC          E(Eh)            E(eV)
   0   2.0000     -91.890043     -2500.4552
   1   2.0000     -20.601901      -560.6062
   2   2.0000     -20.598689      -560.5188
   3   2.0000     -20.550503      -559.2076
   4   2.0000     -15.628836      -425.2822
   5   2.0000     -15.609208      -424.7481
   6   2.0000     -11.397959      -310.1542
   7   2.0000     -11.385717      -309.8211
   8   2.0000     -11.336172      -308.4729
   9   2.0000     -11.315781      -307.9180
  10   2.0000     -11.308866      -307.7299
  11   2.0000     -11.306911      -307.6767
  12   2.0000     -11.266147      -306.5674
  13   2.0000     -11.263726      -306.5016
  14   2.0000     -11.263268      -306.4891
  15   2.0000     -11.255810      -306.2862
  16   2.0000     -11.245018      -305.9925
  17   2.0000     -11.241373      -305.8933
  18   2.0000     -11.238044      -305.8027
  19   2.0000     -11.232416      -305.6496
  20   2.0000      -8.895146      -242.0492
  21   2.0000      -6.576726      -178.9618
  22   2.0000      -6.574715      -178.9071
  23   2.0000      -6.574131      -178.8912
  24   2.0000      -1.450580       -39.4723
  25   2.0000      -1.418420       -38.5972
  26   2.0000      -1.362569       -37.0774
  27   2.0000      -1.341497       -36.5040
  28   2.0000      -1.239474       -33.7278
  29   2.0000      -1.160087       -31.5676
  30   2.0000      -1.125523       -30.6270
  31   2.0000      -1.047631       -28.5075
  32   2.0000      -1.040252       -28.3067
  33   2.0000      -1.017895       -27.6983
  34   2.0000      -1.005418       -27.3588
  35   2.0000      -0.989063       -26.9138
  36   2.0000      -0.925967       -25.1968
  37   2.0000      -0.882514       -24.0144
  38   2.0000      -0.855928       -23.2910
  39   2.0000      -0.842530       -22.9264
  40   2.0000      -0.836856       -22.7720
  41   2.0000      -0.835083       -22.7238
  42   2.0000      -0.756348       -20.5813
  43   2.0000      -0.739584       -20.1251
  44   2.0000      -0.731515       -19.9055
  45   2.0000      -0.696481       -18.9522
  46   2.0000      -0.688627       -18.7385
  47   2.0000      -0.682526       -18.5725
  48   2.0000      -0.675688       -18.3864
  49   2.0000      -0.662365       -18.0239
  50   2.0000      -0.658449       -17.9173
  51   2.0000      -0.647214       -17.6116
  52   2.0000      -0.639466       -17.4008
  53   2.0000      -0.611868       -16.6498
  54   2.0000      -0.606155       -16.4943
  55   2.0000      -0.602177       -16.3861
  56   2.0000      -0.596565       -16.2334
  57   2.0000      -0.581164       -15.8143
  58   2.0000      -0.577479       -15.7140
  59   2.0000      -0.571760       -15.5584
  60   2.0000      -0.562801       -15.3146
  61   2.0000      -0.559983       -15.2379
  62   2.0000      -0.550004       -14.9664
  63   2.0000      -0.526370       -14.3233
  64   2.0000      -0.517866       -14.0919
  65   2.0000      -0.514609       -14.0032
  66   2.0000      -0.503053       -13.6888
  67   2.0000      -0.500767       -13.6266
  68   2.0000      -0.489082       -13.3086
  69   2.0000      -0.472157       -12.8480
  70   2.0000      -0.456823       -12.4308
  71   2.0000      -0.451340       -12.2816
  72   2.0000      -0.356479        -9.7003
  73   2.0000      -0.351070        -9.5531
  74   2.0000      -0.329438        -8.9645
  75   2.0000      -0.323190        -8.7944
  76   2.0000      -0.319854        -8.7037
  77   0.0000       0.080380         2.1873
  78   0.0000       0.103741         2.8229
  79   0.0000       0.117583         3.1996
  80   0.0000       0.130891         3.5617
  81   0.0000       0.132388         3.6025

MULLIKEN ATOMIC CHARGES
-----------------------
   0 C :   -0.249926
   1 C :    0.015798
   2 O :   -0.323114
   3 C :    0.427411
   4 O :   -0.381302
   5 C :   -0.247395
   6 C :    0.179625
   7 C :   -0.333705
   8 N :   -0.137501
   9 C :    0.206898
  10 S :   -0.441914
  11 N :   -0.218982
  12 C :    0.063755
  13 C :    0.025311
  14 C :   -0.212163
  15 C :   -0.128422
  16 C :   -0.276897
  17 C :    0.314523
  18 O :   -0.356610
  19 C :   -0.256684
  20 H :    0.104746
  21 H :    0.099879
  22 H :    0.088319
  23 H :    0.089638
  24 H :    0.108724
  25 H :    0.141990
  26 H :    0.125954
  27 H :    0.123536
  28 H :    0.198374
  29 H :    0.201593
  30 H :    0.164803
  31 H :    0.174862
  32 H :    0.164232
  33 H :    0.131219
  34 H :    0.241242
  35 H :    0.172183
Sum of atomic charges:   -0.0000000

LOEWDIN ATOMIC CHARGES
----------------------
   0 C :    0.109924
   1 C :   -0.022217
   2 O :    0.306392
   3 C :   -0.417863
   4 O :    0.120970
   5 C :   -0.089697
   6 C :   -0.082561
   7 C :    0.126772
   8 N :    0.403387
   9 C :   -0.457398
  10 S :   -0.037425
  11 N :    0.395997
  12 C :   -0.049532
  13 C :   -0.044179
  14 C :    0.021295
  15 C :    0.044112
  16 C :   -0.000127
  17 C :   -0.192187
  18 O :    0.394455
  19 C :    0.026472
  20 H :   -0.022189
  21 H :   -0.025346
  22 H :   -0.026275
  23 H :   -0.035717
  24 H :   -0.031599
  25 H :   -0.007204
  26 H :   -0.012753
  27 H :   -0.018001
  28 H :   -0.057227
  29 H :   -0.063464
  30 H :   -0.004742
  31 H :   -0.021283
  32 H :   -0.018902
  33 H :   -0.034985
  34 H :   -0.153331
  35 H :   -0.023571

  Mayer bond orders larger than 0.100000
B(  0-C ,  1-C ) :   0.9861 B(  0-C , 20-H ) :   0.9776 B(  0-C , 21-H ) :   0.9786
B(  0-C , 22-H ) :   0.9765 B(  1-C ,  2-O ) :   0.8986 B(  1-C , 23-H ) :   0.9748
B(  1-C , 24-H ) :   0.9597 B(  2-O ,  3-C ) :   1.1697 B(  3-C ,  4-O ) :   2.0858
B(  3-C ,  5-C ) :   0.9386 B(  5-C ,  6-C ) :   1.7015 B(  5-C , 12-C ) :   0.9419
B(  6-C ,  7-C ) :   0.9343 B(  6-C ,  8-N ) :   1.1167 B(  7-C , 25-H ) :   0.9707
B(  7-C , 26-H ) :   0.9801 B(  7-C , 27-H ) :   0.9676 B(  8-N ,  9-C ) :   1.1937
B(  8-N , 28-H ) :   0.9501 B(  9-C , 10-S ) :   1.6110 B(  9-C , 11-N ) :   1.2938
B( 11-N , 12-C ) :   0.9857 B( 11-N , 29-H ) :   0.9481 B( 12-C , 13-C ) :   0.9680
B( 12-C , 30-H ) :   0.9908 B( 13-C , 14-C ) :   1.3860 B( 13-C , 19-C ) :   1.3540
B( 14-C , 15-C ) :   1.3935 B( 14-C , 31-H ) :   0.9591 B( 15-C , 16-C ) :   1.3613
B( 15-C , 32-H ) :   0.9699 B( 16-C , 17-C ) :   1.3315 B( 16-C , 33-H ) :   0.9850
B( 17-C , 18-O ) :   1.1083 B( 17-C , 19-C ) :   1.3650 B( 18-O , 34-H ) :   0.9795
B( 19-C , 35-H ) :   0.9570

MP2 TOTAL ENERGY:    -1274.331610149 Eh
FINAL SINGLE POINT ENERGY     -1274.331610149004

DIPOLE MOMENT
-------------
                                X             Y             Z
Electronic contribution:     10.26227       8.78298       8.46662
Nuclear contribution   :    -11.90352      -9.84901      -8.87343
                        -----------------------------------------
Total Dipole Moment    :     -1.64125      -1.06603      -0.40681
                        -----------------------------------------
Magnitude (a.u.)       :      1.99890
Magnitude (Debye)      :      5.08080

Rotational constants in cm-1:     0.010731     0.009139     0.006177
Rotational constants in MHz :   321.718328   273.967746   185.181080

                             ****ORCA TERMINATED NORMALLY****
TOTAL RUN TIME: 0 days 1 hours 39 minutes 51 seconds 642 msec
