                         Program Version 4.2.0 -  RELEASE  -
|  1> ! ri-mp2 cc-pvtz cc-pvtz/c TightSCF NoKeepInts
|  2>
|  3> %scf
|  4>   MaxCore 4096
|  5> end
|  6> *xyz  0  1
|  7>     C       14.6125373   16.1168506   16.3271967
|  8>     C       15.0274714   16.1701540   14.8390375
|  9>     O       16.4603606   16.1456476   14.6073961
| 10>     C       17.4545471   16.4478393   15.5047986
| 11>     O       18.4616307   15.7659435   15.5589378
| 12>     C       17.2314972   17.5984563   16.4372775
| 13>     C       16.8720368   18.8199783   15.9682723
| 14>     C       16.4574593   19.1873630   14.5574077
| 15>     N       16.9467079   19.9487285   16.7870578
| 16>     C       17.6047584   19.9875132   17.9873933
| 17>     S       17.7589806   21.3887268   18.8517739
| 18>     N       18.1518920   18.8060876   18.4219293
| 19>     C       17.9393879   17.4882668   17.7910891
| 20>     C       17.3136467   16.4470608   18.7081036
| 21>     C       17.8272400   15.1385643   18.7504531
| 22>     C       17.2389067   14.1664532   19.5764597
| 23>     C       16.1261442   14.5053814   20.3651883
| 24>     C       15.6098683   15.8076924   20.3219712
| 25>     O       14.5292349   16.1351374   21.0740748
| 26>     C       16.1975547   16.7734814   19.4987456
| 27>     H       15.2006166   15.3704218   16.8769183
| 28>     H       13.5576355   15.8276929   16.4083608
| 29>     H       14.7130216   17.0902167   16.8198623
| 30>     H       14.5900857   15.3042310   14.3249580
| 31>     H       14.5880264   17.0627742   14.3790181
| 32>     H       16.8783351   18.5049953   13.8092328
| 33>     H       16.8135993   20.1888194   14.2836936
| 34>     H       15.3666598   19.1856375   14.4530310
| 35>     H       16.5813338   20.8305472   16.4636757
| 36>     H       18.6281070   18.8589042   19.3137685
| 37>     H       18.9802707   17.2146694   17.5624338
| 38>     H       18.6797223   14.8717319   18.1289204
| 39>     H       17.6434700   13.1559032   19.5982797
| 40>     H       15.6675159   13.7566569   21.0026029
| 41>     H       14.2963726   15.3566365   21.6022446
| 42>     H       15.7803651   17.7748353   19.4764355
| 43> *
| 44>
| 45>                          ****END OF INPUT****

CARTESIAN COORDINATES (ANGSTROEM)
---------------------------------
  C     14.612537   16.116851   16.327197
  C     15.027471   16.170154   14.839037
  O     16.460361   16.145648   14.607396
  C     17.454547   16.447839   15.504799
  O     18.461631   15.765944   15.558938
  C     17.231497   17.598456   16.437278
  C     16.872037   18.819978   15.968272
  C     16.457459   19.187363   14.557408
  N     16.946708   19.948729   16.787058
  C     17.604758   19.987513   17.987393
  S     17.758981   21.388727   18.851774
  N     18.151892   18.806088   18.421929
  C     17.939388   17.488267   17.791089
  C     17.313647   16.447061   18.708104
  C     17.827240   15.138564   18.750453
  C     17.238907   14.166453   19.576460
  C     16.126144   14.505381   20.365188
  C     15.609868   15.807692   20.321971
  O     14.529235   16.135137   21.074075
  C     16.197555   16.773481   19.498746
  H     15.200617   15.370422   16.876918
  H     13.557635   15.827693   16.408361
  H     14.713022   17.090217   16.819862
  H     14.590086   15.304231   14.324958
  H     14.588026   17.062774   14.379018
  H     16.878335   18.504995   13.809233
  H     16.813599   20.188819   14.283694
  H     15.366660   19.185637   14.453031
  H     16.581334   20.830547   16.463676
  H     18.628107   18.858904   19.313768
  H     18.980271   17.214669   17.562434
  H     18.679722   14.871732   18.128920
  H     17.643470   13.155903   19.598280
  H     15.667516   13.756657   21.002603
  H     14.296373   15.356637   21.602245
  H     15.780365   17.774835   19.476436

 Total Charge           Charge          ....    0
 Multiplicity           Mult            ....    1
 Number of Electrons    NEL             ....  154
 Basis Dimension        Dim             ....  828

ORBITAL ENERGIES
----------------

  NO   OCC          E(Eh)            E(eV)
   0   2.0000     -91.889936     -2500.4523
   1   2.0000     -20.598104      -560.5029
   2   2.0000     -20.596143      -560.4495
   3   2.0000     -20.549093      -559.1692
   4   2.0000     -15.628765      -425.2803
   5   2.0000     -15.608850      -424.7384
   6   2.0000     -11.398965      -310.1816
   7   2.0000     -11.385377      -309.8118
   8   2.0000     -11.335514      -308.4550
   9   2.0000     -11.314915      -307.8945
  10   2.0000     -11.311858      -307.8113
  11   2.0000     -11.308530      -307.7208
  12   2.0000     -11.265678      -306.5547
  13   2.0000     -11.264092      -306.5115
  14   2.0000     -11.262071      -306.4565
  15   2.0000     -11.255135      -306.2678
  16   2.0000     -11.244575      -305.9804
  17   2.0000     -11.240171      -305.8606
  18   2.0000     -11.236977      -305.7737
  19   2.0000     -11.235064      -305.7216
  20   2.0000      -8.895039      -242.0463
  21   2.0000      -6.576620      -178.9589
  22   2.0000      -6.574608      -178.9042
  23   2.0000      -6.574024      -178.8883
  24   2.0000      -1.444079       -39.2954
  25   2.0000      -1.417872       -38.5822
  26   2.0000      -1.357273       -36.9333
  27   2.0000      -1.341637       -36.5078
  28   2.0000      -1.239452       -33.7272
  29   2.0000      -1.159272       -31.5454
  30   2.0000      -1.124823       -30.6080
  31   2.0000      -1.046818       -28.4854
  32   2.0000      -1.038382       -28.2558
  33   2.0000      -1.017270       -27.6813
  34   2.0000      -1.006031       -27.3755
  35   2.0000      -0.989605       -26.9285
  36   2.0000      -0.926423       -25.2093
  37   2.0000      -0.900810       -24.5123
  38   2.0000      -0.852922       -23.2092
  39   2.0000      -0.840771       -22.8785
  40   2.0000      -0.834854       -22.7175
  41   2.0000      -0.826869       -22.5002
  42   2.0000      -0.744678       -20.2637
  43   2.0000      -0.734181       -19.9781
  44   2.0000      -0.731263       -19.8987
  45   2.0000      -0.695091       -18.9144
  46   2.0000      -0.686641       -18.6845
  47   2.0000      -0.680201       -18.5092
  48   2.0000      -0.674551       -18.3555
  49   2.0000      -0.662377       -18.0242
  50   2.0000      -0.657950       -17.9037
  51   2.0000      -0.650235       -17.6938
  52   2.0000      -0.639227       -17.3942
  53   2.0000      -0.619391       -16.8545
  54   2.0000      -0.609532       -16.5862
  55   2.0000      -0.605508       -16.4767
  56   2.0000      -0.601856       -16.3773
  57   2.0000      -0.586162       -15.9503
  58   2.0000      -0.576328       -15.6827
  59   2.0000      -0.564882       -15.3712
  60   2.0000      -0.564083       -15.3495
  61   2.0000      -0.553587       -15.0639
  62   2.0000      -0.543430       -14.7875
  63   2.0000      -0.533671       -14.5219
  64   2.0000      -0.522459       -14.2168
  65   2.0000      -0.512402       -13.9432
  66   2.0000      -0.500212       -13.6115
  67   2.0000      -0.495235       -13.4760
  68   2.0000      -0.485266       -13.2048
  69   2.0000      -0.471149       -12.8206
  70   2.0000      -0.456215       -12.4143
  71   2.0000      -0.448298       -12.1988
  72   2.0000      -0.355934        -9.6855
  73   2.0000      -0.349104        -9.4996
  74   2.0000      -0.329344        -8.9619
  75   2.0000      -0.322804        -8.7839
  76   2.0000      -0.319738        -8.7005
  77   0.0000       0.080010         2.1772
  78   0.0000       0.105474         2.8701
  79   0.0000       0.115390         3.1399
  80   0.0000       0.130802         3.5593
  81   0.0000       0.131596         3.5809

MULLIKEN ATOMIC CHARGES
-----------------------
   0 C :   -0.334395
   1 C :    0.036560
   2 O :   -0.343720
   3 C :    0.438399
   4 O :   -0.380925
   5 C :   -0.256367
   6 C :    0.185932
   7 C :   -0.339444
   8 N :   -0.138328
   9 C :    0.204558
  10 S :   -0.442239
  11 N :   -0.220512
  12 C :    0.070937
  13 C :    0.012388
  14 C :   -0.207301
  15 C :   -0.130588
  16 C :   -0.278400
  17 C :    0.315322
  18 O :   -0.357577
  19 C :   -0.252831
  20 H :    0.127010
  21 H :    0.119623
  22 H :    0.111588
  23 H :    0.127512
  24 H :    0.085908
  25 H :    0.145589
  26 H :    0.126073
  27 H :    0.120975
  28 H :    0.198629
  29 H :    0.202103
  30 H :    0.165594
  31 H :    0.176693
  32 H :    0.164075
  33 H :    0.131751
  34 H :    0.241116
  35 H :    0.174292
Sum of atomic charges:   -0.0000000

LOEWDIN ATOMIC CHARGES
----------------------
   0 C :    0.103095
   1 C :   -0.013205
   2 O :    0.290653
   3 C :   -0.418710
   4 O :    0.121985
   5 C :   -0.084804
   6 C :   -0.082289
   7 C :    0.126476
   8 N :    0.403472
   9 C :   -0.458546
  10 S :   -0.037781
  11 N :    0.396507
  12 C :   -0.047758
  13 C :   -0.043595
  14 C :    0.021135
  15 C :    0.043003
  16 C :   -0.000757
  17 C :   -0.192748
  18 O :    0.394740
  19 C :    0.029643
  20 H :   -0.019785
  21 H :   -0.022303
  22 H :   -0.033935
  23 H :   -0.020180
  24 H :   -0.037213
  25 H :   -0.007190
  26 H :   -0.012771
  27 H :   -0.018782
  28 H :   -0.057462
  29 H :   -0.063250
  30 H :   -0.004386
  31 H :   -0.021334
  32 H :   -0.018932
  33 H :   -0.035014
  34 H :   -0.153560
  35 H :   -0.024419

  Mayer bond orders larger than 0.100000
B(  0-C ,  1-C ) :   0.9556 B(  0-C , 20-H ) :   0.9676 B(  0-C , 21-H ) :   0.9760
B(  0-C , 22-H ) :   0.9720 B(  1-C ,  2-O ) :   0.9054 B(  1-C , 23-H ) :   0.9813
B(  1-C , 24-H ) :   0.9749 B(  2-O ,  3-C ) :   1.1511 B(  3-C ,  4-O ) :   2.0822
B(  3-C ,  5-C ) :   0.9401 B(  5-C ,  6-C ) :   1.7048 B(  5-C , 12-C ) :   0.9412
B(  6-C ,  7-C ) :   0.9374 B(  6-C ,  8-N ) :   1.1124 B(  7-C , 25-H ) :   0.9700
B(  7-C , 26-H ) :   0.9814 B(  7-C , 27-H ) :   0.9664 B(  8-N ,  9-C ) :   1.1943
B(  8-N , 28-H ) :   0.9498 B(  9-C , 10-S ) :   1.6101 B(  9-C , 11-N ) :   1.2941
B( 11-N , 12-C ) :   0.9813 B( 11-N , 29-H ) :   0.9482 B( 12-C , 13-C ) :   0.9684
B( 12-C , 30-H ) :   0.9910 B( 13-C , 14-C ) :   1.3885 B( 13-C , 19-C ) :   1.3491
B( 14-C , 15-C ) :   1.3945 B( 14-C , 31-H ) :   0.9580 B( 15-C , 16-C ) :   1.3604
B( 15-C , 32-H ) :   0.9703 B( 16-C , 17-C ) :   1.3307 B( 16-C , 33-H ) :   0.9848
B( 17-C , 18-O ) :   1.1083 B( 17-C , 19-C ) :   1.3675 B( 18-O , 34-H ) :   0.9797
B( 19-C , 35-H ) :   0.9572

MP2 TOTAL ENERGY:    -1274.325037798 Eh
FINAL SINGLE POINT ENERGY     -1274.325037798115

DIPOLE MOMENT
-------------
                                X             Y             Z
Electronic contribution:      8.84906       6.63484       6.72534
Nuclear contribution   :    -10.47491      -7.76879      -7.28060
                        -----------------------------------------
Total Dipole Moment    :     -1.62586      -1.13395      -0.55526
                        -----------------------------------------
Magnitude (a.u.)       :      2.05854
Magnitude (Debye)      :      5.23238

Rotational constants in cm-1:     0.011488     0.009323     0.006507
Rotational constants in MHz :   344.410658   279.502363   195.065947

                             ****ORCA TERMINATED NORMALLY****
TOTAL RUN TIME: 0 days 2 hours 4 minutes 31 seconds 450 msec
