                         Program Version 4.2.0 -  RELEASE  -
|  1> ! ri-mp2 cc-pvtz cc-pvtz/c TightSCF NoKeepInts
|  2>
|  3> %scf
|  4>   MaxCore 4096
|  5> end
|  6> *xyz  0  1
|  7>     C       14.4885302   16.3839447   16.1207511
|  8>     C       15.1198855   15.8767524   14.8057813
|  9>     O       16.4657627   16.3428869   14.5291960
| 10>     C       17.4288339   16.5378790   15.4830094
| 11>     O       18.3765901   15.7785315   15.5687782
| 12>     C       17.1994198   17.6469974   16.4646145
| 13>     C       16.8064772   18.8736850   16.0373325
| 14>     C       16.3533669   19.2528422   14.6406343
| 15>     N       16.8814858   19.9825554   16.8831409
| 16>     C       17.5642126   20.0002836   18.0701355
| 17>     S       17.7157870   21.3806377   18.9680557
| 18>     N       18.1389347   18.8168880   18.4620942
| 19>     C       17.9352056   17.5120412   17.8017368
| 20>     C       17.3493381   16.4389883   18.7089875
| 21>     C       17.9004259   15.1452918   18.7298049
| 22>     C       17.3526705   14.1482016   19.5540161
| 23>     C       16.2435411   14.4471498   20.3637379
| 24>     C       15.6903671   15.7347689   20.3429134
| 25>     O       14.6138801   16.0239253   21.1163952
| 26>     C       16.2375106   16.7252902   19.5210691
| 27>     H       15.0528227   16.0342114   16.9931259
| 28>     H       13.4704516   15.9875651   16.2186393
| 29>     H       14.4152929   17.4762039   16.1476966
| 30>     H       15.1424542   14.7796633   14.8500705
| 31>     H       14.4703505   16.1488677   13.9638390
| 32>     H       15.3541441   18.8580106   14.4249977
| 33>     H       17.0417227   18.8543850   13.8841655
| 34>     H       16.3175184   20.3390098   14.4909651
| 35>     H       16.4946065   20.8661486   16.5917809
| 36>     H       18.6308836   18.8543980   19.3460979
| 37>     H       18.9759318   17.2647248   17.5446389
| 38>     H       18.7511626   14.9095345   18.0937152
| 39>     H       17.7861711   13.1495366   19.5588417
| 40>     H       15.8165562   13.6792404   21.0002884
| 41>     H       14.4117719   15.2338555   21.6399636
| 42>     H       15.7929339   17.7151040   19.5169893
| 43> *
| 44>
| 45>                          ****END OF INPUT****

CARTESIAN COORDINATES (ANGSTROEM)
---------------------------------
  C     14.488530   16.383945   16.120751
  C     15.119885   15.876752   14.805781
  O     16.465763   16.342887   14.529196
  C     17.428834   16.537879   15.483009
  O     18.376590   15.778531   15.568778
  C     17.199420   17.646997   16.464614
  C     16.806477   18.873685   16.037333
  C     16.353367   19.252842   14.640634
  N     16.881486   19.982555   16.883141
  C     17.564213   20.000284   18.070135
  S     17.715787   21.380638   18.968056
  N     18.138935   18.816888   18.462094
  C     17.935206   17.512041   17.801737
  C     17.349338   16.438988   18.708987
  C     17.900426   15.145292   18.729805
  C     17.352670   14.148202   19.554016
  C     16.243541   14.447150   20.363738
  C     15.690367   15.734769   20.342913
  O     14.613880   16.023925   21.116395
  C     16.237511   16.725290   19.521069
  H     15.052823   16.034211   16.993126
  H     13.470452   15.987565   16.218639
  H     14.415293   17.476204   16.147697
  H     15.142454   14.779663   14.850070
  H     14.470351   16.148868   13.963839
  H     15.354144   18.858011   14.424998
  H     17.041723   18.854385   13.884165
  H     16.317518   20.339010   14.490965
  H     16.494606   20.866149   16.591781
  H     18.630884   18.854398   19.346098
  H     18.975932   17.264725   17.544639
  H     18.751163   14.909534   18.093715
  H     17.786171   13.149537   19.558842
  H     15.816556   13.679240   21.000288
  H     14.411772   15.233856   21.639964
  H     15.792934   17.715104   19.516989

 Total Charge           Charge          ....    0
 Multiplicity           Mult            ....    1
 Number of Electrons    NEL             ....  154
 Basis Dimension        Dim             ....  828

ORBITAL ENERGIES
----------------

  NO   OCC          E(Eh)            E(eV)
   0   2.0000     -91.890080     -2500.4562
   1   2.0000     -20.597331      -560.4819
   2   2.0000     -20.588828      -560.2505
   3   2.0000     -20.551312      -559.2296
   4   2.0000     -15.629798      -425.3084
   5   2.0000     -15.608359      -424.7250
   6   2.0000     -11.396012      -310.1013
   7   2.0000     -11.385103      -309.8044
   8   2.0000     -11.336239      -308.4747
   9   2.0000     -11.314091      -307.8721
  10   2.0000     -11.311091      -307.7904
  11   2.0000     -11.307335      -307.6882
  12   2.0000     -11.263475      -306.4947
  13   2.0000     -11.261332      -306.4364
  14   2.0000     -11.260214      -306.4060
  15   2.0000     -11.254170      -306.2415
  16   2.0000     -11.243775      -305.9587
  17   2.0000     -11.239600      -305.8451
  18   2.0000     -11.236144      -305.7510
  19   2.0000     -11.235866      -305.7435
  20   2.0000      -8.895165      -242.0497
  21   2.0000      -6.576741      -178.9622
  22   2.0000      -6.574737      -178.9077
  23   2.0000      -6.574147      -178.8916
  24   2.0000      -1.444466       -39.3059
  25   2.0000      -1.417116       -38.5617
  26   2.0000      -1.356122       -36.9020
  27   2.0000      -1.341448       -36.5026
  28   2.0000      -1.238977       -33.7143
  29   2.0000      -1.158206       -31.5164
  30   2.0000      -1.123888       -30.5825
  31   2.0000      -1.045993       -28.4629
  32   2.0000      -1.038052       -28.2468
  33   2.0000      -1.016092       -27.6493
  34   2.0000      -1.003823       -27.3154
  35   2.0000      -0.989378       -26.9223
  36   2.0000      -0.925187       -25.1756
  37   2.0000      -0.898916       -24.4608
  38   2.0000      -0.851070       -23.1588
  39   2.0000      -0.840133       -22.8612
  40   2.0000      -0.833888       -22.6912
  41   2.0000      -0.823564       -22.4103
  42   2.0000      -0.748145       -20.3581
  43   2.0000      -0.734238       -19.9796
  44   2.0000      -0.728753       -19.8304
  45   2.0000      -0.694557       -18.8999
  46   2.0000      -0.687400       -18.7051
  47   2.0000      -0.676500       -18.4085
  48   2.0000      -0.672996       -18.3132
  49   2.0000      -0.665555       -18.1107
  50   2.0000      -0.652398       -17.7526
  51   2.0000      -0.650533       -17.7019
  52   2.0000      -0.639564       -17.4034
  53   2.0000      -0.615509       -16.7489
  54   2.0000      -0.604182       -16.4406
  55   2.0000      -0.603098       -16.4111
  56   2.0000      -0.601157       -16.3583
  57   2.0000      -0.585760       -15.9393
  58   2.0000      -0.576369       -15.6838
  59   2.0000      -0.567056       -15.4304
  60   2.0000      -0.563292       -15.3280
  61   2.0000      -0.553203       -15.0534
  62   2.0000      -0.547701       -14.9037
  63   2.0000      -0.531202       -14.4547
  64   2.0000      -0.521557       -14.1923
  65   2.0000      -0.512550       -13.9472
  66   2.0000      -0.499628       -13.5956
  67   2.0000      -0.488722       -13.2988
  68   2.0000      -0.486469       -13.2375
  69   2.0000      -0.467717       -12.7272
  70   2.0000      -0.458688       -12.4815
  71   2.0000      -0.448958       -12.2168
  72   2.0000      -0.354615        -9.6496
  73   2.0000      -0.348501        -9.4832
  74   2.0000      -0.329312        -8.9610
  75   2.0000      -0.321695        -8.7538
  76   2.0000      -0.319399        -8.6913
  77   0.0000       0.075517         2.0549
  78   0.0000       0.105871         2.8809
  79   0.0000       0.117185         3.1888
  80   0.0000       0.131013         3.5650
  81   0.0000       0.131736         3.5847

MULLIKEN ATOMIC CHARGES
-----------------------
   0 C :   -0.334629
   1 C :    0.030142
   2 O :   -0.369889
   3 C :    0.455441
   4 O :   -0.379013
   5 C :   -0.235030
   6 C :    0.141467
   7 C :   -0.293157
   8 N :   -0.132545
   9 C :    0.205886
  10 S :   -0.440660
  11 N :   -0.219790
  12 C :    0.081002
  13 C :    0.010617
  14 C :   -0.199323
  15 C :   -0.132802
  16 C :   -0.276894
  17 C :    0.321132
  18 O :   -0.358070
  19 C :   -0.261378
  20 H :    0.126714
  21 H :    0.124585
  22 H :    0.102084
  23 H :    0.113866
  24 H :    0.110588
  25 H :    0.116038
  26 H :    0.137953
  27 H :    0.109785
  28 H :    0.197805
  29 H :    0.201778
  30 H :    0.162274
  31 H :    0.175365
  32 H :    0.163473
  33 H :    0.131556
  34 H :    0.240870
  35 H :    0.172759
Sum of atomic charges:   -0.0000000

LOEWDIN ATOMIC CHARGES
----------------------
   0 C :    0.102943
   1 C :   -0.015719
   2 O :    0.284336
   3 C :   -0.418239
   4 O :    0.125786
   5 C :   -0.091295
   6 C :   -0.075143
   7 C :    0.127377
   8 N :    0.405062
   9 C :   -0.458109
  10 S :   -0.036561
  11 N :    0.396378
  12 C :   -0.048265
  13 C :   -0.044198
  14 C :    0.022042
  15 C :    0.043116
  16 C :   -0.000819
  17 C :   -0.193523
  18 O :    0.394501
  19 C :    0.028233
  20 H :   -0.024683
  21 H :   -0.020984
  22 H :   -0.033381
  23 H :   -0.024868
  24 H :   -0.024092
  25 H :   -0.015175
  26 H :   -0.005183
  27 H :   -0.018188
  28 H :   -0.058770
  29 H :   -0.063405
  30 H :   -0.005575
  31 H :   -0.021626
  32 H :   -0.019250
  33 H :   -0.035201
  34 H :   -0.153745
  35 H :   -0.023777

  Mayer bond orders larger than 0.100000
B(  0-C ,  1-C ) :   0.9627 B(  0-C , 20-H ) :   0.9641 B(  0-C , 21-H ) :   0.9769
B(  0-C , 22-H ) :   0.9717 B(  1-C ,  2-O ) :   0.9046 B(  1-C , 23-H ) :   0.9837
B(  1-C , 24-H ) :   0.9806 B(  2-O ,  3-C ) :   1.0990 B(  3-C ,  4-O ) :   2.0696
B(  3-C ,  5-C ) :   0.9678 B(  5-C ,  6-C ) :   1.7056 B(  5-C , 12-C ) :   0.9306
B(  6-C ,  7-C ) :   0.9471 B(  6-C ,  8-N ) :   1.1180 B(  7-C , 25-H ) :   0.9667
B(  7-C , 26-H ) :   0.9653 B(  7-C , 27-H ) :   0.9887 B(  8-N ,  9-C ) :   1.1891
B(  8-N , 28-H ) :   0.9474 B(  9-C , 10-S ) :   1.6113 B(  9-C , 11-N ) :   1.2971
B( 11-N , 12-C ) :   0.9770 B( 11-N , 29-H ) :   0.9481 B( 12-C , 13-C ) :   0.9685
B( 12-C , 30-H ) :   0.9929 B( 13-C , 14-C ) :   1.3884 B( 13-C , 19-C ) :   1.3495
B( 14-C , 15-C ) :   1.3967 B( 14-C , 31-H ) :   0.9575 B( 15-C , 16-C ) :   1.3602
B( 15-C , 32-H ) :   0.9705 B( 16-C , 17-C ) :   1.3320 B( 16-C , 33-H ) :   0.9847
B( 17-C , 18-O ) :   1.1074 B( 17-C , 19-C ) :   1.3620 B( 18-O , 34-H ) :   0.9798
B( 19-C , 35-H ) :   0.9589

MP2 TOTAL ENERGY:    -1274.321505871 Eh
FINAL SINGLE POINT ENERGY     -1274.321505870561

DIPOLE MOMENT
-------------
                                X             Y             Z
Electronic contribution:      8.96511       6.83799       7.16347
Nuclear contribution   :    -10.48319      -8.09048      -7.76957
                        -----------------------------------------
Total Dipole Moment    :     -1.51808      -1.25250      -0.60610
                        -----------------------------------------
Magnitude (a.u.)       :      2.05929
Magnitude (Debye)      :      5.23429

Rotational constants in cm-1:     0.011243     0.009352     0.006443
Rotational constants in MHz :   337.059533   280.365712   193.151272

                             ****ORCA TERMINATED NORMALLY****
TOTAL RUN TIME: 0 days 1 hours 50 minutes 23 seconds 907 msec
