                         Program Version 4.2.0 -  RELEASE  -
|  1> ! ri-mp2 cc-pvtz cc-pvtz/c TightSCF NoKeepInts
|  2>
|  3> %scf
|  4>   MaxCore 4096
|  5> end
|  6> *xyz  0  1
|  7>     C       13.7325836   16.2100560   14.7411138
|  8>     C       15.0089672   15.8122439   15.5023243
|  9>     O       16.1394190   16.3878227   14.8249215
| 10>     C       17.2590269   16.5935427   15.5740706
| 11>     O       18.2082320   15.8330974   15.5207902
| 12>     C       17.1602907   17.7089360   16.5672144
| 13>     C       16.6924669   18.9316843   16.2131785
| 14>     C       16.0424784   19.3235403   14.9020718
| 15>     N       16.8594971   20.0303902   17.0590481
| 16>     C       17.6803307   20.0411953   18.1554679
| 17>     S       17.9179078   21.4094657   19.0532171
| 18>     N       18.3132965   18.8608306   18.4571902
| 19>     C       18.0585061   17.5648520   17.7974534
| 20>     C       17.5892886   16.4675483   18.7420164
| 21>     C       18.2046253   15.2031366   18.7269774
| 22>     C       17.7620312   14.1831054   19.5856474
| 23>     C       16.6936877   14.4293790   20.4650780
| 24>     C       16.0751115   15.6870791   20.4779705
| 25>     O       15.0373361   15.9249716   21.3188990
| 26>     C       16.5168384   16.7001176   19.6207814
| 27>     H       12.8566255   15.7195532   15.1830290
| 28>     H       13.8000891   15.9037867   13.6895342
| 29>     H       13.5681367   17.2919872   14.7778798
| 30>     H       14.9356147   16.1798210   16.5352444
| 31>     H       15.1111593   14.7191388   15.5342162
| 32>     H       14.9737495   19.0868479   14.9094917
| 33>     H       16.5009134   18.8025453   14.0521559
| 34>     H       16.1430056   20.3964165   14.6955837
| 35>     H       16.4246717   20.9108855   16.8327329
| 36>     H       18.9045819   18.8926761   19.2783542
| 37>     H       19.0635291   17.3372688   17.4119441
| 38>     H       19.0217237   15.0075797   18.0355791
| 39>     H       18.2443332   13.2072778   19.5631397
| 40>     H       16.3481651   13.6437222   21.1288877
| 41>     H       14.9134009   15.1302858   21.8596674
| 42>     H       16.0253787   17.6672130   19.6451283
| 43> *
| 44>
| 45>                          ****END OF INPUT****

CARTESIAN COORDINATES (ANGSTROEM)
---------------------------------
  C     13.732584   16.210056   14.741114
  C     15.008967   15.812244   15.502324
  O     16.139419   16.387823   14.824922
  C     17.259027   16.593543   15.574071
  O     18.208232   15.833097   15.520790
  C     17.160291   17.708936   16.567214
  C     16.692467   18.931684   16.213179
  C     16.042478   19.323540   14.902072
  N     16.859497   20.030390   17.059048
  C     17.680331   20.041195   18.155468
  S     17.917908   21.409466   19.053217
  N     18.313296   18.860831   18.457190
  C     18.058506   17.564852   17.797453
  C     17.589289   16.467548   18.742016
  C     18.204625   15.203137   18.726977
  C     17.762031   14.183105   19.585647
  C     16.693688   14.429379   20.465078
  C     16.075111   15.687079   20.477971
  O     15.037336   15.924972   21.318899
  C     16.516838   16.700118   19.620781
  H     12.856625   15.719553   15.183029
  H     13.800089   15.903787   13.689534
  H     13.568137   17.291987   14.777880
  H     14.935615   16.179821   16.535244
  H     15.111159   14.719139   15.534216
  H     14.973749   19.086848   14.909492
  H     16.500913   18.802545   14.052156
  H     16.143006   20.396417   14.695584
  H     16.424672   20.910885   16.832733
  H     18.904582   18.892676   19.278354
  H     19.063529   17.337269   17.411944
  H     19.021724   15.007580   18.035579
  H     18.244333   13.207278   19.563140
  H     16.348165   13.643722   21.128888
  H     14.913401   15.130286   21.859667
  H     16.025379   17.667213   19.645128

 Total Charge           Charge          ....    0
 Multiplicity           Mult            ....    1
 Number of Electrons    NEL             ....  154
 Basis Dimension        Dim             ....  828

ORBITAL ENERGIES
----------------

  NO   OCC          E(Eh)            E(eV)
   0   2.0000     -91.889944     -2500.4525
   1   2.0000     -20.597161      -560.4773
   2   2.0000     -20.590761      -560.3031
   3   2.0000     -20.554811      -559.3248
   4   2.0000     -15.629630      -425.3038
   5   2.0000     -15.608302      -424.7235
   6   2.0000     -11.394564      -310.0619
   7   2.0000     -11.385231      -309.8079
   8   2.0000     -11.337585      -308.5114
   9   2.0000     -11.313840      -307.8652
  10   2.0000     -11.307134      -307.6828
  11   2.0000     -11.305400      -307.6356
  12   2.0000     -11.262773      -306.4756
  13   2.0000     -11.260960      -306.4263
  14   2.0000     -11.260901      -306.4247
  15   2.0000     -11.253758      -306.2303
  16   2.0000     -11.243433      -305.9494
  17   2.0000     -11.239697      -305.8477
  18   2.0000     -11.237885      -305.7984
  19   2.0000     -11.236212      -305.7529
  20   2.0000      -8.895032      -242.0461
  21   2.0000      -6.576608      -178.9586
  22   2.0000      -6.574603      -178.9040
  23   2.0000      -6.574015      -178.8880
  24   2.0000      -1.452381       -39.5213
  25   2.0000      -1.416909       -38.5561
  26   2.0000      -1.361781       -37.0559
  27   2.0000      -1.341442       -36.5025
  28   2.0000      -1.238969       -33.7141
  29   2.0000      -1.158107       -31.5137
  30   2.0000      -1.124206       -30.5912
  31   2.0000      -1.046406       -28.4742
  32   2.0000      -1.039800       -28.2944
  33   2.0000      -1.015750       -27.6400
  34   2.0000      -1.003298       -27.3011
  35   2.0000      -0.988085       -26.8872
  36   2.0000      -0.924352       -25.1529
  37   2.0000      -0.882732       -24.0204
  38   2.0000      -0.851911       -23.1817
  39   2.0000      -0.841745       -22.9051
  40   2.0000      -0.834515       -22.7083
  41   2.0000      -0.833175       -22.6718
  42   2.0000      -0.760064       -20.6824
  43   2.0000      -0.737423       -20.0663
  44   2.0000      -0.730364       -19.8742
  45   2.0000      -0.694611       -18.9013
  46   2.0000      -0.688138       -18.7252
  47   2.0000      -0.684594       -18.6287
  48   2.0000      -0.674715       -18.3599
  49   2.0000      -0.658656       -17.9230
  50   2.0000      -0.651777       -17.7358
  51   2.0000      -0.641088       -17.4449
  52   2.0000      -0.632361       -17.2074
  53   2.0000      -0.625995       -17.0342
  54   2.0000      -0.607948       -16.5431
  55   2.0000      -0.604195       -16.4410
  56   2.0000      -0.600536       -16.3414
  57   2.0000      -0.580162       -15.7870
  58   2.0000      -0.575320       -15.6552
  59   2.0000      -0.568242       -15.4626
  60   2.0000      -0.560604       -15.2548
  61   2.0000      -0.553571       -15.0634
  62   2.0000      -0.546245       -14.8641
  63   2.0000      -0.526444       -14.3253
  64   2.0000      -0.521521       -14.1913
  65   2.0000      -0.513192       -13.9647
  66   2.0000      -0.501646       -13.6505
  67   2.0000      -0.497959       -13.5502
  68   2.0000      -0.485766       -13.2184
  69   2.0000      -0.466716       -12.7000
  70   2.0000      -0.464156       -12.6303
  71   2.0000      -0.452148       -12.3036
  72   2.0000      -0.355945        -9.6858
  73   2.0000      -0.349609        -9.5133
  74   2.0000      -0.329159        -8.9569
  75   2.0000      -0.321064        -8.7366
  76   2.0000      -0.319477        -8.6934
  77   0.0000       0.076232         2.0744
  78   0.0000       0.104770         2.8509
  79   0.0000       0.119547         3.2530
  80   0.0000       0.132026         3.5926
  81   0.0000       0.135910         3.6983

MULLIKEN ATOMIC CHARGES
-----------------------
   0 C :   -0.275791
   1 C :    0.027816
   2 O :   -0.358278
   3 C :    0.466253
   4 O :   -0.378654
   5 C :   -0.249999
   6 C :    0.165541
   7 C :   -0.307038
   8 N :   -0.132387
   9 C :    0.205796
  10 S :   -0.440818
  11 N :   -0.215362
  12 C :    0.056049
  13 C :    0.027879
  14 C :   -0.196507
  15 C :   -0.130223
  16 C :   -0.277271
  17 C :    0.313798
  18 O :   -0.357550
  19 C :   -0.256480
  20 H :    0.101583
  21 H :    0.105559
  22 H :    0.089445
  23 H :    0.096848
  24 H :    0.111798
  25 H :    0.121431
  26 H :    0.136522
  27 H :    0.115826
  28 H :    0.198826
  29 H :    0.200477
  30 H :    0.160803
  31 H :    0.170068
  32 H :    0.163026
  33 H :    0.130562
  34 H :    0.240960
  35 H :    0.169493
Sum of atomic charges:   -0.0000000

LOEWDIN ATOMIC CHARGES
----------------------
   0 C :    0.110409
   1 C :   -0.020049
   2 O :    0.296295
   3 C :   -0.421130
   4 O :    0.129479
   5 C :   -0.094998
   6 C :   -0.074645
   7 C :    0.127789
   8 N :    0.404607
   9 C :   -0.457540
  10 S :   -0.036647
  11 N :    0.395857
  12 C :   -0.049275
  13 C :   -0.043210
  14 C :    0.022573
  15 C :    0.043093
  16 C :   -0.000573
  17 C :   -0.193041
  18 O :    0.393871
  19 C :    0.027157
  20 H :   -0.022519
  21 H :   -0.023446
  22 H :   -0.033282
  23 H :   -0.033334
  24 H :   -0.026563
  25 H :   -0.015917
  26 H :   -0.006682
  27 H :   -0.016723
  28 H :   -0.057732
  29 H :   -0.063554
  30 H :   -0.005992
  31 H :   -0.022065
  32 H :   -0.019510
  33 H :   -0.035300
  34 H :   -0.153691
  35 H :   -0.023710

  Mayer bond orders larger than 0.100000
B(  0-C ,  1-C ) :   0.9783 B(  0-C , 20-H ) :   0.9764 B(  0-C , 21-H ) :   0.9766
B(  0-C , 22-H ) :   0.9780 B(  1-C ,  2-O ) :   0.9040 B(  1-C , 23-H ) :   0.9606
B(  1-C , 24-H ) :   0.9810 B(  2-O ,  3-C ) :   1.0980 B(  3-C ,  4-O ) :   2.0823
B(  3-C ,  5-C ) :   0.9673 B(  5-C ,  6-C ) :   1.6878 B(  5-C , 12-C ) :   0.9474
B(  6-C ,  7-C ) :   0.9457 B(  6-C ,  8-N ) :   1.1254 B(  7-C , 25-H ) :   0.9668
B(  7-C , 26-H ) :   0.9672 B(  7-C , 27-H ) :   0.9866 B(  8-N ,  9-C ) :   1.1897
B(  8-N , 28-H ) :   0.9487 B(  9-C , 10-S ) :   1.6121 B(  9-C , 11-N ) :   1.2975
B( 11-N , 12-C ) :   0.9850 B( 11-N , 29-H ) :   0.9486 B( 12-C , 13-C ) :   0.9707
B( 12-C , 30-H ) :   0.9929 B( 13-C , 14-C ) :   1.3847 B( 13-C , 19-C ) :   1.3565
B( 14-C , 15-C ) :   1.3947 B( 14-C , 31-H ) :   0.9601 B( 15-C , 16-C ) :   1.3612
B( 15-C , 32-H ) :   0.9703 B( 16-C , 17-C ) :   1.3317 B( 16-C , 33-H ) :   0.9852
B( 17-C , 18-O ) :   1.1071 B( 17-C , 19-C ) :   1.3649 B( 18-O , 34-H ) :   0.9797
B( 19-C , 35-H ) :   0.9584

MP2 TOTAL ENERGY:    -1274.327276675 Eh
FINAL SINGLE POINT ENERGY     -1274.327276675273

DIPOLE MOMENT
-------------
                                X             Y             Z
Electronic contribution:     10.88860       7.22884       9.20327
Nuclear contribution   :    -12.33775      -8.51129      -9.66670
                        -----------------------------------------
Total Dipole Moment    :     -1.44914      -1.28245      -0.46344
                        -----------------------------------------
Magnitude (a.u.)       :      1.98984
Magnitude (Debye)      :      5.05778

Rotational constants in cm-1:     0.010304     0.009246     0.006202
Rotational constants in MHz :   308.914344   277.201544   185.938677

                             ****ORCA TERMINATED NORMALLY****
TOTAL RUN TIME: 0 days 1 hours 42 minutes 37 seconds 254 msec
