                         Program Version 4.2.0 -  RELEASE  -
|  1> ! ri-mp2 cc-pvtz cc-pvtz/c TightSCF NoKeepInts
|  2>
|  3> %scf
|  4>   MaxCore 4096
|  5> end
|  6> *xyz  0  1
|  7>     C       13.7464579   16.3191804   14.4888291
|  8>     C       14.8142621   16.1756757   15.5870887
|  9>     O       16.1020278   16.1737554   14.9386493
| 10>     C       17.2464892   16.5472907   15.5932068
| 11>     O       18.2967400   15.9639760   15.3978907
| 12>     C       17.1253979   17.6450717   16.6031247
| 13>     C       16.6384503   18.8617230   16.2537444
| 14>     C       15.9702330   19.2447374   14.9488362
| 15>     N       16.7977524   19.9635911   17.0963533
| 16>     C       17.6392831   19.9900190   18.1768804
| 17>     S       17.8701272   21.3636574   19.0679405
| 18>     N       18.2993264   18.8212959   18.4663744
| 19>     C       18.0502640   17.5198911   17.8147531
| 20>     C       17.6289981   16.4068397   18.7626044
| 21>     C       18.2204520   15.1344816   18.6681817
| 22>     C       17.8227942   14.0966645   19.5274703
| 23>     C       16.8231449   14.3329281   20.4868044
| 24>     C       16.2274078   15.5984087   20.5781912
| 25>     O       15.2551626   15.8266678   21.4965439
| 26>     C       16.6242272   16.6295018   19.7204592
| 27>     H       12.7416178   16.3376675   14.9282069
| 28>     H       13.7986765   15.4729907   13.7920157
| 29>     H       13.8893833   17.2427344   13.9157028
| 30>     H       14.7010503   17.0067894   16.2929588
| 31>     H       14.6714883   15.2378184   16.1404472
| 32>     H       14.8790606   19.1854744   15.0335529
| 33>     H       16.2846746   18.6015553   14.1177050
| 34>     H       16.2258686   20.2700999   14.6524418
| 35>     H       16.3477103   20.8376878   16.8742621
| 36>     H       18.9102707   18.8648650   19.2725592
| 37>     H       19.0510056   17.3120589   17.4071290
| 38>     H       18.9847245   14.9475967   17.9162742
| 39>     H       18.2864466   13.1150679   19.4441302
| 40>     H       16.5123731   13.5334773   21.1513411
| 41>     H       15.1536101   15.0170250   22.0195382
| 42>     H       16.1500409   17.6017344   19.8058083
| 43> *
| 44>
| 45>                          ****END OF INPUT****

CARTESIAN COORDINATES (ANGSTROEM)
---------------------------------
  C     13.746458   16.319180   14.488829
  C     14.814262   16.175676   15.587089
  O     16.102028   16.173755   14.938649
  C     17.246489   16.547291   15.593207
  O     18.296740   15.963976   15.397891
  C     17.125398   17.645072   16.603125
  C     16.638450   18.861723   16.253744
  C     15.970233   19.244737   14.948836
  N     16.797752   19.963591   17.096353
  C     17.639283   19.990019   18.176880
  S     17.870127   21.363657   19.067940
  N     18.299326   18.821296   18.466374
  C     18.050264   17.519891   17.814753
  C     17.628998   16.406840   18.762604
  C     18.220452   15.134482   18.668182
  C     17.822794   14.096664   19.527470
  C     16.823145   14.332928   20.486804
  C     16.227408   15.598409   20.578191
  O     15.255163   15.826668   21.496544
  C     16.624227   16.629502   19.720459
  H     12.741618   16.337667   14.928207
  H     13.798676   15.472991   13.792016
  H     13.889383   17.242734   13.915703
  H     14.701050   17.006789   16.292959
  H     14.671488   15.237818   16.140447
  H     14.879061   19.185474   15.033553
  H     16.284675   18.601555   14.117705
  H     16.225869   20.270100   14.652442
  H     16.347710   20.837688   16.874262
  H     18.910271   18.864865   19.272559
  H     19.051006   17.312059   17.407129
  H     18.984724   14.947597   17.916274
  H     18.286447   13.115068   19.444130
  H     16.512373   13.533477   21.151341
  H     15.153610   15.017025   22.019538
  H     16.150041   17.601734   19.805808

 Total Charge           Charge          ....    0
 Multiplicity           Mult            ....    1
 Number of Electrons    NEL             ....  154
 Basis Dimension        Dim             ....  828

ORBITAL ENERGIES
----------------

  NO   OCC          E(Eh)            E(eV)
   0   2.0000     -91.890025     -2500.4547
   1   2.0000     -20.602041      -560.6100
   2   2.0000     -20.597919      -560.4979
   3   2.0000     -20.550960      -559.2201
   4   2.0000     -15.628988      -425.2864
   5   2.0000     -15.609112      -424.7455
   6   2.0000     -11.398231      -310.1616
   7   2.0000     -11.385662      -309.8196
   8   2.0000     -11.335978      -308.4676
   9   2.0000     -11.314852      -307.8928
  10   2.0000     -11.308680      -307.7248
  11   2.0000     -11.307155      -307.6833
  12   2.0000     -11.266917      -306.5884
  13   2.0000     -11.264122      -306.5123
  14   2.0000     -11.262493      -306.4680
  15   2.0000     -11.254950      -306.2627
  16   2.0000     -11.244196      -305.9701
  17   2.0000     -11.240478      -305.8690
  18   2.0000     -11.238617      -305.8183
  19   2.0000     -11.237253      -305.7812
  20   2.0000      -8.895127      -242.0487
  21   2.0000      -6.576707      -178.9613
  22   2.0000      -6.574696      -178.9066
  23   2.0000      -6.574112      -178.8907
  24   2.0000      -1.450151       -39.4606
  25   2.0000      -1.417630       -38.5757
  26   2.0000      -1.362357       -37.0716
  27   2.0000      -1.341605       -36.5069
  28   2.0000      -1.239445       -33.7270
  29   2.0000      -1.159353       -31.5476
  30   2.0000      -1.125663       -30.6309
  31   2.0000      -1.047154       -28.4945
  32   2.0000      -1.043884       -28.4055
  33   2.0000      -1.017155       -27.6782
  34   2.0000      -1.005183       -27.3524
  35   2.0000      -0.989376       -26.9223
  36   2.0000      -0.925630       -25.1877
  37   2.0000      -0.884666       -24.0730
  38   2.0000      -0.854836       -23.2613
  39   2.0000      -0.842774       -22.9330
  40   2.0000      -0.836374       -22.7589
  41   2.0000      -0.834260       -22.7014
  42   2.0000      -0.759830       -20.6760
  43   2.0000      -0.739570       -20.1247
  44   2.0000      -0.731581       -19.9073
  45   2.0000      -0.695377       -18.9222
  46   2.0000      -0.688353       -18.7310
  47   2.0000      -0.684495       -18.6260
  48   2.0000      -0.673883       -18.3373
  49   2.0000      -0.663217       -18.0471
  50   2.0000      -0.652674       -17.7602
  51   2.0000      -0.645577       -17.5671
  52   2.0000      -0.639921       -17.4131
  53   2.0000      -0.615635       -16.7523
  54   2.0000      -0.606317       -16.4987
  55   2.0000      -0.605366       -16.4729
  56   2.0000      -0.601083       -16.3563
  57   2.0000      -0.584544       -15.9062
  58   2.0000      -0.576769       -15.6947
  59   2.0000      -0.568966       -15.4823
  60   2.0000      -0.561127       -15.2690
  61   2.0000      -0.558658       -15.2018
  62   2.0000      -0.543881       -14.7997
  63   2.0000      -0.535908       -14.5828
  64   2.0000      -0.522436       -14.2162
  65   2.0000      -0.514663       -14.0047
  66   2.0000      -0.502687       -13.6788
  67   2.0000      -0.500304       -13.6140
  68   2.0000      -0.487857       -13.2753
  69   2.0000      -0.468503       -12.7486
  70   2.0000      -0.461838       -12.5673
  71   2.0000      -0.450716       -12.2646
  72   2.0000      -0.356354        -9.6969
  73   2.0000      -0.350235        -9.5304
  74   2.0000      -0.329394        -8.9633
  75   2.0000      -0.322413        -8.7733
  76   2.0000      -0.319653        -8.6982
  77   0.0000       0.080638         2.1943
  78   0.0000       0.105140         2.8610
  79   0.0000       0.116901         3.1810
  80   0.0000       0.131465         3.5773
  81   0.0000       0.131964         3.5909

MULLIKEN ATOMIC CHARGES
-----------------------
   0 C :   -0.269803
   1 C :    0.016466
   2 O :   -0.327963
   3 C :    0.427347
   4 O :   -0.379724
   5 C :   -0.236379
   6 C :    0.164387
   7 C :   -0.335195
   8 N :   -0.137285
   9 C :    0.207022
  10 S :   -0.441987
  11 N :   -0.219007
  12 C :    0.055786
  13 C :    0.026972
  14 C :   -0.212914
  15 C :   -0.128338
  16 C :   -0.277382
  17 C :    0.313521
  18 O :   -0.356936
  19 C :   -0.250095
  20 H :    0.094590
  21 H :    0.110060
  22 H :    0.093651
  23 H :    0.099289
  24 H :    0.121673
  25 H :    0.122471
  26 H :    0.141397
  27 H :    0.131183
  28 H :    0.198606
  29 H :    0.201969
  30 H :    0.165790
  31 H :    0.174371
  32 H :    0.163951
  33 H :    0.130747
  34 H :    0.241101
  35 H :    0.170661
Sum of atomic charges:   -0.0000000

LOEWDIN ATOMIC CHARGES
----------------------
   0 C :    0.107929
   1 C :   -0.019428
   2 O :    0.304432
   3 C :   -0.415782
   4 O :    0.123028
   5 C :   -0.088880
   6 C :   -0.085124
   7 C :    0.127153
   8 N :    0.403401
   9 C :   -0.457529
  10 S :   -0.037496
  11 N :    0.396208
  12 C :   -0.049435
  13 C :   -0.043736
  14 C :    0.021130
  15 C :    0.043904
  16 C :   -0.000345
  17 C :   -0.191784
  18 O :    0.394256
  19 C :    0.026911
  20 H :   -0.023914
  21 H :   -0.022916
  22 H :   -0.030931
  23 H :   -0.039135
  24 H :   -0.026684
  25 H :   -0.016753
  26 H :   -0.007704
  27 H :   -0.012293
  28 H :   -0.057409
  29 H :   -0.063327
  30 H :   -0.004907
  31 H :   -0.021476
  32 H :   -0.019041
  33 H :   -0.035124
  34 H :   -0.153480
  35 H :   -0.023719

  Mayer bond orders larger than 0.100000
B(  0-C ,  1-C ) :   0.9732 B(  0-C , 20-H ) :   0.9751 B(  0-C , 21-H ) :   0.9777
B(  0-C , 22-H ) :   0.9782 B(  1-C ,  2-O ) :   0.8994 B(  1-C , 23-H ) :   0.9640
B(  1-C , 24-H ) :   0.9795 B(  2-O ,  3-C ) :   1.1614 B(  3-C ,  4-O ) :   2.0960
B(  3-C ,  5-C ) :   0.9421 B(  5-C ,  6-C ) :   1.7062 B(  5-C , 12-C ) :   0.9438
B(  6-C ,  7-C ) :   0.9329 B(  6-C ,  8-N ) :   1.1136 B(  7-C , 25-H ) :   0.9647
B(  7-C , 26-H ) :   0.9716 B(  7-C , 27-H ) :   0.9830 B(  8-N ,  9-C ) :   1.1928
B(  8-N , 28-H ) :   0.9500 B(  9-C , 10-S ) :   1.6108 B(  9-C , 11-N ) :   1.2946
B( 11-N , 12-C ) :   0.9844 B( 11-N , 29-H ) :   0.9479 B( 12-C , 13-C ) :   0.9706
B( 12-C , 30-H ) :   0.9903 B( 13-C , 14-C ) :   1.3840 B( 13-C , 19-C ) :   1.3559
B( 14-C , 15-C ) :   1.3938 B( 14-C , 31-H ) :   0.9597 B( 15-C , 16-C ) :   1.3612
B( 15-C , 32-H ) :   0.9699 B( 16-C , 17-C ) :   1.3312 B( 16-C , 33-H ) :   0.9853
B( 17-C , 18-O ) :   1.1073 B( 17-C , 19-C ) :   1.3677 B( 18-O , 34-H ) :   0.9796
B( 19-C , 35-H ) :   0.9570

MP2 TOTAL ENERGY:    -1274.330691610 Eh
FINAL SINGLE POINT ENERGY     -1274.330691610366

DIPOLE MOMENT
-------------
                                X             Y             Z
Electronic contribution:     11.09866       6.21606       9.89319
Nuclear contribution   :    -12.70256      -7.38356     -10.27316
                        -----------------------------------------
Total Dipole Moment    :     -1.60390      -1.16751      -0.37997
                        -----------------------------------------
Magnitude (a.u.)       :      2.01989
Magnitude (Debye)      :      5.13415

Rotational constants in cm-1:     0.010193     0.009208     0.006145
Rotational constants in MHz :   305.592800   276.058609   184.230277

                             ****ORCA TERMINATED NORMALLY****
TOTAL RUN TIME: 0 days 1 hours 47 minutes 19 seconds 282 msec
