                         Program Version 4.2.0 -  RELEASE  -
|  1> ! ri-mp2 cc-pvtz cc-pvtz/c TightSCF NoKeepInts
|  2>
|  3> %scf
|  4>   MaxCore 4096
|  5> end
|  6> *xyz  0  1
|  7>     C       15.1548451   15.0887509   13.7993934
|  8>     C       15.1232933   14.9985511   15.3410334
|  9>     O       16.0039590   15.9693098   15.9446138
| 10>     C       15.8164497   17.3203242   15.8176644
| 11>     O       14.9879743   17.8074938   15.0684253
| 12>     C       16.6792332   18.1079080   16.7687847
| 13>     C       16.8306683   19.4497157   16.6205867
| 14>     C       16.0209749   20.3725690   15.7328912
| 15>     N       17.8255767   20.1433384   17.3135234
| 16>     C       18.8323962   19.5486678   18.0242748
| 17>     S       20.0374212   20.4272972   18.7396425
| 18>     N       18.8032980   18.1791264   18.0939865
| 19>     C       17.7174906   17.3193501   17.5862595
| 20>     C       17.1177253   16.4345902   18.6715046
| 21>     C       17.3511359   15.0469656   18.6757295
| 22>     C       16.7998631   14.2338770   19.6803947
| 23>     C       16.0122435   14.8140175   20.6897060
| 24>     C       15.7823044   16.1969226   20.6896152
| 25>     O       15.0239111   16.7596783   21.6639098
| 26>     C       16.3323800   17.0034643   19.6884303
| 27>     H       14.6194129   15.9717517   13.4313208
| 28>     H       14.6725136   14.2075213   13.3597121
| 29>     H       16.1880075   15.1290556   13.4331972
| 30>     H       14.0957579   15.1465536   15.6994025
| 31>     H       15.4442573   13.9943573   15.6460812
| 32>     H       14.9482272   20.2594502   15.9359238
| 33>     H       16.1815954   20.1310099   14.6745027
| 34>     H       16.2687795   21.4313821   15.8723558
| 35>     H       17.8706817   21.1478813   17.2519413
| 36>     H       19.5406833   17.7704248   18.6539962
| 37>     H       18.2743582   16.7147365   16.8564700
| 38>     H       17.9561377   14.5974777   17.8929013
| 39>     H       16.9833513   13.1609042   19.6750089
| 40>     H       15.5846562   14.1904630   21.4679013
| 41>     H       14.7555674   16.0524070   22.2693109
| 42>     H       16.1498689   18.0727061   19.7076045
| 43> *
| 44>
| 45>                          ****END OF INPUT****

CARTESIAN COORDINATES (ANGSTROEM)
---------------------------------
  C     15.154845   15.088751   13.799393
  C     15.123293   14.998551   15.341033
  O     16.003959   15.969310   15.944614
  C     15.816450   17.320324   15.817664
  O     14.987974   17.807494   15.068425
  C     16.679233   18.107908   16.768785
  C     16.830668   19.449716   16.620587
  C     16.020975   20.372569   15.732891
  N     17.825577   20.143338   17.313523
  C     18.832396   19.548668   18.024275
  S     20.037421   20.427297   18.739642
  N     18.803298   18.179126   18.093986
  C     17.717491   17.319350   17.586260
  C     17.117725   16.434590   18.671505
  C     17.351136   15.046966   18.675729
  C     16.799863   14.233877   19.680395
  C     16.012244   14.814017   20.689706
  C     15.782304   16.196923   20.689615
  O     15.023911   16.759678   21.663910
  C     16.332380   17.003464   19.688430
  H     14.619413   15.971752   13.431321
  H     14.672514   14.207521   13.359712
  H     16.188008   15.129056   13.433197
  H     14.095758   15.146554   15.699402
  H     15.444257   13.994357   15.646081
  H     14.948227   20.259450   15.935924
  H     16.181595   20.131010   14.674503
  H     16.268780   21.431382   15.872356
  H     17.870682   21.147881   17.251941
  H     19.540683   17.770425   18.653996
  H     18.274358   16.714737   16.856470
  H     17.956138   14.597478   17.892901
  H     16.983351   13.160904   19.675009
  H     15.584656   14.190463   21.467901
  H     14.755567   16.052407   22.269311
  H     16.149869   18.072706   19.707604

 Total Charge           Charge          ....    0
 Multiplicity           Mult            ....    1
 Number of Electrons    NEL             ....  154
 Basis Dimension        Dim             ....  828

ORBITAL ENERGIES
----------------

  NO   OCC          E(Eh)            E(eV)
   0   2.0000     -91.888417     -2500.4109
   1   2.0000     -20.599849      -560.5504
   2   2.0000     -20.595567      -560.4339
   3   2.0000     -20.541601      -558.9654
   4   2.0000     -15.628761      -425.2802
   5   2.0000     -15.606419      -424.6723
   6   2.0000     -11.396495      -310.1144
   7   2.0000     -11.382982      -309.7467
   8   2.0000     -11.337001      -308.4955
   9   2.0000     -11.312613      -307.8318
  10   2.0000     -11.306847      -307.6749
  11   2.0000     -11.300496      -307.5021
  12   2.0000     -11.259771      -306.3940
  13   2.0000     -11.259055      -306.3745
  14   2.0000     -11.254125      -306.2403
  15   2.0000     -11.251461      -306.1678
  16   2.0000     -11.242454      -305.9227
  17   2.0000     -11.237791      -305.7958
  18   2.0000     -11.237719      -305.7939
  19   2.0000     -11.221947      -305.3647
  20   2.0000      -8.893491      -242.0042
  21   2.0000      -6.575066      -178.9166
  22   2.0000      -6.573066      -178.8622
  23   2.0000      -6.572477      -178.8462
  24   2.0000      -1.448512       -39.4160
  25   2.0000      -1.415216       -38.5100
  26   2.0000      -1.354967       -36.8705
  27   2.0000      -1.339987       -36.4629
  28   2.0000      -1.237781       -33.6817
  29   2.0000      -1.156504       -31.4701
  30   2.0000      -1.120400       -30.4876
  31   2.0000      -1.041965       -28.3533
  32   2.0000      -1.035935       -28.1892
  33   2.0000      -1.013899       -27.5896
  34   2.0000      -0.995397       -27.0861
  35   2.0000      -0.983666       -26.7669
  36   2.0000      -0.921161       -25.0661
  37   2.0000      -0.894937       -24.3525
  38   2.0000      -0.846372       -23.0310
  39   2.0000      -0.837237       -22.7824
  40   2.0000      -0.833139       -22.6709
  41   2.0000      -0.818073       -22.2609
  42   2.0000      -0.752832       -20.4856
  43   2.0000      -0.731994       -19.9186
  44   2.0000      -0.720945       -19.6179
  45   2.0000      -0.694638       -18.9021
  46   2.0000      -0.688261       -18.7285
  47   2.0000      -0.679547       -18.4914
  48   2.0000      -0.670022       -18.2322
  49   2.0000      -0.651671       -17.7329
  50   2.0000      -0.647665       -17.6239
  51   2.0000      -0.644977       -17.5507
  52   2.0000      -0.632355       -17.2073
  53   2.0000      -0.608527       -16.5589
  54   2.0000      -0.604981       -16.4624
  55   2.0000      -0.599301       -16.3078
  56   2.0000      -0.598018       -16.2729
  57   2.0000      -0.579592       -15.7715
  58   2.0000      -0.572819       -15.5872
  59   2.0000      -0.569427       -15.4949
  60   2.0000      -0.562339       -15.3020
  61   2.0000      -0.539790       -14.6884
  62   2.0000      -0.536520       -14.5995
  63   2.0000      -0.523562       -14.2468
  64   2.0000      -0.521542       -14.1919
  65   2.0000      -0.512492       -13.9456
  66   2.0000      -0.501887       -13.6570
  67   2.0000      -0.497203       -13.5296
  68   2.0000      -0.483773       -13.1641
  69   2.0000      -0.462836       -12.5944
  70   2.0000      -0.455932       -12.4065
  71   2.0000      -0.442844       -12.0504
  72   2.0000      -0.352534        -9.5929
  73   2.0000      -0.348742        -9.4898
  74   2.0000      -0.327566        -8.9135
  75   2.0000      -0.320041        -8.7088
  76   2.0000      -0.317587        -8.6420
  77   0.0000       0.077767         2.1161
  78   0.0000       0.106443         2.8965
  79   0.0000       0.124474         3.3871
  80   0.0000       0.133409         3.6302
  81   0.0000       0.136716         3.7202

MULLIKEN ATOMIC CHARGES
-----------------------
   0 C :   -0.299055
   1 C :    0.045371
   2 O :   -0.348437
   3 C :    0.439359
   4 O :   -0.439277
   5 C :   -0.214244
   6 C :    0.172151
   7 C :   -0.269083
   8 N :   -0.125490
   9 C :    0.210488
  10 S :   -0.442706
  11 N :   -0.214852
  12 C :    0.056909
  13 C :    0.049269
  14 C :   -0.177921
  15 C :   -0.133830
  16 C :   -0.275878
  17 C :    0.316762
  18 O :   -0.357087
  19 C :   -0.249018
  20 H :    0.127475
  21 H :    0.094779
  22 H :    0.090346
  23 H :    0.090896
  24 H :    0.104218
  25 H :    0.133998
  26 H :    0.127883
  27 H :    0.094806
  28 H :    0.199593
  29 H :    0.200376
  30 H :    0.151328
  31 H :    0.149261
  32 H :    0.159687
  33 H :    0.129389
  34 H :    0.240416
  35 H :    0.162120
Sum of atomic charges:   -0.0000000

LOEWDIN ATOMIC CHARGES
----------------------
   0 C :    0.104261
   1 C :   -0.012286
   2 O :    0.303434
   3 C :   -0.412581
   4 O :    0.100710
   5 C :   -0.093777
   6 C :   -0.056554
   7 C :    0.130664
   8 N :    0.407067
   9 C :   -0.456844
  10 S :   -0.037111
  11 N :    0.394646
  12 C :   -0.054909
  13 C :   -0.038887
  14 C :    0.016704
  15 C :    0.038968
  16 C :   -0.000726
  17 C :   -0.189522
  18 O :    0.394897
  19 C :    0.033249
  20 H :   -0.026439
  21 H :   -0.028625
  22 H :   -0.029818
  23 H :   -0.028323
  24 H :   -0.024700
  25 H :   -0.004342
  26 H :   -0.005502
  27 H :   -0.023719
  28 H :   -0.057268
  29 H :   -0.064390
  30 H :   -0.014249
  31 H :   -0.029720
  32 H :   -0.021607
  33 H :   -0.035621
  34 H :   -0.154136
  35 H :   -0.022944

  Mayer bond orders larger than 0.100000
B(  0-C ,  1-C ) :   0.9688 B(  0-C , 20-H ) :   0.9714 B(  0-C , 21-H ) :   0.9778
B(  0-C , 22-H ) :   0.9756 B(  1-C ,  2-O ) :   0.9058 B(  1-C , 23-H ) :   0.9775
B(  1-C , 24-H ) :   0.9839 B(  2-O ,  3-C ) :   1.1617 B(  3-C ,  4-O ) :   1.9491
B(  3-C ,  5-C ) :   1.0766 B(  5-C ,  6-C ) :   1.6383 B(  5-C , 12-C ) :   0.9541
B(  6-C ,  7-C ) :   0.9659 B(  6-C ,  8-N ) :   1.1536 B(  7-C , 25-H ) :   0.9611
B(  7-C , 26-H ) :   0.9588 B(  7-C , 27-H ) :   0.9910 B(  8-N ,  9-C ) :   1.1877
B(  8-N , 28-H ) :   0.9464 B(  9-C , 10-S ) :   1.6052 B(  9-C , 11-N ) :   1.3097
B( 11-N , 12-C ) :   0.9676 B( 11-N , 29-H ) :   0.9484 B( 12-C , 13-C ) :   0.9662
B( 12-C , 30-H ) :   1.0007 B( 13-C , 14-C ) :   1.3537 B( 13-C , 19-C ) :   1.3814
B( 14-C , 15-C ) :   1.3955 B( 14-C , 31-H ) :   0.9722 B( 15-C , 16-C ) :   1.3604
B( 15-C , 32-H ) :   0.9709 B( 16-C , 17-C ) :   1.3342 B( 16-C , 33-H ) :   0.9853
B( 17-C , 18-O ) :   1.1039 B( 17-C , 19-C ) :   1.3648 B( 18-O , 34-H ) :   0.9800
B( 19-C , 35-H ) :   0.9597

MP2 TOTAL ENERGY:    -1274.339925813 Eh
FINAL SINGLE POINT ENERGY     -1274.339925812641

DIPOLE MOMENT
-------------
                                X             Y             Z
Electronic contribution:      8.90391       9.09158      11.10245
Nuclear contribution   :    -10.02573     -10.75606     -11.47916
                        -----------------------------------------
Total Dipole Moment    :     -1.12182      -1.66449      -0.37671
                        -----------------------------------------
Magnitude (a.u.)       :      2.04228
Magnitude (Debye)      :      5.19105

Rotational constants in cm-1:     0.010320     0.008926     0.005772
Rotational constants in MHz :   309.375205   267.589753   173.047186

                             ****ORCA TERMINATED NORMALLY****
TOTAL RUN TIME: 0 days 1 hours 37 minutes 45 seconds 942 msec
