                         Program Version 4.2.0 -  RELEASE  -
|  1> ! ri-mp2 cc-pvtz cc-pvtz/c TightSCF NoKeepInts
|  2>
|  3> %scf
|  4>   MaxCore 4096
|  5> end
|  6> *xyz  0  1
|  7>     C       15.1074153   14.3699407   16.3719135
|  8>     C       15.7081731   15.0113391   15.1103701
|  9>     O       16.7183719   15.9552248   15.5173742
| 10>     C       16.5204286   17.2823991   15.2609637
| 11>     O       15.9744900   17.6579055   14.2375559
| 12>     C       16.9285451   18.1759741   16.4029219
| 13>     C       16.9395892   19.5263122   16.2501402
| 14>     C       16.3086743   20.3307179   15.1318528
| 15>     N       17.5845343   20.3517479   17.1739433
| 16>     C       18.4184131   19.9034850   18.1614818
| 17>     S       19.2396034   20.9409331   19.1540693
| 18>     N       18.5591396   18.5436098   18.2685783
| 19>     C       17.7823286   17.5412050   17.5155247
| 20>     C       17.0420614   16.5813212   18.4366172
| 21>     C       17.5968334   15.3270376   18.7507652
| 22>     C       16.9308978   14.4509629   19.6246691
| 23>     C       15.7020701   14.8337632   20.1893516
| 24>     C       15.1521293   16.0865622   19.8841985
| 25>     O       13.9676168   16.4598529   20.4302988
| 26>     C       15.8186705   16.9578227   19.0169259
| 27>     H       15.8816487   13.8501957   16.9483098
| 28>     H       14.3356375   13.6396287   16.1009444
| 29>     H       14.6466796   15.1315361   17.0125394
| 30>     H       16.1650483   14.2320159   14.4870471
| 31>     H       14.9103004   15.4884141   14.5248356
| 32>     H       15.2607039   20.0379868   14.9881523
| 33>     H       16.8322544   20.1519311   14.1839562
| 34>     H       16.3207616   21.4109342   15.3189488
| 35>     H       17.5101931   21.3527976   17.0882875
| 36>     H       19.1564014   18.2418138   19.0278567
| 37>     H       18.5987192   17.0212867   16.9942516
| 38>     H       18.5462991   15.0298728   18.3134657
| 39>     H       17.3663994   13.4815831   19.8609814
| 40>     H       15.1834981   14.1602396   20.8637306
| 41>     H       13.6879074   15.7528917   21.0311731
| 42>     H       15.3845621   17.9287552   18.8040036
| 43> *
| 44>
| 45>                          ****END OF INPUT****

CARTESIAN COORDINATES (ANGSTROEM)
---------------------------------
  C     15.107415   14.369941   16.371914
  C     15.708173   15.011339   15.110370
  O     16.718372   15.955225   15.517374
  C     16.520429   17.282399   15.260964
  O     15.974490   17.657905   14.237556
  C     16.928545   18.175974   16.402922
  C     16.939589   19.526312   16.250140
  C     16.308674   20.330718   15.131853
  N     17.584534   20.351748   17.173943
  C     18.418413   19.903485   18.161482
  S     19.239603   20.940933   19.154069
  N     18.559140   18.543610   18.268578
  C     17.782329   17.541205   17.515525
  C     17.042061   16.581321   18.436617
  C     17.596833   15.327038   18.750765
  C     16.930898   14.450963   19.624669
  C     15.702070   14.833763   20.189352
  C     15.152129   16.086562   19.884199
  O     13.967617   16.459853   20.430299
  C     15.818670   16.957823   19.016926
  H     15.881649   13.850196   16.948310
  H     14.335638   13.639629   16.100944
  H     14.646680   15.131536   17.012539
  H     16.165048   14.232016   14.487047
  H     14.910300   15.488414   14.524836
  H     15.260704   20.037987   14.988152
  H     16.832254   20.151931   14.183956
  H     16.320762   21.410934   15.318949
  H     17.510193   21.352798   17.088287
  H     19.156401   18.241814   19.027857
  H     18.598719   17.021287   16.994252
  H     18.546299   15.029873   18.313466
  H     17.366399   13.481583   19.860981
  H     15.183498   14.160240   20.863731
  H     13.687907   15.752892   21.031173
  H     15.384562   17.928755   18.804004

 Total Charge           Charge          ....    0
 Multiplicity           Mult            ....    1
 Number of Electrons    NEL             ....  154
 Basis Dimension        Dim             ....  828

ORBITAL ENERGIES
----------------

  NO   OCC          E(Eh)            E(eV)
   0   2.0000     -91.889613     -2500.4435
   1   2.0000     -20.599661      -560.5453
   2   2.0000     -20.593810      -560.3861
   3   2.0000     -20.541596      -558.9652
   4   2.0000     -15.630164      -425.3184
   5   2.0000     -15.607581      -424.7039
   6   2.0000     -11.393579      -310.0351
   7   2.0000     -11.384060      -309.7760
   8   2.0000     -11.338868      -308.5463
   9   2.0000     -11.316754      -307.9445
  10   2.0000     -11.308850      -307.7294
  11   2.0000     -11.293117      -307.3013
  12   2.0000     -11.263511      -306.4957
  13   2.0000     -11.259506      -306.3867
  14   2.0000     -11.258006      -306.3459
  15   2.0000     -11.252202      -306.1880
  16   2.0000     -11.246253      -306.0261
  17   2.0000     -11.240926      -305.8811
  18   2.0000     -11.240860      -305.8794
  19   2.0000     -11.220685      -305.3304
  20   2.0000      -8.894672      -242.0363
  21   2.0000      -6.576242      -178.9486
  22   2.0000      -6.574246      -178.8943
  23   2.0000      -6.573654      -178.8782
  24   2.0000      -1.448687       -39.4208
  25   2.0000      -1.419335       -38.6221
  26   2.0000      -1.352233       -36.7961
  27   2.0000      -1.341515       -36.5045
  28   2.0000      -1.239422       -33.7264
  29   2.0000      -1.159972       -31.5644
  30   2.0000      -1.121875       -30.5278
  31   2.0000      -1.044531       -28.4231
  32   2.0000      -1.034658       -28.1545
  33   2.0000      -1.017928       -27.6992
  34   2.0000      -0.997417       -27.1411
  35   2.0000      -0.985511       -26.8171
  36   2.0000      -0.923237       -25.1225
  37   2.0000      -0.886874       -24.1331
  38   2.0000      -0.847525       -23.0623
  39   2.0000      -0.840259       -22.8646
  40   2.0000      -0.836362       -22.7586
  41   2.0000      -0.815590       -22.1933
  42   2.0000      -0.761807       -20.7298
  43   2.0000      -0.735551       -20.0154
  44   2.0000      -0.721265       -19.6266
  45   2.0000      -0.698018       -18.9940
  46   2.0000      -0.688480       -18.7345
  47   2.0000      -0.676450       -18.4072
  48   2.0000      -0.670521       -18.2458
  49   2.0000      -0.669454       -18.2168
  50   2.0000      -0.646913       -17.6034
  51   2.0000      -0.642688       -17.4884
  52   2.0000      -0.636708       -17.3257
  53   2.0000      -0.609826       -16.5942
  54   2.0000      -0.603523       -16.4227
  55   2.0000      -0.601463       -16.3666
  56   2.0000      -0.584931       -15.9168
  57   2.0000      -0.578559       -15.7434
  58   2.0000      -0.570173       -15.5152
  59   2.0000      -0.566385       -15.4121
  60   2.0000      -0.565874       -15.3982
  61   2.0000      -0.549585       -14.9550
  62   2.0000      -0.539478       -14.6799
  63   2.0000      -0.526733       -14.3331
  64   2.0000      -0.521673       -14.1954
  65   2.0000      -0.513076       -13.9615
  66   2.0000      -0.501810       -13.6549
  67   2.0000      -0.496692       -13.5157
  68   2.0000      -0.482488       -13.1292
  69   2.0000      -0.463221       -12.6049
  70   2.0000      -0.450704       -12.2643
  71   2.0000      -0.447935       -12.1889
  72   2.0000      -0.353977        -9.6322
  73   2.0000      -0.352263        -9.5856
  74   2.0000      -0.329028        -8.9533
  75   2.0000      -0.324010        -8.8168
  76   2.0000      -0.319314        -8.6890
  77   0.0000       0.074971         2.0401
  78   0.0000       0.101209         2.7540
  79   0.0000       0.123148         3.3510
  80   0.0000       0.131230         3.5710
  81   0.0000       0.132998         3.6191

MULLIKEN ATOMIC CHARGES
-----------------------
   0 C :   -0.297349
   1 C :    0.031324
   2 O :   -0.359469
   3 C :    0.454164
   4 O :   -0.426635
   5 C :   -0.266326
   6 C :    0.184505
   7 C :   -0.265260
   8 N :   -0.126814
   9 C :    0.213693
  10 S :   -0.441705
  11 N :   -0.220221
  12 C :    0.070668
  13 C :    0.057335
  14 C :   -0.188104
  15 C :   -0.139844
  16 C :   -0.264772
  17 C :    0.312637
  18 O :   -0.359416
  19 C :   -0.255043
  20 H :    0.099937
  21 H :    0.110117
  22 H :    0.103831
  23 H :    0.100902
  24 H :    0.106040
  25 H :    0.131372
  26 H :    0.131399
  27 H :    0.094354
  28 H :    0.199735
  29 H :    0.201462
  30 H :    0.151203
  31 H :    0.151344
  32 H :    0.165179
  33 H :    0.132501
  34 H :    0.241391
  35 H :    0.165865
Sum of atomic charges:   -0.0000000

LOEWDIN ATOMIC CHARGES
----------------------
   0 C :    0.103523
   1 C :   -0.013421
   2 O :    0.301166
   3 C :   -0.417877
   4 O :    0.100523
   5 C :   -0.098634
   6 C :   -0.054008
   7 C :    0.131076
   8 N :    0.407852
   9 C :   -0.456073
  10 S :   -0.035774
  11 N :    0.394575
  12 C :   -0.054282
  13 C :   -0.036965
  14 C :    0.016739
  15 C :    0.043382
  16 C :    0.000139
  17 C :   -0.189947
  18 O :    0.396004
  19 C :    0.032449
  20 H :   -0.028972
  21 H :   -0.027339
  22 H :   -0.027080
  23 H :   -0.029074
  24 H :   -0.028222
  25 H :   -0.004724
  26 H :   -0.004374
  27 H :   -0.023630
  28 H :   -0.056897
  29 H :   -0.064750
  30 H :   -0.012826
  31 H :   -0.029408
  32 H :   -0.020730
  33 H :   -0.034969
  34 H :   -0.153208
  35 H :   -0.024244

  Mayer bond orders larger than 0.100000
B(  0-C ,  1-C ) :   0.9711 B(  0-C , 20-H ) :   0.9730 B(  0-C , 21-H ) :   0.9789
B(  0-C , 22-H ) :   0.9732 B(  1-C ,  2-O ) :   0.8903 B(  1-C , 23-H ) :   0.9869
B(  1-C , 24-H ) :   0.9733 B(  2-O ,  3-C ) :   1.1483 B(  3-C ,  4-O ) :   1.9848
B(  3-C ,  5-C ) :   1.0690 B(  5-C ,  6-C ) :   1.6231 B(  5-C , 12-C ) :   0.9574
B(  6-C ,  7-C ) :   0.9655 B(  6-C ,  8-N ) :   1.1584 B(  7-C , 25-H ) :   0.9622
B(  7-C , 26-H ) :   0.9571 B(  7-C , 27-H ) :   0.9902 B(  8-N ,  9-C ) :   1.1862
B(  8-N , 28-H ) :   0.9466 B(  9-C , 10-S ) :   1.6028 B(  9-C , 11-N ) :   1.3125
B( 11-N , 12-C ) :   0.9561 B( 11-N , 29-H ) :   0.9482 B( 12-C , 13-C ) :   0.9659
B( 12-C , 30-H ) :   1.0021 B( 13-C , 14-C ) :   1.3468 B( 13-C , 19-C ) :   1.3693
B( 14-C , 15-C ) :   1.3898 B( 14-C , 31-H ) :   0.9740 B( 15-C , 16-C ) :   1.3564
B( 15-C , 32-H ) :   0.9703 B( 16-C , 17-C ) :   1.3333 B( 16-C , 33-H ) :   0.9844
B( 17-C , 18-O ) :   1.1034 B( 17-C , 19-C ) :   1.3631 B( 18-O , 34-H ) :   0.9791
B( 19-C , 35-H ) :   0.9605

MP2 TOTAL ENERGY:    -1274.338437530 Eh
FINAL SINGLE POINT ENERGY     -1274.338437529524

DIPOLE MOMENT
-------------
                                X             Y             Z
Electronic contribution:      7.92369      11.18204       5.74141
Nuclear contribution   :     -8.87467     -12.87174      -5.85106
                        -----------------------------------------
Total Dipole Moment    :     -0.95098      -1.68969      -0.10965
                        -----------------------------------------
Magnitude (a.u.)       :      1.94202
Magnitude (Debye)      :      4.93623

Rotational constants in cm-1:     0.012501     0.008505     0.006092
Rotational constants in MHz :   374.759588   254.986982   182.642726

                             ****ORCA TERMINATED NORMALLY****
TOTAL RUN TIME: 0 days 1 hours 42 minutes 47 seconds 68 msec
