                         Program Version 4.2.0 -  RELEASE  -
|  1> ! ri-mp2 cc-pvtz cc-pvtz/c TightSCF NoKeepInts
|  2>
|  3> %scf
|  4>   MaxCore 4096
|  5> end
|  6> *xyz  0  1
|  7>     C       15.3172986   13.9818414   15.4779398
|  8>     C       15.0246289   15.4546565   15.8086666
|  9>     O       16.2061389   16.2099495   15.4995554
| 10>     C       16.0706986   17.5629860   15.4190481
| 11>     O       15.3196517   18.0711395   14.6056440
| 12>     C       16.8083556   18.3002913   16.5048807
| 13>     C       16.9438241   19.6507072   16.4553670
| 14>     C       16.2094409   20.6122396   15.5438854
| 15>     N       17.8443537   20.3153238   17.2909286
| 16>     C       18.7852216   19.6928137   18.0655452
| 17>     S       19.8878374   20.5431144   18.9581270
| 18>     N       18.7815180   18.3211943   18.0459405
| 19>     C       17.7745201   17.4778290   17.3751681
| 20>     C       17.0926079   16.5108194   18.3335861
| 21>     C       17.4463967   15.1491706   18.3453918
| 22>     C       16.8099871   14.2543612   19.2219098
| 23>     C       15.8163520   14.7267432   20.0964871
| 24>     C       15.4688765   16.0847536   20.0925699
| 25>     O       14.5101948   16.5436812   20.9355921
| 26>     C       16.1023916   16.9724995   19.2173313
| 27>     H       14.4387463   13.3594260   15.6862364
| 28>     H       16.1537284   13.6083424   16.0809414
| 29>     H       15.5755659   13.8687382   14.4175879
| 30>     H       14.1780105   15.7976077   15.1977998
| 31>     H       14.7599889   15.5662939   16.8685617
| 32>     H       15.1244710   20.4648950   15.6200671
| 33>     H       16.4900113   20.4429061   14.4963698
| 34>     H       16.4123322   21.6646090   15.7748987
| 35>     H       17.8738169   21.3224213   17.2951780
| 36>     H       19.4687337   17.8902674   18.6513627
| 37>     H       18.4156525   16.9324163   16.6678421
| 38>     H       18.2108127   14.7823140   17.6652873
| 39>     H       17.0877190   13.2016050   19.2223757
| 40>     H       15.3227289   14.0396242   20.7760566
| 41>     H       14.2294931   15.8011509   21.4915941
| 42>     H       15.8248942   18.0212674   19.2322764
| 43> *
| 44>
| 45>                          ****END OF INPUT****

CARTESIAN COORDINATES (ANGSTROEM)
---------------------------------
  C     15.317299   13.981841   15.477940
  C     15.024629   15.454657   15.808667
  O     16.206139   16.209950   15.499555
  C     16.070699   17.562986   15.419048
  O     15.319652   18.071140   14.605644
  C     16.808356   18.300291   16.504881
  C     16.943824   19.650707   16.455367
  C     16.209441   20.612240   15.543885
  N     17.844354   20.315324   17.290929
  C     18.785222   19.692814   18.065545
  S     19.887837   20.543114   18.958127
  N     18.781518   18.321194   18.045941
  C     17.774520   17.477829   17.375168
  C     17.092608   16.510819   18.333586
  C     17.446397   15.149171   18.345392
  C     16.809987   14.254361   19.221910
  C     15.816352   14.726743   20.096487
  C     15.468876   16.084754   20.092570
  O     14.510195   16.543681   20.935592
  C     16.102392   16.972500   19.217331
  H     14.438746   13.359426   15.686236
  H     16.153728   13.608342   16.080941
  H     15.575566   13.868738   14.417588
  H     14.178010   15.797608   15.197800
  H     14.759989   15.566294   16.868562
  H     15.124471   20.464895   15.620067
  H     16.490011   20.442906   14.496370
  H     16.412332   21.664609   15.774899
  H     17.873817   21.322421   17.295178
  H     19.468734   17.890267   18.651363
  H     18.415653   16.932416   16.667842
  H     18.210813   14.782314   17.665287
  H     17.087719   13.201605   19.222376
  H     15.322729   14.039624   20.776057
  H     14.229493   15.801151   21.491594
  H     15.824894   18.021267   19.232276

 Total Charge           Charge          ....    0
 Multiplicity           Mult            ....    1
 Number of Electrons    NEL             ....  154
 Basis Dimension        Dim             ....  828

ORBITAL ENERGIES
----------------

  NO   OCC          E(Eh)            E(eV)
   0   2.0000     -91.890527     -2500.4684
   1   2.0000     -20.601295      -560.5897
   2   2.0000     -20.586502      -560.1872
   3   2.0000     -20.544453      -559.0430
   4   2.0000     -15.631002      -425.3412
   5   2.0000     -15.608708      -424.7345
   6   2.0000     -11.391593      -309.9810
   7   2.0000     -11.385137      -309.8053
   8   2.0000     -11.339084      -308.5522
   9   2.0000     -11.319150      -308.0097
  10   2.0000     -11.309785      -307.7549
  11   2.0000     -11.294041      -307.3265
  12   2.0000     -11.265356      -306.5459
  13   2.0000     -11.260516      -306.4142
  14   2.0000     -11.258564      -306.3611
  15   2.0000     -11.252852      -306.2057
  16   2.0000     -11.248885      -306.0977
  17   2.0000     -11.243705      -305.9568
  18   2.0000     -11.243457      -305.9500
  19   2.0000     -11.226596      -305.4912
  20   2.0000      -8.895584      -242.0611
  21   2.0000      -6.577152      -178.9734
  22   2.0000      -6.575157      -178.9191
  23   2.0000      -6.574562      -178.9029
  24   2.0000      -1.449324       -39.4381
  25   2.0000      -1.421008       -38.6676
  26   2.0000      -1.353330       -36.8260
  27   2.0000      -1.342132       -36.5213
  28   2.0000      -1.240172       -33.7468
  29   2.0000      -1.162387       -31.6302
  30   2.0000      -1.122671       -30.5494
  31   2.0000      -1.046494       -28.4766
  32   2.0000      -1.035766       -28.1846
  33   2.0000      -1.020314       -27.7641
  34   2.0000      -0.998134       -27.1606
  35   2.0000      -0.986555       -26.8455
  36   2.0000      -0.924483       -25.1565
  37   2.0000      -0.880274       -23.9535
  38   2.0000      -0.848616       -23.0920
  39   2.0000      -0.841727       -22.9046
  40   2.0000      -0.838804       -22.8250
  41   2.0000      -0.825923       -22.4745
  42   2.0000      -0.763134       -20.7659
  43   2.0000      -0.737601       -20.0711
  44   2.0000      -0.724261       -19.7081
  45   2.0000      -0.700058       -19.0496
  46   2.0000      -0.689708       -18.7679
  47   2.0000      -0.678299       -18.4575
  48   2.0000      -0.674465       -18.3531
  49   2.0000      -0.655598       -17.8397
  50   2.0000      -0.649705       -17.6794
  51   2.0000      -0.641070       -17.4444
  52   2.0000      -0.628654       -17.1066
  53   2.0000      -0.621494       -16.9117
  54   2.0000      -0.611604       -16.6426
  55   2.0000      -0.604066       -16.4375
  56   2.0000      -0.602177       -16.3861
  57   2.0000      -0.581152       -15.8139
  58   2.0000      -0.571377       -15.5479
  59   2.0000      -0.566491       -15.4150
  60   2.0000      -0.555611       -15.1189
  61   2.0000      -0.542757       -14.7692
  62   2.0000      -0.532921       -14.5015
  63   2.0000      -0.528373       -14.3778
  64   2.0000      -0.519579       -14.1385
  65   2.0000      -0.515448       -14.0261
  66   2.0000      -0.505060       -13.7434
  67   2.0000      -0.499557       -13.5936
  68   2.0000      -0.487621       -13.2688
  69   2.0000      -0.465330       -12.6623
  70   2.0000      -0.457148       -12.4396
  71   2.0000      -0.445484       -12.1222
  72   2.0000      -0.355903        -9.6846
  73   2.0000      -0.353487        -9.6189
  74   2.0000      -0.330146        -8.9837
  75   2.0000      -0.326282        -8.8786
  76   2.0000      -0.319994        -8.7075
  77   0.0000       0.072106         1.9621
  78   0.0000       0.099804         2.7158
  79   0.0000       0.123229         3.3532
  80   0.0000       0.129841         3.5332
  81   0.0000       0.132248         3.5986

MULLIKEN ATOMIC CHARGES
-----------------------
   0 C :   -0.267680
   1 C :    0.008332
   2 O :   -0.371516
   3 C :    0.490549
   4 O :   -0.416862
   5 C :   -0.295345
   6 C :    0.184452
   7 C :   -0.265751
   8 N :   -0.126815
   9 C :    0.212181
  10 S :   -0.439836
  11 N :   -0.217327
  12 C :    0.074073
  13 C :   -0.006404
  14 C :   -0.166498
  15 C :   -0.134799
  16 C :   -0.271159
  17 C :    0.310160
  18 O :   -0.356148
  19 C :   -0.232138
  20 H :    0.089161
  21 H :    0.089640
  22 H :    0.104556
  23 H :    0.121623
  24 H :    0.107582
  25 H :    0.132931
  26 H :    0.130880
  27 H :    0.094619
  28 H :    0.199556
  29 H :    0.201110
  30 H :    0.151512
  31 H :    0.158799
  32 H :    0.165633
  33 H :    0.133587
  34 H :    0.241474
  35 H :    0.165871
Sum of atomic charges:   -0.0000000

LOEWDIN ATOMIC CHARGES
----------------------
   0 C :    0.109197
   1 C :   -0.021616
   2 O :    0.299842
   3 C :   -0.419832
   4 O :    0.109695
   5 C :   -0.100786
   6 C :   -0.054410
   7 C :    0.131870
   8 N :    0.407721
   9 C :   -0.456095
  10 S :   -0.034739
  11 N :    0.394280
  12 C :   -0.054774
  13 C :   -0.039909
  14 C :    0.018428
  15 C :    0.041772
  16 C :   -0.000547
  17 C :   -0.190936
  18 O :    0.396309
  19 C :    0.032074
  20 H :   -0.025497
  21 H :   -0.031844
  22 H :   -0.025079
  23 H :   -0.028165
  24 H :   -0.032779
  25 H :   -0.004257
  26 H :   -0.004150
  27 H :   -0.023463
  28 H :   -0.056801
  29 H :   -0.064544
  30 H :   -0.012310
  31 H :   -0.028579
  32 H :   -0.020159
  33 H :   -0.034330
  34 H :   -0.152923
  35 H :   -0.022664

  Mayer bond orders larger than 0.100000
B(  0-C ,  1-C ) :   0.9781 B(  0-C , 20-H ) :   0.9764 B(  0-C , 21-H ) :   0.9778
B(  0-C , 22-H ) :   0.9781 B(  1-C ,  2-O ) :   0.8827 B(  1-C , 23-H ) :   0.9786
B(  1-C , 24-H ) :   0.9658 B(  2-O ,  3-C ) :   1.1109 B(  3-C ,  4-O ) :   2.0114
B(  3-C ,  5-C ) :   1.0707 B(  5-C ,  6-C ) :   1.6292 B(  5-C , 12-C ) :   0.9515
B(  6-C ,  7-C ) :   0.9658 B(  6-C ,  8-N ) :   1.1592 B(  7-C , 25-H ) :   0.9611
B(  7-C , 26-H ) :   0.9580 B(  7-C , 27-H ) :   0.9901 B(  8-N ,  9-C ) :   1.1855
B(  8-N , 28-H ) :   0.9462 B(  9-C , 10-S ) :   1.6066 B(  9-C , 11-N ) :   1.3103
B( 11-N , 12-C ) :   0.9639 B( 11-N , 29-H ) :   0.9485 B( 12-C , 13-C ) :   0.9662
B( 12-C , 30-H ) :   1.0002 B( 13-C , 14-C ) :   1.3541 B( 13-C , 19-C ) :   1.3763
B( 14-C , 15-C ) :   1.3876 B( 14-C , 31-H ) :   0.9706 B( 15-C , 16-C ) :   1.3600
B( 15-C , 32-H ) :   0.9689 B( 16-C , 17-C ) :   1.3317 B( 16-C , 33-H ) :   0.9839
B( 17-C , 18-O ) :   1.1072 B( 17-C , 19-C ) :   1.3667 B( 18-O , 34-H ) :   0.9789
B( 19-C , 35-H ) :   0.9592

MP2 TOTAL ENERGY:    -1274.334249041 Eh
FINAL SINGLE POINT ENERGY     -1274.334249041445

DIPOLE MOMENT
-------------
                                X             Y             Z
Electronic contribution:      8.72262      11.24904       6.50926
Nuclear contribution   :     -9.82127     -12.79053      -6.40364
                        -----------------------------------------
Total Dipole Moment    :     -1.09865      -1.54149       0.10562
                        -----------------------------------------
Magnitude (a.u.)       :      1.89589
Magnitude (Debye)      :      4.81897

Rotational constants in cm-1:     0.012499     0.008295     0.006074
Rotational constants in MHz :   374.720850   248.682564   182.079749

                             ****ORCA TERMINATED NORMALLY****
TOTAL RUN TIME: 0 days 1 hours 40 minutes 47 seconds 933 msec
