                         Program Version 4.2.0 -  RELEASE  -
|  1> ! ri-mp2 cc-pvtz cc-pvtz/c TightSCF NoKeepInts
|  2>
|  3> %scf
|  4>   MaxCore 4096
|  5> end
|  6> *xyz  0  1
|  7>     C       14.3991242   16.6882804   16.1492256
|  8>     C       15.2874583   15.4794419   15.7796765
|  9>     O       16.4894340   15.8065646   15.0355527
| 10>     C       17.4922013   16.6840869   15.3718557
| 11>     O       18.5839552   16.6278742   14.8387475
| 12>     C       17.1943121   17.7122058   16.3990543
| 13>     C       16.8660870   18.9549803   15.9823744
| 14>     C       16.4708659   19.3391371   14.5727746
| 15>     N       16.9525152   20.0491087   16.8444185
| 16>     C       17.5815897   20.0136323   18.0620408
| 17>     S       17.7478058   21.3664583   18.9984439
| 18>     N       18.0911550   18.7990171   18.4555410
| 19>     C       17.8809832   17.5190768   17.7490715
| 20>     C       17.2765600   16.4020218   18.5853154
| 21>     C       17.7904461   15.0959426   18.4918404
| 22>     C       17.2209006   14.0502913   19.2373098
| 23>     C       16.1280874   14.3133384   20.0810807
| 24>     C       15.6140661   15.6139682   20.1752294
| 25>     O       14.5537014   15.8691611   20.9817632
| 26>     C       16.1826156   16.6529798   19.4315878
| 27>     H       14.7650461   17.2221450   17.0319614
| 28>     H       13.3886914   16.3384861   16.3939595
| 29>     H       14.3104298   17.3866428   15.3093425
| 30>     H       15.5569513   14.9421248   16.6984532
| 31>     H       14.6921405   14.7885072   15.1687731
| 32>     H       16.0287688   18.4976386   14.0256213
| 33>     H       17.3528224   19.6663114   14.0068039
| 34>     H       15.7370112   20.1540667   14.5616405
| 35>     H       16.6299609   20.9555088   16.5443138
| 36>     H       18.5504572   18.8024076   19.3577664
| 37>     H       18.9234339   17.2668810   17.5021805
| 38>     H       18.6306873   14.8896546   17.8320847
| 39>     H       17.6261326   13.0425352   19.1588255
| 40>     H       15.6848074   13.5083353   20.6583378
| 41>     H       14.3383238   15.0487447   21.4508662
| 42>     H       15.7674710   17.6524428   19.5141659
| 43> *
| 44>
| 45>                          ****END OF INPUT****

CARTESIAN COORDINATES (ANGSTROEM)
---------------------------------
  C     14.399124   16.688280   16.149226
  C     15.287458   15.479442   15.779676
  O     16.489434   15.806565   15.035553
  C     17.492201   16.684087   15.371856
  O     18.583955   16.627874   14.838748
  C     17.194312   17.712206   16.399054
  C     16.866087   18.954980   15.982374
  C     16.470866   19.339137   14.572775
  N     16.952515   20.049109   16.844418
  C     17.581590   20.013632   18.062041
  S     17.747806   21.366458   18.998444
  N     18.091155   18.799017   18.455541
  C     17.880983   17.519077   17.749071
  C     17.276560   16.402022   18.585315
  C     17.790446   15.095943   18.491840
  C     17.220901   14.050291   19.237310
  C     16.128087   14.313338   20.081081
  C     15.614066   15.613968   20.175229
  O     14.553701   15.869161   20.981763
  C     16.182616   16.652980   19.431588
  H     14.765046   17.222145   17.031961
  H     13.388691   16.338486   16.393960
  H     14.310430   17.386643   15.309342
  H     15.556951   14.942125   16.698453
  H     14.692141   14.788507   15.168773
  H     16.028769   18.497639   14.025621
  H     17.352822   19.666311   14.006804
  H     15.737011   20.154067   14.561640
  H     16.629961   20.955509   16.544314
  H     18.550457   18.802408   19.357766
  H     18.923434   17.266881   17.502181
  H     18.630687   14.889655   17.832085
  H     17.626133   13.042535   19.158825
  H     15.684807   13.508335   20.658338
  H     14.338324   15.048745   21.450866
  H     15.767471   17.652443   19.514166

 Total Charge           Charge          ....    0
 Multiplicity           Mult            ....    1
 Number of Electrons    NEL             ....  154
 Basis Dimension        Dim             ....  828

ORBITAL ENERGIES
----------------

  NO   OCC          E(Eh)            E(eV)
   0   2.0000     -91.888755     -2500.4201
   1   2.0000     -20.605524      -560.7048
   2   2.0000     -20.598252      -560.5069
   3   2.0000     -20.552286      -559.2561
   4   2.0000     -15.624444      -425.1627
   5   2.0000     -15.610482      -424.7828
   6   2.0000     -11.399014      -310.1829
   7   2.0000     -11.384911      -309.7992
   8   2.0000     -11.324196      -308.1470
   9   2.0000     -11.323353      -308.1241
  10   2.0000     -11.314852      -307.8928
  11   2.0000     -11.306732      -307.6718
  12   2.0000     -11.271781      -306.7207
  13   2.0000     -11.265193      -306.5415
  14   2.0000     -11.260564      -306.4155
  15   2.0000     -11.256158      -306.2956
  16   2.0000     -11.253196      -306.2150
  17   2.0000     -11.248495      -306.0871
  18   2.0000     -11.248086      -306.0760
  19   2.0000     -11.233169      -305.6701
  20   2.0000      -8.893858      -242.0142
  21   2.0000      -6.575442      -178.9269
  22   2.0000      -6.573429      -178.8721
  23   2.0000      -6.572850      -178.8563
  24   2.0000      -1.443705       -39.2852
  25   2.0000      -1.425228       -38.7824
  26   2.0000      -1.358964       -36.9793
  27   2.0000      -1.338029       -36.4096
  28   2.0000      -1.238285       -33.6954
  29   2.0000      -1.167750       -31.7761
  30   2.0000      -1.126803       -30.6619
  31   2.0000      -1.052313       -28.6349
  32   2.0000      -1.036912       -28.2158
  33   2.0000      -1.025813       -27.9138
  34   2.0000      -1.005413       -27.3587
  35   2.0000      -0.990412       -26.9505
  36   2.0000      -0.927868       -25.2486
  37   2.0000      -0.897929       -24.4339
  38   2.0000      -0.851960       -23.1830
  39   2.0000      -0.844878       -22.9903
  40   2.0000      -0.843083       -22.9415
  41   2.0000      -0.830369       -22.5955
  42   2.0000      -0.751880       -20.4597
  43   2.0000      -0.739385       -20.1197
  44   2.0000      -0.726365       -19.7654
  45   2.0000      -0.703927       -19.1548
  46   2.0000      -0.692199       -18.8357
  47   2.0000      -0.678625       -18.4663
  48   2.0000      -0.676270       -18.4022
  49   2.0000      -0.663488       -18.0544
  50   2.0000      -0.654233       -17.8026
  51   2.0000      -0.648271       -17.6404
  52   2.0000      -0.637695       -17.3526
  53   2.0000      -0.616767       -16.7831
  54   2.0000      -0.610545       -16.6138
  55   2.0000      -0.607197       -16.5227
  56   2.0000      -0.605201       -16.4684
  57   2.0000      -0.586477       -15.9589
  58   2.0000      -0.580803       -15.8045
  59   2.0000      -0.579097       -15.7580
  60   2.0000      -0.566312       -15.4101
  61   2.0000      -0.556049       -15.1309
  62   2.0000      -0.540173       -14.6988
  63   2.0000      -0.534654       -14.5487
  64   2.0000      -0.524245       -14.2654
  65   2.0000      -0.514985       -14.0135
  66   2.0000      -0.504609       -13.7311
  67   2.0000      -0.503667       -13.7055
  68   2.0000      -0.491990       -13.3877
  69   2.0000      -0.461798       -12.5662
  70   2.0000      -0.454539       -12.3686
  71   2.0000      -0.451695       -12.2912
  72   2.0000      -0.358546        -9.7565
  73   2.0000      -0.350539        -9.5387
  74   2.0000      -0.332551        -9.0492
  75   2.0000      -0.328026        -8.9260
  76   2.0000      -0.317755        -8.6466
  77   0.0000       0.089851         2.4450
  78   0.0000       0.099571         2.7095
  79   0.0000       0.119675         3.2565
  80   0.0000       0.124993         3.4012
  81   0.0000       0.126617         3.4454

MULLIKEN ATOMIC CHARGES
-----------------------
   0 C :   -0.330040
   1 C :    0.038721
   2 O :   -0.327402
   3 C :    0.410861
   4 O :   -0.378969
   5 C :   -0.216085
   6 C :    0.153692
   7 C :   -0.312644
   8 N :   -0.139387
   9 C :    0.214408
  10 S :   -0.444086
  11 N :   -0.229552
  12 C :    0.072898
  13 C :    0.021553
  14 C :   -0.238740
  15 C :   -0.125824
  16 C :   -0.276818
  17 C :    0.320271
  18 O :   -0.353054
  19 C :   -0.257951
  20 H :    0.116847
  21 H :    0.119956
  22 H :    0.102512
  23 H :    0.101161
  24 H :    0.124569
  25 H :    0.114754
  26 H :    0.149068
  27 H :    0.104591
  28 H :    0.197007
  29 H :    0.202289
  30 H :    0.170003
  31 H :    0.167887
  32 H :    0.166864
  33 H :    0.135119
  34 H :    0.242115
  35 H :    0.183404
Sum of atomic charges:    0.0000000

LOEWDIN ATOMIC CHARGES
----------------------
   0 C :    0.100808
   1 C :   -0.010825
   2 O :    0.293147
   3 C :   -0.417521
   4 O :    0.126478
   5 C :   -0.083179
   6 C :   -0.093520
   7 C :    0.126958
   8 N :    0.403426
   9 C :   -0.453616
  10 S :   -0.039399
  11 N :    0.395720
  12 C :   -0.053692
  13 C :   -0.044246
  14 C :    0.015934
  15 C :    0.044450
  16 C :    0.000541
  17 C :   -0.190042
  18 O :    0.397591
  19 C :    0.031063
  20 H :   -0.034982
  21 H :   -0.022921
  22 H :   -0.030539
  23 H :   -0.030305
  24 H :   -0.019772
  25 H :   -0.012070
  26 H :   -0.005036
  27 H :   -0.018127
  28 H :   -0.058371
  29 H :   -0.064898
  30 H :   -0.004373
  31 H :   -0.023501
  32 H :   -0.017719
  33 H :   -0.033477
  34 H :   -0.152045
  35 H :   -0.021939

  Mayer bond orders larger than 0.100000
B(  0-C ,  1-C ) :   0.9540 B(  0-C , 20-H ) :   0.9704 B(  0-C , 21-H ) :   0.9783
B(  0-C , 22-H ) :   0.9765 B(  1-C ,  2-O ) :   0.9052 B(  1-C , 23-H ) :   0.9721
B(  1-C , 24-H ) :   0.9832 B(  2-O ,  3-C ) :   1.1834 B(  3-C ,  4-O ) :   2.1203
B(  3-C ,  5-C ) :   0.9098 B(  5-C ,  6-C ) :   1.7266 B(  5-C , 12-C ) :   0.9337
B(  6-C ,  7-C ) :   0.9452 B(  6-C ,  8-N ) :   1.1086 B(  7-C , 25-H ) :   0.9791
B(  7-C , 26-H ) :   0.9616 B(  7-C , 27-H ) :   0.9787 B(  8-N ,  9-C ) :   1.2047
B(  8-N , 28-H ) :   0.9502 B(  9-C , 10-S ) :   1.6084 B(  9-C , 11-N ) :   1.2826
B( 11-N , 12-C ) :   0.9794 B( 11-N , 29-H ) :   0.9470 B( 12-C , 13-C ) :   0.9559
B( 12-C , 30-H ) :   0.9957 B( 13-C , 14-C ) :   1.3747 B( 13-C , 19-C ) :   1.3463
B( 14-C , 15-C ) :   1.3974 B( 14-C , 31-H ) :   0.9673 B( 15-C , 16-C ) :   1.3613
B( 15-C , 32-H ) :   0.9690 B( 16-C , 17-C ) :   1.3297 B( 16-C , 33-H ) :   0.9837
B( 17-C , 18-O ) :   1.1137 B( 17-C , 19-C ) :   1.3606 B( 18-O , 34-H ) :   0.9784
B( 19-C , 35-H ) :   0.9527

MP2 TOTAL ENERGY:    -1274.320775970 Eh
FINAL SINGLE POINT ENERGY     -1274.320775970499

DIPOLE MOMENT
-------------
                                X             Y             Z
Electronic contribution:      8.86933       6.36163       6.32604
Nuclear contribution   :    -10.46413      -8.09229      -6.30136
                        -----------------------------------------
Total Dipole Moment    :     -1.59480      -1.73067       0.02469
                        -----------------------------------------
Magnitude (a.u.)       :      2.35355
Magnitude (Debye)      :      5.98226

Rotational constants in cm-1:     0.012231     0.009089     0.006536
Rotational constants in MHz :   366.665749   272.476139   195.931124

                             ****ORCA TERMINATED NORMALLY****
TOTAL RUN TIME: 0 days 1 hours 46 minutes 29 seconds 894 msec
