                         Program Version 4.2.0 -  RELEASE  -
|  1> ! ri-mp2 cc-pvtz cc-pvtz/c TightSCF NoKeepInts
|  2>
|  3> %scf
|  4>   MaxCore 4096
|  5> end
|  6> *xyz  0  1
|  7>     C       13.7265874   16.0562988   14.5887958
|  8>     C       14.8116166   16.2760736   15.6555339
|  9>     O       16.0869670   16.1810811   14.9897205
| 10>     C       17.2541199   16.6163485   15.5622507
| 11>     O       18.3209236   16.0969206   15.2918984
| 12>     C       17.1354412   17.6880967   16.5963508
| 13>     C       16.6755940   18.9161713   16.2522490
| 14>     C       16.0311470   19.3153407   14.9387701
| 15>     N       16.8478917   20.0082567   17.1046310
| 16>     C       17.6820755   20.0089938   18.1916430
| 17>     S       17.9323580   21.3701427   19.0964829
| 18>     N       18.3188209   18.8254958   18.4755563
| 19>     C       18.0504451   17.5345089   17.8105172
| 20>     C       17.6084381   16.4136956   18.7389583
| 21>     C       18.1575566   15.1262311   18.6028570
| 22>     C       17.7392702   14.0795098   19.4412670
| 23>     C       16.7611342   14.3221470   20.4209877
| 24>     C       16.2070503   15.6028565   20.5533834
| 25>     O       15.2550782   15.8374163   21.4911419
| 26>     C       16.6242283   16.6429156   19.7163604
| 27>     H       12.7275425   16.0973406   15.0396471
| 28>     H       13.8479120   15.0749074   14.1128396
| 29>     H       13.7857352   16.8266881   13.8099998
| 30>     H       14.6488425   17.2534646   16.1219432
| 31>     H       14.7385519   15.5071605   16.4365762
| 32>     H       14.9373089   19.3061301   15.0137082
| 33>     H       16.3186058   18.6494868   14.1155339
| 34>     H       16.3362034   20.3247894   14.6344504
| 35>     H       16.4173513   20.8929150   16.8854832
| 36>     H       18.9262612   18.8513384   19.2851649
| 37>     H       19.0493395   17.3150170   17.4042884
| 38>     H       18.9052547   14.9351970   17.8353782
| 39>     H       18.1704707   13.0863322   19.3264424
| 40>     H       16.4345314   13.5159106   21.0695804
| 41>     H       15.1350880   15.0181788   21.9949630
| 42>     H       16.1812571   17.6266424   19.8326460
| 43> *
| 44>
| 45>                          ****END OF INPUT****

CARTESIAN COORDINATES (ANGSTROEM)
---------------------------------
  C     13.726587   16.056299   14.588796
  C     14.811617   16.276074   15.655534
  O     16.086967   16.181081   14.989721
  C     17.254120   16.616349   15.562251
  O     18.320924   16.096921   15.291898
  C     17.135441   17.688097   16.596351
  C     16.675594   18.916171   16.252249
  C     16.031147   19.315341   14.938770
  N     16.847892   20.008257   17.104631
  C     17.682075   20.008994   18.191643
  S     17.932358   21.370143   19.096483
  N     18.318821   18.825496   18.475556
  C     18.050445   17.534509   17.810517
  C     17.608438   16.413696   18.738958
  C     18.157557   15.126231   18.602857
  C     17.739270   14.079510   19.441267
  C     16.761134   14.322147   20.420988
  C     16.207050   15.602856   20.553383
  O     15.255078   15.837416   21.491142
  C     16.624228   16.642916   19.716360
  H     12.727542   16.097341   15.039647
  H     13.847912   15.074907   14.112840
  H     13.785735   16.826688   13.810000
  H     14.648842   17.253465   16.121943
  H     14.738552   15.507160   16.436576
  H     14.937309   19.306130   15.013708
  H     16.318606   18.649487   14.115534
  H     16.336203   20.324789   14.634450
  H     16.417351   20.892915   16.885483
  H     18.926261   18.851338   19.285165
  H     19.049339   17.315017   17.404288
  H     18.905255   14.935197   17.835378
  H     18.170471   13.086332   19.326442
  H     16.434531   13.515911   21.069580
  H     15.135088   15.018179   21.994963
  H     16.181257   17.626642   19.832646

 Total Charge           Charge          ....    0
 Multiplicity           Mult            ....    1
 Number of Electrons    NEL             ....  154
 Basis Dimension        Dim             ....  828

ORBITAL ENERGIES
----------------

  NO   OCC          E(Eh)            E(eV)
   0   2.0000     -91.889906     -2500.4515
   1   2.0000     -20.603609      -560.6527
   2   2.0000     -20.598748      -560.5204
   3   2.0000     -20.551223      -559.2272
   4   2.0000     -15.628373      -425.2696
   5   2.0000     -15.609416      -424.7538
   6   2.0000     -11.398703      -310.1745
   7   2.0000     -11.385761      -309.8223
   8   2.0000     -11.334458      -308.4263
   9   2.0000     -11.315910      -307.9216
  10   2.0000     -11.309550      -307.7485
  11   2.0000     -11.306589      -307.6679
  12   2.0000     -11.267709      -306.6100
  13   2.0000     -11.263697      -306.5008
  14   2.0000     -11.263490      -306.4952
  15   2.0000     -11.256196      -306.2967
  16   2.0000     -11.245099      -305.9947
  17   2.0000     -11.241231      -305.8895
  18   2.0000     -11.238476      -305.8145
  19   2.0000     -11.237547      -305.7892
  20   2.0000      -8.895010      -242.0455
  21   2.0000      -6.576591      -178.9581
  22   2.0000      -6.574579      -178.9034
  23   2.0000      -6.573996      -178.8875
  24   2.0000      -1.450124       -39.4599
  25   2.0000      -1.418448       -38.5979
  26   2.0000      -1.363020       -37.0897
  27   2.0000      -1.341102       -36.4933
  28   2.0000      -1.239269       -33.7222
  29   2.0000      -1.160376       -31.5754
  30   2.0000      -1.126236       -30.6464
  31   2.0000      -1.047994       -28.5174
  32   2.0000      -1.043568       -28.3969
  33   2.0000      -1.018156       -27.7054
  34   2.0000      -1.005508       -27.3613
  35   2.0000      -0.989657       -26.9299
  36   2.0000      -0.926125       -25.2011
  37   2.0000      -0.883098       -24.0303
  38   2.0000      -0.855535       -23.2803
  39   2.0000      -0.842746       -22.9323
  40   2.0000      -0.837270       -22.7833
  41   2.0000      -0.835215       -22.7274
  42   2.0000      -0.759530       -20.6679
  43   2.0000      -0.739882       -20.1332
  44   2.0000      -0.732181       -19.9236
  45   2.0000      -0.696140       -18.9429
  46   2.0000      -0.688934       -18.7469
  47   2.0000      -0.683555       -18.6005
  48   2.0000      -0.673867       -18.3369
  49   2.0000      -0.664713       -18.0878
  50   2.0000      -0.655068       -17.8253
  51   2.0000      -0.647944       -17.6314
  52   2.0000      -0.639225       -17.3942
  53   2.0000      -0.613484       -16.6937
  54   2.0000      -0.606638       -16.5075
  55   2.0000      -0.602942       -16.4069
  56   2.0000      -0.600878       -16.3507
  57   2.0000      -0.584811       -15.9135
  58   2.0000      -0.577236       -15.7074
  59   2.0000      -0.568077       -15.4582
  60   2.0000      -0.561079       -15.2677
  61   2.0000      -0.560674       -15.2567
  62   2.0000      -0.547503       -14.8983
  63   2.0000      -0.531985       -14.4760
  64   2.0000      -0.523190       -14.2367
  65   2.0000      -0.514913       -14.0115
  66   2.0000      -0.505077       -13.7438
  67   2.0000      -0.501010       -13.6332
  68   2.0000      -0.488290       -13.2870
  69   2.0000      -0.468575       -12.7506
  70   2.0000      -0.460245       -12.5239
  71   2.0000      -0.451425       -12.2839
  72   2.0000      -0.356258        -9.6943
  73   2.0000      -0.350951        -9.5499
  74   2.0000      -0.329335        -8.9617
  75   2.0000      -0.323569        -8.8047
  76   2.0000      -0.319605        -8.6969
  77   0.0000       0.082917         2.2563
  78   0.0000       0.104908         2.8547
  79   0.0000       0.115369         3.1393
  80   0.0000       0.129366         3.5202
  81   0.0000       0.130681         3.5560

MULLIKEN ATOMIC CHARGES
-----------------------
   0 C :   -0.262062
   1 C :    0.023313
   2 O :   -0.319239
   3 C :    0.418760
   4 O :   -0.381252
   5 C :   -0.222874
   6 C :    0.152028
   7 C :   -0.325547
   8 N :   -0.137844
   9 C :    0.209146
  10 S :   -0.442275
  11 N :   -0.221442
  12 C :    0.056754
  13 C :    0.028912
  14 C :   -0.221967
  15 C :   -0.127423
  16 C :   -0.277922
  17 C :    0.314562
  18 O :   -0.356316
  19 C :   -0.251050
  20 H :    0.091369
  21 H :    0.108679
  22 H :    0.093856
  23 H :    0.091907
  24 H :    0.118864
  25 H :    0.121309
  26 H :    0.138028
  27 H :    0.129069
  28 H :    0.198021
  29 H :    0.202395
  30 H :    0.166634
  31 H :    0.175198
  32 H :    0.164357
  33 H :    0.131228
  34 H :    0.241194
  35 H :    0.171630
Sum of atomic charges:    0.0000000

LOEWDIN ATOMIC CHARGES
----------------------
   0 C :    0.109651
   1 C :   -0.021450
   2 O :    0.305628
   3 C :   -0.415781
   4 O :    0.121748
   5 C :   -0.086851
   6 C :   -0.088752
   7 C :    0.127210
   8 N :    0.402722
   9 C :   -0.456667
  10 S :   -0.037803
  11 N :    0.396106
  12 C :   -0.049680
  13 C :   -0.043780
  14 C :    0.019812
  15 C :    0.044245
  16 C :   -0.000350
  17 C :   -0.191447
  18 O :    0.394687
  19 C :    0.027167
  20 H :   -0.024140
  21 H :   -0.022575
  22 H :   -0.028739
  23 H :   -0.039716
  24 H :   -0.027414
  25 H :   -0.017233
  26 H :   -0.007258
  27 H :   -0.011804
  28 H :   -0.057530
  29 H :   -0.063557
  30 H :   -0.004465
  31 H :   -0.021477
  32 H :   -0.018791
  33 H :   -0.034977
  34 H :   -0.153316
  35 H :   -0.023427

  Mayer bond orders larger than 0.100000
B(  0-C ,  1-C ) :   0.9771 B(  0-C , 20-H ) :   0.9756 B(  0-C , 21-H ) :   0.9779
B(  0-C , 22-H ) :   0.9773 B(  1-C ,  2-O ) :   0.9014 B(  1-C , 23-H ) :   0.9650
B(  1-C , 24-H ) :   0.9769 B(  2-O ,  3-C ) :   1.1739 B(  3-C ,  4-O ) :   2.1005
B(  3-C ,  5-C ) :   0.9292 B(  5-C ,  6-C ) :   1.7149 B(  5-C , 12-C ) :   0.9424
B(  6-C ,  7-C ) :   0.9351 B(  6-C ,  8-N ) :   1.1100 B(  7-C , 25-H ) :   0.9654
B(  7-C , 26-H ) :   0.9725 B(  7-C , 27-H ) :   0.9807 B(  8-N ,  9-C ) :   1.1946
B(  8-N , 28-H ) :   0.9503 B(  9-C , 10-S ) :   1.6105 B(  9-C , 11-N ) :   1.2924
B( 11-N , 12-C ) :   0.9836 B( 11-N , 29-H ) :   0.9475 B( 12-C , 13-C ) :   0.9686
B( 12-C , 30-H ) :   0.9894 B( 13-C , 14-C ) :   1.3841 B( 13-C , 19-C ) :   1.3554
B( 14-C , 15-C ) :   1.3938 B( 14-C , 31-H ) :   0.9599 B( 15-C , 16-C ) :   1.3615
B( 15-C , 32-H ) :   0.9698 B( 16-C , 17-C ) :   1.3310 B( 16-C , 33-H ) :   0.9851
B( 17-C , 18-O ) :   1.1081 B( 17-C , 19-C ) :   1.3670 B( 18-O , 34-H ) :   0.9794
B( 19-C , 35-H ) :   0.9566

MP2 TOTAL ENERGY:    -1274.330780444 Eh
FINAL SINGLE POINT ENERGY     -1274.330780443605

DIPOLE MOMENT
-------------
                                X             Y             Z
Electronic contribution:     11.18037       6.69421       9.72086
Nuclear contribution   :    -12.81875      -7.87989     -10.06114
                        -----------------------------------------
Total Dipole Moment    :     -1.63838      -1.18569      -0.34028
                        -----------------------------------------
Magnitude (a.u.)       :      2.05084
Magnitude (Debye)      :      5.21282

Rotational constants in cm-1:     0.010200     0.009231     0.006141
Rotational constants in MHz :   305.776704   276.726315   184.088842

                             ****ORCA TERMINATED NORMALLY****
TOTAL RUN TIME: 0 days 1 hours 41 minutes 15 seconds 840 msec
