                         Program Version 4.2.0 -  RELEASE  -
|  1> ! ri-mp2 cc-pvtz cc-pvtz/c TightSCF NoKeepInts
|  2>
|  3> %scf
|  4>   MaxCore 4096
|  5> end
|  6> *xyz  0  1
|  7>     C       15.1027101   14.3122911   16.2751916
|  8>     C       15.7231147   15.0157198   15.0562069
|  9>     O       16.6529308   16.0008751   15.5450510
| 10>     C       16.4079689   17.3274575   15.3255291
| 11>     O       15.7836404   17.7155421   14.3527810
| 12>     C       16.9042758   18.2064599   16.4428225
| 13>     C       16.9373264   19.5569945   16.3004870
| 14>     C       16.2776724   20.3817715   15.2143443
| 15>     N       17.6402529   20.3596416   17.2018577
| 16>     C       18.4945529   19.8836404   18.1588954
| 17>     S       19.3738311   20.8937870   19.1296905
| 18>     N       18.6030465   18.5197839   18.2557034
| 19>     C       17.7842114   17.5413065   17.5158916
| 20>     C       17.0479622   16.5840059   18.4440042
| 21>     C       17.5873660   15.3162890   18.7297746
| 22>     C       16.9182523   14.4344513   19.5953061
| 23>     C       15.7009288   14.8244151   20.1795011
| 24>     C       15.1653685   16.0896360   19.9013664
| 25>     O       13.9914976   16.4694418   20.4657489
| 26>     C       15.8351257   16.9665446   19.0423929
| 27>     H       15.8770131   13.8118686   16.8687586
| 28>     H       14.3751615   13.5569975   15.9547956
| 29>     H       14.5860956   15.0353275   16.9187595
| 30>     H       16.2551061   14.2800248   14.4395364
| 31>     H       14.9282019   15.4624390   14.4436402
| 32>     H       15.2122084   20.1313070   15.1323232
| 33>     H       16.7385765   20.1772062   14.2395437
| 34>     H       16.3450362   21.4614031   15.3928170
| 35>     H       17.5876480   21.3628069   17.1253925
| 36>     H       19.2155999   18.1983768   18.9944262
| 37>     H       18.5699185   17.0088461   16.9612254
| 38>     H       18.5264395   15.0123915   18.2750917
| 39>     H       17.3420164   13.4548256   19.8095706
| 40>     H       15.1797659   14.1465070   20.8474360
| 41>     H       13.7058357   15.7541004   21.0537027
| 42>     H       15.4103414   17.9455172   18.8484343
| 43> *
| 44>
| 45>                          ****END OF INPUT****

CARTESIAN COORDINATES (ANGSTROEM)
---------------------------------
  C     15.102710   14.312291   16.275192
  C     15.723115   15.015720   15.056207
  O     16.652931   16.000875   15.545051
  C     16.407969   17.327458   15.325529
  O     15.783640   17.715542   14.352781
  C     16.904276   18.206460   16.442822
  C     16.937326   19.556994   16.300487
  C     16.277672   20.381771   15.214344
  N     17.640253   20.359642   17.201858
  C     18.494553   19.883640   18.158895
  S     19.373831   20.893787   19.129690
  N     18.603047   18.519784   18.255703
  C     17.784211   17.541307   17.515892
  C     17.047962   16.584006   18.444004
  C     17.587366   15.316289   18.729775
  C     16.918252   14.434451   19.595306
  C     15.700929   14.824415   20.179501
  C     15.165368   16.089636   19.901366
  O     13.991498   16.469442   20.465749
  C     15.835126   16.966545   19.042393
  H     15.877013   13.811869   16.868759
  H     14.375162   13.556997   15.954796
  H     14.586096   15.035327   16.918760
  H     16.255106   14.280025   14.439536
  H     14.928202   15.462439   14.443640
  H     15.212208   20.131307   15.132323
  H     16.738577   20.177206   14.239544
  H     16.345036   21.461403   15.392817
  H     17.587648   21.362807   17.125393
  H     19.215600   18.198377   18.994426
  H     18.569918   17.008846   16.961225
  H     18.526439   15.012391   18.275092
  H     17.342016   13.454826   19.809571
  H     15.179766   14.146507   20.847436
  H     13.705836   15.754100   21.053703
  H     15.410341   17.945517   18.848434

 Total Charge           Charge          ....    0
 Multiplicity           Mult            ....    1
 Number of Electrons    NEL             ....  154
 Basis Dimension        Dim             ....  828

ORBITAL ENERGIES
----------------

  NO   OCC          E(Eh)            E(eV)
   0   2.0000     -91.889237     -2500.4332
   1   2.0000     -20.599147      -560.5313
   2   2.0000     -20.596381      -560.4560
   3   2.0000     -20.541042      -558.9502
   4   2.0000     -15.629733      -425.3067
   5   2.0000     -15.607347      -424.6975
   6   2.0000     -11.394034      -310.0474
   7   2.0000     -11.383862      -309.7706
   8   2.0000     -11.338188      -308.5278
   9   2.0000     -11.316280      -307.9316
  10   2.0000     -11.308326      -307.7152
  11   2.0000     -11.293073      -307.3001
  12   2.0000     -11.263115      -306.4849
  13   2.0000     -11.259177      -306.3778
  14   2.0000     -11.257520      -306.3327
  15   2.0000     -11.251924      -306.1804
  16   2.0000     -11.245704      -306.0112
  17   2.0000     -11.240469      -305.8687
  18   2.0000     -11.240424      -305.8675
  19   2.0000     -11.221669      -305.3571
  20   2.0000      -8.894301      -242.0262
  21   2.0000      -6.575872      -178.9386
  22   2.0000      -6.573875      -178.8842
  23   2.0000      -6.573284      -178.8682
  24   2.0000      -1.449126       -39.4327
  25   2.0000      -1.418818       -38.6080
  26   2.0000      -1.352927       -36.8150
  27   2.0000      -1.340928       -36.4885
  28   2.0000      -1.238893       -33.7120
  29   2.0000      -1.159537       -31.5526
  30   2.0000      -1.121659       -30.5219
  31   2.0000      -1.044178       -28.4135
  32   2.0000      -1.035559       -28.1790
  33   2.0000      -1.017416       -27.6853
  34   2.0000      -0.996856       -27.1258
  35   2.0000      -0.985130       -26.8068
  36   2.0000      -0.922812       -25.1110
  37   2.0000      -0.887845       -24.1595
  38   2.0000      -0.847156       -23.0523
  39   2.0000      -0.839714       -22.8498
  40   2.0000      -0.835849       -22.7446
  41   2.0000      -0.814986       -22.1769
  42   2.0000      -0.762112       -20.7381
  43   2.0000      -0.735105       -20.0032
  44   2.0000      -0.721282       -19.6271
  45   2.0000      -0.697627       -18.9834
  46   2.0000      -0.688501       -18.7351
  47   2.0000      -0.677318       -18.4308
  48   2.0000      -0.669799       -18.2262
  49   2.0000      -0.668907       -18.2019
  50   2.0000      -0.646809       -17.6006
  51   2.0000      -0.642255       -17.4766
  52   2.0000      -0.636215       -17.3123
  53   2.0000      -0.609369       -16.5818
  54   2.0000      -0.602969       -16.4076
  55   2.0000      -0.601030       -16.3549
  56   2.0000      -0.586381       -15.9562
  57   2.0000      -0.578649       -15.7458
  58   2.0000      -0.569712       -15.5027
  59   2.0000      -0.566142       -15.4055
  60   2.0000      -0.564918       -15.3722
  61   2.0000      -0.549995       -14.9661
  62   2.0000      -0.538859       -14.6631
  63   2.0000      -0.526402       -14.3241
  64   2.0000      -0.523271       -14.2389
  65   2.0000      -0.512923       -13.9573
  66   2.0000      -0.501595       -13.6491
  67   2.0000      -0.496229       -13.5031
  68   2.0000      -0.482841       -13.1388
  69   2.0000      -0.463111       -12.6019
  70   2.0000      -0.451099       -12.2750
  71   2.0000      -0.448275       -12.1982
  72   2.0000      -0.353825        -9.6281
  73   2.0000      -0.351587        -9.5672
  74   2.0000      -0.328688        -8.9441
  75   2.0000      -0.323479        -8.8023
  76   2.0000      -0.318916        -8.6781
  77   0.0000       0.076428         2.0797
  78   0.0000       0.101912         2.7732
  79   0.0000       0.123380         3.3573
  80   0.0000       0.131575         3.5803
  81   0.0000       0.133574         3.6347

MULLIKEN ATOMIC CHARGES
-----------------------
   0 C :   -0.292044
   1 C :    0.025285
   2 O :   -0.354133
   3 C :    0.451503
   4 O :   -0.431181
   5 C :   -0.263483
   6 C :    0.183718
   7 C :   -0.266410
   8 N :   -0.126867
   9 C :    0.214651
  10 S :   -0.442461
  11 N :   -0.221111
  12 C :    0.075965
  13 C :    0.060062
  14 C :   -0.191899
  15 C :   -0.137877
  16 C :   -0.267843
  17 C :    0.313551
  18 O :   -0.358734
  19 C :   -0.254077
  20 H :    0.097817
  21 H :    0.108151
  22 H :    0.103370
  23 H :    0.099382
  24 H :    0.111581
  25 H :    0.132278
  26 H :    0.130515
  27 H :    0.094481
  28 H :    0.199452
  29 H :    0.201295
  30 H :    0.150205
  31 H :    0.151183
  32 H :    0.164823
  33 H :    0.132121
  34 H :    0.241301
  35 H :    0.165429
Sum of atomic charges:   -0.0000000

LOEWDIN ATOMIC CHARGES
----------------------
   0 C :    0.103447
   1 C :   -0.013045
   2 O :    0.305260
   3 C :   -0.416668
   4 O :    0.097843
   5 C :   -0.097376
   6 C :   -0.055250
   7 C :    0.131191
   8 N :    0.407595
   9 C :   -0.455431
  10 S :   -0.036447
  11 N :    0.394252
  12 C :   -0.054134
  13 C :   -0.036673
  14 C :    0.016141
  15 C :    0.042928
  16 C :   -0.000280
  17 C :   -0.189724
  18 O :    0.395871
  19 C :    0.032369
  20 H :   -0.029212
  21 H :   -0.027505
  22 H :   -0.026176
  23 H :   -0.029434
  24 H :   -0.028404
  25 H :   -0.004530
  26 H :   -0.004536
  27 H :   -0.023654
  28 H :   -0.057025
  29 H :   -0.064990
  30 H :   -0.013234
  31 H :   -0.029685
  32 H :   -0.020882
  33 H :   -0.035086
  34 H :   -0.153366
  35 H :   -0.024150

  Mayer bond orders larger than 0.100000
B(  0-C ,  1-C ) :   0.9705 B(  0-C , 20-H ) :   0.9736 B(  0-C , 21-H ) :   0.9789
B(  0-C , 22-H ) :   0.9735 B(  1-C ,  2-O ) :   0.8903 B(  1-C , 23-H ) :   0.9861
B(  1-C , 24-H ) :   0.9734 B(  2-O ,  3-C ) :   1.1605 B(  3-C ,  4-O ) :   1.9761
B(  3-C ,  5-C ) :   1.0645 B(  5-C ,  6-C ) :   1.6286 B(  5-C , 12-C ) :   0.9552
B(  6-C ,  7-C ) :   0.9654 B(  6-C ,  8-N ) :   1.1595 B(  7-C , 25-H ) :   0.9616
B(  7-C , 26-H ) :   0.9580 B(  7-C , 27-H ) :   0.9903 B(  8-N ,  9-C ) :   1.1865
B(  8-N , 28-H ) :   0.9466 B(  9-C , 10-S ) :   1.6016 B(  9-C , 11-N ) :   1.3127
B( 11-N , 12-C ) :   0.9572 B( 11-N , 29-H ) :   0.9481 B( 12-C , 13-C ) :   0.9666
B( 12-C , 30-H ) :   1.0009 B( 13-C , 14-C ) :   1.3468 B( 13-C , 19-C ) :   1.3713
B( 14-C , 15-C ) :   1.3904 B( 14-C , 31-H ) :   0.9739 B( 15-C , 16-C ) :   1.3565
B( 15-C , 32-H ) :   0.9704 B( 16-C , 17-C ) :   1.3332 B( 16-C , 33-H ) :   0.9846
B( 17-C , 18-O ) :   1.1039 B( 17-C , 19-C ) :   1.3641 B( 18-O , 34-H ) :   0.9792
B( 19-C , 35-H ) :   0.9601

MP2 TOTAL ENERGY:    -1274.341476566 Eh
FINAL SINGLE POINT ENERGY     -1274.341476565608

DIPOLE MOMENT
-------------
                                X             Y             Z
Electronic contribution:      7.95438      11.29161       6.03350
Nuclear contribution   :     -8.88022     -13.01006      -6.22617
                        -----------------------------------------
Total Dipole Moment    :     -0.92584      -1.71845      -0.19267
                        -----------------------------------------
Magnitude (a.u.)       :      1.96147
Magnitude (Debye)      :      4.98566

Rotational constants in cm-1:     0.012539     0.008403     0.006081
Rotational constants in MHz :   375.906797   251.920797   182.295404

                             ****ORCA TERMINATED NORMALLY****
TOTAL RUN TIME: 0 days 1 hours 42 minutes 11 seconds 302 msec
