                         Program Version 4.2.0 -  RELEASE  -
|  1> ! ri-mp2 cc-pvtz cc-pvtz/c TightSCF NoKeepInts
|  2>
|  3> %scf
|  4>   MaxCore 4096
|  5> end
|  6> *xyz  0  1
|  7>     C       14.5343147   16.3557050   16.1218789
|  8>     C       15.5103971   15.1783957   15.8906409
|  9>     O       16.8605347   15.5399293   15.4911313
| 10>     C       17.3109562   16.8028910   15.2181026
| 11>     O       17.7871289   17.0667349   14.1294268
| 12>     C       17.1472231   17.8101592   16.3168204
| 13>     C       16.9685699   19.1141229   15.9938306
| 14>     C       16.5175805   19.6525276   14.6525534
| 15>     N       17.1966183   20.1291916   16.9242562
| 16>     C       17.8425480   19.9441175   18.1171590
| 17>     S       18.1929244   21.2045538   19.1286984
| 18>     N       18.2075380   18.6559445   18.4208878
| 19>     C       17.8158837   17.4546251   17.6571938
| 20>     C       17.1431533   16.3912729   18.5153943
| 21>     C       17.6348409   15.0727137   18.5302454
| 22>     C       17.0280501   14.0927402   19.3335919
| 23>     C       15.9266142   14.4361394   20.1360221
| 24>     C       15.4453561   15.7524767   20.1365054
| 25>     O       14.3840171   16.0881376   20.9116685
| 26>     C       16.0523528   16.7258753   19.3367631
| 27>     H       14.7839631   16.9401416   17.0110711
| 28>     H       13.5196837   15.9671369   16.2722974
| 29>     H       14.5036053   17.0214119   15.2507685
| 30>     H       15.5517264   14.5646730   16.7993510
| 31>     H       15.0879563   14.5425330   15.1017842
| 32>     H       17.3793726   19.7818191   13.9846263
| 33>     H       16.0048043   20.6178774   14.7382991
| 34>     H       15.8259914   18.9596145   14.1579697
| 35>     H       16.9742310   21.0839226   16.6908889
| 36>     H       18.6724000   18.5484904   19.3139278
| 37>     H       18.8159340   17.0969107   17.3720959
| 38>     H       18.4838731   14.8035874   17.9063719
| 39>     H       17.4121869   13.0738118   19.3327706
| 40>     H       15.4546576   13.6824515   20.7580705
| 41>     H       14.1397447   15.3057281   21.4289729
| 42>     H       15.6702680   17.7416364   19.3559633
| 43> *
| 44>
| 45>                          ****END OF INPUT****

CARTESIAN COORDINATES (ANGSTROEM)
---------------------------------
  C     14.534315   16.355705   16.121879
  C     15.510397   15.178396   15.890641
  O     16.860535   15.539929   15.491131
  C     17.310956   16.802891   15.218103
  O     17.787129   17.066735   14.129427
  C     17.147223   17.810159   16.316820
  C     16.968570   19.114123   15.993831
  C     16.517581   19.652528   14.652553
  N     17.196618   20.129192   16.924256
  C     17.842548   19.944118   18.117159
  S     18.192924   21.204554   19.128698
  N     18.207538   18.655945   18.420888
  C     17.815884   17.454625   17.657194
  C     17.143153   16.391273   18.515394
  C     17.634841   15.072714   18.530245
  C     17.028050   14.092740   19.333592
  C     15.926614   14.436139   20.136022
  C     15.445356   15.752477   20.136505
  O     14.384017   16.088138   20.911669
  C     16.052353   16.725875   19.336763
  H     14.783963   16.940142   17.011071
  H     13.519684   15.967137   16.272297
  H     14.503605   17.021412   15.250768
  H     15.551726   14.564673   16.799351
  H     15.087956   14.542533   15.101784
  H     17.379373   19.781819   13.984626
  H     16.004804   20.617877   14.738299
  H     15.825991   18.959615   14.157970
  H     16.974231   21.083923   16.690889
  H     18.672400   18.548490   19.313928
  H     18.815934   17.096911   17.372096
  H     18.483873   14.803587   17.906372
  H     17.412187   13.073812   19.332771
  H     15.454658   13.682451   20.758070
  H     14.139745   15.305728   21.428973
  H     15.670268   17.741636   19.355963

 Total Charge           Charge          ....    0
 Multiplicity           Mult            ....    1
 Number of Electrons    NEL             ....  154
 Basis Dimension        Dim             ....  828

ORBITAL ENERGIES
----------------

  NO   OCC          E(Eh)            E(eV)
   0   2.0000     -91.890527     -2500.4684
   1   2.0000     -20.603464      -560.6488
   2   2.0000     -20.586201      -560.1790
   3   2.0000     -20.550872      -559.2177
   4   2.0000     -15.627795      -425.2539
   5   2.0000     -15.610486      -424.7829
   6   2.0000     -11.394778      -310.0677
   7   2.0000     -11.385487      -309.8149
   8   2.0000     -11.330759      -308.3256
   9   2.0000     -11.321425      -308.0716
  10   2.0000     -11.315490      -307.9101
  11   2.0000     -11.304234      -307.6038
  12   2.0000     -11.268778      -306.6390
  13   2.0000     -11.261919      -306.4524
  14   2.0000     -11.256425      -306.3029
  15   2.0000     -11.254837      -306.2597
  16   2.0000     -11.251609      -306.1719
  17   2.0000     -11.247101      -306.0492
  18   2.0000     -11.245725      -306.0117
  19   2.0000     -11.234047      -305.6940
  20   2.0000      -8.895594      -242.0614
  21   2.0000      -6.577166      -178.9738
  22   2.0000      -6.575168      -178.9194
  23   2.0000      -6.574575      -178.9033
  24   2.0000      -1.441344       -39.2210
  25   2.0000      -1.423277       -38.7293
  26   2.0000      -1.353781       -36.8383
  27   2.0000      -1.340677       -36.4817
  28   2.0000      -1.240227       -33.7483
  29   2.0000      -1.164642       -31.6915
  30   2.0000      -1.123310       -30.5668
  31   2.0000      -1.049099       -28.5474
  32   2.0000      -1.034880       -28.1605
  33   2.0000      -1.023045       -27.8385
  34   2.0000      -1.003258       -27.3000
  35   2.0000      -0.988997       -26.9120
  36   2.0000      -0.926088       -25.2001
  37   2.0000      -0.900282       -24.4979
  38   2.0000      -0.849913       -23.1273
  39   2.0000      -0.843777       -22.9603
  40   2.0000      -0.841852       -22.9080
  41   2.0000      -0.823911       -22.4198
  42   2.0000      -0.747126       -20.3303
  43   2.0000      -0.738545       -20.0968
  44   2.0000      -0.721693       -19.6383
  45   2.0000      -0.701648       -19.0928
  46   2.0000      -0.689294       -18.7566
  47   2.0000      -0.676309       -18.4033
  48   2.0000      -0.673952       -18.3392
  49   2.0000      -0.661389       -17.9973
  50   2.0000      -0.656563       -17.8660
  51   2.0000      -0.647616       -17.6225
  52   2.0000      -0.639884       -17.4121
  53   2.0000      -0.619631       -16.8610
  54   2.0000      -0.612705       -16.6725
  55   2.0000      -0.605953       -16.4888
  56   2.0000      -0.602366       -16.3912
  57   2.0000      -0.582328       -15.8460
  58   2.0000      -0.576085       -15.6761
  59   2.0000      -0.565877       -15.3983
  60   2.0000      -0.560141       -15.2422
  61   2.0000      -0.553080       -15.0501
  62   2.0000      -0.542294       -14.7566
  63   2.0000      -0.531854       -14.4725
  64   2.0000      -0.527194       -14.3457
  65   2.0000      -0.515823       -14.0363
  66   2.0000      -0.504480       -13.7276
  67   2.0000      -0.493388       -13.4258
  68   2.0000      -0.484852       -13.1935
  69   2.0000      -0.469857       -12.7855
  70   2.0000      -0.451211       -12.2781
  71   2.0000      -0.449221       -12.2239
  72   2.0000      -0.358689        -9.7604
  73   2.0000      -0.349194        -9.5021
  74   2.0000      -0.330262        -8.9869
  75   2.0000      -0.328277        -8.9329
  76   2.0000      -0.320215        -8.7135
  77   0.0000       0.078517         2.1365
  78   0.0000       0.097846         2.6625
  79   0.0000       0.120635         3.2826
  80   0.0000       0.127124         3.4592
  81   0.0000       0.129108         3.5132

MULLIKEN ATOMIC CHARGES
-----------------------
   0 C :   -0.328254
   1 C :    0.028006
   2 O :   -0.356297
   3 C :    0.422973
   4 O :   -0.367668
   5 C :   -0.254191
   6 C :    0.169582
   7 C :   -0.281608
   8 N :   -0.131240
   9 C :    0.209696
  10 S :   -0.439405
  11 N :   -0.217060
  12 C :    0.063293
  13 C :    0.019251
  14 C :   -0.200731
  15 C :   -0.135857
  16 C :   -0.275028
  17 C :    0.320752
  18 O :   -0.355093
  19 C :   -0.255289
  20 H :    0.117384
  21 H :    0.121016
  22 H :    0.099994
  23 H :    0.111161
  24 H :    0.123644
  25 H :    0.143615
  26 H :    0.096751
  27 H :    0.118218
  28 H :    0.198101
  29 H :    0.201581
  30 H :    0.154672
  31 H :    0.155942
  32 H :    0.166588
  33 H :    0.134929
  34 H :    0.241646
  35 H :    0.178924
Sum of atomic charges:   -0.0000000

LOEWDIN ATOMIC CHARGES
----------------------
   0 C :    0.103290
   1 C :   -0.010147
   2 O :    0.288042
   3 C :   -0.426849
   4 O :    0.128969
   5 C :   -0.095426
   6 C :   -0.071559
   7 C :    0.128754
   8 N :    0.406148
   9 C :   -0.456318
  10 S :   -0.035165
  11 N :    0.395456
  12 C :   -0.053424
  13 C :   -0.042834
  14 C :    0.022806
  15 C :    0.040842
  16 C :    0.000087
  17 C :   -0.192343
  18 O :    0.396506
  19 C :    0.032893
  20 H :   -0.035372
  21 H :   -0.020497
  22 H :   -0.030678
  23 H :   -0.027085
  24 H :   -0.025447
  25 H :   -0.003817
  26 H :   -0.021667
  27 H :   -0.011289
  28 H :   -0.057150
  29 H :   -0.063763
  30 H :   -0.010234
  31 H :   -0.025559
  32 H :   -0.019122
  33 H :   -0.033743
  34 H :   -0.152543
  35 H :   -0.021761

  Mayer bond orders larger than 0.100000
B(  0-C ,  1-C ) :   0.9622 B(  0-C , 20-H ) :   0.9678 B(  0-C , 21-H ) :   0.9751
B(  0-C , 22-H ) :   0.9736 B(  1-C ,  2-O ) :   0.8993 B(  1-C , 23-H ) :   0.9717
B(  1-C , 24-H ) :   0.9838 B(  2-O ,  3-C ) :   1.1420 B(  3-C ,  4-O ) :   2.1123
B(  3-C ,  5-C ) :   0.9569 B(  5-C ,  6-C ) :   1.6692 B(  5-C , 12-C ) :   0.9532
B(  6-C ,  7-C ) :   0.9528 B(  6-C ,  8-N ) :   1.1391 B(  7-C , 25-H ) :   0.9559
B(  7-C , 26-H ) :   0.9843 B(  7-C , 27-H ) :   0.9743 B(  8-N ,  9-C ) :   1.1950
B(  8-N , 28-H ) :   0.9493 B(  9-C , 10-S ) :   1.6132 B(  9-C , 11-N ) :   1.2902
B( 11-N , 12-C ) :   0.9794 B( 11-N , 29-H ) :   0.9468 B( 12-C , 13-C ) :   0.9586
B( 12-C , 30-H ) :   1.0034 B( 13-C , 14-C ) :   1.3630 B( 13-C , 19-C ) :   1.3481
B( 14-C , 15-C ) :   1.3979 B( 14-C , 31-H ) :   0.9715 B( 15-C , 16-C ) :   1.3548
B( 15-C , 32-H ) :   0.9699 B( 16-C , 17-C ) :   1.3321 B( 16-C , 33-H ) :   0.9836
B( 17-C , 18-O ) :   1.1102 B( 17-C , 19-C ) :   1.3601 B( 18-O , 34-H ) :   0.9789
B( 19-C , 35-H ) :   0.9560

MP2 TOTAL ENERGY:    -1274.316450263 Eh
FINAL SINGLE POINT ENERGY     -1274.316450263352

DIPOLE MOMENT
-------------
                                X             Y             Z
Electronic contribution:      8.95747       6.98394       6.15992
Nuclear contribution   :    -10.41061      -8.63679      -5.99093
                        -----------------------------------------
Total Dipole Moment    :     -1.45314      -1.65285       0.16899
                        -----------------------------------------
Magnitude (a.u.)       :      2.20728
Magnitude (Debye)      :      5.61046

Rotational constants in cm-1:     0.012393     0.009137     0.006328
Rotational constants in MHz :   371.519189   273.906115   189.717392

                             ****ORCA TERMINATED NORMALLY****
TOTAL RUN TIME: 0 days 2 hours 7 minutes 42 seconds 615 msec
