                         Program Version 4.2.0 -  RELEASE  -
|  1> ! ri-mp2 cc-pvtz cc-pvtz/c TightSCF NoKeepInts
|  2>
|  3> %scf
|  4>   MaxCore 4096
|  5> end
|  6> *xyz  0  1
|  7>     C       14.8929915   14.6684065   15.2948498
|  8>     C       14.8023314   16.0103194   14.5340488
|  9>     O       15.9483808   16.8849173   14.6936914
| 10>     C       16.9324759   16.7069122   15.6259421
| 11>     O       17.5710397   15.6728603   15.7249285
| 12>     C       17.0994109   17.8517688   16.5834612
| 13>     C       16.8885170   19.1465764   16.2283148
| 14>     C       16.2627932   19.6716247   14.9511171
| 15>     N       17.3081891   20.1899640   17.0575411
| 16>     C       18.1295456   20.0357806   18.1417378
| 17>     S       18.6715996   21.3304672   19.0166150
| 18>     N       18.4962197   18.7506670   18.4516809
| 19>     C       17.9637153   17.5333500   17.8092339
| 20>     C       17.2883083   16.5803313   18.7867107
| 21>     C       17.6834223   15.2326216   18.8624995
| 22>     C       17.0543798   14.3525590   19.7589200
| 23>     C       16.0218618   14.8246659   20.5873559
| 24>     C       15.6244091   16.1667297   20.5120636
| 25>     O       14.6238153   16.6238110   21.3064859
| 26>     C       16.2516739   17.0399596   19.6176579
| 27>     H       15.7237080   14.0581306   14.9182752
| 28>     H       13.9699967   14.0923296   15.1581985
| 29>     H       15.0316469   14.8272625   16.3721713
| 30>     H       14.6533979   15.8082471   13.4654629
| 31>     H       13.9101656   16.5415479   14.8899125
| 32>     H       15.2061319   19.3838609   14.8893863
| 33>     H       16.7768338   19.2669207   14.0700447
| 34>     H       16.3089765   20.7647065   14.8727198
| 35>     H       17.0668254   21.1410393   16.8293221
| 36>     H       19.0864995   18.6622392   19.2691911
| 37>     H       18.8923367   17.0932322   17.4171223
| 38>     H       18.4711608   14.8633474   18.2097316
| 39>     H       17.3649271   13.3102280   19.8041197
| 40>     H       15.5325693   14.1480454   21.2800031
| 41>     H       14.3452505   15.8889496   21.8732839
| 42>     H       15.9314931   18.0756207   19.5741991
| 43> *
| 44>
| 45>                          ****END OF INPUT****

CARTESIAN COORDINATES (ANGSTROEM)
---------------------------------
  C     14.892992   14.668406   15.294850
  C     14.802331   16.010319   14.534049
  O     15.948381   16.884917   14.693691
  C     16.932476   16.706912   15.625942
  O     17.571040   15.672860   15.724929
  C     17.099411   17.851769   16.583461
  C     16.888517   19.146576   16.228315
  C     16.262793   19.671625   14.951117
  N     17.308189   20.189964   17.057541
  C     18.129546   20.035781   18.141738
  S     18.671600   21.330467   19.016615
  N     18.496220   18.750667   18.451681
  C     17.963715   17.533350   17.809234
  C     17.288308   16.580331   18.786711
  C     17.683422   15.232622   18.862499
  C     17.054380   14.352559   19.758920
  C     16.021862   14.824666   20.587356
  C     15.624409   16.166730   20.512064
  O     14.623815   16.623811   21.306486
  C     16.251674   17.039960   19.617658
  H     15.723708   14.058131   14.918275
  H     13.969997   14.092330   15.158198
  H     15.031647   14.827262   16.372171
  H     14.653398   15.808247   13.465463
  H     13.910166   16.541548   14.889912
  H     15.206132   19.383861   14.889386
  H     16.776834   19.266921   14.070045
  H     16.308976   20.764706   14.872720
  H     17.066825   21.141039   16.829322
  H     19.086499   18.662239   19.269191
  H     18.892337   17.093232   17.417122
  H     18.471161   14.863347   18.209732
  H     17.364927   13.310228   19.804120
  H     15.532569   14.148045   21.280003
  H     14.345251   15.888950   21.873284
  H     15.931493   18.075621   19.574199

 Total Charge           Charge          ....    0
 Multiplicity           Mult            ....    1
 Number of Electrons    NEL             ....  154
 Basis Dimension        Dim             ....  828

ORBITAL ENERGIES
----------------

  NO   OCC          E(Eh)            E(eV)
   0   2.0000     -91.888130     -2500.4031
   1   2.0000     -20.593625      -560.3810
   2   2.0000     -20.590403      -560.2934
   3   2.0000     -20.548179      -559.1444
   4   2.0000     -15.628487      -425.2728
   5   2.0000     -15.605885      -424.6577
   6   2.0000     -11.396275      -310.1084
   7   2.0000     -11.382765      -309.7408
   8   2.0000     -11.337430      -308.5072
   9   2.0000     -11.309826      -307.7560
  10   2.0000     -11.307493      -307.6925
  11   2.0000     -11.304149      -307.6015
  12   2.0000     -11.259316      -306.3816
  13   2.0000     -11.258795      -306.3674
  14   2.0000     -11.256794      -306.3129
  15   2.0000     -11.249856      -306.1241
  16   2.0000     -11.240023      -305.8566
  17   2.0000     -11.236030      -305.7479
  18   2.0000     -11.232593      -305.6544
  19   2.0000     -11.227020      -305.5027
  20   2.0000      -8.893216      -241.9967
  21   2.0000      -6.574793      -178.9092
  22   2.0000      -6.572790      -178.8547
  23   2.0000      -6.572202      -178.8387
  24   2.0000      -1.445421       -39.3319
  25   2.0000      -1.413384       -38.4601
  26   2.0000      -1.355592       -36.8875
  27   2.0000      -1.339718       -36.4556
  28   2.0000      -1.237007       -33.6607
  29   2.0000      -1.154035       -31.4029
  30   2.0000      -1.120596       -30.4930
  31   2.0000      -1.042920       -28.3793
  32   2.0000      -1.033497       -28.1229
  33   2.0000      -1.011661       -27.5287
  34   2.0000      -0.999201       -27.1896
  35   2.0000      -0.984090       -26.7784
  36   2.0000      -0.921729       -25.0815
  37   2.0000      -0.896243       -24.3880
  38   2.0000      -0.848429       -23.0869
  39   2.0000      -0.836676       -22.7671
  40   2.0000      -0.829921       -22.5833
  41   2.0000      -0.820161       -22.3177
  42   2.0000      -0.743161       -20.2224
  43   2.0000      -0.728273       -19.8173
  44   2.0000      -0.724998       -19.7282
  45   2.0000      -0.690835       -18.7986
  46   2.0000      -0.684572       -18.6282
  47   2.0000      -0.677268       -18.4294
  48   2.0000      -0.675481       -18.3808
  49   2.0000      -0.664887       -18.0925
  50   2.0000      -0.647866       -17.6293
  51   2.0000      -0.644235       -17.5305
  52   2.0000      -0.633095       -17.2274
  53   2.0000      -0.618228       -16.8228
  54   2.0000      -0.604153       -16.4398
  55   2.0000      -0.599556       -16.3148
  56   2.0000      -0.596992       -16.2450
  57   2.0000      -0.575505       -15.6603
  58   2.0000      -0.573655       -15.6099
  59   2.0000      -0.565172       -15.3791
  60   2.0000      -0.553996       -15.0750
  61   2.0000      -0.546960       -14.8836
  62   2.0000      -0.538455       -14.6521
  63   2.0000      -0.526868       -14.3368
  64   2.0000      -0.516675       -14.0594
  65   2.0000      -0.510545       -13.8926
  66   2.0000      -0.498722       -13.5709
  67   2.0000      -0.494167       -13.4470
  68   2.0000      -0.479912       -13.0591
  69   2.0000      -0.463450       -12.6111
  70   2.0000      -0.455470       -12.3940
  71   2.0000      -0.448146       -12.1947
  72   2.0000      -0.352766        -9.5993
  73   2.0000      -0.346272        -9.4225
  74   2.0000      -0.327266        -8.9054
  75   2.0000      -0.317359        -8.6358
  76   2.0000      -0.316479        -8.6118
  77   0.0000       0.074838         2.0365
  78   0.0000       0.109030         2.9669
  79   0.0000       0.121751         3.3130
  80   0.0000       0.134238         3.6528
  81   0.0000       0.138342         3.7645

MULLIKEN ATOMIC CHARGES
-----------------------
   0 C :   -0.301475
   1 C :    0.054557
   2 O :   -0.376047
   3 C :    0.431847
   4 O :   -0.401055
   5 C :   -0.176182
   6 C :    0.151650
   7 C :   -0.280737
   8 N :   -0.127705
   9 C :    0.207715
  10 S :   -0.442322
  11 N :   -0.212587
  12 C :    0.047683
  13 C :    0.029884
  14 C :   -0.179919
  15 C :   -0.133633
  16 C :   -0.278372
  17 C :    0.314614
  18 O :   -0.358439
  19 C :   -0.253501
  20 H :    0.119626
  21 H :    0.100911
  22 H :    0.109162
  23 H :    0.099085
  24 H :    0.084785
  25 H :    0.124860
  26 H :    0.128574
  27 H :    0.102219
  28 H :    0.198650
  29 H :    0.199801
  30 H :    0.157328
  31 H :    0.162923
  32 H :    0.161228
  33 H :    0.129461
  34 H :    0.240161
  35 H :    0.165249
Sum of atomic charges:    0.0000000

LOEWDIN ATOMIC CHARGES
----------------------
   0 C :    0.105832
   1 C :   -0.011148
   2 O :    0.287784
   3 C :   -0.416959
   4 O :    0.120798
   5 C :   -0.095361
   6 C :   -0.065249
   7 C :    0.125471
   8 N :    0.405419
   9 C :   -0.458291
  10 S :   -0.037782
  11 N :    0.396240
  12 C :   -0.048551
  13 C :   -0.041629
  14 C :    0.023959
  15 C :    0.040424
  16 C :   -0.001541
  17 C :   -0.192919
  18 O :    0.393320
  19 C :    0.028863
  20 H :   -0.022943
  21 H :   -0.025783
  22 H :   -0.024577
  23 H :   -0.025673
  24 H :   -0.032320
  25 H :   -0.010205
  26 H :   -0.007717
  27 H :   -0.021099
  28 H :   -0.058676
  29 H :   -0.063467
  30 H :   -0.007922
  31 H :   -0.023497
  32 H :   -0.020696
  33 H :   -0.035914
  34 H :   -0.154595
  35 H :   -0.023595

  Mayer bond orders larger than 0.100000
B(  0-C ,  1-C ) :   0.9770 B(  0-C , 20-H ) :   0.9715 B(  0-C , 21-H ) :   0.9725
B(  0-C , 22-H ) :   0.9713 B(  1-C ,  2-O ) :   0.9070 B(  1-C , 23-H ) :   0.9791
B(  1-C , 24-H ) :   0.9763 B(  2-O ,  3-C ) :   1.0832 B(  3-C ,  4-O ) :   2.0193
B(  3-C ,  5-C ) :   1.0205 B(  5-C ,  6-C ) :   1.6636 B(  5-C , 12-C ) :   0.9466
B(  6-C ,  7-C ) :   0.9544 B(  6-C ,  8-N ) :   1.1386 B(  7-C , 25-H ) :   0.9656
B(  7-C , 26-H ) :   0.9647 B(  7-C , 27-H ) :   0.9905 B(  8-N ,  9-C ) :   1.1855
B(  8-N , 28-H ) :   0.9471 B(  9-C , 10-S ) :   1.6088 B(  9-C , 11-N ) :   1.3046
B( 11-N , 12-C ) :   0.9773 B( 11-N , 29-H ) :   0.9486 B( 12-C , 13-C ) :   0.9686
B( 12-C , 30-H ) :   0.9967 B( 13-C , 14-C ) :   1.3782 B( 13-C , 19-C ) :   1.3641
B( 14-C , 15-C ) :   1.3964 B( 14-C , 31-H ) :   0.9624 B( 15-C , 16-C ) :   1.3589
B( 15-C , 32-H ) :   0.9708 B( 16-C , 17-C ) :   1.3326 B( 16-C , 33-H ) :   0.9856
B( 17-C , 18-O ) :   1.1047 B( 17-C , 19-C ) :   1.3668 B( 18-O , 34-H ) :   0.9804
B( 19-C , 35-H ) :   0.9595

MP2 TOTAL ENERGY:    -1274.326051227 Eh
FINAL SINGLE POINT ENERGY     -1274.326051227193

DIPOLE MOMENT
-------------
                                X             Y             Z
Electronic contribution:      9.24002      10.32407       9.08155
Nuclear contribution   :    -10.80063     -11.59453      -9.99885
                        -----------------------------------------
Total Dipole Moment    :     -1.56061      -1.27046      -0.91731
                        -----------------------------------------
Magnitude (a.u.)       :      2.21157
Magnitude (Debye)      :      5.62135

Rotational constants in cm-1:     0.010677     0.009183     0.005879
Rotational constants in MHz :   320.084931   275.292670   176.257396

                             ****ORCA TERMINATED NORMALLY****
TOTAL RUN TIME: 0 days 1 hours 53 minutes 41 seconds 905 msec
