                         Program Version 4.2.0 -  RELEASE  -
|  1> ! ri-mp2 cc-pvtz cc-pvtz/c TightSCF NoKeepInts
|  2>
|  3> %scf
|  4>   MaxCore 4096
|  5> end
|  6> *xyz  0  1
|  7>     C       15.1742651   14.5605715   14.1118305
|  8>     C       14.5721551   15.9506011   14.4101249
|  9>     O       15.4779712   16.9082172   15.0188408
| 10>     C       16.5329992   16.6383975   15.8531907
| 11>     O       17.0607465   15.5460165   15.9676145
| 12>     C       16.9225459   17.7946156   16.7332024
| 13>     C       16.8027248   19.0922601   16.3433417
| 14>     C       16.0850185   19.6410060   15.1253218
| 15>     N       17.4220150   20.1148279   17.0669916
| 16>     C       18.3541906   19.9156495   18.0488955
| 17>     S       19.1296500   21.1774462   18.7852689
| 18>     N       18.6279243   18.6115619   18.3730263
| 19>     C       17.8966224   17.4352908   17.8639064
| 20>     C       17.2648648   16.5984683   18.9687336
| 21>     C       17.5538375   15.2267846   19.0840400
| 22>     C       16.9722449   14.4571448   20.1055060
| 23>     C       16.0952600   15.0649120   21.0203249
| 24>     C       15.8040456   16.4313320   20.9064188
| 25>     O       14.9545296   17.0197092   21.7859342
| 26>     C       16.3841379   17.1945789   19.8881433
| 27>     H       16.1319806   14.6515560   13.5840987
| 28>     H       14.4928034   13.9807076   13.4779702
| 29>     H       15.3303854   13.9876558   15.0344351
| 30>     H       14.1876850   16.3807038   13.4764391
| 31>     H       13.7118072   15.8079899   15.0769112
| 32>     H       15.0063642   19.4525830   15.1935836
| 33>     H       16.4558982   19.1674092   14.2077115
| 34>     H       16.2192868   20.7226826   15.0027436
| 35>     H       17.2478345   21.0770649   16.8251296
| 36>     H       19.3034668   18.4911328   19.1170783
| 37>     H       18.7207875   16.8859380   17.3859037
| 38>     H       18.2201541   14.7533654   18.3666951
| 39>     H       17.1982027   13.3950321   20.1805280
| 40>     H       15.6427629   14.4739359   21.8095404
| 41>     H       14.6803438   16.3414799   22.4211796
| 42>     H       16.1494878   18.2513714   19.8173957
| 43> *
| 44>
| 45>                          ****END OF INPUT****

CARTESIAN COORDINATES (ANGSTROEM)
---------------------------------
  C     15.174265   14.560572   14.111830
  C     14.572155   15.950601   14.410125
  O     15.477971   16.908217   15.018841
  C     16.532999   16.638397   15.853191
  O     17.060746   15.546016   15.967614
  C     16.922546   17.794616   16.733202
  C     16.802725   19.092260   16.343342
  C     16.085019   19.641006   15.125322
  N     17.422015   20.114828   17.066992
  C     18.354191   19.915650   18.048896
  S     19.129650   21.177446   18.785269
  N     18.627924   18.611562   18.373026
  C     17.896622   17.435291   17.863906
  C     17.264865   16.598468   18.968734
  C     17.553838   15.226785   19.084040
  C     16.972245   14.457145   20.105506
  C     16.095260   15.064912   21.020325
  C     15.804046   16.431332   20.906419
  O     14.954530   17.019709   21.785934
  C     16.384138   17.194579   19.888143
  H     16.131981   14.651556   13.584099
  H     14.492803   13.980708   13.477970
  H     15.330385   13.987656   15.034435
  H     14.187685   16.380704   13.476439
  H     13.711807   15.807990   15.076911
  H     15.006364   19.452583   15.193584
  H     16.455898   19.167409   14.207711
  H     16.219287   20.722683   15.002744
  H     17.247834   21.077065   16.825130
  H     19.303467   18.491133   19.117078
  H     18.720788   16.885938   17.385904
  H     18.220154   14.753365   18.366695
  H     17.198203   13.395032   20.180528
  H     15.642763   14.473936   21.809540
  H     14.680344   16.341480   22.421180
  H     16.149488   18.251371   19.817396

 Total Charge           Charge          ....    0
 Multiplicity           Mult            ....    1
 Number of Electrons    NEL             ....  154
 Basis Dimension        Dim             ....  828

ORBITAL ENERGIES
----------------

  NO   OCC          E(Eh)            E(eV)
   0   2.0000     -91.886860     -2500.3686
   1   2.0000     -20.600130      -560.5580
   2   2.0000     -20.591297      -560.3177
   3   2.0000     -20.544600      -559.0470
   4   2.0000     -15.626856      -425.2284
   5   2.0000     -15.604622      -424.6234
   6   2.0000     -11.398939      -310.1809
   7   2.0000     -11.381317      -309.7014
   8   2.0000     -11.335919      -308.4660
   9   2.0000     -11.307284      -307.6868
  10   2.0000     -11.307073      -307.6811
  11   2.0000     -11.303113      -307.5733
  12   2.0000     -11.259501      -306.3866
  13   2.0000     -11.257778      -306.3397
  14   2.0000     -11.254419      -306.2483
  15   2.0000     -11.247460      -306.0589
  16   2.0000     -11.237577      -305.7900
  17   2.0000     -11.233537      -305.6801
  18   2.0000     -11.230412      -305.5950
  19   2.0000     -11.224340      -305.4298
  20   2.0000      -8.891957      -241.9625
  21   2.0000      -6.573538      -178.8751
  22   2.0000      -6.571533      -178.8205
  23   2.0000      -6.570948      -178.8046
  24   2.0000      -1.445658       -39.3384
  25   2.0000      -1.411039       -38.3963
  26   2.0000      -1.357443       -36.9379
  27   2.0000      -1.338505       -36.4226
  28   2.0000      -1.235804       -33.6279
  29   2.0000      -1.151611       -31.3369
  30   2.0000      -1.119112       -30.4526
  31   2.0000      -1.042080       -28.3564
  32   2.0000      -1.034159       -28.1409
  33   2.0000      -1.009249       -27.4631
  34   2.0000      -0.997226       -27.1359
  35   2.0000      -0.982070       -26.7235
  36   2.0000      -0.920155       -25.0387
  37   2.0000      -0.896076       -24.3835
  38   2.0000      -0.847049       -23.0494
  39   2.0000      -0.834681       -22.7128
  40   2.0000      -0.827555       -22.5189
  41   2.0000      -0.818129       -22.2624
  42   2.0000      -0.743979       -20.2447
  43   2.0000      -0.727294       -19.7907
  44   2.0000      -0.724397       -19.7119
  45   2.0000      -0.689674       -18.7670
  46   2.0000      -0.683878       -18.6093
  47   2.0000      -0.678159       -18.4536
  48   2.0000      -0.670837       -18.2544
  49   2.0000      -0.666225       -18.1289
  50   2.0000      -0.644245       -17.5308
  51   2.0000      -0.643007       -17.4971
  52   2.0000      -0.632459       -17.2101
  53   2.0000      -0.603859       -16.4318
  54   2.0000      -0.598912       -16.2972
  55   2.0000      -0.596976       -16.2445
  56   2.0000      -0.594604       -16.1800
  57   2.0000      -0.584819       -15.9137
  58   2.0000      -0.571695       -15.5566
  59   2.0000      -0.570136       -15.5142
  60   2.0000      -0.558889       -15.2081
  61   2.0000      -0.544502       -14.8166
  62   2.0000      -0.537907       -14.6372
  63   2.0000      -0.524999       -14.2860
  64   2.0000      -0.515137       -14.0176
  65   2.0000      -0.509837       -13.8734
  66   2.0000      -0.498356       -13.5610
  67   2.0000      -0.493140       -13.4190
  68   2.0000      -0.479527       -13.0486
  69   2.0000      -0.461883       -12.5685
  70   2.0000      -0.454717       -12.3735
  71   2.0000      -0.445110       -12.1121
  72   2.0000      -0.351621        -9.5681
  73   2.0000      -0.343877        -9.3574
  74   2.0000      -0.326035        -8.8719
  75   2.0000      -0.316055        -8.6003
  76   2.0000      -0.313964        -8.5434
  77   0.0000       0.078788         2.1439
  78   0.0000       0.112137         3.0514
  79   0.0000       0.121591         3.3087
  80   0.0000       0.136109         3.7037
  81   0.0000       0.139054         3.7839

MULLIKEN ATOMIC CHARGES
-----------------------
   0 C :   -0.286450
   1 C :    0.048324
   2 O :   -0.361760
   3 C :    0.413899
   4 O :   -0.420384
   5 C :   -0.141597
   6 C :    0.154142
   7 C :   -0.282935
   8 N :   -0.128937
   9 C :    0.207638
  10 S :   -0.444487
  11 N :   -0.210969
  12 C :    0.038327
  13 C :    0.032910
  14 C :   -0.170743
  15 C :   -0.134617
  16 C :   -0.277281
  17 C :    0.313990
  18 O :   -0.358941
  19 C :   -0.250043
  20 H :    0.103855
  21 H :    0.095579
  22 H :    0.116608
  23 H :    0.094390
  24 H :    0.089351
  25 H :    0.128832
  26 H :    0.123696
  27 H :    0.102192
  28 H :    0.198473
  29 H :    0.199762
  30 H :    0.156174
  31 H :    0.159708
  32 H :    0.159789
  33 H :    0.128045
  34 H :    0.239781
  35 H :    0.163679
Sum of atomic charges:    0.0000000

LOEWDIN ATOMIC CHARGES
----------------------
   0 C :    0.102423
   1 C :   -0.009257
   2 O :    0.292493
   3 C :   -0.412208
   4 O :    0.115411
   5 C :   -0.090360
   6 C :   -0.065405
   7 C :    0.124376
   8 N :    0.404965
   9 C :   -0.458909
  10 S :   -0.039265
  11 N :    0.396456
  12 C :   -0.048210
  13 C :   -0.040360
  14 C :    0.024029
  15 C :    0.040458
  16 C :   -0.001414
  17 C :   -0.192423
  18 O :    0.393118
  19 C :    0.029971
  20 H :   -0.024923
  21 H :   -0.028591
  22 H :   -0.024939
  23 H :   -0.025951
  24 H :   -0.029149
  25 H :   -0.009642
  26 H :   -0.009869
  27 H :   -0.021468
  28 H :   -0.059073
  29 H :   -0.063249
  30 H :   -0.008689
  31 H :   -0.024114
  32 H :   -0.021242
  33 H :   -0.036287
  34 H :   -0.154982
  35 H :   -0.023723

  Mayer bond orders larger than 0.100000
B(  0-C ,  1-C ) :   0.9782 B(  0-C , 20-H ) :   0.9744 B(  0-C , 21-H ) :   0.9734
B(  0-C , 22-H ) :   0.9725 B(  1-C ,  2-O ) :   0.9055 B(  1-C , 23-H ) :   0.9808
B(  1-C , 24-H ) :   0.9783 B(  2-O ,  3-C ) :   1.1189 B(  3-C ,  4-O ) :   1.9867
B(  3-C ,  5-C ) :   1.0446 B(  5-C ,  6-C ) :   1.6629 B(  5-C , 12-C ) :   0.9474
B(  6-C ,  7-C ) :   0.9540 B(  6-C ,  8-N ) :   1.1310 B(  7-C , 25-H ) :   0.9634
B(  7-C , 26-H ) :   0.9660 B(  7-C , 27-H ) :   0.9918 B(  8-N ,  9-C ) :   1.1873
B(  8-N , 28-H ) :   0.9471 B(  9-C , 10-S ) :   1.6062 B(  9-C , 11-N ) :   1.3063
B( 11-N , 12-C ) :   0.9759 B( 11-N , 29-H ) :   0.9486 B( 12-C , 13-C ) :   0.9739
B( 12-C , 30-H ) :   0.9969 B( 13-C , 14-C ) :   1.3759 B( 13-C , 19-C ) :   1.3667
B( 14-C , 15-C ) :   1.3969 B( 14-C , 31-H ) :   0.9637 B( 15-C , 16-C ) :   1.3588
B( 15-C , 32-H ) :   0.9713 B( 16-C , 17-C ) :   1.3332 B( 16-C , 33-H ) :   0.9861
B( 17-C , 18-O ) :   1.1034 B( 17-C , 19-C ) :   1.3672 B( 18-O , 34-H ) :   0.9808
B( 19-C , 35-H ) :   0.9600

MP2 TOTAL ENERGY:    -1274.329563225 Eh
FINAL SINGLE POINT ENERGY     -1274.329563224811

DIPOLE MOMENT
-------------
                                X             Y             Z
Electronic contribution:      8.92634      10.39424      11.73745
Nuclear contribution   :    -10.54363     -11.62522     -12.82779
                        -----------------------------------------
Total Dipole Moment    :     -1.61728      -1.23097      -1.09034
                        -----------------------------------------
Magnitude (a.u.)       :      2.30646
Magnitude (Debye)      :      5.86254

Rotational constants in cm-1:     0.009905     0.009055     0.005531
Rotational constants in MHz :   296.934146   271.448619   165.826722

                             ****ORCA TERMINATED NORMALLY****
TOTAL RUN TIME: 0 days 1 hours 56 minutes 15 seconds 642 msec
