                         Program Version 4.2.0 -  RELEASE  -
|  1> ! ri-mp2 cc-pvtz cc-pvtz/c TightSCF NoKeepInts
|  2>
|  3> %scf
|  4>   MaxCore 4096
|  5> end
|  6> *xyz  0  1
|  7>     C       14.3386666   16.6827415   16.0950636
|  8>     C       15.2966199   15.4943609   15.8585291
|  9>     O       16.4450895   15.8274495   15.0410279
| 10>     C       17.4527691   16.7099295   15.3451138
| 11>     O       18.5189568   16.6808205   14.7605985
| 12>     C       17.1798605   17.7199725   16.3984026
| 13>     C       16.8480052   18.9698035   16.0059793
| 14>     C       16.4203553   19.3720949   14.6110853
| 15>     N       16.9576463   20.0525906   16.8795808
| 16>     C       17.6142912   19.9995726   18.0816907
| 17>     S       17.8069812   21.3396549   19.0312510
| 18>     N       18.1277635   18.7781724   18.4476888
| 19>     C       17.8963392   17.5081715   17.7303525
| 20>     C       17.3042580   16.3893286   18.5712351
| 21>     C       17.8683346   15.1013640   18.5336445
| 22>     C       17.3064720   14.0554019   19.2846346
| 23>     C       16.1713868   14.3000099   20.0767439
| 24>     C       15.6076345   15.5827919   20.1146084
| 25>     O       14.5063412   15.8196992   20.8702093
| 26>     C       16.1684395   16.6220183   19.3655260
| 27>     H       14.6832478   17.3423512   16.8981069
| 28>     H       13.3541385   16.3064408   16.3989836
| 29>     H       14.2008725   17.2670814   15.1778401
| 30>     H       15.6190048   15.0794326   16.8217302
| 31>     H       14.7367892   14.7042048   15.3415794
| 32>     H       15.9295134   18.5480400   14.0794030
| 33>     H       17.2947518   19.6668788   14.0162105
| 34>     H       15.7173900   20.2137628   14.6238753
| 35>     H       16.6320837   20.9638984   16.5981554
| 36>     H       18.6053449   18.7682038   19.3403271
| 37>     H       18.9318157   17.2550449   17.4567653
| 38>     H       18.7410230   14.9087932   17.9132794
| 39>     H       17.7498646   13.0613295   19.2499000
| 40>     H       15.7339136   13.4944226   20.6576508
| 41>     H       14.3042226   15.0059733   21.3566626
| 42>     H       15.7168128   17.6081931   19.4045648
| 43> *
| 44>
| 45>                          ****END OF INPUT****

CARTESIAN COORDINATES (ANGSTROEM)
---------------------------------
  C     14.338667   16.682741   16.095064
  C     15.296620   15.494361   15.858529
  O     16.445090   15.827450   15.041028
  C     17.452769   16.709930   15.345114
  O     18.518957   16.680820   14.760599
  C     17.179860   17.719973   16.398403
  C     16.848005   18.969804   16.005979
  C     16.420355   19.372095   14.611085
  N     16.957646   20.052591   16.879581
  C     17.614291   19.999573   18.081691
  S     17.806981   21.339655   19.031251
  N     18.127764   18.778172   18.447689
  C     17.896339   17.508171   17.730352
  C     17.304258   16.389329   18.571235
  C     17.868335   15.101364   18.533644
  C     17.306472   14.055402   19.284635
  C     16.171387   14.300010   20.076744
  C     15.607634   15.582792   20.114608
  O     14.506341   15.819699   20.870209
  C     16.168440   16.622018   19.365526
  H     14.683248   17.342351   16.898107
  H     13.354138   16.306441   16.398984
  H     14.200872   17.267081   15.177840
  H     15.619005   15.079433   16.821730
  H     14.736789   14.704205   15.341579
  H     15.929513   18.548040   14.079403
  H     17.294752   19.666879   14.016210
  H     15.717390   20.213763   14.623875
  H     16.632084   20.963898   16.598155
  H     18.605345   18.768204   19.340327
  H     18.931816   17.255045   17.456765
  H     18.741023   14.908793   17.913279
  H     17.749865   13.061329   19.249900
  H     15.733914   13.494423   20.657651
  H     14.304223   15.005973   21.356663
  H     15.716813   17.608193   19.404565

 Total Charge           Charge          ....    0
 Multiplicity           Mult            ....    1
 Number of Electrons    NEL             ....  154
 Basis Dimension        Dim             ....  828

ORBITAL ENERGIES
----------------

  NO   OCC          E(Eh)            E(eV)
   0   2.0000     -91.888794     -2500.4212
   1   2.0000     -20.606133      -560.7214
   2   2.0000     -20.598125      -560.5035
   3   2.0000     -20.552405      -559.2594
   4   2.0000     -15.624681      -425.1692
   5   2.0000     -15.610420      -424.7811
   6   2.0000     -11.398386      -310.1658
   7   2.0000     -11.384856      -309.7977
   8   2.0000     -11.324852      -308.1649
   9   2.0000     -11.323872      -308.1382
  10   2.0000     -11.315000      -307.8968
  11   2.0000     -11.304909      -307.6222
  12   2.0000     -11.271712      -306.7189
  13   2.0000     -11.265861      -306.5597
  14   2.0000     -11.260115      -306.4033
  15   2.0000     -11.255848      -306.2872
  16   2.0000     -11.254131      -306.2405
  17   2.0000     -11.249011      -306.1012
  18   2.0000     -11.248933      -306.0990
  19   2.0000     -11.232332      -305.6473
  20   2.0000      -8.893895      -242.0152
  21   2.0000      -6.575478      -178.9279
  22   2.0000      -6.573467      -178.8731
  23   2.0000      -6.572887      -178.8573
  24   2.0000      -1.444251       -39.3001
  25   2.0000      -1.425846       -38.7992
  26   2.0000      -1.359591       -36.9963
  27   2.0000      -1.338264       -36.4160
  28   2.0000      -1.238441       -33.6997
  29   2.0000      -1.168354       -31.7925
  30   2.0000      -1.126924       -30.6652
  31   2.0000      -1.052787       -28.6478
  32   2.0000      -1.036135       -28.1947
  33   2.0000      -1.026219       -27.9248
  34   2.0000      -1.005374       -27.3576
  35   2.0000      -0.990352       -26.9489
  36   2.0000      -0.928016       -25.2526
  37   2.0000      -0.896255       -24.3884
  38   2.0000      -0.852024       -23.1847
  39   2.0000      -0.845099       -22.9963
  40   2.0000      -0.843894       -22.9635
  41   2.0000      -0.831280       -22.6203
  42   2.0000      -0.753134       -20.4938
  43   2.0000      -0.739947       -20.1350
  44   2.0000      -0.726145       -19.7594
  45   2.0000      -0.704603       -19.1732
  46   2.0000      -0.693186       -18.8626
  47   2.0000      -0.679161       -18.4809
  48   2.0000      -0.676551       -18.4099
  49   2.0000      -0.663878       -18.0650
  50   2.0000      -0.653680       -17.7875
  51   2.0000      -0.645708       -17.5706
  52   2.0000      -0.637652       -17.3514
  53   2.0000      -0.617159       -16.7938
  54   2.0000      -0.611666       -16.6443
  55   2.0000      -0.607178       -16.5221
  56   2.0000      -0.606715       -16.5095
  57   2.0000      -0.585961       -15.9448
  58   2.0000      -0.580361       -15.7924
  59   2.0000      -0.578447       -15.7403
  60   2.0000      -0.566805       -15.4235
  61   2.0000      -0.554627       -15.0922
  62   2.0000      -0.539355       -14.6766
  63   2.0000      -0.535036       -14.5591
  64   2.0000      -0.526062       -14.3149
  65   2.0000      -0.516041       -14.0422
  66   2.0000      -0.504958       -13.7406
  67   2.0000      -0.502929       -13.6854
  68   2.0000      -0.492340       -13.3972
  69   2.0000      -0.461569       -12.5599
  70   2.0000      -0.454135       -12.3576
  71   2.0000      -0.451850       -12.2955
  72   2.0000      -0.359100        -9.7716
  73   2.0000      -0.351124        -9.5546
  74   2.0000      -0.333574        -9.0770
  75   2.0000      -0.327983        -8.9249
  76   2.0000      -0.317785        -8.6474
  77   0.0000       0.089126         2.4253
  78   0.0000       0.098082         2.6689
  79   0.0000       0.119555         3.2533
  80   0.0000       0.126332         3.4377
  81   0.0000       0.127098         3.4585

MULLIKEN ATOMIC CHARGES
-----------------------
   0 C :   -0.330419
   1 C :    0.035254
   2 O :   -0.323169
   3 C :    0.413690
   4 O :   -0.379193
   5 C :   -0.219103
   6 C :    0.152502
   7 C :   -0.307959
   8 N :   -0.137344
   9 C :    0.213434
  10 S :   -0.443864
  11 N :   -0.221530
  12 C :    0.058248
  13 C :    0.005432
  14 C :   -0.215598
  15 C :   -0.127355
  16 C :   -0.275249
  17 C :    0.314849
  18 O :   -0.353587
  19 C :   -0.250040
  20 H :    0.113472
  21 H :    0.119480
  22 H :    0.105878
  23 H :    0.101057
  24 H :    0.125497
  25 H :    0.115656
  26 H :    0.148015
  27 H :    0.102589
  28 H :    0.197284
  29 H :    0.200676
  30 H :    0.168684
  31 H :    0.166981
  32 H :    0.166197
  33 H :    0.135440
  34 H :    0.242267
  35 H :    0.181830
Sum of atomic charges:    0.0000000

LOEWDIN ATOMIC CHARGES
----------------------
   0 C :    0.101038
   1 C :   -0.012280
   2 O :    0.295147
   3 C :   -0.416721
   4 O :    0.126675
   5 C :   -0.083957
   6 C :   -0.092507
   7 C :    0.128250
   8 N :    0.403468
   9 C :   -0.453821
  10 S :   -0.039150
  11 N :    0.395541
  12 C :   -0.054749
  13 C :   -0.045906
  14 C :    0.015365
  15 C :    0.044963
  16 C :    0.001389
  17 C :   -0.190499
  18 O :    0.397664
  19 C :    0.032006
  20 H :   -0.036137
  21 H :   -0.023215
  22 H :   -0.030315
  23 H :   -0.031307
  24 H :   -0.019732
  25 H :   -0.011971
  26 H :   -0.004686
  27 H :   -0.018179
  28 H :   -0.058387
  29 H :   -0.064748
  30 H :   -0.004964
  31 H :   -0.023905
  32 H :   -0.017616
  33 H :   -0.033184
  34 H :   -0.151911
  35 H :   -0.021656

  Mayer bond orders larger than 0.100000
B(  0-C ,  1-C ) :   0.9529 B(  0-C , 20-H ) :   0.9714 B(  0-C , 21-H ) :   0.9784
B(  0-C , 22-H ) :   0.9769 B(  1-C ,  2-O ) :   0.9050 B(  1-C , 23-H ) :   0.9704
B(  1-C , 24-H ) :   0.9845 B(  2-O ,  3-C ) :   1.1861 B(  3-C ,  4-O ) :   2.1235
B(  3-C ,  5-C ) :   0.9073 B(  5-C ,  6-C ) :   1.7316 B(  5-C , 12-C ) :   0.9379
B(  6-C ,  7-C ) :   0.9443 B(  6-C ,  8-N ) :   1.1073 B(  7-C , 25-H ) :   0.9788
B(  7-C , 26-H ) :   0.9614 B(  7-C , 27-H ) :   0.9799 B(  8-N ,  9-C ) :   1.2033
B(  8-N , 28-H ) :   0.9499 B(  9-C , 10-S ) :   1.6099 B(  9-C , 11-N ) :   1.2830
B( 11-N , 12-C ) :   0.9836 B( 11-N , 29-H ) :   0.9477 B( 12-C , 13-C ) :   0.9563
B( 12-C , 30-H ) :   0.9962 B( 13-C , 14-C ) :   1.3752 B( 13-C , 19-C ) :   1.3519
B( 14-C , 15-C ) :   1.3959 B( 14-C , 31-H ) :   0.9668 B( 15-C , 16-C ) :   1.3639
B( 15-C , 32-H ) :   0.9693 B( 16-C , 17-C ) :   1.3282 B( 16-C , 33-H ) :   0.9834
B( 17-C , 18-O ) :   1.1139 B( 17-C , 19-C ) :   1.3624 B( 18-O , 34-H ) :   0.9783
B( 19-C , 35-H ) :   0.9529

MP2 TOTAL ENERGY:    -1274.322241110 Eh
FINAL SINGLE POINT ENERGY     -1274.322241110312

DIPOLE MOMENT
-------------
                                X             Y             Z
Electronic contribution:      8.99825       6.28095       6.23589
Nuclear contribution   :    -10.54975      -8.01927      -6.12333
                        -----------------------------------------
Total Dipole Moment    :     -1.55150      -1.73832       0.11257
                        -----------------------------------------
Magnitude (a.u.)       :      2.33272
Magnitude (Debye)      :      5.92930

Rotational constants in cm-1:     0.012238     0.009039     0.006576
Rotational constants in MHz :   366.872919   270.979870   197.140612

                             ****ORCA TERMINATED NORMALLY****
TOTAL RUN TIME: 0 days 1 hours 44 minutes 56 seconds 374 msec
