                         Program Version 4.2.0 -  RELEASE  -
|  1> ! ri-mp2 cc-pvtz cc-pvtz/c TightSCF NoKeepInts
|  2>
|  3> %scf
|  4>   MaxCore 4096
|  5> end
|  6> *xyz  0  1
|  7>     C       14.5278220   15.4606951   16.2244420
|  8>     C       14.9856496   16.3873943   15.0831858
|  9>     O       16.3581131   16.0736714   14.7655625
| 10>     C       17.4453509   16.5149703   15.4794958
| 11>     O       18.5167893   15.9429193   15.4028282
| 12>     C       17.2280800   17.6501633   16.4273258
| 13>     C       16.9396121   18.8847554   15.9453368
| 14>     C       16.5821649   19.2541825   14.5182101
| 15>     N       17.0592927   20.0162333   16.7542680
| 16>     C       17.7117124   20.0329924   17.9586024
| 17>     S       17.9313750   21.4324459   18.8114964
| 18>     N       18.2005609   18.8300383   18.4048216
| 19>     C       17.9255932   17.5190319   17.7834223
| 20>     C       17.2696171   16.4987322   18.7009800
| 21>     C       17.6957980   15.1585940   18.6830530
| 22>     C       17.0793804   14.2023210   19.5069790
| 23>     C       16.0267042   14.5894829   20.3539032
| 24>     C       15.5971052   15.9235903   20.3701780
| 25>     O       14.5739007   16.2976304   21.1786619
| 26>     C       16.2115493   16.8736487   19.5478947
| 27>     H       15.0761118   15.6692611   17.1493995
| 28>     H       14.6926129   14.4089577   15.9581608
| 29>     H       13.4588392   15.5985659   16.4270173
| 30>     H       14.3643135   16.1844107   14.2012296
| 31>     H       14.8345346   17.4347739   15.3621708
| 32>     H       16.8314599   18.4629667   13.8008915
| 33>     H       17.1361992   20.1442344   14.1926697
| 34>     H       15.5122865   19.4741804   14.4207673
| 35>     H       16.7445092   20.9127152   16.4177779
| 36>     H       18.6789487   18.8675931   19.2963424
| 37>     H       18.9541121   17.2019829   17.5541210
| 38>     H       18.5022741   14.8560838   18.0176601
| 39>     H       17.4161909   13.1671930   19.4833919
| 40>     H       15.5469412   13.8533774   20.9905379
| 41>     H       14.3117336   15.5202838   21.6947066
| 42>     H       15.8597619   17.8999271   19.5705085
| 43> *
| 44>
| 45>                          ****END OF INPUT****

CARTESIAN COORDINATES (ANGSTROEM)
---------------------------------
  C     14.527822   15.460695   16.224442
  C     14.985650   16.387394   15.083186
  O     16.358113   16.073671   14.765562
  C     17.445351   16.514970   15.479496
  O     18.516789   15.942919   15.402828
  C     17.228080   17.650163   16.427326
  C     16.939612   18.884755   15.945337
  C     16.582165   19.254182   14.518210
  N     17.059293   20.016233   16.754268
  C     17.711712   20.032992   17.958602
  S     17.931375   21.432446   18.811496
  N     18.200561   18.830038   18.404822
  C     17.925593   17.519032   17.783422
  C     17.269617   16.498732   18.700980
  C     17.695798   15.158594   18.683053
  C     17.079380   14.202321   19.506979
  C     16.026704   14.589483   20.353903
  C     15.597105   15.923590   20.370178
  O     14.573901   16.297630   21.178662
  C     16.211549   16.873649   19.547895
  H     15.076112   15.669261   17.149400
  H     14.692613   14.408958   15.958161
  H     13.458839   15.598566   16.427017
  H     14.364313   16.184411   14.201230
  H     14.834535   17.434774   15.362171
  H     16.831460   18.462967   13.800892
  H     17.136199   20.144234   14.192670
  H     15.512287   19.474180   14.420767
  H     16.744509   20.912715   16.417778
  H     18.678949   18.867593   19.296342
  H     18.954112   17.201983   17.554121
  H     18.502274   14.856084   18.017660
  H     17.416191   13.167193   19.483392
  H     15.546941   13.853377   20.990538
  H     14.311734   15.520284   21.694707
  H     15.859762   17.899927   19.570508

 Total Charge           Charge          ....    0
 Multiplicity           Mult            ....    1
 Number of Electrons    NEL             ....  154
 Basis Dimension        Dim             ....  828

ORBITAL ENERGIES
----------------

  NO   OCC          E(Eh)            E(eV)
   0   2.0000     -91.890213     -2500.4598
   1   2.0000     -20.603191      -560.6413
   2   2.0000     -20.599688      -560.5460
   3   2.0000     -20.550313      -559.2024
   4   2.0000     -15.628293      -425.2675
   5   2.0000     -15.609909      -424.7672
   6   2.0000     -11.400448      -310.2220
   7   2.0000     -11.386029      -309.8296
   8   2.0000     -11.335172      -308.4457
   9   2.0000     -11.317267      -307.9585
  10   2.0000     -11.310658      -307.7786
  11   2.0000     -11.307146      -307.6831
  12   2.0000     -11.268011      -306.6182
  13   2.0000     -11.265405      -306.5472
  14   2.0000     -11.264825      -306.5315
  15   2.0000     -11.257630      -306.3357
  16   2.0000     -11.246361      -306.0290
  17   2.0000     -11.242134      -305.9140
  18   2.0000     -11.239395      -305.8395
  19   2.0000     -11.228584      -305.5453
  20   2.0000      -8.895315      -242.0538
  21   2.0000      -6.576896      -178.9664
  22   2.0000      -6.574884      -178.9117
  23   2.0000      -6.574301      -178.8958
  24   2.0000      -1.448377       -39.4123
  25   2.0000      -1.419423       -38.6245
  26   2.0000      -1.361922       -37.0598
  27   2.0000      -1.341710       -36.5098
  28   2.0000      -1.239941       -33.7405
  29   2.0000      -1.161567       -31.6079
  30   2.0000      -1.126811       -30.6621
  31   2.0000      -1.048850       -28.5407
  32   2.0000      -1.037537       -28.2328
  33   2.0000      -1.019524       -27.7427
  34   2.0000      -1.006732       -27.3946
  35   2.0000      -0.990381       -26.9496
  36   2.0000      -0.927062       -25.2266
  37   2.0000      -0.892288       -24.2804
  38   2.0000      -0.854724       -23.2582
  39   2.0000      -0.842263       -22.9192
  40   2.0000      -0.836861       -22.7721
  41   2.0000      -0.833681       -22.6856
  42   2.0000      -0.750444       -20.4206
  43   2.0000      -0.740684       -20.1550
  44   2.0000      -0.732105       -19.9216
  45   2.0000      -0.697163       -18.9708
  46   2.0000      -0.689701       -18.7677
  47   2.0000      -0.682674       -18.5765
  48   2.0000      -0.675413       -18.3789
  49   2.0000      -0.663027       -18.0419
  50   2.0000      -0.654115       -17.7994
  51   2.0000      -0.643954       -17.5229
  52   2.0000      -0.637731       -17.3535
  53   2.0000      -0.620308       -16.8794
  54   2.0000      -0.611948       -16.6519
  55   2.0000      -0.607410       -16.5285
  56   2.0000      -0.602863       -16.4047
  57   2.0000      -0.586671       -15.9641
  58   2.0000      -0.577478       -15.7140
  59   2.0000      -0.567569       -15.4444
  60   2.0000      -0.563426       -15.3316
  61   2.0000      -0.553684       -15.0665
  62   2.0000      -0.543670       -14.7940
  63   2.0000      -0.535989       -14.5850
  64   2.0000      -0.520642       -14.1674
  65   2.0000      -0.512409       -13.9433
  66   2.0000      -0.505444       -13.7538
  67   2.0000      -0.501714       -13.6523
  68   2.0000      -0.485354       -13.2072
  69   2.0000      -0.469136       -12.7658
  70   2.0000      -0.455451       -12.3934
  71   2.0000      -0.450436       -12.2570
  72   2.0000      -0.357619        -9.7313
  73   2.0000      -0.351774        -9.5723
  74   2.0000      -0.329718        -8.9721
  75   2.0000      -0.325020        -8.8443
  76   2.0000      -0.320492        -8.7210
  77   0.0000       0.084502         2.2994
  78   0.0000       0.104148         2.8340
  79   0.0000       0.115652         3.1471
  80   0.0000       0.127981         3.4825
  81   0.0000       0.129660         3.5282

MULLIKEN ATOMIC CHARGES
-----------------------
   0 C :   -0.287980
   1 C :    0.027041
   2 O :   -0.326166
   3 C :    0.428913
   4 O :   -0.382671
   5 C :   -0.215380
   6 C :    0.133527
   7 C :   -0.326963
   8 N :   -0.138021
   9 C :    0.208895
  10 S :   -0.442202
  11 N :   -0.225544
  12 C :    0.064980
  13 C :   -0.012645
  14 C :   -0.200274
  15 C :   -0.136806
  16 C :   -0.268067
  17 C :    0.308652
  18 O :   -0.356850
  19 C :   -0.229082
  20 H :    0.114396
  21 H :    0.108939
  22 H :    0.095389
  23 H :    0.120162
  24 H :    0.086837
  25 H :    0.135347
  26 H :    0.132630
  27 H :    0.123311
  28 H :    0.197489
  29 H :    0.204021
  30 H :    0.168199
  31 H :    0.178360
  32 H :    0.164251
  33 H :    0.132805
  34 H :    0.241205
  35 H :    0.173300
Sum of atomic charges:   -0.0000000

LOEWDIN ATOMIC CHARGES
----------------------
   0 C :    0.108453
   1 C :   -0.022652
   2 O :    0.304910
   3 C :   -0.415459
   4 O :    0.119822
   5 C :   -0.085301
   6 C :   -0.090993
   7 C :    0.125153
   8 N :    0.402854
   9 C :   -0.457473
  10 S :   -0.037672
  11 N :    0.396474
  12 C :   -0.048877
  13 C :   -0.046089
  14 C :    0.019702
  15 C :    0.045261
  16 C :    0.000205
  17 C :   -0.191283
  18 O :    0.395848
  19 C :    0.026738
  20 H :   -0.028037
  21 H :   -0.022914
  22 H :   -0.026177
  23 H :   -0.022443
  24 H :   -0.039552
  25 H :   -0.007471
  26 H :   -0.010319
  27 H :   -0.017706
  28 H :   -0.056914
  29 H :   -0.063332
  30 H :   -0.004072
  31 H :   -0.021278
  32 H :   -0.018345
  33 H :   -0.034591
  34 H :   -0.153104
  35 H :   -0.023368

  Mayer bond orders larger than 0.100000
B(  0-C ,  1-C ) :   0.9755 B(  0-C , 20-H ) :   0.9663 B(  0-C , 21-H ) :   0.9774
B(  0-C , 22-H ) :   0.9764 B(  1-C ,  2-O ) :   0.8962 B(  1-C , 23-H ) :   0.9814
B(  1-C , 24-H ) :   0.9642 B(  2-O ,  3-C ) :   1.1680 B(  3-C ,  4-O ) :   2.0904
B(  3-C ,  5-C ) :   0.9228 B(  5-C ,  6-C ) :   1.7246 B(  5-C , 12-C ) :   0.9352
B(  6-C ,  7-C ) :   0.9353 B(  6-C ,  8-N ) :   1.1083 B(  7-C , 25-H ) :   0.9742
B(  7-C , 26-H ) :   0.9762 B(  7-C , 27-H ) :   0.9658 B(  8-N ,  9-C ) :   1.1962
B(  8-N , 28-H ) :   0.9508 B(  9-C , 10-S ) :   1.6105 B(  9-C , 11-N ) :   1.2920
B( 11-N , 12-C ) :   0.9803 B( 11-N , 29-H ) :   0.9469 B( 12-C , 13-C ) :   0.9717
B( 12-C , 30-H ) :   0.9894 B( 13-C , 14-C ) :   1.3915 B( 13-C , 19-C ) :   1.3530
B( 14-C , 15-C ) :   1.3945 B( 14-C , 31-H ) :   0.9573 B( 15-C , 16-C ) :   1.3604
B( 15-C , 32-H ) :   0.9701 B( 16-C , 17-C ) :   1.3325 B( 16-C , 33-H ) :   0.9842
B( 17-C , 18-O ) :   1.1100 B( 17-C , 19-C ) :   1.3641 B( 18-O , 34-H ) :   0.9793
B( 19-C , 35-H ) :   0.9576

MP2 TOTAL ENERGY:    -1274.331336620 Eh
FINAL SINGLE POINT ENERGY     -1274.331336619752

DIPOLE MOMENT
-------------
                                X             Y             Z
Electronic contribution:      9.07865       7.83513       6.73988
Nuclear contribution   :    -10.73953      -8.92506      -7.20233
                        -----------------------------------------
Total Dipole Moment    :     -1.66088      -1.08994      -0.46245
                        -----------------------------------------
Magnitude (a.u.)       :      2.03969
Magnitude (Debye)      :      5.18449

Rotational constants in cm-1:     0.011557     0.009192     0.006374
Rotational constants in MHz :   346.477517   275.583170   191.099266

                             ****ORCA TERMINATED NORMALLY****
TOTAL RUN TIME: 0 days 1 hours 44 minutes 46 seconds 835 msec
