                         Program Version 4.2.0 -  RELEASE  -
|  1> ! ri-mp2 cc-pvtz cc-pvtz/c TightSCF NoKeepInts
|  2>
|  3> %scf
|  4>   MaxCore 4096
|  5> end
|  6> *xyz  0  1
|  7>     C       14.1907962   16.5645058   15.9184785
|  8>     C       15.2395274   15.6345936   15.2767936
|  9>     O       16.3144862   16.3890988   14.6804628
| 10>     C       17.4060294   16.6497131   15.4565893
| 11>     O       18.3900866   15.9329884   15.4354026
| 12>     C       17.2071818   17.7260567   16.4719949
| 13>     C       16.7697481   18.9525172   16.0974030
| 14>     C       16.2573417   19.3534196   14.7287260
| 15>     N       16.8493709   20.0356209   16.9751090
| 16>     C       17.5574692   20.0239435   18.1480932
| 17>     S       17.6993710   21.3731129   19.0937463
| 18>     N       18.1626974   18.8383970   18.4873759
| 19>     C       17.9831506   17.5560347   17.7774131
| 20>     C       17.4284135   16.4308882   18.6385281
| 21>     C       18.0334051   15.1615100   18.6263666
| 22>     C       17.5077423   14.1125547   19.3990150
| 23>     C       16.3653399   14.3344999   20.1871398
| 24>     C       15.7567474   15.5971373   20.1956267
| 25>     O       14.6471925   15.8114213   20.9463663
| 26>     C       16.2820137   16.6392810   19.4250212
| 27>     H       14.6035200   17.1154702   16.7709755
| 28>     H       13.3448459   15.9732413   16.2900183
| 29>     H       13.8006005   17.2790979   15.1847633
| 30>     H       15.6292473   14.9266400   16.0222234
| 31>     H       14.7456967   15.0482753   14.4910381
| 32>     H       15.2223836   19.0263425   14.5828598
| 33>     H       16.8644421   18.9061949   13.9312901
| 34>     H       16.2876153   20.4390282   14.5739225
| 35>     H       16.4363339   20.9198415   16.7240280
| 36>     H       18.6700814   18.8549230   19.3632472
| 37>     H       19.0220588   17.3416620   17.4856122
| 38>     H       18.9080177   14.9853482   18.0034186
| 39>     H       17.9835131   13.1334176   19.3806145
| 40>     H       15.9552625   13.5264525   20.7839745
| 41>     H       14.4697312   14.9977163   21.4420358
| 42>     H       15.7955389   17.6090538   19.4423262
| 43> *
| 44>
| 45>                          ****END OF INPUT****

CARTESIAN COORDINATES (ANGSTROEM)
---------------------------------
  C     14.190796   16.564506   15.918479
  C     15.239527   15.634594   15.276794
  O     16.314486   16.389099   14.680463
  C     17.406029   16.649713   15.456589
  O     18.390087   15.932988   15.435403
  C     17.207182   17.726057   16.471995
  C     16.769748   18.952517   16.097403
  C     16.257342   19.353420   14.728726
  N     16.849371   20.035621   16.975109
  C     17.557469   20.023944   18.148093
  S     17.699371   21.373113   19.093746
  N     18.162697   18.838397   18.487376
  C     17.983151   17.556035   17.777413
  C     17.428413   16.430888   18.638528
  C     18.033405   15.161510   18.626367
  C     17.507742   14.112555   19.399015
  C     16.365340   14.334500   20.187140
  C     15.756747   15.597137   20.195627
  O     14.647192   15.811421   20.946366
  C     16.282014   16.639281   19.425021
  H     14.603520   17.115470   16.770975
  H     13.344846   15.973241   16.290018
  H     13.800600   17.279098   15.184763
  H     15.629247   14.926640   16.022223
  H     14.745697   15.048275   14.491038
  H     15.222384   19.026342   14.582860
  H     16.864442   18.906195   13.931290
  H     16.287615   20.439028   14.573923
  H     16.436334   20.919842   16.724028
  H     18.670081   18.854923   19.363247
  H     19.022059   17.341662   17.485612
  H     18.908018   14.985348   18.003419
  H     17.983513   13.133418   19.380615
  H     15.955262   13.526452   20.783974
  H     14.469731   14.997716   21.442036
  H     15.795539   17.609054   19.442326

 Total Charge           Charge          ....    0
 Multiplicity           Mult            ....    1
 Number of Electrons    NEL             ....  154
 Basis Dimension        Dim             ....  828

ORBITAL ENERGIES
----------------

  NO   OCC          E(Eh)            E(eV)
   0   2.0000     -91.890164     -2500.4585
   1   2.0000     -20.598796      -560.5217
   2   2.0000     -20.586573      -560.1891
   3   2.0000     -20.555752      -559.3505
   4   2.0000     -15.629521      -425.3009
   5   2.0000     -15.608895      -424.7396
   6   2.0000     -11.394517      -310.0606
   7   2.0000     -11.385609      -309.8182
   8   2.0000     -11.335286      -308.4488
   9   2.0000     -11.315823      -307.9192
  10   2.0000     -11.308073      -307.7083
  11   2.0000     -11.306016      -307.6523
  12   2.0000     -11.262899      -306.4791
  13   2.0000     -11.261725      -306.4471
  14   2.0000     -11.258040      -306.3469
  15   2.0000     -11.255966      -306.2904
  16   2.0000     -11.245347      -306.0014
  17   2.0000     -11.241419      -305.8946
  18   2.0000     -11.238227      -305.8077
  19   2.0000     -11.231977      -305.6376
  20   2.0000      -8.895245      -242.0519
  21   2.0000      -6.576820      -178.9644
  22   2.0000      -6.574817      -178.9099
  23   2.0000      -6.574227      -178.8938
  24   2.0000      -1.449709       -39.4486
  25   2.0000      -1.418544       -38.6005
  26   2.0000      -1.359856       -37.0036
  27   2.0000      -1.341074       -36.4925
  28   2.0000      -1.238936       -33.7132
  29   2.0000      -1.159989       -31.5649
  30   2.0000      -1.124902       -30.6101
  31   2.0000      -1.047198       -28.4957
  32   2.0000      -1.035736       -28.1838
  33   2.0000      -1.017508       -27.6878
  34   2.0000      -1.003384       -27.3035
  35   2.0000      -0.989376       -26.9223
  36   2.0000      -0.925268       -25.1778
  37   2.0000      -0.889912       -24.2157
  38   2.0000      -0.850386       -23.1402
  39   2.0000      -0.841178       -22.8896
  40   2.0000      -0.835800       -22.7433
  41   2.0000      -0.828179       -22.5359
  42   2.0000      -0.756882       -20.5958
  43   2.0000      -0.736948       -20.0534
  44   2.0000      -0.730204       -19.8699
  45   2.0000      -0.696736       -18.9592
  46   2.0000      -0.687903       -18.7188
  47   2.0000      -0.679939       -18.5021
  48   2.0000      -0.675389       -18.3783
  49   2.0000      -0.661691       -18.0055
  50   2.0000      -0.654053       -17.7977
  51   2.0000      -0.644752       -17.5446
  52   2.0000      -0.637495       -17.3471
  53   2.0000      -0.610625       -16.6160
  54   2.0000      -0.604701       -16.4547
  55   2.0000      -0.602329       -16.3902
  56   2.0000      -0.596395       -16.2287
  57   2.0000      -0.591530       -16.0964
  58   2.0000      -0.578183       -15.7332
  59   2.0000      -0.574956       -15.6454
  60   2.0000      -0.563212       -15.3258
  61   2.0000      -0.554293       -15.0831
  62   2.0000      -0.545720       -14.8498
  63   2.0000      -0.525033       -14.2869
  64   2.0000      -0.520985       -14.1767
  65   2.0000      -0.512320       -13.9409
  66   2.0000      -0.501514       -13.6469
  67   2.0000      -0.495445       -13.4817
  68   2.0000      -0.487877       -13.2758
  69   2.0000      -0.466466       -12.6932
  70   2.0000      -0.457387       -12.4461
  71   2.0000      -0.453866       -12.3503
  72   2.0000      -0.354283        -9.6405
  73   2.0000      -0.351119        -9.5544
  74   2.0000      -0.329392        -8.9632
  75   2.0000      -0.323189        -8.7944
  76   2.0000      -0.319392        -8.6911
  77   0.0000       0.075064         2.0426
  78   0.0000       0.102655         2.7934
  79   0.0000       0.120837         3.2881
  80   0.0000       0.130128         3.5410
  81   0.0000       0.131774         3.5857

MULLIKEN ATOMIC CHARGES
-----------------------
   0 C :   -0.322650
   1 C :    0.042179
   2 O :   -0.367470
   3 C :    0.449318
   4 O :   -0.378222
   5 C :   -0.252635
   6 C :    0.175709
   7 C :   -0.287822
   8 N :   -0.133528
   9 C :    0.205499
  10 S :   -0.440202
  11 N :   -0.217649
  12 C :    0.067173
  13 C :    0.027271
  14 C :   -0.205411
  15 C :   -0.129698
  16 C :   -0.278951
  17 C :    0.316762
  18 O :   -0.356723
  19 C :   -0.266388
  20 H :    0.112492
  21 H :    0.119915
  22 H :    0.098544
  23 H :    0.097485
  24 H :    0.116783
  25 H :    0.125721
  26 H :    0.128803
  27 H :    0.108897
  28 H :    0.198608
  29 H :    0.200401
  30 H :    0.162407
  31 H :    0.172064
  32 H :    0.164252
  33 H :    0.131686
  34 H :    0.241143
  35 H :    0.174238
Sum of atomic charges:   -0.0000000

LOEWDIN ATOMIC CHARGES
----------------------
   0 C :    0.103443
   1 C :   -0.013325
   2 O :    0.286231
   3 C :   -0.421818
   4 O :    0.130022
   5 C :   -0.092679
   6 C :   -0.073920
   7 C :    0.128987
   8 N :    0.405050
   9 C :   -0.456570
  10 S :   -0.036369
  11 N :    0.395717
  12 C :   -0.049746
  13 C :   -0.043672
  14 C :    0.021403
  15 C :    0.042508
  16 C :   -0.000808
  17 C :   -0.192537
  18 O :    0.394619
  19 C :    0.028771
  20 H :   -0.033993
  21 H :   -0.022475
  22 H :   -0.032490
  23 H :   -0.026020
  24 H :   -0.021071
  25 H :   -0.014160
  26 H :   -0.006434
  27 H :   -0.017761
  28 H :   -0.058076
  29 H :   -0.063960
  30 H :   -0.005541
  31 H :   -0.021873
  32 H :   -0.019202
  33 H :   -0.035029
  34 H :   -0.153446
  35 H :   -0.023778

  Mayer bond orders larger than 0.100000
B(  0-C ,  1-C ) :   0.9635 B(  0-C , 20-H ) :   0.9696 B(  0-C , 21-H ) :   0.9779
B(  0-C , 22-H ) :   0.9774 B(  1-C ,  2-O ) :   0.8950 B(  1-C , 23-H ) :   0.9734
B(  1-C , 24-H ) :   0.9843 B(  2-O ,  3-C ) :   1.0986 B(  3-C ,  4-O ) :   2.0876
B(  3-C ,  5-C ) :   0.9594 B(  5-C ,  6-C ) :   1.6923 B(  5-C , 12-C ) :   0.9384
B(  6-C ,  7-C ) :   0.9467 B(  6-C ,  8-N ) :   1.1272 B(  7-C , 25-H ) :   0.9648
B(  7-C , 26-H ) :   0.9682 B(  7-C , 27-H ) :   0.9871 B(  8-N ,  9-C ) :   1.1900
B(  8-N , 28-H ) :   0.9482 B(  9-C , 10-S ) :   1.6133 B(  9-C , 11-N ) :   1.2942
B( 11-N , 12-C ) :   0.9826 B( 11-N , 29-H ) :   0.9487 B( 12-C , 13-C ) :   0.9684
B( 12-C , 30-H ) :   0.9923 B( 13-C , 14-C ) :   1.3829 B( 13-C , 19-C ) :   1.3494
B( 14-C , 15-C ) :   1.3943 B( 14-C , 31-H ) :   0.9601 B( 15-C , 16-C ) :   1.3615
B( 15-C , 32-H ) :   0.9700 B( 16-C , 17-C ) :   1.3306 B( 16-C , 33-H ) :   0.9848
B( 17-C , 18-O ) :   1.1087 B( 17-C , 19-C ) :   1.3657 B( 18-O , 34-H ) :   0.9796
B( 19-C , 35-H ) :   0.9570

MP2 TOTAL ENERGY:    -1274.323950170 Eh
FINAL SINGLE POINT ENERGY     -1274.323950169672

DIPOLE MOMENT
-------------
                                X             Y             Z
Electronic contribution:      9.37511       6.80784       7.09028
Nuclear contribution   :    -10.72468      -8.18941      -7.57461
                        -----------------------------------------
Total Dipole Moment    :     -1.34957      -1.38157      -0.48432
                        -----------------------------------------
Magnitude (a.u.)       :      1.99114
Magnitude (Debye)      :      5.06108

Rotational constants in cm-1:     0.011498     0.009187     0.006572
Rotational constants in MHz :   344.709044   275.422201   197.035585

                             ****ORCA TERMINATED NORMALLY****
TOTAL RUN TIME: 0 days 2 hours 10 minutes 33 seconds 824 msec
