                         Program Version 4.2.0 -  RELEASE  -
|  1> ! ri-mp2 cc-pvtz cc-pvtz/c TightSCF NoKeepInts
|  2>
|  3> %scf
|  4>   MaxCore 4096
|  5> end
|  6> *xyz  0  1
|  7>     C       15.8210592   14.4124612   13.8221765
|  8>     C       15.0255239   15.5635793   14.4601857
|  9>     O       15.8332660   16.1258814   15.5089950
| 10>     C       15.3169156   17.1714231   16.2155554
| 11>     O       14.1496103   17.5165118   16.1526241
| 12>     C       16.3817705   17.9725252   16.8826469
| 13>     C       16.5372587   19.2730580   16.5380493
| 14>     C       15.5591985   20.0990295   15.7300369
| 15>     N       17.6929901   19.9737359   16.8880554
| 16>     C       18.7843105   19.4072746   17.4918431
| 17>     S       20.1324822   20.2874063   17.8662674
| 18>     N       18.7078857   18.0650996   17.7684267
| 19>     C       17.5213648   17.2099485   17.5675581
| 20>     C       17.0946133   16.4982462   18.8488070
| 21>     C       17.6161689   15.2330622   19.1720224
| 22>     C       17.2761599   14.6098810   20.3839304
| 23>     C       16.4045801   15.2552462   21.2794910
| 24>     C       15.8749760   16.5105890   20.9535023
| 25>     O       15.0278568   17.1355533   21.8145855
| 26>     C       16.2194428   17.1315239   19.7504735
| 27>     H       16.6574870   14.8140830   13.2366716
| 28>     H       15.1831518   13.8304611   13.1468148
| 29>     H       16.2217782   13.7405418   14.5861013
| 30>     H       14.7614542   16.3202175   13.7051580
| 31>     H       14.0917782   15.1653643   14.8830779
| 32>     H       15.2675176   19.5847230   14.8062631
| 33>     H       15.9511548   21.0842452   15.4470481
| 34>     H       14.6442020   20.2610449   16.3130869
| 35>     H       17.7800518   20.9482392   16.6593624
| 36>     H       19.4997889   17.7020951   18.2801697
| 37>     H       17.9089631   16.4909080   16.8305403
| 38>     H       18.3007353   14.7351317   18.4894984
| 39>     H       17.6928138   13.6352425   20.6342105
| 40>     H       16.1478215   14.7823408   22.2227845
| 41>     H       14.8889014   16.5414164   22.5681617
| 42>     H       15.8119667   18.1119092   19.5338178
| 43> *
| 44>
| 45>                          ****END OF INPUT****

CARTESIAN COORDINATES (ANGSTROEM)
---------------------------------
  C     15.821059   14.412461   13.822176
  C     15.025524   15.563579   14.460186
  O     15.833266   16.125881   15.508995
  C     15.316916   17.171423   16.215555
  O     14.149610   17.516512   16.152624
  C     16.381770   17.972525   16.882647
  C     16.537259   19.273058   16.538049
  C     15.559198   20.099030   15.730037
  N     17.692990   19.973736   16.888055
  C     18.784311   19.407275   17.491843
  S     20.132482   20.287406   17.866267
  N     18.707886   18.065100   17.768427
  C     17.521365   17.209948   17.567558
  C     17.094613   16.498246   18.848807
  C     17.616169   15.233062   19.172022
  C     17.276160   14.609881   20.383930
  C     16.404580   15.255246   21.279491
  C     15.874976   16.510589   20.953502
  O     15.027857   17.135553   21.814585
  C     16.219443   17.131524   19.750473
  H     16.657487   14.814083   13.236672
  H     15.183152   13.830461   13.146815
  H     16.221778   13.740542   14.586101
  H     14.761454   16.320217   13.705158
  H     14.091778   15.165364   14.883078
  H     15.267518   19.584723   14.806263
  H     15.951155   21.084245   15.447048
  H     14.644202   20.261045   16.313087
  H     17.780052   20.948239   16.659362
  H     19.499789   17.702095   18.280170
  H     17.908963   16.490908   16.830540
  H     18.300735   14.735132   18.489498
  H     17.692814   13.635243   20.634210
  H     16.147821   14.782341   22.222784
  H     14.888901   16.541416   22.568162
  H     15.811967   18.111909   19.533818

 Total Charge           Charge          ....    0
 Multiplicity           Mult            ....    1
 Number of Electrons    NEL             ....  154
 Basis Dimension        Dim             ....  828

ORBITAL ENERGIES
----------------

  NO   OCC          E(Eh)            E(eV)
   0   2.0000     -91.885394     -2500.3287
   1   2.0000     -20.607257      -560.7520
   2   2.0000     -20.596069      -560.4475
   3   2.0000     -20.548926      -559.1647
   4   2.0000     -15.623887      -425.1476
   5   2.0000     -15.604331      -424.6154
   6   2.0000     -11.394571      -310.0620
   7   2.0000     -11.380785      -309.6869
   8   2.0000     -11.328787      -308.2720
   9   2.0000     -11.313965      -307.8686
  10   2.0000     -11.307181      -307.6840
  11   2.0000     -11.300318      -307.4973
  12   2.0000     -11.262676      -306.4730
  13   2.0000     -11.256773      -306.3124
  14   2.0000     -11.255691      -306.2829
  15   2.0000     -11.253308      -306.2181
  16   2.0000     -11.245183      -305.9970
  17   2.0000     -11.241701      -305.9022
  18   2.0000     -11.239226      -305.8349
  19   2.0000     -11.233531      -305.6799
  20   2.0000      -8.890573      -241.9248
  21   2.0000      -6.572169      -178.8378
  22   2.0000      -6.570146      -178.7828
  23   2.0000      -6.569574      -178.7672
  24   2.0000      -1.457457       -39.6594
  25   2.0000      -1.414287       -38.4847
  26   2.0000      -1.360110       -37.0105
  27   2.0000      -1.336089       -36.3568
  28   2.0000      -1.235294       -33.6141
  29   2.0000      -1.158976       -31.5373
  30   2.0000      -1.122257       -30.5382
  31   2.0000      -1.043921       -28.4065
  32   2.0000      -1.043486       -28.3947
  33   2.0000      -1.016390       -27.6574
  34   2.0000      -0.997156       -27.1340
  35   2.0000      -0.984164       -26.7805
  36   2.0000      -0.921396       -25.0724
  37   2.0000      -0.889031       -24.1918
  38   2.0000      -0.845142       -22.9975
  39   2.0000      -0.837224       -22.7820
  40   2.0000      -0.833686       -22.6858
  41   2.0000      -0.820178       -22.3182
  42   2.0000      -0.765967       -20.8430
  43   2.0000      -0.732631       -19.9359
  44   2.0000      -0.722773       -19.6677
  45   2.0000      -0.696154       -18.9433
  46   2.0000      -0.686576       -18.6827
  47   2.0000      -0.682576       -18.5738
  48   2.0000      -0.678214       -18.4551
  49   2.0000      -0.667548       -18.1649
  50   2.0000      -0.647124       -17.6091
  51   2.0000      -0.643255       -17.5039
  52   2.0000      -0.633848       -17.2479
  53   2.0000      -0.608330       -16.5535
  54   2.0000      -0.602828       -16.4038
  55   2.0000      -0.597406       -16.2563
  56   2.0000      -0.589540       -16.0422
  57   2.0000      -0.579536       -15.7700
  58   2.0000      -0.575358       -15.6563
  59   2.0000      -0.568799       -15.4778
  60   2.0000      -0.564825       -15.3697
  61   2.0000      -0.555457       -15.1148
  62   2.0000      -0.538538       -14.6544
  63   2.0000      -0.526086       -14.3155
  64   2.0000      -0.519276       -14.1302
  65   2.0000      -0.511862       -13.9285
  66   2.0000      -0.506224       -13.7751
  67   2.0000      -0.497491       -13.5374
  68   2.0000      -0.487461       -13.2645
  69   2.0000      -0.462979       -12.5983
  70   2.0000      -0.461165       -12.5489
  71   2.0000      -0.451873       -12.2961
  72   2.0000      -0.351567        -9.5666
  73   2.0000      -0.349718        -9.5163
  74   2.0000      -0.326235        -8.8773
  75   2.0000      -0.322367        -8.7720
  76   2.0000      -0.315177        -8.5764
  77   0.0000       0.089835         2.4445
  78   0.0000       0.106138         2.8882
  79   0.0000       0.119958         3.2642
  80   0.0000       0.130693         3.5563
  81   0.0000       0.133631         3.6363

MULLIKEN ATOMIC CHARGES
-----------------------
   0 C :   -0.265988
   1 C :    0.051513
   2 O :   -0.331956
   3 C :    0.406156
   4 O :   -0.419059
   5 C :   -0.189445
   6 C :    0.137086
   7 C :   -0.274985
   8 N :   -0.128197
   9 C :    0.227974
  10 S :   -0.450207
  11 N :   -0.220796
  12 C :    0.066690
  13 C :    0.037344
  14 C :   -0.194522
  15 C :   -0.126238
  16 C :   -0.270927
  17 C :    0.314937
  18 O :   -0.356373
  19 C :   -0.234619
  20 H :    0.093696
  21 H :    0.094376
  22 H :    0.101033
  23 H :    0.082552
  24 H :    0.095389
  25 H :    0.117648
  26 H :    0.097954
  27 H :    0.138761
  28 H :    0.195938
  29 H :    0.199595
  30 H :    0.154106
  31 H :    0.151482
  32 H :    0.159661
  33 H :    0.130498
  34 H :    0.240622
  35 H :    0.168302
Sum of atomic charges:    0.0000000

LOEWDIN ATOMIC CHARGES
----------------------
   0 C :    0.109172
   1 C :   -0.017479
   2 O :    0.304550
   3 C :   -0.415829
   4 O :    0.109957
   5 C :   -0.084302
   6 C :   -0.077232
   7 C :    0.129767
   8 N :    0.405936
   9 C :   -0.452435
  10 S :   -0.041790
  11 N :    0.393903
  12 C :   -0.052203
  13 C :   -0.039421
  14 C :    0.010503
  15 C :    0.042970
  16 C :    0.003779
  17 C :   -0.185459
  18 O :    0.392915
  19 C :    0.037944
  20 H :   -0.027951
  21 H :   -0.023500
  22 H :   -0.026762
  23 H :   -0.029269
  24 H :   -0.027882
  25 H :   -0.010118
  26 H :   -0.021475
  27 H :   -0.004145
  28 H :   -0.061460
  29 H :   -0.068561
  30 H :   -0.015027
  31 H :   -0.029116
  32 H :   -0.020224
  33 H :   -0.033813
  34 H :   -0.153455
  35 H :   -0.022489

  Mayer bond orders larger than 0.100000
B(  0-C ,  1-C ) :   0.9690 B(  0-C , 20-H ) :   0.9798 B(  0-C , 21-H ) :   0.9785
B(  0-C , 22-H ) :   0.9756 B(  1-C ,  2-O ) :   0.9099 B(  1-C , 23-H ) :   0.9752
B(  1-C , 24-H ) :   0.9797 B(  2-O ,  3-C ) :   1.1699 B(  3-C ,  4-O ) :   1.9839
B(  3-C ,  5-C ) :   1.0043 B(  5-C ,  6-C ) :   1.6870 B(  5-C , 12-C ) :   0.9399
B(  6-C ,  7-C ) :   0.9552 B(  6-C ,  8-N ) :   1.1497 B(  7-C , 25-H ) :   0.9678
B(  7-C , 26-H ) :   0.9903 B(  7-C , 27-H ) :   0.9618 B(  8-N ,  9-C ) :   1.1917
B(  8-N , 28-H ) :   0.9490 B(  9-C , 10-S ) :   1.5922 B(  9-C , 11-N ) :   1.3078
B( 11-N , 12-C ) :   0.9494 B( 11-N , 29-H ) :   0.9481 B( 12-C , 13-C ) :   0.9810
B( 12-C , 30-H ) :   0.9916 B( 13-C , 14-C ) :   1.3532 B( 13-C , 19-C ) :   1.3774
B( 14-C , 15-C ) :   1.3940 B( 14-C , 31-H ) :   0.9718 B( 15-C , 16-C ) :   1.3662
B( 15-C , 32-H ) :   0.9706 B( 16-C , 17-C ) :   1.3308 B( 16-C , 33-H ) :   0.9854
B( 17-C , 18-O ) :   1.1046 B( 17-C , 19-C ) :   1.3646 B( 18-O , 34-H ) :   0.9800
B( 19-C , 35-H ) :   0.9577

MP2 TOTAL ENERGY:    -1274.337756141 Eh
FINAL SINGLE POINT ENERGY     -1274.337756141204

DIPOLE MOMENT
-------------
                                X             Y             Z
Electronic contribution:      7.04816       9.40953      10.88172
Nuclear contribution   :     -7.99423     -10.97228     -11.36168
                        -----------------------------------------
Total Dipole Moment    :     -0.94607      -1.56275      -0.47996
                        -----------------------------------------
Magnitude (a.u.)       :      1.88881
Magnitude (Debye)      :      4.80097

Rotational constants in cm-1:     0.009273     0.008882     0.005916
Rotational constants in MHz :   278.000521   266.279324   177.352345

                             ****ORCA TERMINATED NORMALLY****
TOTAL RUN TIME: 0 days 1 hours 36 minutes 46 seconds 241 msec
