                         Program Version 4.2.0 -  RELEASE  -
|  1> ! ri-mp2 cc-pvtz cc-pvtz/c TightSCF NoKeepInts
|  2>
|  3> %scf
|  4>   MaxCore 4096
|  5> end
|  6> *xyz  0  1
|  7>     C       13.7182328   15.7959742   14.5450172
|  8>     C       15.2221819   15.5056259   14.4057713
|  9>     O       15.9251708   16.6866477   14.8303497
| 10>     C       16.9311155   16.5740613   15.7447892
| 11>     O       17.5917114   15.5547397   15.8584982
| 12>     C       17.0697853   17.7406318   16.6827109
| 13>     C       16.7363798   19.0121186   16.3342757
| 14>     C       15.9754147   19.4759434   15.1075105
| 15>     N       17.1329387   20.0947556   17.1237037
| 16>     C       18.0405215   20.0184157   18.1452669
| 17>     S       18.5461236   21.3624375   18.9659479
| 18>     N       18.5257363   18.7692284   18.4373098
| 19>     C       18.0400851   17.5064803   17.8479976
| 20>     C       17.5169195   16.5235697   18.8872212
| 21>     C       18.0490330   15.2248089   18.9786187
| 22>     C       17.5663582   14.3207026   19.9396792
| 23>     C       16.5438197   14.7194501   20.8176388
| 24>     C       16.0105340   16.0126259   20.7273555
| 25>     O       15.0203407   16.3988334   21.5709919
| 26>     C       16.4927643   16.9100625   19.7692508
| 27>     H       13.4627987   16.0201213   15.5883369
| 28>     H       13.1284322   14.9276406   14.2268862
| 29>     H       13.4298694   16.6532954   13.9242555
| 30>     H       15.4753559   14.6364612   15.0288568
| 31>     H       15.4737622   15.2698299   13.3636369
| 32>     H       16.4738162   19.1405022   14.1893429
| 33>     H       15.8906033   20.5676877   15.0454003
| 34>     H       14.9559363   19.0703211   15.1074819
| 35>     H       16.8024986   21.0214170   16.9070708
| 36>     H       19.1769328   18.7366954   19.2115536
| 37>     H       18.9691070   17.1323718   17.3936057
| 38>     H       18.8291037   14.9111205   18.2889190
| 39>     H       17.9811943   13.3159634   19.9964832
| 40>     H       16.1671293   14.0238823   21.5600651
| 41>     H       14.8448542   15.6576480   22.1698382
| 42>     H       16.0704395   17.9079290   19.7163622
| 43> *
| 44>
| 45>                          ****END OF INPUT****

CARTESIAN COORDINATES (ANGSTROEM)
---------------------------------
  C     13.718233   15.795974   14.545017
  C     15.222182   15.505626   14.405771
  O     15.925171   16.686648   14.830350
  C     16.931116   16.574061   15.744789
  O     17.591711   15.554740   15.858498
  C     17.069785   17.740632   16.682711
  C     16.736380   19.012119   16.334276
  C     15.975415   19.475943   15.107511
  N     17.132939   20.094756   17.123704
  C     18.040522   20.018416   18.145267
  S     18.546124   21.362437   18.965948
  N     18.525736   18.769228   18.437310
  C     18.040085   17.506480   17.847998
  C     17.516920   16.523570   18.887221
  C     18.049033   15.224809   18.978619
  C     17.566358   14.320703   19.939679
  C     16.543820   14.719450   20.817639
  C     16.010534   16.012626   20.727355
  O     15.020341   16.398833   21.570992
  C     16.492764   16.910062   19.769251
  H     13.462799   16.020121   15.588337
  H     13.128432   14.927641   14.226886
  H     13.429869   16.653295   13.924255
  H     15.475356   14.636461   15.028857
  H     15.473762   15.269830   13.363637
  H     16.473816   19.140502   14.189343
  H     15.890603   20.567688   15.045400
  H     14.955936   19.070321   15.107482
  H     16.802499   21.021417   16.907071
  H     19.176933   18.736695   19.211554
  H     18.969107   17.132372   17.393606
  H     18.829104   14.911121   18.288919
  H     17.981194   13.315963   19.996483
  H     16.167129   14.023882   21.560065
  H     14.844854   15.657648   22.169838
  H     16.070439   17.907929   19.716362

 Total Charge           Charge          ....    0
 Multiplicity           Mult            ....    1
 Number of Electrons    NEL             ....  154
 Basis Dimension        Dim             ....  828

ORBITAL ENERGIES
----------------

  NO   OCC          E(Eh)            E(eV)
   0   2.0000     -91.888094     -2500.4022
   1   2.0000     -20.600897      -560.5789
   2   2.0000     -20.591999      -560.3368
   3   2.0000     -20.545684      -559.0765
   4   2.0000     -15.628737      -425.2796
   5   2.0000     -15.605725      -424.6534
   6   2.0000     -11.395339      -310.0829
   7   2.0000     -11.382621      -309.7369
   8   2.0000     -11.338396      -308.5334
   9   2.0000     -11.307948      -307.7049
  10   2.0000     -11.304250      -307.6043
  11   2.0000     -11.299936      -307.4869
  12   2.0000     -11.260949      -306.4260
  13   2.0000     -11.259138      -306.3767
  14   2.0000     -11.255125      -306.2675
  15   2.0000     -11.247961      -306.0726
  16   2.0000     -11.238196      -305.8069
  17   2.0000     -11.234350      -305.7022
  18   2.0000     -11.233778      -305.6866
  19   2.0000     -11.231028      -305.6118
  20   2.0000      -8.893177      -241.9956
  21   2.0000      -6.574754      -178.9082
  22   2.0000      -6.572751      -178.8536
  23   2.0000      -6.572163      -178.8376
  24   2.0000      -1.454121       -39.5686
  25   2.0000      -1.411747       -38.4156
  26   2.0000      -1.357104       -36.9287
  27   2.0000      -1.340008       -36.4635
  28   2.0000      -1.237136       -33.6642
  29   2.0000      -1.152516       -31.3616
  30   2.0000      -1.120823       -30.4991
  31   2.0000      -1.044612       -28.4253
  32   2.0000      -1.036759       -28.2116
  33   2.0000      -1.010071       -27.4854
  34   2.0000      -0.999060       -27.1858
  35   2.0000      -0.984096       -26.7786
  36   2.0000      -0.920792       -25.0560
  37   2.0000      -0.889735       -24.2109
  38   2.0000      -0.847238       -23.0545
  39   2.0000      -0.834969       -22.7207
  40   2.0000      -0.828192       -22.5363
  41   2.0000      -0.817714       -22.2511
  42   2.0000      -0.762074       -20.7371
  43   2.0000      -0.736303       -20.0358
  44   2.0000      -0.726229       -19.7617
  45   2.0000      -0.691090       -18.8055
  46   2.0000      -0.684777       -18.6337
  47   2.0000      -0.679511       -18.4904
  48   2.0000      -0.674490       -18.3538
  49   2.0000      -0.660560       -17.9748
  50   2.0000      -0.649511       -17.6741
  51   2.0000      -0.642918       -17.4947
  52   2.0000      -0.633590       -17.2409
  53   2.0000      -0.603820       -16.4308
  54   2.0000      -0.598945       -16.2981
  55   2.0000      -0.595508       -16.2046
  56   2.0000      -0.592458       -16.1216
  57   2.0000      -0.581919       -15.8348
  58   2.0000      -0.573373       -15.6023
  59   2.0000      -0.564996       -15.3743
  60   2.0000      -0.560340       -15.2476
  61   2.0000      -0.558339       -15.1932
  62   2.0000      -0.541782       -14.7426
  63   2.0000      -0.523409       -14.2427
  64   2.0000      -0.516071       -14.0430
  65   2.0000      -0.509625       -13.8676
  66   2.0000      -0.501161       -13.6373
  67   2.0000      -0.494279       -13.4500
  68   2.0000      -0.480888       -13.0856
  69   2.0000      -0.465190       -12.6585
  70   2.0000      -0.457032       -12.4365
  71   2.0000      -0.454795       -12.3756
  72   2.0000      -0.353197        -9.6110
  73   2.0000      -0.344714        -9.3801
  74   2.0000      -0.327162        -8.9025
  75   2.0000      -0.317253        -8.6329
  76   2.0000      -0.314537        -8.5590
  77   0.0000       0.076513         2.0820
  78   0.0000       0.111089         3.0229
  79   0.0000       0.120283         3.2731
  80   0.0000       0.135731         3.6934
  81   0.0000       0.139157         3.7866

MULLIKEN ATOMIC CHARGES
-----------------------
   0 C :   -0.272816
   1 C :    0.028463
   2 O :   -0.344982
   3 C :    0.427022
   4 O :   -0.417978
   5 C :   -0.180742
   6 C :    0.159012
   7 C :   -0.281845
   8 N :   -0.128627
   9 C :    0.207528
  10 S :   -0.442305
  11 N :   -0.210352
  12 C :    0.042349
  13 C :    0.031699
  14 C :   -0.166568
  15 C :   -0.134675
  16 C :   -0.277281
  17 C :    0.313985
  18 O :   -0.359193
  19 C :   -0.252206
  20 H :    0.099430
  21 H :    0.101093
  22 H :    0.091227
  23 H :    0.105964
  24 H :    0.099574
  25 H :    0.126560
  26 H :    0.103109
  27 H :    0.127990
  28 H :    0.198832
  29 H :    0.199903
  30 H :    0.155330
  31 H :    0.158800
  32 H :    0.160111
  33 H :    0.128279
  34 H :    0.239982
  35 H :    0.163325
Sum of atomic charges:   -0.0000000

LOEWDIN ATOMIC CHARGES
----------------------
   0 C :    0.104053
   1 C :   -0.013450
   2 O :    0.306616
   3 C :   -0.417189
   4 O :    0.106143
   5 C :   -0.093077
   6 C :   -0.064282
   7 C :    0.125131
   8 N :    0.405513
   9 C :   -0.458637
  10 S :   -0.037567
  11 N :    0.396467
  12 C :   -0.048302
  13 C :   -0.040550
  14 C :    0.025112
  15 C :    0.040937
  16 C :   -0.001277
  17 C :   -0.192741
  18 O :    0.392957
  19 C :    0.029288
  20 H :   -0.025912
  21 H :   -0.024074
  22 H :   -0.030110
  23 H :   -0.025294
  24 H :   -0.029770
  25 H :   -0.008907
  26 H :   -0.021200
  27 H :   -0.009965
  28 H :   -0.058723
  29 H :   -0.063113
  30 H :   -0.008159
  31 H :   -0.023894
  32 H :   -0.021027
  33 H :   -0.036180
  34 H :   -0.154864
  35 H :   -0.023954

  Mayer bond orders larger than 0.100000
B(  0-C ,  1-C ) :   0.9716 B(  0-C , 20-H ) :   0.9762 B(  0-C , 21-H ) :   0.9780
B(  0-C , 22-H ) :   0.9788 B(  1-C ,  2-O ) :   0.8970 B(  1-C , 23-H ) :   0.9724
B(  1-C , 24-H ) :   0.9832 B(  2-O ,  3-C ) :   1.1400 B(  3-C ,  4-O ) :   1.9947
B(  3-C ,  5-C ) :   1.0392 B(  5-C ,  6-C ) :   1.6576 B(  5-C , 12-C ) :   0.9490
B(  6-C ,  7-C ) :   0.9551 B(  6-C ,  8-N ) :   1.1368 B(  7-C , 25-H ) :   0.9650
B(  7-C , 26-H ) :   0.9906 B(  7-C , 27-H ) :   0.9641 B(  8-N ,  9-C ) :   1.1851
B(  8-N , 28-H ) :   0.9468 B(  9-C , 10-S ) :   1.6082 B(  9-C , 11-N ) :   1.3065
B( 11-N , 12-C ) :   0.9768 B( 11-N , 29-H ) :   0.9486 B( 12-C , 13-C ) :   0.9725
B( 12-C , 30-H ) :   0.9968 B( 13-C , 14-C ) :   1.3764 B( 13-C , 19-C ) :   1.3657
B( 14-C , 15-C ) :   1.3974 B( 14-C , 31-H ) :   0.9638 B( 15-C , 16-C ) :   1.3585
B( 15-C , 32-H ) :   0.9711 B( 16-C , 17-C ) :   1.3334 B( 16-C , 33-H ) :   0.9860
B( 17-C , 18-O ) :   1.1034 B( 17-C , 19-C ) :   1.3674 B( 18-O , 34-H ) :   0.9806
B( 19-C , 35-H ) :   0.9603

MP2 TOTAL ENERGY:    -1274.338143487 Eh
FINAL SINGLE POINT ENERGY     -1274.338143486526

DIPOLE MOMENT
-------------
                                X             Y             Z
Electronic contribution:     11.04545       8.56550      10.77985
Nuclear contribution   :    -12.44326      -9.91278     -11.81936
                        -----------------------------------------
Total Dipole Moment    :     -1.39781      -1.34728      -1.03951
                        -----------------------------------------
Magnitude (a.u.)       :      2.20219
Magnitude (Debye)      :      5.59751

Rotational constants in cm-1:     0.009610     0.009287     0.005727
Rotational constants in MHz :   288.104372   278.420081   171.683102

                             ****ORCA TERMINATED NORMALLY****
TOTAL RUN TIME: 0 days 1 hours 42 minutes 27 seconds 456 msec
