                         Program Version 4.2.0 -  RELEASE  -
|  1> ! ri-mp2 cc-pvtz cc-pvtz/c TightSCF NoKeepInts
|  2>
|  3> %scf
|  4>   MaxCore 4096
|  5> end
|  6> *xyz  0  1
|  7>     C       15.4719651   13.9837629   16.3113613
|  8>     C       15.2887521   15.2667019   15.4841581
|  9>     O       16.5367655   15.9800612   15.4561250
| 10>     C       16.4606045   17.3198972   15.2174285
| 11>     O       15.9110497   17.7343823   14.2122177
| 12>     C       16.9487685   18.1787653   16.3543567
| 13>     C       17.0757036   19.5221916   16.1895322
| 14>     C       16.5107029   20.3699322   15.0677979
| 15>     N       17.7970269   20.2964920   17.1007359
| 16>     C       18.6025121   19.7856245   18.0809091
| 17>     S       19.5226555   20.7549863   19.0553358
| 18>     N       18.6295275   18.4195696   18.1950258
| 19>     C       17.7569206   17.4814530   17.4639171
| 20>     C       16.9609749   16.5948452   18.4130236
| 21>     C       17.5645272   15.4559625   18.9784698
| 22>     C       16.8612038   14.6531655   19.8926188
| 23>     C       15.5432404   14.9920810   20.2438803
| 24>     C       14.9421868   16.1298094   19.6879404
| 25>     O       13.6713954   16.4616549   20.0276387
| 26>     C       15.6463065   16.9306164   18.7831476
| 27>     H       16.3050437   13.3865321   15.9207151
| 28>     H       14.5630503   13.3714742   16.2731022
| 29>     H       15.6745771   14.2191412   17.3599033
| 30>     H       14.9737440   15.0231801   14.4606378
| 31>     H       14.5048752   15.8796776   15.9502875
| 32>     H       15.4377437   20.1779330   14.9395724
| 33>     H       17.0027910   20.1303627   14.1163793
| 34>     H       16.6291502   21.4462650   15.2397177
| 35>     H       17.8066603   21.2996713   17.0083211
| 36>     H       19.2088199   18.0746616   18.9496805
| 37>     H       18.5180217   16.8881416   16.9369205
| 38>     H       18.5843538   15.1938118   18.7093203
| 39>     H       17.3368263   13.7742233   20.3247487
| 40>     H       14.9954759   14.3746269   20.9483280
| 41>     H       13.3751710   15.8302044   20.7007088
| 42>     H       15.1679063   17.8181382   18.3840365
| 43> *
| 44>
| 45>                          ****END OF INPUT****

CARTESIAN COORDINATES (ANGSTROEM)
---------------------------------
  C     15.471965   13.983763   16.311361
  C     15.288752   15.266702   15.484158
  O     16.536766   15.980061   15.456125
  C     16.460604   17.319897   15.217428
  O     15.911050   17.734382   14.212218
  C     16.948768   18.178765   16.354357
  C     17.075704   19.522192   16.189532
  C     16.510703   20.369932   15.067798
  N     17.797027   20.296492   17.100736
  C     18.602512   19.785624   18.080909
  S     19.522655   20.754986   19.055336
  N     18.629527   18.419570   18.195026
  C     17.756921   17.481453   17.463917
  C     16.960975   16.594845   18.413024
  C     17.564527   15.455962   18.978470
  C     16.861204   14.653166   19.892619
  C     15.543240   14.992081   20.243880
  C     14.942187   16.129809   19.687940
  O     13.671395   16.461655   20.027639
  C     15.646306   16.930616   18.783148
  H     16.305044   13.386532   15.920715
  H     14.563050   13.371474   16.273102
  H     15.674577   14.219141   17.359903
  H     14.973744   15.023180   14.460638
  H     14.504875   15.879678   15.950287
  H     15.437744   20.177933   14.939572
  H     17.002791   20.130363   14.116379
  H     16.629150   21.446265   15.239718
  H     17.806660   21.299671   17.008321
  H     19.208820   18.074662   18.949680
  H     18.518022   16.888142   16.936920
  H     18.584354   15.193812   18.709320
  H     17.336826   13.774223   20.324749
  H     14.995476   14.374627   20.948328
  H     13.375171   15.830204   20.700709
  H     15.167906   17.818138   18.384037

 Total Charge           Charge          ....    0
 Multiplicity           Mult            ....    1
 Number of Electrons    NEL             ....  154
 Basis Dimension        Dim             ....  828

ORBITAL ENERGIES
----------------

  NO   OCC          E(Eh)            E(eV)
   0   2.0000     -91.890626     -2500.4711
   1   2.0000     -20.602817      -560.6312
   2   2.0000     -20.586059      -560.1751
   3   2.0000     -20.543167      -559.0080
   4   2.0000     -15.631357      -425.3509
   5   2.0000     -15.608528      -424.7296
   6   2.0000     -11.391281      -309.9725
   7   2.0000     -11.385051      -309.8030
   8   2.0000     -11.340616      -308.5939
   9   2.0000     -11.320440      -308.0448
  10   2.0000     -11.310557      -307.7759
  11   2.0000     -11.294416      -307.3367
  12   2.0000     -11.267458      -306.6031
  13   2.0000     -11.261599      -306.4437
  14   2.0000     -11.259807      -306.3949
  15   2.0000     -11.253161      -306.2141
  16   2.0000     -11.249077      -306.1030
  17   2.0000     -11.244187      -305.9699
  18   2.0000     -11.244038      -305.9658
  19   2.0000     -11.222011      -305.3664
  20   2.0000      -8.895679      -242.0637
  21   2.0000      -6.577248      -178.9760
  22   2.0000      -6.575252      -178.9217
  23   2.0000      -6.574658      -178.9055
  24   2.0000      -1.448755       -39.4226
  25   2.0000      -1.422462       -38.7071
  26   2.0000      -1.351452       -36.7749
  27   2.0000      -1.342801       -36.5395
  28   2.0000      -1.240803       -33.7640
  29   2.0000      -1.162917       -31.6446
  30   2.0000      -1.123004       -30.5585
  31   2.0000      -1.046838       -28.4859
  32   2.0000      -1.033623       -28.1263
  33   2.0000      -1.021258       -27.7898
  34   2.0000      -0.999149       -27.1882
  35   2.0000      -0.986606       -26.8469
  36   2.0000      -0.925083       -25.1728
  37   2.0000      -0.880268       -23.9533
  38   2.0000      -0.849847       -23.1255
  39   2.0000      -0.842930       -22.9373
  40   2.0000      -0.838259       -22.8102
  41   2.0000      -0.823062       -22.3967
  42   2.0000      -0.763055       -20.7638
  43   2.0000      -0.738038       -20.0830
  44   2.0000      -0.722606       -19.6631
  45   2.0000      -0.700707       -19.0672
  46   2.0000      -0.688275       -18.7289
  47   2.0000      -0.678060       -18.4510
  48   2.0000      -0.673523       -18.3275
  49   2.0000      -0.664005       -18.0685
  50   2.0000      -0.648942       -17.6586
  51   2.0000      -0.641309       -17.4509
  52   2.0000      -0.637401       -17.3446
  53   2.0000      -0.613352       -16.6901
  54   2.0000      -0.607330       -16.5263
  55   2.0000      -0.604148       -16.4397
  56   2.0000      -0.601228       -16.3602
  57   2.0000      -0.582487       -15.8503
  58   2.0000      -0.571796       -15.5594
  59   2.0000      -0.567691       -15.4477
  60   2.0000      -0.550611       -14.9829
  61   2.0000      -0.545641       -14.8476
  62   2.0000      -0.541094       -14.7239
  63   2.0000      -0.530326       -14.4309
  64   2.0000      -0.515977       -14.0404
  65   2.0000      -0.511067       -13.9068
  66   2.0000      -0.506458       -13.7814
  67   2.0000      -0.500015       -13.6061
  68   2.0000      -0.485515       -13.2115
  69   2.0000      -0.464411       -12.6373
  70   2.0000      -0.454070       -12.3559
  71   2.0000      -0.444322       -12.0906
  72   2.0000      -0.356734        -9.7072
  73   2.0000      -0.354083        -9.6351
  74   2.0000      -0.331141        -9.0108
  75   2.0000      -0.326893        -8.8952
  76   2.0000      -0.320885        -8.7317
  77   0.0000       0.072810         1.9813
  78   0.0000       0.100465         2.7338
  79   0.0000       0.120207         3.2710
  80   0.0000       0.126255         3.4356
  81   0.0000       0.129858         3.5336

MULLIKEN ATOMIC CHARGES
-----------------------
   0 C :   -0.275120
   1 C :    0.031463
   2 O :   -0.366301
   3 C :    0.469068
   4 O :   -0.415936
   5 C :   -0.291989
   6 C :    0.180243
   7 C :   -0.265100
   8 N :   -0.128776
   9 C :    0.220696
  10 S :   -0.441725
  11 N :   -0.226050
  12 C :    0.082473
  13 C :    0.055465
  14 C :   -0.212536
  15 C :   -0.129047
  16 C :   -0.272590
  17 C :    0.307811
  18 O :   -0.357359
  19 C :   -0.238242
  20 H :    0.096961
  21 H :    0.095437
  22 H :    0.105921
  23 H :    0.120040
  24 H :    0.084453
  25 H :    0.132067
  26 H :    0.131812
  27 H :    0.094902
  28 H :    0.199238
  29 H :    0.200535
  30 H :    0.147596
  31 H :    0.154536
  32 H :    0.161794
  33 H :    0.132721
  34 H :    0.242535
  35 H :    0.173003
Sum of atomic charges:   -0.0000000

LOEWDIN ATOMIC CHARGES
----------------------
   0 C :    0.110450
   1 C :   -0.020436
   2 O :    0.294686
   3 C :   -0.422565
   4 O :    0.109896
   5 C :   -0.100163
   6 C :   -0.051864
   7 C :    0.131537
   8 N :    0.408542
   9 C :   -0.455131
  10 S :   -0.035222
  11 N :    0.394082
  12 C :   -0.053529
  13 C :   -0.034229
  14 C :    0.013092
  15 C :    0.043861
  16 C :   -0.000789
  17 C :   -0.190330
  18 O :    0.396372
  19 C :    0.032145
  20 H :   -0.027304
  21 H :   -0.025644
  22 H :   -0.027939
  23 H :   -0.028648
  24 H :   -0.032479
  25 H :   -0.004625
  26 H :   -0.003971
  27 H :   -0.023446
  28 H :   -0.056602
  29 H :   -0.066161
  30 H :   -0.012116
  31 H :   -0.029393
  32 H :   -0.019398
  33 H :   -0.034441
  34 H :   -0.152276
  35 H :   -0.025963

  Mayer bond orders larger than 0.100000
B(  0-C ,  1-C ) :   0.9749 B(  0-C , 20-H ) :   0.9769 B(  0-C , 21-H ) :   0.9791
B(  0-C , 22-H ) :   0.9744 B(  1-C ,  2-O ) :   0.8897 B(  1-C , 23-H ) :   0.9845
B(  1-C , 24-H ) :   0.9693 B(  2-O ,  3-C ) :   1.1204 B(  3-C ,  4-O ) :   2.0058
B(  3-C ,  5-C ) :   1.0638 B(  5-C ,  6-C ) :   1.6245 B(  5-C , 12-C ) :   0.9526
B(  6-C ,  7-C ) :   0.9659 B(  6-C ,  8-N ) :   1.1632 B(  7-C , 25-H ) :   0.9619
B(  7-C , 26-H ) :   0.9568 B(  7-C , 27-H ) :   0.9900 B(  8-N ,  9-C ) :   1.1856
B(  8-N , 28-H ) :   0.9464 B(  9-C , 10-S ) :   1.5976 B(  9-C , 11-N ) :   1.3138
B( 11-N , 12-C ) :   0.9461 B( 11-N , 29-H ) :   0.9471 B( 12-C , 13-C ) :   0.9719
B( 12-C , 30-H ) :   1.0004 B( 13-C , 14-C ) :   1.3579 B( 13-C , 19-C ) :   1.3582
B( 14-C , 15-C ) :   1.3995 B( 14-C , 31-H ) :   0.9725 B( 15-C , 16-C ) :   1.3578
B( 15-C , 32-H ) :   0.9712 B( 16-C , 17-C ) :   1.3368 B( 16-C , 33-H ) :   0.9851
B( 17-C , 18-O ) :   1.1092 B( 17-C , 19-C ) :   1.3571 B( 18-O , 34-H ) :   0.9784
B( 19-C , 35-H ) :   0.9569

MP2 TOTAL ENERGY:    -1274.332885801 Eh
FINAL SINGLE POINT ENERGY     -1274.332885800718

DIPOLE MOMENT
-------------
                                X             Y             Z
Electronic contribution:      7.60484      11.25520       4.87093
Nuclear contribution   :     -8.65220     -12.71266      -4.62539
                        -----------------------------------------
Total Dipole Moment    :     -1.04736      -1.45746       0.24555
                        -----------------------------------------
Magnitude (a.u.)       :      1.81148
Magnitude (Debye)      :      4.60442

Rotational constants in cm-1:     0.012776     0.008343     0.006113
Rotational constants in MHz :   383.014032   250.108278   183.260283

                             ****ORCA TERMINATED NORMALLY****
TOTAL RUN TIME: 0 days 1 hours 49 minutes 50 seconds 457 msec
