                         Program Version 4.2.0 -  RELEASE  -
|  1> ! ri-mp2 cc-pvtz cc-pvtz/c TightSCF NoKeepInts
|  2>
|  3> %scf
|  4>   MaxCore 4096
|  5> end
|  6> *xyz  0  1
|  7>     C       14.4157900   15.4196158   15.3379070
|  8>     C       15.7772997   14.9484755   15.8948633
|  9>     O       16.8766885   15.8280330   15.5471714
| 10>     C       16.6906181   17.1578432   15.2927739
| 11>     O       16.2607270   17.5307605   14.2156577
| 12>     C       17.0133367   18.0567899   16.4593326
| 13>     C       16.9511844   19.4073860   16.3193803
| 14>     C       16.2875178   20.1871239   15.2025666
| 15>     N       17.5294299   20.2592318   17.2630712
| 16>     C       18.3728217   19.8503561   18.2593794
| 17>     S       19.1152051   20.9227684   19.2763566
| 18>     N       18.5914584   18.5000926   18.3550922
| 19>     C       17.8835967   17.4624467   17.5822872
| 20>     C       17.1873775   16.4547419   18.4844938
| 21>     C       17.7777510   15.2045218   18.7463718
| 22>     C       17.1351853   14.2739006   19.5802494
| 23>     C       15.8968082   14.5991180   20.1602953
| 24>     C       15.3128046   15.8485543   19.9094606
| 25>     O       14.1178976   16.1653944   20.4679933
| 26>     C       15.9536218   16.7722956   19.0779400
| 27>     H       14.1154017   16.3801110   15.7749608
| 28>     H       13.6354060   14.6867371   15.5755776
| 29>     H       14.4558579   15.5260913   14.2461727
| 30>     H       15.6889204   14.8733225   16.9842959
| 31>     H       15.9957076   13.9408050   15.5188093
| 32>     H       15.2808812   19.7985440   15.0022583
| 33>     H       16.8644369   20.0964555   14.2731191
| 34>     H       16.1830683   21.2551613   15.4270348
| 35>     H       17.4005290   21.2553004   17.1834475
| 36>     H       19.1976400   18.2263502   19.1180553
| 37>     H       18.7369878   16.9963495   17.0691208
| 38>     H       18.7342921   14.9514165   18.2961943
| 39>     H       17.5973781   13.3076215   19.7762619
| 40>     H       15.3975744   13.8838068   20.8059571
| 41>     H       13.8646524   15.4346938   21.0523070
| 42>     H       15.4911462   17.7377838   18.9017840
| 43> *
| 44>
| 45>                          ****END OF INPUT****

CARTESIAN COORDINATES (ANGSTROEM)
---------------------------------
  C     14.415790   15.419616   15.337907
  C     15.777300   14.948476   15.894863
  O     16.876689   15.828033   15.547171
  C     16.690618   17.157843   15.292774
  O     16.260727   17.530760   14.215658
  C     17.013337   18.056790   16.459333
  C     16.951184   19.407386   16.319380
  C     16.287518   20.187124   15.202567
  N     17.529430   20.259232   17.263071
  C     18.372822   19.850356   18.259379
  S     19.115205   20.922768   19.276357
  N     18.591458   18.500093   18.355092
  C     17.883597   17.462447   17.582287
  C     17.187378   16.454742   18.484494
  C     17.777751   15.204522   18.746372
  C     17.135185   14.273901   19.580249
  C     15.896808   14.599118   20.160295
  C     15.312805   15.848554   19.909461
  O     14.117898   16.165394   20.467993
  C     15.953622   16.772296   19.077940
  H     14.115402   16.380111   15.774961
  H     13.635406   14.686737   15.575578
  H     14.455858   15.526091   14.246173
  H     15.688920   14.873323   16.984296
  H     15.995708   13.940805   15.518809
  H     15.280881   19.798544   15.002258
  H     16.864437   20.096456   14.273119
  H     16.183068   21.255161   15.427035
  H     17.400529   21.255300   17.183447
  H     19.197640   18.226350   19.118055
  H     18.736988   16.996350   17.069121
  H     18.734292   14.951416   18.296194
  H     17.597378   13.307621   19.776262
  H     15.397574   13.883807   20.805957
  H     13.864652   15.434694   21.052307
  H     15.491146   17.737784   18.901784

 Total Charge           Charge          ....    0
 Multiplicity           Mult            ....    1
 Number of Electrons    NEL             ....  154
 Basis Dimension        Dim             ....  828

ORBITAL ENERGIES
----------------

  NO   OCC          E(Eh)            E(eV)
   0   2.0000     -91.890466     -2500.4667
   1   2.0000     -20.602899      -560.6334
   2   2.0000     -20.580255      -560.0172
   3   2.0000     -20.544318      -559.0393
   4   2.0000     -15.630790      -425.3354
   5   2.0000     -15.608587      -424.7312
   6   2.0000     -11.392496      -310.0056
   7   2.0000     -11.384799      -309.7961
   8   2.0000     -11.339035      -308.5508
   9   2.0000     -11.320874      -308.0567
  10   2.0000     -11.310302      -307.7690
  11   2.0000     -11.296879      -307.4037
  12   2.0000     -11.266311      -306.5719
  13   2.0000     -11.261970      -306.4538
  14   2.0000     -11.258717      -306.3653
  15   2.0000     -11.252799      -306.2042
  16   2.0000     -11.250382      -306.1384
  17   2.0000     -11.244930      -305.9901
  18   2.0000     -11.244517      -305.9789
  19   2.0000     -11.224362      -305.4304
  20   2.0000      -8.895522      -242.0595
  21   2.0000      -6.577091      -178.9717
  22   2.0000      -6.575096      -178.9175
  23   2.0000      -6.574502      -178.9013
  24   2.0000      -1.440858       -39.2077
  25   2.0000      -1.422600       -38.7109
  26   2.0000      -1.349370       -36.7182
  27   2.0000      -1.342364       -36.5276
  28   2.0000      -1.240495       -33.7556
  29   2.0000      -1.163523       -31.6611
  30   2.0000      -1.122224       -30.5373
  31   2.0000      -1.047271       -28.4977
  32   2.0000      -1.030362       -28.0376
  33   2.0000      -1.021533       -27.7973
  34   2.0000      -0.999215       -27.1900
  35   2.0000      -0.986692       -26.8493
  36   2.0000      -0.924927       -25.1685
  37   2.0000      -0.892087       -24.2749
  38   2.0000      -0.849498       -23.1160
  39   2.0000      -0.843283       -22.9469
  40   2.0000      -0.839883       -22.8544
  41   2.0000      -0.822848       -22.3908
  42   2.0000      -0.746650       -20.3174
  43   2.0000      -0.736931       -20.0529
  44   2.0000      -0.716117       -19.4865
  45   2.0000      -0.700874       -19.0718
  46   2.0000      -0.689038       -18.7497
  47   2.0000      -0.676629       -18.4120
  48   2.0000      -0.668796       -18.1989
  49   2.0000      -0.663475       -18.0541
  50   2.0000      -0.650913       -17.7122
  51   2.0000      -0.644625       -17.5411
  52   2.0000      -0.637497       -17.3472
  53   2.0000      -0.619598       -16.8601
  54   2.0000      -0.612858       -16.6767
  55   2.0000      -0.604741       -16.4558
  56   2.0000      -0.602835       -16.4040
  57   2.0000      -0.581925       -15.8350
  58   2.0000      -0.571181       -15.5426
  59   2.0000      -0.567609       -15.4454
  60   2.0000      -0.549178       -14.9439
  61   2.0000      -0.541813       -14.7435
  62   2.0000      -0.536464       -14.5979
  63   2.0000      -0.529562       -14.4101
  64   2.0000      -0.525031       -14.2868
  65   2.0000      -0.515609       -14.0304
  66   2.0000      -0.503335       -13.6964
  67   2.0000      -0.492338       -13.3972
  68   2.0000      -0.483918       -13.1681
  69   2.0000      -0.464141       -12.6299
  70   2.0000      -0.453610       -12.3434
  71   2.0000      -0.441134       -12.0039
  72   2.0000      -0.356978        -9.7139
  73   2.0000      -0.353788        -9.6270
  74   2.0000      -0.330982        -9.0065
  75   2.0000      -0.327367        -8.9081
  76   2.0000      -0.320112        -8.7107
  77   0.0000       0.071826         1.9545
  78   0.0000       0.098660         2.6847
  79   0.0000       0.121958         3.3186
  80   0.0000       0.128478         3.4961
  81   0.0000       0.130547         3.5524

MULLIKEN ATOMIC CHARGES
-----------------------
   0 C :   -0.298324
   1 C :    0.036787
   2 O :   -0.388354
   3 C :    0.475369
   4 O :   -0.404125
   5 C :   -0.283640
   6 C :    0.183916
   7 C :   -0.267056
   8 N :   -0.126823
   9 C :    0.212863
  10 S :   -0.440361
  11 N :   -0.216705
  12 C :    0.072298
  13 C :   -0.007510
  14 C :   -0.167354
  15 C :   -0.131636
  16 C :   -0.273210
  17 C :    0.307147
  18 O :   -0.356785
  19 C :   -0.223897
  20 H :    0.092266
  21 H :    0.103894
  22 H :    0.121044
  23 H :    0.099748
  24 H :    0.110858
  25 H :    0.129121
  26 H :    0.134066
  27 H :    0.094202
  28 H :    0.199592
  29 H :    0.200888
  30 H :    0.151844
  31 H :    0.154633
  32 H :    0.163529
  33 H :    0.133848
  34 H :    0.242025
  35 H :    0.165841
Sum of atomic charges:   -0.0000000

LOEWDIN ATOMIC CHARGES
----------------------
   0 C :    0.105181
   1 C :   -0.012827
   2 O :    0.283098
   3 C :   -0.421403
   4 O :    0.117977
   5 C :   -0.102850
   6 C :   -0.053866
   7 C :    0.130796
   8 N :    0.407900
   9 C :   -0.456737
  10 S :   -0.034911
  11 N :    0.394660
  12 C :   -0.054675
  13 C :   -0.040121
  14 C :    0.017376
  15 C :    0.042100
  16 C :   -0.000590
  17 C :   -0.191346
  18 O :    0.396574
  19 C :    0.032009
  20 H :   -0.030020
  21 H :   -0.024938
  22 H :   -0.022753
  23 H :   -0.033544
  24 H :   -0.024699
  25 H :   -0.005459
  26 H :   -0.003916
  27 H :   -0.023522
  28 H :   -0.056662
  29 H :   -0.064530
  30 H :   -0.011620
  31 H :   -0.027470
  32 H :   -0.019372
  33 H :   -0.034050
  34 H :   -0.152505
  35 H :   -0.023286

  Mayer bond orders larger than 0.100000
B(  0-C ,  1-C ) :   0.9748 B(  0-C , 20-H ) :   0.9744 B(  0-C , 21-H ) :   0.9745
B(  0-C , 22-H ) :   0.9727 B(  1-C ,  2-O ) :   0.8977 B(  1-C , 23-H ) :   0.9674
B(  1-C , 24-H ) :   0.9813 B(  2-O ,  3-C ) :   1.0874 B(  3-C ,  4-O ) :   2.0252
B(  3-C ,  5-C ) :   1.0645 B(  5-C ,  6-C ) :   1.6203 B(  5-C , 12-C ) :   0.9556
B(  6-C ,  7-C ) :   0.9683 B(  6-C ,  8-N ) :   1.1599 B(  7-C , 25-H ) :   0.9643
B(  7-C , 26-H ) :   0.9558 B(  7-C , 27-H ) :   0.9886 B(  8-N ,  9-C ) :   1.1855
B(  8-N , 28-H ) :   0.9466 B(  9-C , 10-S ) :   1.6056 B(  9-C , 11-N ) :   1.3106
B( 11-N , 12-C ) :   0.9602 B( 11-N , 29-H ) :   0.9486 B( 12-C , 13-C ) :   0.9654
B( 12-C , 30-H ) :   1.0017 B( 13-C , 14-C ) :   1.3525 B( 13-C , 19-C ) :   1.3744
B( 14-C , 15-C ) :   1.3962 B( 14-C , 31-H ) :   0.9720 B( 15-C , 16-C ) :   1.3582
B( 15-C , 32-H ) :   0.9702 B( 16-C , 17-C ) :   1.3311 B( 16-C , 33-H ) :   0.9842
B( 17-C , 18-O ) :   1.1075 B( 17-C , 19-C ) :   1.3662 B( 18-O , 34-H ) :   0.9786
B( 19-C , 35-H ) :   0.9597

MP2 TOTAL ENERGY:    -1274.325265861 Eh
FINAL SINGLE POINT ENERGY     -1274.325265860599

DIPOLE MOMENT
-------------
                                X             Y             Z
Electronic contribution:      9.51661       8.91989       7.03319
Nuclear contribution   :    -10.57922     -10.57088      -6.82338
                        -----------------------------------------
Total Dipole Moment    :     -1.06261      -1.65099       0.20981
                        -----------------------------------------
Magnitude (a.u.)       :      1.97457
Magnitude (Debye)      :      5.01896

Rotational constants in cm-1:     0.012193     0.008777     0.006179
Rotational constants in MHz :   365.536239   263.118370   185.253488

                             ****ORCA TERMINATED NORMALLY****
TOTAL RUN TIME: 0 days 1 hours 44 minutes 57 seconds 777 msec
