                         Program Version 4.2.0 -  RELEASE  -
|  1> ! ri-mp2 cc-pvtz cc-pvtz/c TightSCF NoKeepInts
|  2>
|  3> %scf
|  4>   MaxCore 4096
|  5> end
|  6> *xyz  0  1
|  7>     C       14.5655494   14.9689837   14.5496001
|  8>     C       15.4864927   15.0101725   15.7867598
|  9>     O       16.5250614   16.0060164   15.6627061
| 10>     C       16.2382361   17.3381444   15.5383993
| 11>     O       15.4804120   17.7721213   14.6894161
| 12>     C       16.8861045   18.1670324   16.6162395
| 13>     C       16.9277600   19.5214319   16.5238921
| 14>     C       16.1673578   20.3978878   15.5500134
| 15>     N       17.7422625   20.2762433   17.3711749
| 16>     C       18.6837365   19.7489783   18.2128601
| 17>     S       19.6797909   20.7055751   19.1230524
| 18>     N       18.7737615   18.3806446   18.2477049
| 19>     C       17.8650795   17.4452800   17.5587284
| 20>     C       17.2000967   16.4646735   18.5161272
| 21>     C       17.6221624   15.1235269   18.5723937
| 22>     C       17.0013823   14.2163973   19.4475075
| 23>     C       15.9535109   14.6555337   20.2749139
| 24>     C       15.5361139   15.9928675   20.2252102
| 25>     O       14.5252714   16.4196387   21.0231040
| 26>     C       16.1547171   16.8928319   19.3518148
| 27>     H       13.8742392   15.8203831   14.5376722
| 28>     H       13.9617351   14.0537010   14.5545971
| 29>     H       15.1553228   14.9850055   13.6245258
| 30>     H       14.8869808   15.2025105   16.6867171
| 31>     H       15.9595054   14.0272930   15.9078320
| 32>     H       15.0919293   20.1833446   15.5961903
| 33>     H       16.4953092   20.2065478   14.5202458
| 34>     H       16.2948667   21.4693038   15.7442969
| 35>     H       17.7020320   21.2823996   17.3384610
| 36>     H       19.4567461   18.0206493   18.9021793
| 37>     H       18.5772130   16.9233973   16.9036074
| 38>     H       18.4295608   14.7825360   17.9295159
| 39>     H       17.3336072   13.1801915   19.4843186
| 40>     H       15.4719768   13.9591883   20.9537522
| 41>     H       14.2588966   15.6741843   21.5820798
| 42>     H       15.8222195   17.9253832   19.3303902
| 43> *
| 44>
| 45>                          ****END OF INPUT****

CARTESIAN COORDINATES (ANGSTROEM)
---------------------------------
  C     14.565549   14.968984   14.549600
  C     15.486493   15.010172   15.786760
  O     16.525061   16.006016   15.662706
  C     16.238236   17.338144   15.538399
  O     15.480412   17.772121   14.689416
  C     16.886104   18.167032   16.616239
  C     16.927760   19.521432   16.523892
  C     16.167358   20.397888   15.550013
  N     17.742262   20.276243   17.371175
  C     18.683736   19.748978   18.212860
  S     19.679791   20.705575   19.123052
  N     18.773761   18.380645   18.247705
  C     17.865080   17.445280   17.558728
  C     17.200097   16.464673   18.516127
  C     17.622162   15.123527   18.572394
  C     17.001382   14.216397   19.447508
  C     15.953511   14.655534   20.274914
  C     15.536114   15.992867   20.225210
  O     14.525271   16.419639   21.023104
  C     16.154717   16.892832   19.351815
  H     13.874239   15.820383   14.537672
  H     13.961735   14.053701   14.554597
  H     15.155323   14.985005   13.624526
  H     14.886981   15.202510   16.686717
  H     15.959505   14.027293   15.907832
  H     15.091929   20.183345   15.596190
  H     16.495309   20.206548   14.520246
  H     16.294867   21.469304   15.744297
  H     17.702032   21.282400   17.338461
  H     19.456746   18.020649   18.902179
  H     18.577213   16.923397   16.903607
  H     18.429561   14.782536   17.929516
  H     17.333607   13.180191   19.484319
  H     15.471977   13.959188   20.953752
  H     14.258897   15.674184   21.582080
  H     15.822219   17.925383   19.330390

 Total Charge           Charge          ....    0
 Multiplicity           Mult            ....    1
 Number of Electrons    NEL             ....  154
 Basis Dimension        Dim             ....  828

ORBITAL ENERGIES
----------------

  NO   OCC          E(Eh)            E(eV)
   0   2.0000     -91.889495     -2500.4403
   1   2.0000     -20.599728      -560.5471
   2   2.0000     -20.587777      -560.2219
   3   2.0000     -20.544379      -559.0410
   4   2.0000     -15.629916      -425.3116
   5   2.0000     -15.607550      -424.7030
   6   2.0000     -11.394673      -310.0648
   7   2.0000     -11.384109      -309.7774
   8   2.0000     -11.337829      -308.5180
   9   2.0000     -11.317287      -307.9590
  10   2.0000     -11.308100      -307.7090
  11   2.0000     -11.299168      -307.4660
  12   2.0000     -11.263654      -306.4996
  13   2.0000     -11.258561      -306.3610
  14   2.0000     -11.257915      -306.3434
  15   2.0000     -11.252317      -306.1911
  16   2.0000     -11.246863      -306.0427
  17   2.0000     -11.241986      -305.9100
  18   2.0000     -11.241567      -305.8986
  19   2.0000     -11.217727      -305.2499
  20   2.0000      -8.894562      -242.0333
  21   2.0000      -6.576133      -178.9457
  22   2.0000      -6.574137      -178.8914
  23   2.0000      -6.573544      -178.8752
  24   2.0000      -1.444720       -39.3128
  25   2.0000      -1.419408       -38.6241
  26   2.0000      -1.353917       -36.8420
  27   2.0000      -1.340990       -36.4902
  28   2.0000      -1.238938       -33.7132
  29   2.0000      -1.160401       -31.5761
  30   2.0000      -1.121351       -30.5135
  31   2.0000      -1.044793       -28.4303
  32   2.0000      -1.032333       -28.0912
  33   2.0000      -1.018266       -27.7084
  34   2.0000      -0.996491       -27.1159
  35   2.0000      -0.984855       -26.7993
  36   2.0000      -0.923074       -25.1181
  37   2.0000      -0.889191       -24.1961
  38   2.0000      -0.848000       -23.0752
  39   2.0000      -0.840559       -22.8728
  40   2.0000      -0.837127       -22.7794
  41   2.0000      -0.822692       -22.3866
  42   2.0000      -0.750660       -20.4265
  43   2.0000      -0.734577       -19.9889
  44   2.0000      -0.718940       -19.5633
  45   2.0000      -0.698055       -18.9951
  46   2.0000      -0.689128       -18.7521
  47   2.0000      -0.678909       -18.4741
  48   2.0000      -0.669448       -18.2166
  49   2.0000      -0.658309       -17.9135
  50   2.0000      -0.648284       -17.6407
  51   2.0000      -0.646079       -17.5807
  52   2.0000      -0.635967       -17.3055
  53   2.0000      -0.609882       -16.5957
  54   2.0000      -0.603910       -16.4332
  55   2.0000      -0.601198       -16.3594
  56   2.0000      -0.595763       -16.2115
  57   2.0000      -0.580466       -15.7953
  58   2.0000      -0.574985       -15.6461
  59   2.0000      -0.569838       -15.5061
  60   2.0000      -0.563518       -15.3341
  61   2.0000      -0.540937       -14.7196
  62   2.0000      -0.534847       -14.5539
  63   2.0000      -0.526245       -14.3199
  64   2.0000      -0.519836       -14.1455
  65   2.0000      -0.513639       -13.9768
  66   2.0000      -0.500852       -13.6289
  67   2.0000      -0.495401       -13.4806
  68   2.0000      -0.484337       -13.1795
  69   2.0000      -0.463939       -12.6244
  70   2.0000      -0.455499       -12.3948
  71   2.0000      -0.440015       -11.9734
  72   2.0000      -0.354161        -9.6372
  73   2.0000      -0.352031        -9.5793
  74   2.0000      -0.328978        -8.9519
  75   2.0000      -0.324493        -8.8299
  76   2.0000      -0.318828        -8.6757
  77   0.0000       0.073332         1.9955
  78   0.0000       0.101626         2.7654
  79   0.0000       0.124186         3.3793
  80   0.0000       0.131133         3.5683
  81   0.0000       0.134576         3.6620

MULLIKEN ATOMIC CHARGES
-----------------------
   0 C :   -0.272593
   1 C :    0.035158
   2 O :   -0.378627
   3 C :    0.464949
   4 O :   -0.422325
   5 C :   -0.257100
   6 C :    0.182585
   7 C :   -0.266180
   8 N :   -0.126365
   9 C :    0.212219
  10 S :   -0.441396
  11 N :   -0.217610
  12 C :    0.077013
  13 C :    0.010006
  14 C :   -0.164401
  15 C :   -0.133694
  16 C :   -0.277525
  17 C :    0.312666
  18 O :   -0.355998
  19 C :   -0.242130
  20 H :    0.109941
  21 H :    0.090854
  22 H :    0.100142
  23 H :    0.095683
  24 H :    0.100919
  25 H :    0.132427
  26 H :    0.130235
  27 H :    0.094804
  28 H :    0.199363
  29 H :    0.200745
  30 H :    0.151634
  31 H :    0.152791
  32 H :    0.162787
  33 H :    0.132507
  34 H :    0.241210
  35 H :    0.165303
Sum of atomic charges:    0.0000000

LOEWDIN ATOMIC CHARGES
----------------------
   0 C :    0.104180
   1 C :   -0.018248
   2 O :    0.291641
   3 C :   -0.413956
   4 O :    0.114216
   5 C :   -0.098916
   6 C :   -0.055331
   7 C :    0.131192
   8 N :    0.407377
   9 C :   -0.456164
  10 S :   -0.036045
  11 N :    0.394295
  12 C :   -0.054692
  13 C :   -0.039025
  14 C :    0.018305
  15 C :    0.039725
  16 C :   -0.001210
  17 C :   -0.190581
  18 O :    0.395741
  19 C :    0.031764
  20 H :   -0.028043
  21 H :   -0.030402
  22 H :   -0.024131
  23 H :   -0.030454
  24 H :   -0.024114
  25 H :   -0.004653
  26 H :   -0.004561
  27 H :   -0.023585
  28 H :   -0.057079
  29 H :   -0.064636
  30 H :   -0.012799
  31 H :   -0.028305
  32 H :   -0.020630
  33 H :   -0.034886
  34 H :   -0.153304
  35 H :   -0.022687

  Mayer bond orders larger than 0.100000
B(  0-C ,  1-C ) :   0.9840 B(  0-C , 20-H ) :   0.9726 B(  0-C , 21-H ) :   0.9766
B(  0-C , 22-H ) :   0.9756 B(  1-C ,  2-O ) :   0.8937 B(  1-C , 23-H ) :   0.9699
B(  1-C , 24-H ) :   0.9812 B(  2-O ,  3-C ) :   1.0884 B(  3-C ,  4-O ) :   1.9885
B(  3-C ,  5-C ) :   1.0838 B(  5-C ,  6-C ) :   1.6326 B(  5-C , 12-C ) :   0.9541
B(  6-C ,  7-C ) :   0.9650 B(  6-C ,  8-N ) :   1.1556 B(  7-C , 25-H ) :   0.9610
B(  7-C , 26-H ) :   0.9586 B(  7-C , 27-H ) :   0.9905 B(  8-N ,  9-C ) :   1.1862
B(  8-N , 28-H ) :   0.9462 B(  9-C , 10-S ) :   1.6055 B(  9-C , 11-N ) :   1.3105
B( 11-N , 12-C ) :   0.9643 B( 11-N , 29-H ) :   0.9484 B( 12-C , 13-C ) :   0.9635
B( 12-C , 30-H ) :   1.0000 B( 13-C , 14-C ) :   1.3532 B( 13-C , 19-C ) :   1.3808
B( 14-C , 15-C ) :   1.3928 B( 14-C , 31-H ) :   0.9734 B( 15-C , 16-C ) :   1.3599
B( 15-C , 32-H ) :   0.9703 B( 16-C , 17-C ) :   1.3327 B( 16-C , 33-H ) :   0.9843
B( 17-C , 18-O ) :   1.1066 B( 17-C , 19-C ) :   1.3647 B( 18-O , 34-H ) :   0.9792
B( 19-C , 35-H ) :   0.9590

MP2 TOTAL ENERGY:    -1274.331071568 Eh
FINAL SINGLE POINT ENERGY     -1274.331071567530

DIPOLE MOMENT
-------------
                                X             Y             Z
Electronic contribution:      9.84858       9.77695       8.92402
Nuclear contribution   :    -10.87933     -11.44337      -8.99800
                        -----------------------------------------
Total Dipole Moment    :     -1.03075      -1.66642      -0.07399
                        -----------------------------------------
Magnitude (a.u.)       :      1.96083
Magnitude (Debye)      :      4.98403

Rotational constants in cm-1:     0.011678     0.008596     0.005931
Rotational constants in MHz :   350.094473   257.701577   177.810467

                             ****ORCA TERMINATED NORMALLY****
TOTAL RUN TIME: 0 days 1 hours 42 minutes 4 seconds 505 msec
