                         Program Version 4.2.0 -  RELEASE  -
|  1> ! ri-mp2 cc-pvtz cc-pvtz/c TightSCF NoKeepInts
|  2>
|  3> %scf
|  4>   MaxCore 4096
|  5> end
|  6> *xyz  0  1
|  7>     C       13.9572552   15.5308188   15.4335966
|  8>     C       15.2531237   15.7450920   16.2324099
|  9>     O       16.3141232   15.9287230   15.2723343
| 10>     C       17.2264866   16.9525934   15.2950519
| 11>     O       18.0479914   17.0906460   14.4085267
| 12>     C       17.1332059   17.9091620   16.4341141
| 13>     C       16.8734680   19.2038129   16.1488156
| 14>     C       16.3049091   19.7093218   14.8410524
| 15>     N       17.1546118   20.2177721   17.0657732
| 16>     C       17.9180789   20.0383803   18.1897391
| 17>     S       18.3131272   21.2957859   19.1883920
| 18>     N       18.3585264   18.7596745   18.4350354
| 19>     C       17.9505545   17.5577697   17.6799760
| 20>     C       17.3690989   16.4420878   18.5332353
| 21>     C       17.8610994   15.1293342   18.4174224
| 22>     C       17.3103190   14.0916616   19.1878935
| 23>     C       16.2606338   14.3699062   20.0802529
| 24>     C       15.7708856   15.6778342   20.1987698
| 25>     O       14.7524653   15.9481293   21.0528034
| 26>     C       16.3195497   16.7087425   19.4292537
| 27>     H       13.1104151   15.3647846   16.1105894
| 28>     H       14.0490712   14.6560476   14.7774633
| 29>     H       13.7349381   16.4070194   14.8120035
| 30>     H       15.1082931   16.6151408   16.8831558
| 31>     H       15.4588992   14.8690856   16.8613313
| 32>     H       15.5049043   19.0521459   14.4778852
| 33>     H       17.0868014   19.7325093   14.0698930
| 34>     H       15.8865579   20.7193247   14.9268520
| 35>     H       16.8778780   21.1669726   16.8706712
| 36>     H       18.9148803   18.6574515   19.2748285
| 37>     H       18.9307059   17.2449581   17.2899716
| 38>     H       18.6676847   14.9105086   17.7212908
| 39>     H       17.6963867   13.0779033   19.0911801
| 40>     H       15.8322306   13.5707781   20.6767608
| 41>     H       14.5507107   15.1325970   21.5365466
| 42>     H       15.9271290   17.7155248   19.5331289
| 43> *
| 44>
| 45>                          ****END OF INPUT****

CARTESIAN COORDINATES (ANGSTROEM)
---------------------------------
  C     13.957255   15.530819   15.433597
  C     15.253124   15.745092   16.232410
  O     16.314123   15.928723   15.272334
  C     17.226487   16.952593   15.295052
  O     18.047991   17.090646   14.408527
  C     17.133206   17.909162   16.434114
  C     16.873468   19.203813   16.148816
  C     16.304909   19.709322   14.841052
  N     17.154612   20.217772   17.065773
  C     17.918079   20.038380   18.189739
  S     18.313127   21.295786   19.188392
  N     18.358526   18.759674   18.435035
  C     17.950554   17.557770   17.679976
  C     17.369099   16.442088   18.533235
  C     17.861099   15.129334   18.417422
  C     17.310319   14.091662   19.187893
  C     16.260634   14.369906   20.080253
  C     15.770886   15.677834   20.198770
  O     14.752465   15.948129   21.052803
  C     16.319550   16.708742   19.429254
  H     13.110415   15.364785   16.110589
  H     14.049071   14.656048   14.777463
  H     13.734938   16.407019   14.812003
  H     15.108293   16.615141   16.883156
  H     15.458899   14.869086   16.861331
  H     15.504904   19.052146   14.477885
  H     17.086801   19.732509   14.069893
  H     15.886558   20.719325   14.926852
  H     16.877878   21.166973   16.870671
  H     18.914880   18.657451   19.274829
  H     18.930706   17.244958   17.289972
  H     18.667685   14.910509   17.721291
  H     17.696387   13.077903   19.091180
  H     15.832231   13.570778   20.676761
  H     14.550711   15.132597   21.536547
  H     15.927129   17.715525   19.533129

 Total Charge           Charge          ....    0
 Multiplicity           Mult            ....    1
 Number of Electrons    NEL             ....  154
 Basis Dimension        Dim             ....  828

ORBITAL ENERGIES
----------------

  NO   OCC          E(Eh)            E(eV)
   0   2.0000     -91.889657     -2500.4447
   1   2.0000     -20.606108      -560.7207
   2   2.0000     -20.601619      -560.5985
   3   2.0000     -20.550501      -559.2076
   4   2.0000     -15.625968      -425.2042
   5   2.0000     -15.611050      -424.7983
   6   2.0000     -11.397160      -310.1325
   7   2.0000     -11.385424      -309.8131
   8   2.0000     -11.326497      -308.2096
   9   2.0000     -11.324733      -308.1617
  10   2.0000     -11.316880      -307.9480
  11   2.0000     -11.298678      -307.4527
  12   2.0000     -11.271314      -306.7080
  13   2.0000     -11.265805      -306.5582
  14   2.0000     -11.258279      -306.3534
  15   2.0000     -11.256365      -306.3013
  16   2.0000     -11.254443      -306.2490
  17   2.0000     -11.249288      -306.1087
  18   2.0000     -11.248722      -306.0933
  19   2.0000     -11.230914      -305.6087
  20   2.0000      -8.894743      -242.0383
  21   2.0000      -6.576321      -178.9508
  22   2.0000      -6.574315      -178.8962
  23   2.0000      -6.573730      -178.8803
  24   2.0000      -1.446446       -39.3598
  25   2.0000      -1.425857       -38.7995
  26   2.0000      -1.360953       -37.0334
  27   2.0000      -1.339094       -36.4386
  28   2.0000      -1.239281       -33.7225
  29   2.0000      -1.168072       -31.7849
  30   2.0000      -1.126672       -30.6583
  31   2.0000      -1.052715       -28.6458
  32   2.0000      -1.037456       -28.2306
  33   2.0000      -1.026135       -27.9226
  34   2.0000      -1.004144       -27.3241
  35   2.0000      -0.989789       -26.9335
  36   2.0000      -0.927830       -25.2475
  37   2.0000      -0.882284       -24.0082
  38   2.0000      -0.853221       -23.2173
  39   2.0000      -0.845119       -22.9969
  40   2.0000      -0.844481       -22.9795
  41   2.0000      -0.837871       -22.7996
  42   2.0000      -0.759755       -20.6740
  43   2.0000      -0.740465       -20.1491
  44   2.0000      -0.727316       -19.7913
  45   2.0000      -0.704602       -19.1732
  46   2.0000      -0.694123       -18.8881
  47   2.0000      -0.678225       -18.4554
  48   2.0000      -0.677540       -18.4368
  49   2.0000      -0.669538       -18.2191
  50   2.0000      -0.652165       -17.7463
  51   2.0000      -0.646225       -17.5847
  52   2.0000      -0.635450       -17.2915
  53   2.0000      -0.615538       -16.7496
  54   2.0000      -0.609853       -16.5949
  55   2.0000      -0.605832       -16.4855
  56   2.0000      -0.597603       -16.2616
  57   2.0000      -0.584640       -15.9089
  58   2.0000      -0.578407       -15.7393
  59   2.0000      -0.569146       -15.4873
  60   2.0000      -0.562523       -15.3070
  61   2.0000      -0.555637       -15.1197
  62   2.0000      -0.548405       -14.9229
  63   2.0000      -0.531610       -14.4659
  64   2.0000      -0.528786       -14.3890
  65   2.0000      -0.518168       -14.1001
  66   2.0000      -0.505212       -13.7475
  67   2.0000      -0.503841       -13.7102
  68   2.0000      -0.490059       -13.3352
  69   2.0000      -0.468887       -12.7591
  70   2.0000      -0.453983       -12.3535
  71   2.0000      -0.448748       -12.2111
  72   2.0000      -0.359164        -9.7734
  73   2.0000      -0.351712        -9.5706
  74   2.0000      -0.333523        -9.0756
  75   2.0000      -0.328622        -8.9423
  76   2.0000      -0.318976        -8.6798
  77   0.0000       0.086735         2.3602
  78   0.0000       0.094455         2.5702
  79   0.0000       0.117920         3.2088
  80   0.0000       0.125470         3.4142
  81   0.0000       0.129896         3.5346

MULLIKEN ATOMIC CHARGES
-----------------------
   0 C :   -0.256173
   1 C :    0.023846
   2 O :   -0.304471
   3 C :    0.404032
   4 O :   -0.382413
   5 C :   -0.227013
   6 C :    0.154695
   7 C :   -0.292613
   8 N :   -0.133988
   9 C :    0.214450
  10 S :   -0.441582
  11 N :   -0.218036
  12 C :    0.035292
  13 C :    0.001715
  14 C :   -0.197906
  15 C :   -0.141414
  16 C :   -0.269753
  17 C :    0.306888
  18 O :   -0.353182
  19 C :   -0.222469
  20 H :    0.090093
  21 H :    0.104915
  22 H :    0.089959
  23 H :    0.096550
  24 H :    0.112385
  25 H :    0.115090
  26 H :    0.145875
  27 H :    0.099122
  28 H :    0.197369
  29 H :    0.200510
  30 H :    0.165117
  31 H :    0.160131
  32 H :    0.166849
  33 H :    0.136021
  34 H :    0.242120
  35 H :    0.177988
Sum of atomic charges:   -0.0000000

LOEWDIN ATOMIC CHARGES
----------------------
   0 C :    0.107134
   1 C :   -0.021079
   2 O :    0.311160
   3 C :   -0.417890
   4 O :    0.122764
   5 C :   -0.094250
   6 C :   -0.089620
   7 C :    0.129568
   8 N :    0.403654
   9 C :   -0.453683
  10 S :   -0.037188
  11 N :    0.395219
  12 C :   -0.055093
  13 C :   -0.044040
  14 C :    0.017477
  15 C :    0.044209
  16 C :    0.001537
  17 C :   -0.190978
  18 O :    0.397463
  19 C :    0.033571
  20 H :   -0.025671
  21 H :   -0.024788
  22 H :   -0.029664
  23 H :   -0.039200
  24 H :   -0.026954
  25 H :   -0.010558
  26 H :   -0.003118
  27 H :   -0.019749
  28 H :   -0.058741
  29 H :   -0.064421
  30 H :   -0.007687
  31 H :   -0.025301
  32 H :   -0.017978
  33 H :   -0.033146
  34 H :   -0.151865
  35 H :   -0.021092

  Mayer bond orders larger than 0.100000
B(  0-C ,  1-C ) :   0.9788 B(  0-C , 20-H ) :   0.9771 B(  0-C , 21-H ) :   0.9806
B(  0-C , 22-H ) :   0.9784 B(  1-C ,  2-O ) :   0.8940 B(  1-C , 23-H ) :   0.9548
B(  1-C , 24-H ) :   0.9733 B(  2-O ,  3-C ) :   1.2099 B(  3-C ,  4-O ) :   2.1235
B(  3-C ,  5-C ) :   0.9124 B(  5-C ,  6-C ) :   1.7206 B(  5-C , 12-C ) :   0.9493
B(  6-C ,  7-C ) :   0.9363 B(  6-C ,  8-N ) :   1.1188 B(  7-C , 25-H ) :   0.9769
B(  7-C , 26-H ) :   0.9595 B(  7-C , 27-H ) :   0.9863 B(  8-N ,  9-C ) :   1.2006
B(  8-N , 28-H ) :   0.9490 B(  9-C , 10-S ) :   1.6117 B(  9-C , 11-N ) :   1.2848
B( 11-N , 12-C ) :   0.9818 B( 11-N , 29-H ) :   0.9469 B( 12-C , 13-C ) :   0.9632
B( 12-C , 30-H ) :   1.0020 B( 13-C , 14-C ) :   1.3686 B( 13-C , 19-C ) :   1.3481
B( 14-C , 15-C ) :   1.3976 B( 14-C , 31-H ) :   0.9707 B( 15-C , 16-C ) :   1.3632
B( 15-C , 32-H ) :   0.9694 B( 16-C , 17-C ) :   1.3268 B( 16-C , 33-H ) :   0.9830
B( 17-C , 18-O ) :   1.1130 B( 17-C , 19-C ) :   1.3655 B( 18-O , 34-H ) :   0.9783
B( 19-C , 35-H ) :   0.9561

MP2 TOTAL ENERGY:    -1274.326062710 Eh
FINAL SINGLE POINT ENERGY     -1274.326062710277

DIPOLE MOMENT
-------------
                                X             Y             Z
Electronic contribution:     10.45126       8.38125       7.24453
Nuclear contribution   :    -11.98267     -10.06605      -6.95251
                        -----------------------------------------
Total Dipole Moment    :     -1.53141      -1.68480       0.29202
                        -----------------------------------------
Magnitude (a.u.)       :      2.29544
Magnitude (Debye)      :      5.83454

Rotational constants in cm-1:     0.011788     0.008890     0.006202
Rotational constants in MHz :   353.397448   266.529201   185.931724

                             ****ORCA TERMINATED NORMALLY****
TOTAL RUN TIME: 0 days 1 hours 44 minutes 4 seconds 511 msec
