                         Program Version 4.2.0 -  RELEASE  -
|  1> ! ri-mp2 cc-pvtz cc-pvtz/c TightSCF NoKeepInts
|  2>
|  3> %scf
|  4>   MaxCore 4096
|  5> end
|  6> *xyz  0  1
|  7>     C       14.2152785   15.5631779   13.4801746
|  8>     C       14.9539578   15.2837950   14.7997756
|  9>     O       15.8086047   16.4094576   15.0590457
| 10>     C       16.7868586   16.2861521   16.0015378
| 11>     O       17.2715686   15.2059596   16.2957486
| 12>     C       17.1024513   17.5487262   16.7534048
| 13>     C       16.9892964   18.7841711   16.1966894
| 14>     C       16.3364183   19.1589107   14.8803832
| 15>     N       17.5487948   19.9016984   16.8216703
| 16>     C       18.4189940   19.8454322   17.8765683
| 17>     S       19.1301588   21.2046005   18.4949843
| 18>     N       18.6878360   18.5977710   18.3789562
| 19>     C       18.0063146   17.3519024   17.9775387
| 20>     C       17.3162225   16.6459470   19.1373561
| 21>     C       17.6209846   15.3081561   19.4467727
| 22>     C       16.9853165   14.6599116   20.5190264
| 23>     C       16.0379138   15.3560548   21.2892245
| 24>     C       15.7310626   16.6887882   20.9817883
| 25>     O       14.8138501   17.3620073   21.7212773
| 26>     C       16.3650565   17.3310382   19.9133760
| 27>     H       13.6088409   16.4737508   13.5610386
| 28>     H       13.5500179   14.7283523   13.2280992
| 29>     H       14.9295851   15.6931196   12.6575741
| 30>     H       14.2410680   15.1442107   15.6231964
| 31>     H       15.5449562   14.3641229   14.6880259
| 32>     H       16.7800405   18.5950237   14.0501726
| 33>     H       16.4444400   20.2231952   14.6383183
| 34>     H       15.2619324   18.9380034   14.9037832
| 35>     H       17.3785025   20.8223752   16.4499181
| 36>     H       19.3156876   18.5856699   19.1728312
| 37>     H       18.8660395   16.7646437   17.6232484
| 38>     H       18.3425954   14.7647761   18.8412621
| 39>     H       17.2244586   13.6223029   20.7448686
| 40>     H       15.5436771   14.8587642   22.1170827
| 41>     H       14.5107983   16.7641518   22.4209130
| 42>     H       16.1174210   18.3638797   19.6923691
| 43> *
| 44>
| 45>                          ****END OF INPUT****

CARTESIAN COORDINATES (ANGSTROEM)
---------------------------------
  C     14.215278   15.563178   13.480175
  C     14.953958   15.283795   14.799776
  O     15.808605   16.409458   15.059046
  C     16.786859   16.286152   16.001538
  O     17.271569   15.205960   16.295749
  C     17.102451   17.548726   16.753405
  C     16.989296   18.784171   16.196689
  C     16.336418   19.158911   14.880383
  N     17.548795   19.901698   16.821670
  C     18.418994   19.845432   17.876568
  S     19.130159   21.204600   18.494984
  N     18.687836   18.597771   18.378956
  C     18.006315   17.351902   17.977539
  C     17.316222   16.645947   19.137356
  C     17.620985   15.308156   19.446773
  C     16.985316   14.659912   20.519026
  C     16.037914   15.356055   21.289224
  C     15.731063   16.688788   20.981788
  O     14.813850   17.362007   21.721277
  C     16.365057   17.331038   19.913376
  H     13.608841   16.473751   13.561039
  H     13.550018   14.728352   13.228099
  H     14.929585   15.693120   12.657574
  H     14.241068   15.144211   15.623196
  H     15.544956   14.364123   14.688026
  H     16.780040   18.595024   14.050173
  H     16.444440   20.223195   14.638318
  H     15.261932   18.938003   14.903783
  H     17.378502   20.822375   16.449918
  H     19.315688   18.585670   19.172831
  H     18.866039   16.764644   17.623248
  H     18.342595   14.764776   18.841262
  H     17.224459   13.622303   20.744869
  H     15.543677   14.858764   22.117083
  H     14.510798   16.764152   22.420913
  H     16.117421   18.363880   19.692369

 Total Charge           Charge          ....    0
 Multiplicity           Mult            ....    1
 Number of Electrons    NEL             ....  154
 Basis Dimension        Dim             ....  828

ORBITAL ENERGIES
----------------

  NO   OCC          E(Eh)            E(eV)
   0   2.0000     -91.888010     -2500.3999
   1   2.0000     -20.601082      -560.5839
   2   2.0000     -20.591597      -560.3258
   3   2.0000     -20.546158      -559.0894
   4   2.0000     -15.628635      -425.2768
   5   2.0000     -15.605592      -424.6498
   6   2.0000     -11.394943      -310.0722
   7   2.0000     -11.382541      -309.7347
   8   2.0000     -11.338260      -308.5298
   9   2.0000     -11.307541      -307.6938
  10   2.0000     -11.304067      -307.5993
  11   2.0000     -11.299333      -307.4705
  12   2.0000     -11.260604      -306.4166
  13   2.0000     -11.259171      -306.3776
  14   2.0000     -11.254787      -306.2583
  15   2.0000     -11.247572      -306.0620
  16   2.0000     -11.237810      -305.7964
  17   2.0000     -11.234790      -305.7142
  18   2.0000     -11.233945      -305.6912
  19   2.0000     -11.230656      -305.6017
  20   2.0000      -8.893093      -241.9934
  21   2.0000      -6.574670      -178.9059
  22   2.0000      -6.572668      -178.8514
  23   2.0000      -6.572080      -178.8354
  24   2.0000      -1.454738       -39.5854
  25   2.0000      -1.411342       -38.4046
  26   2.0000      -1.357438       -36.9378
  27   2.0000      -1.339883       -36.4601
  28   2.0000      -1.236983       -33.6600
  29   2.0000      -1.152182       -31.3525
  30   2.0000      -1.120756       -30.4973
  31   2.0000      -1.044919       -28.4337
  32   2.0000      -1.036816       -28.2132
  33   2.0000      -1.009714       -27.4757
  34   2.0000      -0.998693       -27.1758
  35   2.0000      -0.983842       -26.7717
  36   2.0000      -0.920512       -25.0484
  37   2.0000      -0.887181       -24.1414
  38   2.0000      -0.847060       -23.0497
  39   2.0000      -0.834786       -22.7157
  40   2.0000      -0.827809       -22.5258
  41   2.0000      -0.819727       -22.3059
  42   2.0000      -0.761948       -20.7337
  43   2.0000      -0.736174       -20.0323
  44   2.0000      -0.725996       -19.7554
  45   2.0000      -0.689699       -18.7677
  46   2.0000      -0.684792       -18.6341
  47   2.0000      -0.680676       -18.5221
  48   2.0000      -0.675634       -18.3849
  49   2.0000      -0.655783       -17.8448
  50   2.0000      -0.651260       -17.7217
  51   2.0000      -0.640345       -17.4247
  52   2.0000      -0.632381       -17.2080
  53   2.0000      -0.607925       -16.5425
  54   2.0000      -0.603109       -16.4114
  55   2.0000      -0.598283       -16.2801
  56   2.0000      -0.594908       -16.1883
  57   2.0000      -0.577679       -15.7195
  58   2.0000      -0.572902       -15.5895
  59   2.0000      -0.562845       -15.3158
  60   2.0000      -0.562056       -15.2943
  61   2.0000      -0.547154       -14.8888
  62   2.0000      -0.543523       -14.7900
  63   2.0000      -0.525896       -14.3103
  64   2.0000      -0.515721       -14.0335
  65   2.0000      -0.508983       -13.8501
  66   2.0000      -0.503146       -13.6913
  67   2.0000      -0.493930       -13.4405
  68   2.0000      -0.481176       -13.0935
  69   2.0000      -0.463437       -12.6108
  70   2.0000      -0.462340       -12.5809
  71   2.0000      -0.451247       -12.2791
  72   2.0000      -0.353115        -9.6087
  73   2.0000      -0.344333        -9.3698
  74   2.0000      -0.327071        -8.9000
  75   2.0000      -0.317180        -8.6309
  76   2.0000      -0.314166        -8.5489
  77   0.0000       0.076278         2.0756
  78   0.0000       0.111686         3.0391
  79   0.0000       0.120708         3.2846
  80   0.0000       0.135554         3.6886
  81   0.0000       0.138269         3.7625

MULLIKEN ATOMIC CHARGES
-----------------------
   0 C :   -0.271329
   1 C :    0.036803
   2 O :   -0.343958
   3 C :    0.427903
   4 O :   -0.417370
   5 C :   -0.176814
   6 C :    0.155854
   7 C :   -0.284424
   8 N :   -0.128780
   9 C :    0.207642
  10 S :   -0.442345
  11 N :   -0.210641
  12 C :    0.041227
  13 C :    0.032220
  14 C :   -0.166900
  15 C :   -0.134307
  16 C :   -0.277213
  17 C :    0.313877
  18 O :   -0.359172
  19 C :   -0.251550
  20 H :    0.091894
  21 H :    0.097521
  22 H :    0.098104
  23 H :    0.088777
  24 H :    0.110873
  25 H :    0.125957
  26 H :    0.103441
  27 H :    0.128655
  28 H :    0.198823
  29 H :    0.199947
  30 H :    0.155349
  31 H :    0.158696
  32 H :    0.159889
  33 H :    0.128139
  34 H :    0.239911
  35 H :    0.163298
Sum of atomic charges:   -0.0000000

LOEWDIN ATOMIC CHARGES
----------------------
   0 C :    0.106864
   1 C :   -0.016247
   2 O :    0.304350
   3 C :   -0.415181
   4 O :    0.107252
   5 C :   -0.092388
   6 C :   -0.064347
   7 C :    0.125252
   8 N :    0.405493
   9 C :   -0.458599
  10 S :   -0.037602
  11 N :    0.396428
  12 C :   -0.048270
  13 C :   -0.040556
  14 C :    0.025148
  15 C :    0.041037
  16 C :   -0.001229
  17 C :   -0.192636
  18 O :    0.392987
  19 C :    0.029493
  20 H :   -0.029755
  21 H :   -0.023428
  22 H :   -0.025985
  23 H :   -0.030418
  24 H :   -0.027155
  25 H :   -0.009284
  26 H :   -0.021116
  27 H :   -0.009991
  28 H :   -0.058721
  29 H :   -0.063121
  30 H :   -0.008200
  31 H :   -0.023967
  32 H :   -0.021055
  33 H :   -0.036204
  34 H :   -0.154901
  35 H :   -0.023947

  Mayer bond orders larger than 0.100000
B(  0-C ,  1-C ) :   0.9730 B(  0-C , 20-H ) :   0.9789 B(  0-C , 21-H ) :   0.9775
B(  0-C , 22-H ) :   0.9773 B(  1-C ,  2-O ) :   0.9042 B(  1-C , 23-H ) :   0.9750
B(  1-C , 24-H ) :   0.9768 B(  2-O ,  3-C ) :   1.1335 B(  3-C ,  4-O ) :   1.9983
B(  3-C ,  5-C ) :   1.0389 B(  5-C ,  6-C ) :   1.6553 B(  5-C , 12-C ) :   0.9493
B(  6-C ,  7-C ) :   0.9544 B(  6-C ,  8-N ) :   1.1348 B(  7-C , 25-H ) :   0.9650
B(  7-C , 26-H ) :   0.9919 B(  7-C , 27-H ) :   0.9631 B(  8-N ,  9-C ) :   1.1851
B(  8-N , 28-H ) :   0.9469 B(  9-C , 10-S ) :   1.6083 B(  9-C , 11-N ) :   1.3065
B( 11-N , 12-C ) :   0.9762 B( 11-N , 29-H ) :   0.9485 B( 12-C , 13-C ) :   0.9735
B( 12-C , 30-H ) :   0.9970 B( 13-C , 14-C ) :   1.3769 B( 13-C , 19-C ) :   1.3654
B( 14-C , 15-C ) :   1.3975 B( 14-C , 31-H ) :   0.9638 B( 15-C , 16-C ) :   1.3587
B( 15-C , 32-H ) :   0.9712 B( 16-C , 17-C ) :   1.3333 B( 16-C , 33-H ) :   0.9860
B( 17-C , 18-O ) :   1.1034 B( 17-C , 19-C ) :   1.3677 B( 18-O , 34-H ) :   0.9807
B( 19-C , 35-H ) :   0.9603

MP2 TOTAL ENERGY:    -1274.338757932 Eh
FINAL SINGLE POINT ENERGY     -1274.338757931503

DIPOLE MOMENT
-------------
                                X             Y             Z
Electronic contribution:     10.65828       8.93213      12.46275
Nuclear contribution   :    -12.20165     -10.20521     -13.40387
                        -----------------------------------------
Total Dipole Moment    :     -1.54337      -1.27307      -0.94112
                        -----------------------------------------
Magnitude (a.u.)       :      2.21098
Magnitude (Debye)      :      5.61985

Rotational constants in cm-1:     0.009838     0.008793     0.005473
Rotational constants in MHz :   294.947278   263.597086   164.076318

                             ****ORCA TERMINATED NORMALLY****
TOTAL RUN TIME: 0 days 1 hours 37 minutes 2 seconds 974 msec
