                         Program Version 4.2.0 -  RELEASE  -
|  1> ! ri-mp2 cc-pvtz cc-pvtz/c TightSCF NoKeepInts
|  2>
|  3> %scf
|  4>   MaxCore 4096
|  5> end
|  6> *xyz  0  1
|  7>     C       14.5593124   15.6499572   16.0590204
|  8>     C       15.8114836   14.8738967   15.5907397
|  9>     O       17.0083312   15.6851277   15.5744634
| 10>     C       16.9439813   16.9942568   15.2033857
| 11>     O       16.6664912   17.2967542   14.0565897
| 12>     C       17.0807483   17.9548475   16.3572093
| 13>     C       16.9931326   19.2932721   16.1395733
| 14>     C       16.4294844   19.9905321   14.9182992
| 15>     N       17.4392915   20.2112114   17.0927947
| 16>     C       18.1990774   19.8843780   18.1823890
| 17>     S       18.8010887   21.0329798   19.2087336
| 18>     N       18.4568759   18.5499972   18.3658084
| 19>     C       17.8522353   17.4484185   17.5922266
| 20>     C       17.1119749   16.4599879   18.4838811
| 21>     C       17.5269158   15.1182611   18.5720209
| 22>     C       16.8476255   14.2141422   19.4057469
| 23>     C       15.7516637   14.6581398   20.1653743
| 24>     C       15.3465421   15.9980314   20.0918605
| 25>     O       14.2902765   16.4300593   20.8253306
| 26>     C       16.0240241   16.8951725   19.2601635
| 27>     H       14.7075575   16.0891885   17.0498098
| 28>     H       13.7001594   14.9713534   16.1221310
| 29>     H       14.2964127   16.4491657   15.3546024
| 30>     H       15.9719689   14.0057921   16.2429529
| 31>     H       15.6244191   14.4970862   14.5764076
| 32>     H       17.1198688   19.9005009   14.0696752
| 33>     H       16.2399026   21.0577355   15.0830705
| 34>     H       15.4774786   19.5360289   14.6159131
| 35>     H       17.2834792   21.1963757   16.9503689
| 36>     H       19.0009223   18.3365786   19.1924165
| 37>     H       18.7672912   16.9901304   17.1906834
| 38>     H       18.3728732   14.7736246   17.9826651
| 39>     H       17.1723291   13.1765302   19.4630734
| 40>     H       15.2243058   13.9637876   20.8113505
| 41>     H       13.9868886   15.6864526   21.3676721
| 42>     H       15.7005866   17.9302457   19.2195970
| 43> *
| 44>
| 45>                          ****END OF INPUT****

CARTESIAN COORDINATES (ANGSTROEM)
---------------------------------
  C     14.559312   15.649957   16.059020
  C     15.811484   14.873897   15.590740
  O     17.008331   15.685128   15.574463
  C     16.943981   16.994257   15.203386
  O     16.666491   17.296754   14.056590
  C     17.080748   17.954847   16.357209
  C     16.993133   19.293272   16.139573
  C     16.429484   19.990532   14.918299
  N     17.439291   20.211211   17.092795
  C     18.199077   19.884378   18.182389
  S     18.801089   21.032980   19.208734
  N     18.456876   18.549997   18.365808
  C     17.852235   17.448418   17.592227
  C     17.111975   16.459988   18.483881
  C     17.526916   15.118261   18.572021
  C     16.847625   14.214142   19.405747
  C     15.751664   14.658140   20.165374
  C     15.346542   15.998031   20.091860
  O     14.290276   16.430059   20.825331
  C     16.024024   16.895173   19.260163
  H     14.707558   16.089188   17.049810
  H     13.700159   14.971353   16.122131
  H     14.296413   16.449166   15.354602
  H     15.971969   14.005792   16.242953
  H     15.624419   14.497086   14.576408
  H     17.119869   19.900501   14.069675
  H     16.239903   21.057735   15.083070
  H     15.477479   19.536029   14.615913
  H     17.283479   21.196376   16.950369
  H     19.000922   18.336579   19.192416
  H     18.767291   16.990130   17.190683
  H     18.372873   14.773625   17.982665
  H     17.172329   13.176530   19.463073
  H     15.224306   13.963788   20.811350
  H     13.986889   15.686453   21.367672
  H     15.700587   17.930246   19.219597

 Total Charge           Charge          ....    0
 Multiplicity           Mult            ....    1
 Number of Electrons    NEL             ....  154
 Basis Dimension        Dim             ....  828

ORBITAL ENERGIES
----------------

  NO   OCC          E(Eh)            E(eV)
   0   2.0000     -91.891114     -2500.4843
   1   2.0000     -20.600133      -560.5581
   2   2.0000     -20.581162      -560.0419
   3   2.0000     -20.545938      -559.0834
   4   2.0000     -15.631162      -425.3456
   5   2.0000     -15.609023      -424.7431
   6   2.0000     -11.392768      -310.0130
   7   2.0000     -11.385292      -309.8096
   8   2.0000     -11.339349      -308.5594
   9   2.0000     -11.317588      -307.9672
  10   2.0000     -11.311205      -307.7935
  11   2.0000     -11.299763      -307.4822
  12   2.0000     -11.264573      -306.5246
  13   2.0000     -11.259394      -306.3837
  14   2.0000     -11.259016      -306.3734
  15   2.0000     -11.253409      -306.2208
  16   2.0000     -11.247834      -306.0691
  17   2.0000     -11.242688      -305.9291
  18   2.0000     -11.242083      -305.9126
  19   2.0000     -11.225816      -305.4700
  20   2.0000      -8.896158      -242.0768
  21   2.0000      -6.577723      -178.9889
  22   2.0000      -6.575733      -178.9348
  23   2.0000      -6.575133      -178.9185
  24   2.0000      -1.445514       -39.3344
  25   2.0000      -1.419913       -38.6378
  26   2.0000      -1.351071       -36.7645
  27   2.0000      -1.342811       -36.5397
  28   2.0000      -1.240800       -33.7639
  29   2.0000      -1.161000       -31.5924
  30   2.0000      -1.122304       -30.5394
  31   2.0000      -1.045746       -28.4562
  32   2.0000      -1.031713       -28.0743
  33   2.0000      -1.019036       -27.7294
  34   2.0000      -1.000049       -27.2127
  35   2.0000      -0.987579       -26.8734
  36   2.0000      -0.924479       -25.1563
  37   2.0000      -0.896744       -24.4016
  38   2.0000      -0.848885       -23.0993
  39   2.0000      -0.841917       -22.9097
  40   2.0000      -0.838211       -22.8089
  41   2.0000      -0.817655       -22.2495
  42   2.0000      -0.747225       -20.3330
  43   2.0000      -0.736363       -20.0375
  44   2.0000      -0.723013       -19.6742
  45   2.0000      -0.698404       -19.0045
  46   2.0000      -0.690372       -18.7860
  47   2.0000      -0.674319       -18.3492
  48   2.0000      -0.672240       -18.2926
  49   2.0000      -0.662669       -18.0321
  50   2.0000      -0.649752       -17.6806
  51   2.0000      -0.643516       -17.5110
  52   2.0000      -0.637486       -17.3469
  53   2.0000      -0.620470       -16.8838
  54   2.0000      -0.610292       -16.6069
  55   2.0000      -0.602977       -16.4078
  56   2.0000      -0.601433       -16.3658
  57   2.0000      -0.579789       -15.7769
  58   2.0000      -0.571214       -15.5435
  59   2.0000      -0.566531       -15.4161
  60   2.0000      -0.550228       -14.9725
  61   2.0000      -0.545163       -14.8346
  62   2.0000      -0.538821       -14.6621
  63   2.0000      -0.531005       -14.4494
  64   2.0000      -0.526105       -14.3161
  65   2.0000      -0.515202       -14.0193
  66   2.0000      -0.502027       -13.6608
  67   2.0000      -0.497746       -13.5444
  68   2.0000      -0.481194       -13.0940
  69   2.0000      -0.464646       -12.6437
  70   2.0000      -0.454393       -12.3647
  71   2.0000      -0.444703       -12.1010
  72   2.0000      -0.355473        -9.6729
  73   2.0000      -0.351721        -9.5708
  74   2.0000      -0.330149        -8.9838
  75   2.0000      -0.325250        -8.8505
  76   2.0000      -0.320731        -8.7275
  77   0.0000       0.070866         1.9284
  78   0.0000       0.100627         2.7382
  79   0.0000       0.121980         3.3192
  80   0.0000       0.129386         3.5208
  81   0.0000       0.133022         3.6197

MULLIKEN ATOMIC CHARGES
-----------------------
   0 C :   -0.334271
   1 C :    0.031102
   2 O :   -0.385240
   3 C :    0.469155
   4 O :   -0.408246
   5 C :   -0.237208
   6 C :    0.160111
   7 C :   -0.267352
   8 N :   -0.125510
   9 C :    0.205864
  10 S :   -0.437187
  11 N :   -0.211012
  12 C :    0.049206
  13 C :    0.016395
  14 C :   -0.181699
  15 C :   -0.137325
  16 C :   -0.272666
  17 C :    0.314146
  18 O :   -0.358581
  19 C :   -0.246795
  20 H :    0.117002
  21 H :    0.110837
  22 H :    0.111320
  23 H :    0.113899
  24 H :    0.121305
  25 H :    0.134686
  26 H :    0.094427
  27 H :    0.128309
  28 H :    0.200163
  29 H :    0.199810
  30 H :    0.153326
  31 H :    0.161990
  32 H :    0.166194
  33 H :    0.133463
  34 H :    0.240795
  35 H :    0.169589
Sum of atomic charges:   -0.0000000

LOEWDIN ATOMIC CHARGES
----------------------
   0 C :    0.106775
   1 C :   -0.014614
   2 O :    0.288278
   3 C :   -0.425686
   4 O :    0.113860
   5 C :   -0.101218
   6 C :   -0.054367
   7 C :    0.130992
   8 N :    0.407950
   9 C :   -0.458772
  10 S :   -0.033144
  11 N :    0.395469
  12 C :   -0.053125
  13 C :   -0.042239
  14 C :    0.021939
  15 C :    0.039342
  16 C :   -0.000883
  17 C :   -0.192066
  18 O :    0.396057
  19 C :    0.032654
  20 H :   -0.031286
  21 H :   -0.022824
  22 H :   -0.027472
  23 H :   -0.025503
  24 H :   -0.028130
  25 H :   -0.003992
  26 H :   -0.023286
  27 H :   -0.005828
  28 H :   -0.056689
  29 H :   -0.063495
  30 H :   -0.011555
  31 H :   -0.026430
  32 H :   -0.020427
  33 H :   -0.034646
  34 H :   -0.153251
  35 H :   -0.022390

  Mayer bond orders larger than 0.100000
B(  0-C ,  1-C ) :   0.9543 B(  0-C , 20-H ) :   0.9677 B(  0-C , 21-H ) :   0.9773
B(  0-C , 22-H ) :   0.9738 B(  1-C ,  2-O ) :   0.8900 B(  1-C , 23-H ) :   0.9779
B(  1-C , 24-H ) :   0.9871 B(  2-O ,  3-C ) :   1.1071 B(  3-C ,  4-O ) :   2.0271
B(  3-C ,  5-C ) :   1.0511 B(  5-C ,  6-C ) :   1.6344 B(  5-C , 12-C ) :   0.9573
B(  6-C ,  7-C ) :   0.9667 B(  6-C ,  8-N ) :   1.1497 B(  7-C , 25-H ) :   0.9555
B(  7-C , 26-H ) :   0.9888 B(  7-C , 27-H ) :   0.9654 B(  8-N ,  9-C ) :   1.1852
B(  8-N , 28-H ) :   0.9469 B(  9-C , 10-S ) :   1.6150 B(  9-C , 11-N ) :   1.3030
B( 11-N , 12-C ) :   0.9751 B( 11-N , 29-H ) :   0.9485 B( 12-C , 13-C ) :   0.9590
B( 12-C , 30-H ) :   1.0024 B( 13-C , 14-C ) :   1.3565 B( 13-C , 19-C ) :   1.3656
B( 14-C , 15-C ) :   1.3901 B( 14-C , 31-H ) :   0.9686 B( 15-C , 16-C ) :   1.3592
B( 15-C , 32-H ) :   0.9692 B( 16-C , 17-C ) :   1.3331 B( 16-C , 33-H ) :   0.9837
B( 17-C , 18-O ) :   1.1061 B( 17-C , 19-C ) :   1.3619 B( 18-O , 34-H ) :   0.9796
B( 19-C , 35-H ) :   0.9615

MP2 TOTAL ENERGY:    -1274.325520392 Eh
FINAL SINGLE POINT ENERGY     -1274.325520392154

DIPOLE MOMENT
-------------
                                X             Y             Z
Electronic contribution:      9.23300       8.70579       6.37517
Nuclear contribution   :    -10.34959     -10.35064      -6.34738
                        -----------------------------------------
Total Dipole Moment    :     -1.11659      -1.64484       0.02779
                        -----------------------------------------
Magnitude (a.u.)       :      1.98823
Magnitude (Debye)      :      5.05368

Rotational constants in cm-1:     0.012165     0.009102     0.006221
Rotational constants in MHz :   364.705544   272.878630   186.506735

                             ****ORCA TERMINATED NORMALLY****
TOTAL RUN TIME: 0 days 2 hours 7 minutes 33 seconds 462 msec
