                         Program Version 4.2.0 -  RELEASE  -
|  1> ! ri-mp2 cc-pvtz cc-pvtz/c TightSCF NoKeepInts
|  2>
|  3> %scf
|  4>   MaxCore 4096
|  5> end
|  6> *xyz  0  1
|  7>     C       15.5211033   14.3130162   13.9583182
|  8>     C       14.8752525   15.3830214   14.8648168
|  9>     O       15.8944757   16.2286521   15.4408284
| 10>     C       15.4915541   17.2367837   16.2760388
| 11>     O       14.3255410   17.4853388   16.5371880
| 12>     C       16.6252387   18.0583925   16.7892646
| 13>     C       16.7879602   19.3565401   16.4533306
| 14>     C       15.8939588   20.1510870   15.5239889
| 15>     N       17.8840833   20.0828228   16.9285663
| 16>     C       18.8945304   19.5482216   17.6903919
| 17>     S       20.1356532   20.4719082   18.2810933
| 18>     N       18.8243897   18.1988560   17.9463551
| 19>     C       17.7110617   17.3069747   17.5565405
| 20>     C       17.1552740   16.5754311   18.7651676
| 21>     C       17.7429352   15.3596464   19.1486526
| 22>     C       17.2683325   14.6627945   20.2691024
| 23>     C       16.1971155   15.1886245   21.0108277
| 24>     C       15.5946393   16.3914253   20.6190448
| 25>     O       14.5609328   16.8940745   21.3389901
| 26>     C       16.0695598   17.0857838   19.5033783
| 27>     H       16.1330455   14.7686824   13.1682524
| 28>     H       14.7517107   13.7032816   13.4636543
| 29>     H       16.1488777   13.6403966   14.5521701
| 30>     H       14.1413135   15.9711306   14.2990024
| 31>     H       14.3516084   14.8655562   15.6798059
| 32>     H       15.4753664   19.5165534   14.7313549
| 33>     H       16.4337183   20.9636651   15.0196521
| 34>     H       15.0572916   20.5928372   16.0768458
| 35>     H       17.9355966   21.0753188   16.7615075
| 36>     H       19.5513998   17.8473848   18.5599555
| 37>     H       18.1700171   16.5884184   16.8618837
| 38>     H       18.5741783   14.9577879   18.5756129
| 39>     H       17.7350485   13.7245546   20.5601843
| 40>     H       15.8379440   14.6631012   21.8881342
| 41>     H       14.4500293   16.3245869   22.1146798
| 42>     H       15.5862626   18.0173488   19.2234192
| 43> *
| 44>
| 45>                          ****END OF INPUT****

CARTESIAN COORDINATES (ANGSTROEM)
---------------------------------
  C     15.521103   14.313016   13.958318
  C     14.875252   15.383021   14.864817
  O     15.894476   16.228652   15.440828
  C     15.491554   17.236784   16.276039
  O     14.325541   17.485339   16.537188
  C     16.625239   18.058393   16.789265
  C     16.787960   19.356540   16.453331
  C     15.893959   20.151087   15.523989
  N     17.884083   20.082823   16.928566
  C     18.894530   19.548222   17.690392
  S     20.135653   20.471908   18.281093
  N     18.824390   18.198856   17.946355
  C     17.711062   17.306975   17.556541
  C     17.155274   16.575431   18.765168
  C     17.742935   15.359646   19.148653
  C     17.268332   14.662795   20.269102
  C     16.197115   15.188624   21.010828
  C     15.594639   16.391425   20.619045
  O     14.560933   16.894074   21.338990
  C     16.069560   17.085784   19.503378
  H     16.133046   14.768682   13.168252
  H     14.751711   13.703282   13.463654
  H     16.148878   13.640397   14.552170
  H     14.141313   15.971131   14.299002
  H     14.351608   14.865556   15.679806
  H     15.475366   19.516553   14.731355
  H     16.433718   20.963665   15.019652
  H     15.057292   20.592837   16.076846
  H     17.935597   21.075319   16.761508
  H     19.551400   17.847385   18.559956
  H     18.170017   16.588418   16.861884
  H     18.574178   14.957788   18.575613
  H     17.735049   13.724555   20.560184
  H     15.837944   14.663101   21.888134
  H     14.450029   16.324587   22.114680
  H     15.586263   18.017349   19.223419

 Total Charge           Charge          ....    0
 Multiplicity           Mult            ....    1
 Number of Electrons    NEL             ....  154
 Basis Dimension        Dim             ....  828

ORBITAL ENERGIES
----------------

  NO   OCC          E(Eh)            E(eV)
   0   2.0000     -91.884467     -2500.3035
   1   2.0000     -20.610598      -560.8429
   2   2.0000     -20.595018      -560.4189
   3   2.0000     -20.552595      -559.2645
   4   2.0000     -15.621196      -425.0743
   5   2.0000     -15.604802      -424.6283
   6   2.0000     -11.396695      -310.1198
   7   2.0000     -11.381218      -309.6987
   8   2.0000     -11.323788      -308.1359
   9   2.0000     -11.312745      -307.8354
  10   2.0000     -11.308610      -307.7229
  11   2.0000     -11.300077      -307.4907
  12   2.0000     -11.260372      -306.4103
  13   2.0000     -11.256166      -306.2958
  14   2.0000     -11.255960      -306.2902
  15   2.0000     -11.255276      -306.2716
  16   2.0000     -11.243623      -305.9545
  17   2.0000     -11.239700      -305.8478
  18   2.0000     -11.238474      -305.8144
  19   2.0000     -11.235760      -305.7406
  20   2.0000      -8.889505      -241.8957
  21   2.0000      -6.571089      -178.8084
  22   2.0000      -6.569077      -178.7537
  23   2.0000      -6.568510      -178.7382
  24   2.0000      -1.454659       -39.5833
  25   2.0000      -1.415154       -38.5083
  26   2.0000      -1.360321       -37.0162
  27   2.0000      -1.332195       -36.2509
  28   2.0000      -1.232867       -33.5480
  29   2.0000      -1.159397       -31.5488
  30   2.0000      -1.121256       -30.5109
  31   2.0000      -1.043879       -28.4054
  32   2.0000      -1.041495       -28.3405
  33   2.0000      -1.016343       -27.6561
  34   2.0000      -0.997479       -27.1428
  35   2.0000      -0.982250       -26.7284
  36   2.0000      -0.921157       -25.0659
  37   2.0000      -0.890067       -24.2199
  38   2.0000      -0.844755       -22.9869
  39   2.0000      -0.835549       -22.7364
  40   2.0000      -0.832655       -22.6577
  41   2.0000      -0.819211       -22.2919
  42   2.0000      -0.763022       -20.7629
  43   2.0000      -0.732665       -19.9368
  44   2.0000      -0.724943       -19.7267
  45   2.0000      -0.694994       -18.9117
  46   2.0000      -0.684020       -18.6131
  47   2.0000      -0.681818       -18.5532
  48   2.0000      -0.679424       -18.4881
  49   2.0000      -0.665225       -18.1017
  50   2.0000      -0.648498       -17.6465
  51   2.0000      -0.646363       -17.5884
  52   2.0000      -0.633368       -17.2348
  53   2.0000      -0.609083       -16.5740
  54   2.0000      -0.602823       -16.4036
  55   2.0000      -0.598031       -16.2732
  56   2.0000      -0.588442       -16.0123
  57   2.0000      -0.577746       -15.7213
  58   2.0000      -0.575393       -15.6572
  59   2.0000      -0.570802       -15.5323
  60   2.0000      -0.563598       -15.3363
  61   2.0000      -0.556174       -15.1343
  62   2.0000      -0.540275       -14.7016
  63   2.0000      -0.526438       -14.3251
  64   2.0000      -0.517609       -14.0849
  65   2.0000      -0.509548       -13.8655
  66   2.0000      -0.505105       -13.7446
  67   2.0000      -0.495935       -13.4951
  68   2.0000      -0.487536       -13.2665
  69   2.0000      -0.463675       -12.6173
  70   2.0000      -0.460822       -12.5396
  71   2.0000      -0.455594       -12.3973
  72   2.0000      -0.350304        -9.5323
  73   2.0000      -0.349250        -9.5036
  74   2.0000      -0.325183        -8.8487
  75   2.0000      -0.321285        -8.7426
  76   2.0000      -0.313770        -8.5381
  77   0.0000       0.093521         2.5448
  78   0.0000       0.109285         2.9738
  79   0.0000       0.120178         3.2702
  80   0.0000       0.129608         3.5268
  81   0.0000       0.134981         3.6730

MULLIKEN ATOMIC CHARGES
-----------------------
   0 C :   -0.261819
   1 C :    0.045123
   2 O :   -0.334968
   3 C :    0.370926
   4 O :   -0.408949
   5 C :   -0.128542
   6 C :    0.138861
   7 C :   -0.285122
   8 N :   -0.138464
   9 C :    0.231446
  10 S :   -0.452234
  11 N :   -0.226408
  12 C :    0.083145
  13 C :    0.029087
  14 C :   -0.210369
  15 C :   -0.127456
  16 C :   -0.273330
  17 C :    0.314037
  18 O :   -0.352275
  19 C :   -0.222642
  20 H :    0.095353
  21 H :    0.093890
  22 H :    0.097875
  23 H :    0.092073
  24 H :    0.089808
  25 H :    0.113176
  26 H :    0.101358
  27 H :    0.134043
  28 H :    0.195027
  29 H :    0.199622
  30 H :    0.148684
  31 H :    0.152020
  32 H :    0.159494
  33 H :    0.130194
  34 H :    0.239820
  35 H :    0.167514
Sum of atomic charges:   -0.0000000

LOEWDIN ATOMIC CHARGES
----------------------
   0 C :    0.110183
   1 C :   -0.012441
   2 O :    0.294062
   3 C :   -0.408935
   4 O :    0.112040
   5 C :   -0.081262
   6 C :   -0.088246
   7 C :    0.129652
   8 N :    0.400515
   9 C :   -0.446069
  10 S :   -0.046746
  11 N :    0.390240
  12 C :   -0.052250
  13 C :   -0.042994
  14 C :    0.007933
  15 C :    0.042016
  16 C :    0.003635
  17 C :   -0.187535
  18 O :    0.398235
  19 C :    0.043650
  20 H :   -0.027410
  21 H :   -0.021227
  22 H :   -0.027865
  23 H :   -0.030866
  24 H :   -0.028233
  25 H :   -0.008563
  26 H :   -0.017665
  27 H :   -0.008845
  28 H :   -0.058885
  29 H :   -0.065733
  30 H :   -0.011527
  31 H :   -0.029295
  32 H :   -0.020980
  33 H :   -0.035103
  34 H :   -0.154117
  35 H :   -0.019370

  Mayer bond orders larger than 0.100000
B(  0-C ,  1-C ) :   0.9714 B(  0-C , 20-H ) :   0.9760 B(  0-C , 21-H ) :   0.9771
B(  0-C , 22-H ) :   0.9786 B(  1-C ,  2-O ) :   0.9069 B(  1-C , 23-H ) :   0.9774
B(  1-C , 24-H ) :   0.9772 B(  2-O ,  3-C ) :   1.1967 B(  3-C ,  4-O ) :   1.9865
B(  3-C ,  5-C ) :   0.9349 B(  5-C ,  6-C ) :   1.7103 B(  5-C , 12-C ) :   0.9562
B(  6-C ,  7-C ) :   0.9484 B(  6-C ,  8-N ) :   1.1441 B(  7-C , 25-H ) :   0.9754
B(  7-C , 26-H ) :   0.9854 B(  7-C , 27-H ) :   0.9646 B(  8-N ,  9-C ) :   1.1962
B(  8-N , 28-H ) :   0.9517 B(  9-C , 10-S ) :   1.5871 B(  9-C , 11-N ) :   1.3039
B( 11-N , 12-C ) :   0.9595 B( 11-N , 29-H ) :   0.9468 B( 12-C , 13-C ) :   0.9739
B( 12-C , 30-H ) :   0.9899 B( 13-C , 14-C ) :   1.3527 B( 13-C , 19-C ) :   1.3726
B( 14-C , 15-C ) :   1.3988 B( 14-C , 31-H ) :   0.9719 B( 15-C , 16-C ) :   1.3659
B( 15-C , 32-H ) :   0.9707 B( 16-C , 17-C ) :   1.3288 B( 16-C , 33-H ) :   0.9858
B( 17-C , 18-O ) :   1.1075 B( 17-C , 19-C ) :   1.3643 B( 18-O , 34-H ) :   0.9801
B( 19-C , 35-H ) :   0.9584

MP2 TOTAL ENERGY:    -1274.340835347 Eh
FINAL SINGLE POINT ENERGY     -1274.340835347197

DIPOLE MOMENT
-------------
                                X             Y             Z
Electronic contribution:      7.69750      10.26696      10.78430
Nuclear contribution   :     -8.69994     -11.95236     -11.50157
                        -----------------------------------------
Total Dipole Moment    :     -1.00244      -1.68539      -0.71727
                        -----------------------------------------
Magnitude (a.u.)       :      2.08804
Magnitude (Debye)      :      5.30738

Rotational constants in cm-1:     0.010068     0.008620     0.005935
Rotational constants in MHz :   301.835607   258.421661   177.922631

                             ****ORCA TERMINATED NORMALLY****
TOTAL RUN TIME: 0 days 1 hours 36 minutes 0 seconds 222 msec
