                         Program Version 4.2.0 -  RELEASE  -
|  1> ! ri-mp2 cc-pvtz cc-pvtz/c TightSCF NoKeepInts
|  2>
|  3> %scf
|  4>   MaxCore 4096
|  5> end
|  6> *xyz  0  1
|  7>     C       15.5189247   14.0194074   14.8558000
|  8>     C       14.8451341   15.3629246   15.1811076
|  9>     O       15.8414191   16.2033407   15.7869362
| 10>     C       15.7159479   17.5627399   15.7217321
| 11>     O       14.9024586   18.1056771   14.9932689
| 12>     C       16.6441327   18.2745823   16.6698638
| 13>     C       16.8522803   19.6125084   16.5650699
| 14>     C       16.0554655   20.6023009   15.7403294
| 15>     N       17.9003530   20.2339047   17.2480268
| 16>     C       18.8999329   19.5676584   17.9036248
| 17>     S       20.1663758   20.3632793   18.6099360
| 18>     N       18.8087929   18.1990944   17.9259304
| 19>     C       17.6691944   17.4088968   17.4228435
| 20>     C       17.0621700   16.5104518   18.4926777
| 21>     C       17.2106058   15.1128842   18.4238824
| 22>     C       16.6508195   14.2863603   19.4126538
| 23>     C       15.9407467   14.8628586   20.4799114
| 24>     C       15.7957157   16.2553489   20.5525650
| 25>     O       15.1118153   16.8143901   21.5825392
| 26>     C       16.3536566   17.0752434   19.5666634
| 27>     H       14.8046080   13.3368543   14.3795571
| 28>     H       15.8912936   13.5432381   15.7713005
| 29>     H       16.3634159   14.1657659   14.1709204
| 30>     H       14.4749596   15.8021962   14.2444876
| 31>     H       13.9957454   15.2222270   15.8623676
| 32>     H       14.9847969   20.5204245   15.9677698
| 33>     H       16.1793692   20.4014151   14.6685649
| 34>     H       16.3470974   21.6440451   15.9183758
| 35>     H       17.9909279   21.2369011   17.2203214
| 36>     H       19.5435593   17.7365515   18.4461176
| 37>     H       18.1740596   16.8078849   16.6532651
| 38>     H       17.7543715   14.6666822   17.5955504
| 39>     H       16.7675338   13.2059157   19.3500064
| 40>     H       15.5068073   14.2289286   21.2461032
| 41>     H       14.8254843   16.0959035   22.1661140
| 42>     H       16.2370289   18.1512137   19.6418158
| 43> *
| 44>
| 45>                          ****END OF INPUT****

CARTESIAN COORDINATES (ANGSTROEM)
---------------------------------
  C     15.518925   14.019407   14.855800
  C     14.845134   15.362925   15.181108
  O     15.841419   16.203341   15.786936
  C     15.715948   17.562740   15.721732
  O     14.902459   18.105677   14.993269
  C     16.644133   18.274582   16.669864
  C     16.852280   19.612508   16.565070
  C     16.055466   20.602301   15.740329
  N     17.900353   20.233905   17.248027
  C     18.899933   19.567658   17.903625
  S     20.166376   20.363279   18.609936
  N     18.808793   18.199094   17.925930
  C     17.669194   17.408897   17.422843
  C     17.062170   16.510452   18.492678
  C     17.210606   15.112884   18.423882
  C     16.650820   14.286360   19.412654
  C     15.940747   14.862859   20.479911
  C     15.795716   16.255349   20.552565
  O     15.111815   16.814390   21.582539
  C     16.353657   17.075243   19.566663
  H     14.804608   13.336854   14.379557
  H     15.891294   13.543238   15.771301
  H     16.363416   14.165766   14.170920
  H     14.474960   15.802196   14.244488
  H     13.995745   15.222227   15.862368
  H     14.984797   20.520424   15.967770
  H     16.179369   20.401415   14.668565
  H     16.347097   21.644045   15.918376
  H     17.990928   21.236901   17.220321
  H     19.543559   17.736552   18.446118
  H     18.174060   16.807885   16.653265
  H     17.754372   14.666682   17.595550
  H     16.767534   13.205916   19.350006
  H     15.506807   14.228929   21.246103
  H     14.825484   16.095903   22.166114
  H     16.237029   18.151214   19.641816

 Total Charge           Charge          ....    0
 Multiplicity           Mult            ....    1
 Number of Electrons    NEL             ....  154
 Basis Dimension        Dim             ....  828

ORBITAL ENERGIES
----------------

  NO   OCC          E(Eh)            E(eV)
   0   2.0000     -91.888838     -2500.4224
   1   2.0000     -20.601261      -560.5888
   2   2.0000     -20.596100      -560.4484
   3   2.0000     -20.540983      -558.9486
   4   2.0000     -15.629143      -425.2906
   5   2.0000     -15.606993      -424.6879
   6   2.0000     -11.394586      -310.0625
   7   2.0000     -11.383470      -309.7600
   8   2.0000     -11.337320      -308.5042
   9   2.0000     -11.313252      -307.8492
  10   2.0000     -11.307558      -307.6943
  11   2.0000     -11.295519      -307.3667
  12   2.0000     -11.260411      -306.4114
  13   2.0000     -11.259164      -306.3774
  14   2.0000     -11.254770      -306.2579
  15   2.0000     -11.251470      -306.1681
  16   2.0000     -11.243217      -305.9435
  17   2.0000     -11.238622      -305.8184
  18   2.0000     -11.238386      -305.8120
  19   2.0000     -11.231149      -305.6151
  20   2.0000      -8.893908      -242.0155
  21   2.0000      -6.575480      -178.9279
  22   2.0000      -6.573482      -178.8735
  23   2.0000      -6.572891      -178.8575
  24   2.0000      -1.451781       -39.5050
  25   2.0000      -1.415767       -38.5250
  26   2.0000      -1.354443       -36.8563
  27   2.0000      -1.340333       -36.4723
  28   2.0000      -1.238221       -33.6937
  29   2.0000      -1.157248       -31.4903
  30   2.0000      -1.121042       -30.5051
  31   2.0000      -1.043343       -28.3908
  32   2.0000      -1.040372       -28.3100
  33   2.0000      -1.014712       -27.6117
  34   2.0000      -0.996368       -27.1125
  35   2.0000      -0.984674       -26.7943
  36   2.0000      -0.921662       -25.0797
  37   2.0000      -0.888443       -24.1758
  38   2.0000      -0.846172       -23.0255
  39   2.0000      -0.837546       -22.7908
  40   2.0000      -0.833817       -22.6893
  41   2.0000      -0.817347       -22.2411
  42   2.0000      -0.765601       -20.8330
  43   2.0000      -0.733199       -19.9514
  44   2.0000      -0.720551       -19.6072
  45   2.0000      -0.694878       -18.9086
  46   2.0000      -0.685600       -18.6561
  47   2.0000      -0.679209       -18.4822
  48   2.0000      -0.678305       -18.4576
  49   2.0000      -0.663019       -18.0417
  50   2.0000      -0.646730       -17.5984
  51   2.0000      -0.640983       -17.4420
  52   2.0000      -0.633724       -17.2445
  53   2.0000      -0.606493       -16.5035
  54   2.0000      -0.601275       -16.3615
  55   2.0000      -0.598904       -16.2970
  56   2.0000      -0.596916       -16.2429
  57   2.0000      -0.577225       -15.7071
  58   2.0000      -0.569567       -15.4987
  59   2.0000      -0.567842       -15.4518
  60   2.0000      -0.561647       -15.2832
  61   2.0000      -0.548151       -14.9159
  62   2.0000      -0.541402       -14.7323
  63   2.0000      -0.524189       -14.2639
  64   2.0000      -0.523748       -14.2519
  65   2.0000      -0.513047       -13.9607
  66   2.0000      -0.502359       -13.6699
  67   2.0000      -0.497164       -13.5285
  68   2.0000      -0.484276       -13.1778
  69   2.0000      -0.464143       -12.6300
  70   2.0000      -0.459109       -12.4930
  71   2.0000      -0.446744       -12.1565
  72   2.0000      -0.352985        -9.6052
  73   2.0000      -0.349477        -9.5098
  74   2.0000      -0.327967        -8.9244
  75   2.0000      -0.320605        -8.7241
  76   2.0000      -0.318023        -8.6539
  77   0.0000       0.077319         2.1039
  78   0.0000       0.104522         2.8442
  79   0.0000       0.124861         3.3977
  80   0.0000       0.132748         3.6123
  81   0.0000       0.136031         3.7016

MULLIKEN ATOMIC CHARGES
-----------------------
   0 C :   -0.272348
   1 C :    0.030342
   2 O :   -0.339682
   3 C :    0.436833
   4 O :   -0.435001
   5 C :   -0.223019
   6 C :    0.172205
   7 C :   -0.268819
   8 N :   -0.126398
   9 C :    0.209971
  10 S :   -0.441881
  11 N :   -0.214708
  12 C :    0.054475
  13 C :    0.045473
  14 C :   -0.180632
  15 C :   -0.133015
  16 C :   -0.275767
  17 C :    0.316206
  18 O :   -0.356892
  19 C :   -0.248781
  20 H :    0.097209
  21 H :    0.092209
  22 H :    0.096262
  23 H :    0.116149
  24 H :    0.092813
  25 H :    0.133784
  26 H :    0.128935
  27 H :    0.094400
  28 H :    0.199878
  29 H :    0.200475
  30 H :    0.152651
  31 H :    0.153792
  32 H :    0.160095
  33 H :    0.129777
  34 H :    0.240475
  35 H :    0.162535
Sum of atomic charges:   -0.0000000

LOEWDIN ATOMIC CHARGES
----------------------
   0 C :    0.105660
   1 C :   -0.013828
   2 O :    0.310776
   3 C :   -0.414146
   4 O :    0.095054
   5 C :   -0.095206
   6 C :   -0.056339
   7 C :    0.131094
   8 N :    0.407160
   9 C :   -0.456697
  10 S :   -0.036507
  11 N :    0.394683
  12 C :   -0.054838
  13 C :   -0.039409
  14 C :    0.016994
  15 C :    0.038514
  16 C :   -0.000430
  17 C :   -0.189610
  18 O :    0.394982
  19 C :    0.033486
  20 H :   -0.024473
  21 H :   -0.030449
  22 H :   -0.026725
  23 H :   -0.027517
  24 H :   -0.029582
  25 H :   -0.004132
  26 H :   -0.005125
  27 H :   -0.023698
  28 H :   -0.057138
  29 H :   -0.064311
  30 H :   -0.014024
  31 H :   -0.030252
  32 H :   -0.021687
  33 H :   -0.035472
  34 H :   -0.154064
  35 H :   -0.022741

  Mayer bond orders larger than 0.100000
B(  0-C ,  1-C ) :   0.9716 B(  0-C , 20-H ) :   0.9779 B(  0-C , 21-H ) :   0.9784
B(  0-C , 22-H ) :   0.9771 B(  1-C ,  2-O ) :   0.8977 B(  1-C , 23-H ) :   0.9782
B(  1-C , 24-H ) :   0.9761 B(  2-O ,  3-C ) :   1.1745 B(  3-C ,  4-O ) :   1.9675
B(  3-C ,  5-C ) :   1.0658 B(  5-C ,  6-C ) :   1.6424 B(  5-C , 12-C ) :   0.9561
B(  6-C ,  7-C ) :   0.9656 B(  6-C ,  8-N ) :   1.1529 B(  7-C , 25-H ) :   0.9612
B(  7-C , 26-H ) :   0.9588 B(  7-C , 27-H ) :   0.9904 B(  8-N ,  9-C ) :   1.1877
B(  8-N , 28-H ) :   0.9464 B(  9-C , 10-S ) :   1.6062 B(  9-C , 11-N ) :   1.3091
B( 11-N , 12-C ) :   0.9688 B( 11-N , 29-H ) :   0.9484 B( 12-C , 13-C ) :   0.9640
B( 12-C , 30-H ) :   1.0015 B( 13-C , 14-C ) :   1.3588 B( 13-C , 19-C ) :   1.3801
B( 14-C , 15-C ) :   1.3918 B( 14-C , 31-H ) :   0.9700 B( 15-C , 16-C ) :   1.3612
B( 15-C , 32-H ) :   0.9706 B( 16-C , 17-C ) :   1.3345 B( 16-C , 33-H ) :   0.9851
B( 17-C , 18-O ) :   1.1042 B( 17-C , 19-C ) :   1.3647 B( 18-O , 34-H ) :   0.9800
B( 19-C , 35-H ) :   0.9596

MP2 TOTAL ENERGY:    -1274.343867764 Eh
FINAL SINGLE POINT ENERGY     -1274.343867763946

DIPOLE MOMENT
-------------
                                X             Y             Z
Electronic contribution:      8.48336      11.02129       8.70557
Nuclear contribution   :     -9.67769     -12.63354      -9.04057
                        -----------------------------------------
Total Dipole Moment    :     -1.19433      -1.61225      -0.33500
                        -----------------------------------------
Magnitude (a.u.)       :      2.03421
Magnitude (Debye)      :      5.17054

Rotational constants in cm-1:     0.011070     0.008458     0.005902
Rotational constants in MHz :   331.875058   253.564556   176.934232

                             ****ORCA TERMINATED NORMALLY****
TOTAL RUN TIME: 0 days 1 hours 46 minutes 53 seconds 910 msec
