                         Program Version 4.2.0 -  RELEASE  -
|  1> ! ri-mp2 cc-pvtz cc-pvtz/c TightSCF NoKeepInts
|  2>
|  3> %scf
|  4>   MaxCore 4096
|  5> end
|  6> *xyz  0  1
|  7>     C       14.6970764   14.8532053   15.6046972
|  8>     C       14.7259978   16.3097322   15.0965111
|  9>     O       16.0506931   16.6642859   14.6524515
| 10>     C       17.0748471   16.5865621   15.5477872
| 11>     O       17.7818071   15.5975909   15.6277810
| 12>     C       17.1889448   17.7548768   16.4803911
| 13>     C       16.9689387   19.0320476   16.0758211
| 14>     C       16.3968033   19.4954692   14.7508802
| 15>     N       17.3368715   20.1084520   16.8866634
| 16>     C       18.1179616   20.0012214   18.0063347
| 17>     S       18.5996640   21.3309694   18.8633628
| 18>     N       18.4962860   18.7326837   18.3689897
| 19>     C       18.0131947   17.4865075   17.7423910
| 20>     C       17.3128554   16.5443090   18.7119881
| 21>     C       17.7000443   15.1954212   18.8036850
| 22>     C       17.0413664   14.3211237   19.6842240
| 23>     C       15.9860583   14.7999481   20.4794027
| 24>     C       15.5957398   16.1429788   20.3871595
| 25>     O       14.5715773   16.6061572   21.1470832
| 26>     C       16.2523785   17.0105543   19.5084544
| 27>     H       15.2677347   14.7443997   16.5362612
| 28>     H       15.1247437   14.1734932   14.8566419
| 29>     H       13.6662006   14.5371700   15.8046361
| 30>     H       14.0267914   16.4124038   14.2565935
| 31>     H       14.3965717   16.9855039   15.8971059
| 32>     H       16.9094813   19.0084476   13.9113475
| 33>     H       16.5027141   20.5768822   14.6000540
| 34>     H       15.3291610   19.2563907   14.6796825
| 35>     H       17.0900196   21.0479546   16.6189550
| 36>     H       19.0589877   18.6802150   19.2089004
| 37>     H       18.9633922   17.0526983   17.3972176
| 38>     H       18.5051344   14.8203812   18.1754666
| 39>     H       17.3467623   13.2778034   19.7425689
| 40>     H       15.4737028   14.1274568   21.1594013
| 41>     H       14.2803499   15.8779219   21.7163414
| 42>     H       15.9361464   18.0467812   19.4507671
| 43> *
| 44>
| 45>                          ****END OF INPUT****

CARTESIAN COORDINATES (ANGSTROEM)
---------------------------------
  C     14.697076   14.853205   15.604697
  C     14.725998   16.309732   15.096511
  O     16.050693   16.664286   14.652451
  C     17.074847   16.586562   15.547787
  O     17.781807   15.597591   15.627781
  C     17.188945   17.754877   16.480391
  C     16.968939   19.032048   16.075821
  C     16.396803   19.495469   14.750880
  N     17.336872   20.108452   16.886663
  C     18.117962   20.001221   18.006335
  S     18.599664   21.330969   18.863363
  N     18.496286   18.732684   18.368990
  C     18.013195   17.486507   17.742391
  C     17.312855   16.544309   18.711988
  C     17.700044   15.195421   18.803685
  C     17.041366   14.321124   19.684224
  C     15.986058   14.799948   20.479403
  C     15.595740   16.142979   20.387159
  O     14.571577   16.606157   21.147083
  C     16.252378   17.010554   19.508454
  H     15.267735   14.744400   16.536261
  H     15.124744   14.173493   14.856642
  H     13.666201   14.537170   15.804636
  H     14.026791   16.412404   14.256593
  H     14.396572   16.985504   15.897106
  H     16.909481   19.008448   13.911347
  H     16.502714   20.576882   14.600054
  H     15.329161   19.256391   14.679683
  H     17.090020   21.047955   16.618955
  H     19.058988   18.680215   19.208900
  H     18.963392   17.052698   17.397218
  H     18.505134   14.820381   18.175467
  H     17.346762   13.277803   19.742569
  H     15.473703   14.127457   21.159401
  H     14.280350   15.877922   21.716341
  H     15.936146   18.046781   19.450767

 Total Charge           Charge          ....    0
 Multiplicity           Mult            ....    1
 Number of Electrons    NEL             ....  154
 Basis Dimension        Dim             ....  828

ORBITAL ENERGIES
----------------

  NO   OCC          E(Eh)            E(eV)
   0   2.0000     -91.890104     -2500.4568
   1   2.0000     -20.596194      -560.4509
   2   2.0000     -20.588189      -560.2331
   3   2.0000     -20.552923      -559.2735
   4   2.0000     -15.630763      -425.3347
   5   2.0000     -15.607964      -424.7143
   6   2.0000     -11.394419      -310.0579
   7   2.0000     -11.385059      -309.8032
   8   2.0000     -11.339709      -308.5692
   9   2.0000     -11.312717      -307.8347
  10   2.0000     -11.307191      -307.6843
  11   2.0000     -11.306073      -307.6539
  12   2.0000     -11.262459      -306.4671
  13   2.0000     -11.260376      -306.4104
  14   2.0000     -11.259700      -306.3920
  15   2.0000     -11.252625      -306.1995
  16   2.0000     -11.242623      -305.9273
  17   2.0000     -11.238845      -305.8245
  18   2.0000     -11.235186      -305.7249
  19   2.0000     -11.226079      -305.4771
  20   2.0000      -8.895180      -242.0502
  21   2.0000      -6.576754      -178.9626
  22   2.0000      -6.574752      -178.9081
  23   2.0000      -6.574161      -178.8920
  24   2.0000      -1.450250       -39.4633
  25   2.0000      -1.415951       -38.5300
  26   2.0000      -1.359536       -36.9949
  27   2.0000      -1.341789       -36.5119
  28   2.0000      -1.239016       -33.7154
  29   2.0000      -1.157044       -31.4848
  30   2.0000      -1.123220       -30.5644
  31   2.0000      -1.045030       -28.4367
  32   2.0000      -1.032809       -28.1042
  33   2.0000      -1.014643       -27.6099
  34   2.0000      -1.002354       -27.2754
  35   2.0000      -0.987078       -26.8598
  36   2.0000      -0.924049       -25.1446
  37   2.0000      -0.890533       -24.2326
  38   2.0000      -0.851925       -23.1821
  39   2.0000      -0.839860       -22.8538
  40   2.0000      -0.832753       -22.6604
  41   2.0000      -0.828751       -22.5515
  42   2.0000      -0.746850       -20.3228
  43   2.0000      -0.731908       -19.9162
  44   2.0000      -0.729851       -19.8603
  45   2.0000      -0.693988       -18.8844
  46   2.0000      -0.685424       -18.6513
  47   2.0000      -0.681227       -18.5371
  48   2.0000      -0.677553       -18.4372
  49   2.0000      -0.666268       -18.1301
  50   2.0000      -0.650945       -17.7131
  51   2.0000      -0.645495       -17.5648
  52   2.0000      -0.636234       -17.3128
  53   2.0000      -0.613972       -16.7070
  54   2.0000      -0.606483       -16.5032
  55   2.0000      -0.602370       -16.3913
  56   2.0000      -0.599577       -16.3153
  57   2.0000      -0.578477       -15.7412
  58   2.0000      -0.574897       -15.6437
  59   2.0000      -0.567987       -15.4557
  60   2.0000      -0.556063       -15.1313
  61   2.0000      -0.553334       -15.0570
  62   2.0000      -0.540596       -14.7104
  63   2.0000      -0.528060       -14.3692
  64   2.0000      -0.519048       -14.1240
  65   2.0000      -0.512031       -13.9331
  66   2.0000      -0.498891       -13.5755
  67   2.0000      -0.491901       -13.3853
  68   2.0000      -0.484502       -13.1840
  69   2.0000      -0.466519       -12.6946
  70   2.0000      -0.460961       -12.5434
  71   2.0000      -0.449694       -12.2368
  72   2.0000      -0.355552        -9.6751
  73   2.0000      -0.348986        -9.4964
  74   2.0000      -0.329197        -8.9579
  75   2.0000      -0.319894        -8.7048
  76   2.0000      -0.319161        -8.6848
  77   0.0000       0.072705         1.9784
  78   0.0000       0.105431         2.8689
  79   0.0000       0.119655         3.2560
  80   0.0000       0.132303         3.6001
  81   0.0000       0.137965         3.7542

MULLIKEN ATOMIC CHARGES
-----------------------
   0 C :   -0.274691
   1 C :    0.015555
   2 O :   -0.370451
   3 C :    0.455503
   4 O :   -0.384887
   5 C :   -0.237627
   6 C :    0.171382
   7 C :   -0.288994
   8 N :   -0.128131
   9 C :    0.206582
  10 S :   -0.439652
  11 N :   -0.214192
  12 C :    0.055926
  13 C :    0.026409
  14 C :   -0.193104
  15 C :   -0.130566
  16 C :   -0.277991
  17 C :    0.313519
  18 O :   -0.358011
  19 C :   -0.252263
  20 H :    0.109693
  21 H :    0.109093
  22 H :    0.095716
  23 H :    0.113655
  24 H :    0.089072
  25 H :    0.134751
  26 H :    0.107423
  27 H :    0.120870
  28 H :    0.198468
  29 H :    0.199840
  30 H :    0.158445
  31 H :    0.167143
  32 H :    0.162854
  33 H :    0.130701
  34 H :    0.240761
  35 H :    0.167196
Sum of atomic charges:    0.0000000

LOEWDIN ATOMIC CHARGES
----------------------
   0 C :    0.109387
   1 C :   -0.025629
   2 O :    0.293266
   3 C :   -0.421474
   4 O :    0.128469
   5 C :   -0.097487
   6 C :   -0.067975
   7 C :    0.127169
   8 N :    0.405520
   9 C :   -0.457796
  10 S :   -0.035782
  11 N :    0.396087
  12 C :   -0.049218
  13 C :   -0.043025
  14 C :    0.023393
  15 C :    0.041505
  16 C :   -0.000864
  17 C :   -0.192829
  18 O :    0.393623
  19 C :    0.027887
  20 H :   -0.024819
  21 H :   -0.021016
  22 H :   -0.026994
  23 H :   -0.022552
  24 H :   -0.037702
  25 H :   -0.005877
  26 H :   -0.019319
  27 H :   -0.011804
  28 H :   -0.058206
  29 H :   -0.063458
  30 H :   -0.006852
  31 H :   -0.022697
  32 H :   -0.019893
  33 H :   -0.035386
  34 H :   -0.153947
  35 H :   -0.023703

  Mayer bond orders larger than 0.100000
B(  0-C ,  1-C ) :   0.9825 B(  0-C , 20-H ) :   0.9681 B(  0-C , 21-H ) :   0.9746
B(  0-C , 22-H ) :   0.9754 B(  1-C ,  2-O ) :   0.9027 B(  1-C , 23-H ) :   0.9776
B(  1-C , 24-H ) :   0.9702 B(  2-O ,  3-C ) :   1.0818 B(  3-C ,  4-O ) :   2.0607
B(  3-C ,  5-C ) :   0.9930 B(  5-C ,  6-C ) :   1.6658 B(  5-C , 12-C ) :   0.9525
B(  6-C ,  7-C ) :   0.9485 B(  6-C ,  8-N ) :   1.1398 B(  7-C , 25-H ) :   0.9649
B(  7-C , 26-H ) :   0.9886 B(  7-C , 27-H ) :   0.9677 B(  8-N ,  9-C ) :   1.1845
B(  8-N , 28-H ) :   0.9473 B(  9-C , 10-S ) :   1.6124 B(  9-C , 11-N ) :   1.3014
B( 11-N , 12-C ) :   0.9830 B( 11-N , 29-H ) :   0.9487 B( 12-C , 13-C ) :   0.9664
B( 12-C , 30-H ) :   0.9946 B( 13-C , 14-C ) :   1.3804 B( 13-C , 19-C ) :   1.3616
B( 14-C , 15-C ) :   1.3939 B( 14-C , 31-H ) :   0.9613 B( 15-C , 16-C ) :   1.3602
B( 15-C , 32-H ) :   0.9705 B( 16-C , 17-C ) :   1.3318 B( 16-C , 33-H ) :   0.9852
B( 17-C , 18-O ) :   1.1062 B( 17-C , 19-C ) :   1.3665 B( 18-O , 34-H ) :   0.9799
B( 19-C , 35-H ) :   0.9590

MP2 TOTAL ENERGY:    -1274.328510258 Eh
FINAL SINGLE POINT ENERGY     -1274.328510257676

DIPOLE MOMENT
-------------
                                X             Y             Z
Electronic contribution:      9.76880       9.43210       7.50916
Nuclear contribution   :    -11.36947     -10.47254      -8.07226
                        -----------------------------------------
Total Dipole Moment    :     -1.60067      -1.04044      -0.56310
                        -----------------------------------------
Magnitude (a.u.)       :      1.99041
Magnitude (Debye)      :      5.05923

Rotational constants in cm-1:     0.011233     0.009181     0.006154
Rotational constants in MHz :   336.764451   275.249204   184.481529

                             ****ORCA TERMINATED NORMALLY****
TOTAL RUN TIME: 0 days 2 hours 8 minutes 53 seconds 929 msec
