                         Program Version 4.2.0 -  RELEASE  -
|  1> ! ri-mp2 cc-pvtz cc-pvtz/c TightSCF NoKeepInts
|  2>
|  3> %scf
|  4>   MaxCore 4096
|  5> end
|  6> *xyz  0  1
|  7>     C       14.5610839   15.8834418   16.0727023
|  8>     C       15.7212546   14.9550405   15.6463167
|  9>     O       17.0070170   15.6166928   15.5940739
| 10>     C       17.0990724   16.9157911   15.1971415
| 11>     O       17.0331898   17.2043050   14.0160162
| 12>     C       17.1126365   17.8986217   16.3391704
| 13>     C       16.9849577   19.2270107   16.0864341
| 14>     C       16.4509683   19.8710320   14.8235425
| 15>     N       17.3435580   20.1824924   17.0393714
| 16>     C       18.0644165   19.9100224   18.1697490
| 17>     S       18.5686423   21.1033622   19.1976539
| 18>     N       18.3691223   18.5916068   18.3940008
| 19>     C       17.8439193   17.4493054   17.6207787
| 20>     C       17.1223233   16.4389387   18.5042585
| 21>     C       17.5507271   15.0997919   18.5645191
| 22>     C       16.8926221   14.1754539   19.3929858
| 23>     C       15.8047992   14.5962866   20.1769344
| 24>     C       15.3873153   15.9335704   20.1330644
| 25>     O       14.3393255   16.3436833   20.8905574
| 26>     C       16.0441989   16.8510019   19.3069917
| 27>     H       14.7405546   16.3315975   17.0533399
| 28>     H       13.6288758   15.3094756   16.1384414
| 29>     H       14.4020265   16.6858082   15.3413660
| 30>     H       15.7821528   14.1034948   16.3363224
| 31>     H       15.4912494   14.5556539   14.6496390
| 32>     H       17.2116920   19.8553048   14.0322537
| 33>     H       16.1427488   20.9125080   14.9731610
| 34>     H       15.5760615   19.3262096   14.4470555
| 35>     H       17.1563936   21.1572808   16.8663337
| 36>     H       18.8849273   18.4183913   19.2477655
| 37>     H       18.7954159   17.0262142   17.2682016
| 38>     H       18.3904094   14.7723191   17.9565378
| 39>     H       17.2274808   13.1400214   19.4271441
| 40>     H       15.2936871   13.8861637   20.8188269
| 41>     H       14.0514284   15.5884635   21.4252851
| 42>     H       15.7107463   17.8836421   19.2900638
| 43> *
| 44>
| 45>                          ****END OF INPUT****

CARTESIAN COORDINATES (ANGSTROEM)
---------------------------------
  C     14.561084   15.883442   16.072702
  C     15.721255   14.955040   15.646317
  O     17.007017   15.616693   15.594074
  C     17.099072   16.915791   15.197142
  O     17.033190   17.204305   14.016016
  C     17.112637   17.898622   16.339170
  C     16.984958   19.227011   16.086434
  C     16.450968   19.871032   14.823542
  N     17.343558   20.182492   17.039371
  C     18.064417   19.910022   18.169749
  S     18.568642   21.103362   19.197654
  N     18.369122   18.591607   18.394001
  C     17.843919   17.449305   17.620779
  C     17.122323   16.438939   18.504258
  C     17.550727   15.099792   18.564519
  C     16.892622   14.175454   19.392986
  C     15.804799   14.596287   20.176934
  C     15.387315   15.933570   20.133064
  O     14.339325   16.343683   20.890557
  C     16.044199   16.851002   19.306992
  H     14.740555   16.331598   17.053340
  H     13.628876   15.309476   16.138441
  H     14.402026   16.685808   15.341366
  H     15.782153   14.103495   16.336322
  H     15.491249   14.555654   14.649639
  H     17.211692   19.855305   14.032254
  H     16.142749   20.912508   14.973161
  H     15.576061   19.326210   14.447055
  H     17.156394   21.157281   16.866334
  H     18.884927   18.418391   19.247765
  H     18.795416   17.026214   17.268202
  H     18.390409   14.772319   17.956538
  H     17.227481   13.140021   19.427144
  H     15.293687   13.886164   20.818827
  H     14.051428   15.588463   21.425285
  H     15.710746   17.883642   19.290064

 Total Charge           Charge          ....    0
 Multiplicity           Mult            ....    1
 Number of Electrons    NEL             ....  154
 Basis Dimension        Dim             ....  828

ORBITAL ENERGIES
----------------

  NO   OCC          E(Eh)            E(eV)
   0   2.0000     -91.891225     -2500.4874
   1   2.0000     -20.600306      -560.5628
   2   2.0000     -20.579678      -560.0015
   3   2.0000     -20.549005      -559.1669
   4   2.0000     -15.630673      -425.3322
   5   2.0000     -15.609410      -424.7536
   6   2.0000     -11.392922      -310.0172
   7   2.0000     -11.385462      -309.8142
   8   2.0000     -11.337991      -308.5224
   9   2.0000     -11.317715      -307.9707
  10   2.0000     -11.312473      -307.8280
  11   2.0000     -11.301397      -307.5266
  12   2.0000     -11.265080      -306.5384
  13   2.0000     -11.258891      -306.3700
  14   2.0000     -11.258782      -306.3670
  15   2.0000     -11.253919      -306.2347
  16   2.0000     -11.247976      -306.0730
  17   2.0000     -11.243074      -305.9396
  18   2.0000     -11.242105      -305.9132
  19   2.0000     -11.228117      -305.5326
  20   2.0000      -8.896271      -242.0798
  21   2.0000      -6.577836      -178.9920
  22   2.0000      -6.575845      -178.9379
  23   2.0000      -6.575246      -178.9215
  24   2.0000      -1.445493       -39.3339
  25   2.0000      -1.420104       -38.6430
  26   2.0000      -1.352319       -36.7985
  27   2.0000      -1.342631       -36.5349
  28   2.0000      -1.240886       -33.7662
  29   2.0000      -1.161075       -31.5945
  30   2.0000      -1.122334       -30.5402
  31   2.0000      -1.046024       -28.4638
  32   2.0000      -1.032385       -28.0926
  33   2.0000      -1.019226       -27.7346
  34   2.0000      -1.001133       -27.2422
  35   2.0000      -0.988026       -26.8856
  36   2.0000      -0.924749       -25.1637
  37   2.0000      -0.897547       -24.4235
  38   2.0000      -0.849048       -23.1038
  39   2.0000      -0.842142       -22.9158
  40   2.0000      -0.838370       -22.8132
  41   2.0000      -0.818753       -22.2794
  42   2.0000      -0.747430       -20.3386
  43   2.0000      -0.736598       -20.0438
  44   2.0000      -0.723589       -19.6899
  45   2.0000      -0.698392       -19.0042
  46   2.0000      -0.690091       -18.7783
  47   2.0000      -0.674542       -18.3552
  48   2.0000      -0.672352       -18.2956
  49   2.0000      -0.663518       -18.0552
  50   2.0000      -0.650618       -17.7042
  51   2.0000      -0.645252       -17.5582
  52   2.0000      -0.637931       -17.3590
  53   2.0000      -0.620248       -16.8778
  54   2.0000      -0.610331       -16.6079
  55   2.0000      -0.603114       -16.4116
  56   2.0000      -0.601364       -16.3639
  57   2.0000      -0.579729       -15.7752
  58   2.0000      -0.572534       -15.5794
  59   2.0000      -0.566172       -15.4063
  60   2.0000      -0.552099       -15.0234
  61   2.0000      -0.546961       -14.8836
  62   2.0000      -0.542454       -14.7609
  63   2.0000      -0.529997       -14.4219
  64   2.0000      -0.525877       -14.3098
  65   2.0000      -0.515229       -14.0201
  66   2.0000      -0.502398       -13.6710
  67   2.0000      -0.497321       -13.5328
  68   2.0000      -0.480869       -13.0851
  69   2.0000      -0.465198       -12.6587
  70   2.0000      -0.454900       -12.3785
  71   2.0000      -0.446277       -12.1438
  72   2.0000      -0.356315        -9.6958
  73   2.0000      -0.350440        -9.5360
  74   2.0000      -0.330224        -8.9858
  75   2.0000      -0.325206        -8.8493
  76   2.0000      -0.320974        -8.7341
  77   0.0000       0.071531         1.9465
  78   0.0000       0.100565         2.7365
  79   0.0000       0.121220         3.2986
  80   0.0000       0.129125         3.5137
  81   0.0000       0.131929         3.5900

MULLIKEN ATOMIC CHARGES
-----------------------
   0 C :   -0.333395
   1 C :    0.034258
   2 O :   -0.382327
   3 C :    0.457292
   4 O :   -0.394031
   5 C :   -0.236060
   6 C :    0.158689
   7 C :   -0.269977
   8 N :   -0.126495
   9 C :    0.205837
  10 S :   -0.436913
  11 N :   -0.212030
  12 C :    0.050016
  13 C :    0.022966
  14 C :   -0.187463
  15 C :   -0.139351
  16 C :   -0.273436
  17 C :    0.315739
  18 O :   -0.357752
  19 C :   -0.249720
  20 H :    0.118837
  21 H :    0.113926
  22 H :    0.104992
  23 H :    0.114534
  24 H :    0.119675
  25 H :    0.136906
  26 H :    0.094628
  27 H :    0.125062
  28 H :    0.199692
  29 H :    0.200081
  30 H :    0.151763
  31 H :    0.160025
  32 H :    0.166771
  33 H :    0.133608
  34 H :    0.240838
  35 H :    0.172812
Sum of atomic charges:    0.0000000

LOEWDIN ATOMIC CHARGES
----------------------
   0 C :    0.106318
   1 C :   -0.013772
   2 O :    0.287517
   3 C :   -0.427688
   4 O :    0.120508
   5 C :   -0.100590
   6 C :   -0.057544
   7 C :    0.130308
   8 N :    0.407732
   9 C :   -0.458687
  10 S :   -0.033063
  11 N :    0.395529
  12 C :   -0.052460
  13 C :   -0.042320
  14 C :    0.022623
  15 C :    0.039372
  16 C :   -0.001102
  17 C :   -0.192508
  18 O :    0.395902
  19 C :    0.032269
  20 H :   -0.032484
  21 H :   -0.022065
  22 H :   -0.028778
  23 H :   -0.024528
  24 H :   -0.027845
  25 H :   -0.004058
  26 H :   -0.022915
  27 H :   -0.007338
  28 H :   -0.056715
  29 H :   -0.063399
  30 H :   -0.011553
  31 H :   -0.026207
  32 H :   -0.020233
  33 H :   -0.034619
  34 H :   -0.153224
  35 H :   -0.022384

  Mayer bond orders larger than 0.100000
B(  0-C ,  1-C ) :   0.9569 B(  0-C , 20-H ) :   0.9674 B(  0-C , 21-H ) :   0.9768
B(  0-C , 22-H ) :   0.9738 B(  1-C ,  2-O ) :   0.8901 B(  1-C , 23-H ) :   0.9771
B(  1-C , 24-H ) :   0.9871 B(  2-O ,  3-C ) :   1.1072 B(  3-C ,  4-O ) :   2.0554
B(  3-C ,  5-C ) :   1.0294 B(  5-C ,  6-C ) :   1.6409 B(  5-C , 12-C ) :   0.9586
B(  6-C ,  7-C ) :   0.9642 B(  6-C ,  8-N ) :   1.1461 B(  7-C , 25-H ) :   0.9550
B(  7-C , 26-H ) :   0.9876 B(  7-C , 27-H ) :   0.9683 B(  8-N ,  9-C ) :   1.1866
B(  8-N , 28-H ) :   0.9475 B(  9-C , 10-S ) :   1.6159 B(  9-C , 11-N ) :   1.2996
B( 11-N , 12-C ) :   0.9779 B( 11-N , 29-H ) :   0.9480 B( 12-C , 13-C ) :   0.9613
B( 12-C , 30-H ) :   1.0020 B( 13-C , 14-C ) :   1.3567 B( 13-C , 19-C ) :   1.3580
B( 14-C , 15-C ) :   1.3945 B( 14-C , 31-H ) :   0.9691 B( 15-C , 16-C ) :   1.3565
B( 15-C , 32-H ) :   0.9693 B( 16-C , 17-C ) :   1.3335 B( 16-C , 33-H ) :   0.9837
B( 17-C , 18-O ) :   1.1071 B( 17-C , 19-C ) :   1.3612 B( 18-O , 34-H ) :   0.9796
B( 19-C , 35-H ) :   0.9607

MP2 TOTAL ENERGY:    -1274.320984333 Eh
FINAL SINGLE POINT ENERGY     -1274.320984333120

DIPOLE MOMENT
-------------
                                X             Y             Z
Electronic contribution:      9.20078       8.16153       6.40947
Nuclear contribution   :    -10.40576      -9.78988      -6.37267
                        -----------------------------------------
Total Dipole Moment    :     -1.20498      -1.62835       0.03679
                        -----------------------------------------
Magnitude (a.u.)       :      2.02605
Magnitude (Debye)      :      5.14980

Rotational constants in cm-1:     0.012120     0.009207     0.006236
Rotational constants in MHz :   363.351213   276.013995   186.949388

                             ****ORCA TERMINATED NORMALLY****
TOTAL RUN TIME: 0 days 2 hours 9 minutes 14 seconds 786 msec
