                         Program Version 4.2.0 -  RELEASE  -
|  1> ! ri-mp2 cc-pvtz cc-pvtz/c TightSCF NoKeepInts
|  2>
|  3> %scf
|  4>   MaxCore 4096
|  5> end
|  6> *xyz  0  1
|  7>     C       14.2374393   16.1131930   15.2251537
|  8>     C       15.3484066   15.5059874   16.1023173
|  9>     O       16.6154984   15.6790083   15.4333926
| 10>     C       17.2173865   16.8997594   15.2884986
| 11>     O       17.8243026   17.1821193   14.2721025
| 12>     C       17.0834533   17.8465031   16.4401133
| 13>     C       16.8566995   19.1538951   16.1681629
| 14>     C       16.3393535   19.7173775   14.8615107
| 15>     N       17.1232187   20.1494707   17.1092252
| 16>     C       17.8608464   19.9497646   18.2453388
| 17>     S       18.2540396   21.1911783   19.2645234
| 18>     N       18.2818009   18.6644086   18.4816141
| 19>     C       17.8622294   17.4749095   17.7139784
| 20>     C       17.2786301   16.3680236   18.5786596
| 21>     C       17.7481607   15.0472729   18.4576911
| 22>     C       17.2019924   14.0212484   19.2466948
| 23>     C       16.1820425   14.3193883   20.1665654
| 24>     C       15.7165890   15.6353928   20.2930977
| 25>     O       14.7284805   15.9252375   21.1759733
| 26>     C       16.2596849   16.6545944   19.5042113
| 27>     H       14.3218491   17.2046702   15.1778342
| 28>     H       13.2505922   15.8692462   15.6371805
| 29>     H       14.2890978   15.7142942   14.2039589
| 30>     H       15.3218065   15.9704948   17.0910617
| 31>     H       15.1570655   14.4327327   16.2307358
| 32>     H       15.6984702   18.9995681   14.3362493
| 33>     H       17.1773274   19.9503607   14.1912846
| 34>     H       15.7527443   20.6324991   15.0059403
| 35>     H       16.8636652   21.1044046   16.9186122
| 36>     H       18.8195905   18.5454768   19.3312792
| 37>     H       18.8467638   17.1530670   17.3436733
| 38>     H       18.5317127   14.8129670   17.7407562
| 39>     H       17.5694231   13.0012995   19.1436432
| 40>     H       15.7579822   13.5295692   20.7782812
| 41>     H       14.5232666   15.1130906   21.6637206
| 42>     H       15.8853878   17.6675267   19.6149640
| 43> *
| 44>
| 45>                          ****END OF INPUT****

CARTESIAN COORDINATES (ANGSTROEM)
---------------------------------
  C     14.237439   16.113193   15.225154
  C     15.348407   15.505987   16.102317
  O     16.615498   15.679008   15.433393
  C     17.217386   16.899759   15.288499
  O     17.824303   17.182119   14.272103
  C     17.083453   17.846503   16.440113
  C     16.856700   19.153895   16.168163
  C     16.339354   19.717378   14.861511
  N     17.123219   20.149471   17.109225
  C     17.860846   19.949765   18.245339
  S     18.254040   21.191178   19.264523
  N     18.281801   18.664409   18.481614
  C     17.862229   17.474909   17.713978
  C     17.278630   16.368024   18.578660
  C     17.748161   15.047273   18.457691
  C     17.201992   14.021248   19.246695
  C     16.182043   14.319388   20.166565
  C     15.716589   15.635393   20.293098
  O     14.728480   15.925237   21.175973
  C     16.259685   16.654594   19.504211
  H     14.321849   17.204670   15.177834
  H     13.250592   15.869246   15.637180
  H     14.289098   15.714294   14.203959
  H     15.321806   15.970495   17.091062
  H     15.157065   14.432733   16.230736
  H     15.698470   18.999568   14.336249
  H     17.177327   19.950361   14.191285
  H     15.752744   20.632499   15.005940
  H     16.863665   21.104405   16.918612
  H     18.819591   18.545477   19.331279
  H     18.846764   17.153067   17.343673
  H     18.531713   14.812967   17.740756
  H     17.569423   13.001300   19.143643
  H     15.757982   13.529569   20.778281
  H     14.523267   15.113091   21.663721
  H     15.885388   17.667527   19.614964

 Total Charge           Charge          ....    0
 Multiplicity           Mult            ....    1
 Number of Electrons    NEL             ....  154
 Basis Dimension        Dim             ....  828

ORBITAL ENERGIES
----------------

  NO   OCC          E(Eh)            E(eV)
   0   2.0000     -91.890708     -2500.4733
   1   2.0000     -20.604042      -560.6645
   2   2.0000     -20.595113      -560.4215
   3   2.0000     -20.551537      -559.2358
   4   2.0000     -15.627726      -425.2520
   5   2.0000     -15.611160      -424.8013
   6   2.0000     -11.395750      -310.0941
   7   2.0000     -11.385920      -309.8266
   8   2.0000     -11.331329      -308.3411
   9   2.0000     -11.322450      -308.0995
  10   2.0000     -11.317046      -307.9525
  11   2.0000     -11.299825      -307.4839
  12   2.0000     -11.269577      -306.6608
  13   2.0000     -11.263447      -306.4940
  14   2.0000     -11.258168      -306.3503
  15   2.0000     -11.256913      -306.3162
  16   2.0000     -11.252082      -306.1847
  17   2.0000     -11.246996      -306.0463
  18   2.0000     -11.246585      -306.0351
  19   2.0000     -11.232123      -305.6416
  20   2.0000      -8.895775      -242.0663
  21   2.0000      -6.577346      -178.9787
  22   2.0000      -6.575347      -178.9243
  23   2.0000      -6.574755      -178.9082
  24   2.0000      -1.446323       -39.3564
  25   2.0000      -1.423807       -38.7438
  26   2.0000      -1.359401       -36.9912
  27   2.0000      -1.341038       -36.4915
  28   2.0000      -1.240673       -33.7604
  29   2.0000      -1.165704       -31.7204
  30   2.0000      -1.124909       -30.6103
  31   2.0000      -1.050475       -28.5849
  32   2.0000      -1.035774       -28.1848
  33   2.0000      -1.023811       -27.8593
  34   2.0000      -1.003590       -27.3091
  35   2.0000      -0.989647       -26.9297
  36   2.0000      -0.927155       -25.2292
  37   2.0000      -0.892445       -24.2847
  38   2.0000      -0.851738       -23.1770
  39   2.0000      -0.844356       -22.9761
  40   2.0000      -0.842342       -22.9213
  41   2.0000      -0.833502       -22.6807
  42   2.0000      -0.755616       -20.5614
  43   2.0000      -0.738893       -20.1063
  44   2.0000      -0.720025       -19.5929
  45   2.0000      -0.702329       -19.1114
  46   2.0000      -0.692638       -18.8476
  47   2.0000      -0.680043       -18.5049
  48   2.0000      -0.677221       -18.4281
  49   2.0000      -0.667633       -18.1672
  50   2.0000      -0.650246       -17.6941
  51   2.0000      -0.648374       -17.6431
  52   2.0000      -0.634021       -17.2526
  53   2.0000      -0.619313       -16.8524
  54   2.0000      -0.612997       -16.6805
  55   2.0000      -0.607024       -16.5180
  56   2.0000      -0.603786       -16.4299
  57   2.0000      -0.583655       -15.8821
  58   2.0000      -0.578261       -15.7353
  59   2.0000      -0.567161       -15.4332
  60   2.0000      -0.558260       -15.1910
  61   2.0000      -0.549669       -14.9572
  62   2.0000      -0.548055       -14.9133
  63   2.0000      -0.532502       -14.4901
  64   2.0000      -0.527850       -14.3635
  65   2.0000      -0.517863       -14.0918
  66   2.0000      -0.505985       -13.7686
  67   2.0000      -0.502908       -13.6848
  68   2.0000      -0.485037       -13.1985
  69   2.0000      -0.466688       -12.6992
  70   2.0000      -0.454734       -12.3739
  71   2.0000      -0.450062       -12.2468
  72   2.0000      -0.358204        -9.7472
  73   2.0000      -0.352327        -9.5873
  74   2.0000      -0.330987        -9.0066
  75   2.0000      -0.329067        -8.9544
  76   2.0000      -0.320891        -8.7319
  77   0.0000       0.082981         2.2580
  78   0.0000       0.096786         2.6337
  79   0.0000       0.121620         3.3095
  80   0.0000       0.127320         3.4645
  81   0.0000       0.128404         3.4940

MULLIKEN ATOMIC CHARGES
-----------------------
   0 C :   -0.294078
   1 C :    0.030694
   2 O :   -0.333965
   3 C :    0.409230
   4 O :   -0.370863
   5 C :   -0.212518
   6 C :    0.147669
   7 C :   -0.288563
   8 N :   -0.133298
   9 C :    0.211674
  10 S :   -0.439295
  11 N :   -0.217348
  12 C :    0.028173
  13 C :    0.005182
  14 C :   -0.180438
  15 C :   -0.138085
  16 C :   -0.271772
  17 C :    0.307773
  18 O :   -0.353916
  19 C :   -0.233902
  20 H :    0.085751
  21 H :    0.103248
  22 H :    0.113785
  23 H :    0.103856
  24 H :    0.122964
  25 H :    0.116275
  26 H :    0.145998
  27 H :    0.100524
  28 H :    0.198442
  29 H :    0.201730
  30 H :    0.160019
  31 H :    0.156440
  32 H :    0.165814
  33 H :    0.135283
  34 H :    0.241597
  35 H :    0.175921
Sum of atomic charges:    0.0000000

LOEWDIN ATOMIC CHARGES
----------------------
   0 C :    0.104793
   1 C :   -0.020279
   2 O :    0.303014
   3 C :   -0.423433
   4 O :    0.127535
   5 C :   -0.097939
   6 C :   -0.077117
   7 C :    0.128979
   8 N :    0.405872
   9 C :   -0.456000
  10 S :   -0.034884
  11 N :    0.395726
  12 C :   -0.053701
  13 C :   -0.046236
  14 C :    0.021453
  15 C :    0.044643
  16 C :    0.001445
  17 C :   -0.191688
  18 O :    0.397029
  19 C :    0.029760
  20 H :   -0.034576
  21 H :   -0.024464
  22 H :   -0.022760
  23 H :   -0.038374
  24 H :   -0.020699
  25 H :   -0.012590
  26 H :   -0.003648
  27 H :   -0.020405
  28 H :   -0.056946
  29 H :   -0.063615
  30 H :   -0.009652
  31 H :   -0.025636
  32 H :   -0.018267
  33 H :   -0.033602
  34 H :   -0.152306
  35 H :   -0.021435

  Mayer bond orders larger than 0.100000
B(  0-C ,  1-C ) :   0.9757 B(  0-C , 20-H ) :   0.9761 B(  0-C , 21-H ) :   0.9774
B(  0-C , 22-H ) :   0.9762 B(  1-C ,  2-O ) :   0.8852 B(  1-C , 23-H ) :   0.9569
B(  1-C , 24-H ) :   0.9806 B(  2-O ,  3-C ) :   1.1591 B(  3-C ,  4-O ) :   2.1215
B(  3-C ,  5-C ) :   0.9269 B(  5-C ,  6-C ) :   1.6869 B(  5-C , 12-C ) :   0.9577
B(  6-C ,  7-C ) :   0.9522 B(  6-C ,  8-N ) :   1.1315 B(  7-C , 25-H ) :   0.9769
B(  7-C , 26-H ) :   0.9559 B(  7-C , 27-H ) :   0.9828 B(  8-N ,  9-C ) :   1.1967
B(  8-N , 28-H ) :   0.9494 B(  9-C , 10-S ) :   1.6139 B(  9-C , 11-N ) :   1.2881
B( 11-N , 12-C ) :   0.9808 B( 11-N , 29-H ) :   0.9461 B( 12-C , 13-C ) :   0.9649
B( 12-C , 30-H ) :   1.0041 B( 13-C , 14-C ) :   1.3782 B( 13-C , 19-C ) :   1.3500
B( 14-C , 15-C ) :   1.3949 B( 14-C , 31-H ) :   0.9697 B( 15-C , 16-C ) :   1.3615
B( 15-C , 32-H ) :   0.9693 B( 16-C , 17-C ) :   1.3316 B( 16-C , 33-H ) :   0.9831
B( 17-C , 18-O ) :   1.1113 B( 17-C , 19-C ) :   1.3617 B( 18-O , 34-H ) :   0.9788
B( 19-C , 35-H ) :   0.9570

MP2 TOTAL ENERGY:    -1274.324161196 Eh
FINAL SINGLE POINT ENERGY     -1274.324161196347

DIPOLE MOMENT
-------------
                                X             Y             Z
Electronic contribution:      9.80096       7.02181       8.01331
Nuclear contribution   :    -11.27408      -8.68867      -7.82875
                        -----------------------------------------
Total Dipole Moment    :     -1.47312      -1.66686       0.18457
                        -----------------------------------------
Magnitude (a.u.)       :      2.23217
Magnitude (Debye)      :      5.67373

Rotational constants in cm-1:     0.011648     0.009149     0.006177
Rotational constants in MHz :   349.209939   274.292866   185.194551

                             ****ORCA TERMINATED NORMALLY****
TOTAL RUN TIME: 0 days 1 hours 47 minutes 51 seconds 66 msec
