                         Program Version 4.2.0 -  RELEASE  -
|  1> ! ri-mp2 cc-pvtz cc-pvtz/c TightSCF NoKeepInts
|  2>
|  3> %scf
|  4>   MaxCore 4096
|  5> end
|  6> *xyz  0  1
|  7>     C       14.4824189   16.5334332   16.1940166
|  8>     C       15.0515386   16.0307553   14.8481242
|  9>     O       16.4994651   15.9762722   14.7144606
| 10>     C       17.5147885   16.4608415   15.5083904
| 11>     O       18.6140125   15.9392634   15.4710181
| 12>     C       17.2249539   17.5672343   16.4669409
| 13>     C       16.8595914   18.7803231   15.9845332
| 14>     C       16.4594008   19.1094109   14.5593467
| 15>     N       16.9017478   19.9161593   16.7953317
| 16>     C       17.5452068   19.9719680   18.0034532
| 17>     S       17.6668342   21.3802558   18.8615858
| 18>     N       18.1080769   18.8019377   18.4508897
| 19>     C       17.9220212   17.4766417   17.8262157
| 20>     C       17.3242057   16.4146871   18.7369735
| 21>     C       17.8299026   15.1026070   18.7167103
| 22>     C       17.2711894   14.1091195   19.5378300
| 23>     C       16.1957349   14.4301876   20.3837902
| 24>     C       15.6861971   15.7358325   20.4016305
| 25>     O       14.6411758   16.0458978   21.2093689
| 26>     C       16.2440774   16.7230635   19.5829471
| 27>     H       14.9867361   16.0525838   17.0409733
| 28>     H       13.4200505   16.2688951   16.2620480
| 29>     H       14.5387794   17.6206473   16.2992530
| 30>     H       14.6675593   15.0165221   14.6767179
| 31>     H       14.6439148   16.6558773   14.0434786
| 32>     H       16.9513581   18.4518040   13.8317858
| 33>     H       16.7447323   20.1333468   14.2862742
| 34>     H       15.3760219   19.0181319   14.4210456
| 35>     H       16.5273080   20.7899481   16.4607757
| 36>     H       18.5769062   18.8683816   19.3457057
| 37>     H       18.9701765   17.2266305   17.6035331
| 38>     H       18.6548348   14.8511264   18.0527614
| 39>     H       17.6701253   13.0963835   19.5128563
| 40>     H       15.7603297   13.6651894   21.0181882
| 41>     H       14.4244210   15.2523790   21.7217750
| 42>     H       15.8312066   17.7262620   19.6072711
| 43> *
| 44>
| 45>                          ****END OF INPUT****

CARTESIAN COORDINATES (ANGSTROEM)
---------------------------------
  C     14.482419   16.533433   16.194017
  C     15.051539   16.030755   14.848124
  O     16.499465   15.976272   14.714461
  C     17.514788   16.460842   15.508390
  O     18.614013   15.939263   15.471018
  C     17.224954   17.567234   16.466941
  C     16.859591   18.780323   15.984533
  C     16.459401   19.109411   14.559347
  N     16.901748   19.916159   16.795332
  C     17.545207   19.971968   18.003453
  S     17.666834   21.380256   18.861586
  N     18.108077   18.801938   18.450890
  C     17.922021   17.476642   17.826216
  C     17.324206   16.414687   18.736974
  C     17.829903   15.102607   18.716710
  C     17.271189   14.109119   19.537830
  C     16.195735   14.430188   20.383790
  C     15.686197   15.735833   20.401630
  O     14.641176   16.045898   21.209369
  C     16.244077   16.723063   19.582947
  H     14.986736   16.052584   17.040973
  H     13.420051   16.268895   16.262048
  H     14.538779   17.620647   16.299253
  H     14.667559   15.016522   14.676718
  H     14.643915   16.655877   14.043479
  H     16.951358   18.451804   13.831786
  H     16.744732   20.133347   14.286274
  H     15.376022   19.018132   14.421046
  H     16.527308   20.789948   16.460776
  H     18.576906   18.868382   19.345706
  H     18.970177   17.226630   17.603533
  H     18.654835   14.851126   18.052761
  H     17.670125   13.096383   19.512856
  H     15.760330   13.665189   21.018188
  H     14.424421   15.252379   21.721775
  H     15.831207   17.726262   19.607271

 Total Charge           Charge          ....    0
 Multiplicity           Mult            ....    1
 Number of Electrons    NEL             ....  154
 Basis Dimension        Dim             ....  828

ORBITAL ENERGIES
----------------

  NO   OCC          E(Eh)            E(eV)
   0   2.0000     -91.889690     -2500.4456
   1   2.0000     -20.598985      -560.5269
   2   2.0000     -20.598595      -560.5163
   3   2.0000     -20.546893      -559.1094
   4   2.0000     -15.628084      -425.2618
   5   2.0000     -15.609131      -424.7460
   6   2.0000     -11.400383      -310.2202
   7   2.0000     -11.385346      -309.8110
   8   2.0000     -11.332135      -308.3631
   9   2.0000     -11.316227      -307.9302
  10   2.0000     -11.314467      -307.8823
  11   2.0000     -11.309154      -307.7377
  12   2.0000     -11.266960      -306.5896
  13   2.0000     -11.263846      -306.5048
  14   2.0000     -11.261989      -306.4543
  15   2.0000     -11.256618      -306.3081
  16   2.0000     -11.245359      -306.0018
  17   2.0000     -11.241121      -305.8865
  18   2.0000     -11.238383      -305.8119
  19   2.0000     -11.237907      -305.7990
  20   2.0000      -8.894792      -242.0396
  21   2.0000      -6.576373      -178.9522
  22   2.0000      -6.574362      -178.8975
  23   2.0000      -6.573779      -178.8816
  24   2.0000      -1.441708       -39.2309
  25   2.0000      -1.418727       -38.6055
  26   2.0000      -1.355541       -36.8862
  27   2.0000      -1.340722       -36.4829
  28   2.0000      -1.238913       -33.7125
  29   2.0000      -1.160420       -31.5766
  30   2.0000      -1.125768       -30.6337
  31   2.0000      -1.047778       -28.5115
  32   2.0000      -1.041737       -28.3471
  33   2.0000      -1.018453       -27.7135
  34   2.0000      -1.005852       -27.3706
  35   2.0000      -0.990435       -26.9511
  36   2.0000      -0.926751       -25.2182
  37   2.0000      -0.902677       -24.5631
  38   2.0000      -0.852695       -23.2030
  39   2.0000      -0.841266       -22.8920
  40   2.0000      -0.835865       -22.7450
  41   2.0000      -0.827322       -22.5126
  42   2.0000      -0.745367       -20.2825
  43   2.0000      -0.734343       -19.9825
  44   2.0000      -0.730973       -19.8908
  45   2.0000      -0.695802       -18.9337
  46   2.0000      -0.687065       -18.6960
  47   2.0000      -0.678099       -18.4520
  48   2.0000      -0.673313       -18.3218
  49   2.0000      -0.662939       -18.0395
  50   2.0000      -0.659806       -17.9542
  51   2.0000      -0.650783       -17.7087
  52   2.0000      -0.640280       -17.4229
  53   2.0000      -0.615257       -16.7420
  54   2.0000      -0.606915       -16.5150
  55   2.0000      -0.605164       -16.4673
  56   2.0000      -0.602386       -16.3918
  57   2.0000      -0.590002       -16.0548
  58   2.0000      -0.577083       -15.7032
  59   2.0000      -0.572342       -15.5742
  60   2.0000      -0.563826       -15.3425
  61   2.0000      -0.557326       -15.1656
  62   2.0000      -0.545138       -14.8340
  63   2.0000      -0.531359       -14.4590
  64   2.0000      -0.522096       -14.2069
  65   2.0000      -0.513448       -13.9716
  66   2.0000      -0.500983       -13.6324
  67   2.0000      -0.498030       -13.5521
  68   2.0000      -0.485153       -13.2017
  69   2.0000      -0.467723       -12.7274
  70   2.0000      -0.455331       -12.3902
  71   2.0000      -0.448950       -12.2166
  72   2.0000      -0.354679        -9.6513
  73   2.0000      -0.349615        -9.5135
  74   2.0000      -0.329157        -8.9568
  75   2.0000      -0.324055        -8.8180
  76   2.0000      -0.319241        -8.6870
  77   0.0000       0.084026         2.2865
  78   0.0000       0.105644         2.8747
  79   0.0000       0.115298         3.1374
  80   0.0000       0.127691         3.4746
  81   0.0000       0.130514         3.5515

MULLIKEN ATOMIC CHARGES
-----------------------
   0 C :   -0.336151
   1 C :    0.042773
   2 O :   -0.338597
   3 C :    0.437651
   4 O :   -0.383818
   5 C :   -0.221060
   6 C :    0.138356
   7 C :   -0.327800
   8 N :   -0.141703
   9 C :    0.208661
  10 S :   -0.442884
  11 N :   -0.226465
  12 C :    0.080674
  13 C :    0.010960
  14 C :   -0.217888
  15 C :   -0.130522
  16 C :   -0.277036
  17 C :    0.321010
  18 O :   -0.356780
  19 C :   -0.260594
  20 H :    0.128032
  21 H :    0.123124
  22 H :    0.106837
  23 H :    0.126027
  24 H :    0.089755
  25 H :    0.140564
  26 H :    0.125597
  27 H :    0.117945
  28 H :    0.198623
  29 H :    0.203936
  30 H :    0.168452
  31 H :    0.179398
  32 H :    0.164462
  33 H :    0.132136
  34 H :    0.241178
  35 H :    0.175148
Sum of atomic charges:    0.0000000

LOEWDIN ATOMIC CHARGES
----------------------
   0 C :    0.102602
   1 C :   -0.012291
   2 O :    0.290823
   3 C :   -0.417642
   4 O :    0.118397
   5 C :   -0.083621
   6 C :   -0.087773
   7 C :    0.128052
   8 N :    0.403087
   9 C :   -0.457044
  10 S :   -0.038278
  11 N :    0.396640
  12 C :   -0.048074
  13 C :   -0.044441
  14 C :    0.019684
  15 C :    0.044624
  16 C :   -0.000591
  17 C :   -0.192206
  18 O :    0.395274
  19 C :    0.027809
  20 H :   -0.022564
  21 H :   -0.021273
  22 H :   -0.034511
  23 H :   -0.019588
  24 H :   -0.032826
  25 H :   -0.005874
  26 H :   -0.012654
  27 H :   -0.018346
  28 H :   -0.058266
  29 H :   -0.063580
  30 H :   -0.004012
  31 H :   -0.020977
  32 H :   -0.018558
  33 H :   -0.034935
  34 H :   -0.153375
  35 H :   -0.023689

  Mayer bond orders larger than 0.100000
B(  0-C ,  1-C ) :   0.9597 B(  0-C , 20-H ) :   0.9646 B(  0-C , 21-H ) :   0.9776
B(  0-C , 22-H ) :   0.9734 B(  1-C ,  2-O ) :   0.9048 B(  1-C , 23-H ) :   0.9789
B(  1-C , 24-H ) :   0.9760 B(  2-O ,  3-C ) :   1.1643 B(  3-C ,  4-O ) :   2.0802
B(  3-C ,  5-C ) :   0.9358 B(  5-C ,  6-C ) :   1.7247 B(  5-C , 12-C ) :   0.9306
B(  6-C ,  7-C ) :   0.9398 B(  6-C ,  8-N ) :   1.0978 B(  7-C , 25-H ) :   0.9711
B(  7-C , 26-H ) :   0.9832 B(  7-C , 27-H ) :   0.9650 B(  8-N ,  9-C ) :   1.1966
B(  8-N , 28-H ) :   0.9495 B(  9-C , 10-S ) :   1.6086 B(  9-C , 11-N ) :   1.2923
B( 11-N , 12-C ) :   0.9767 B( 11-N , 29-H ) :   0.9472 B( 12-C , 13-C ) :   0.9687
B( 12-C , 30-H ) :   0.9888 B( 13-C , 14-C ) :   1.3874 B( 13-C , 19-C ) :   1.3483
B( 14-C , 15-C ) :   1.3966 B( 14-C , 31-H ) :   0.9573 B( 15-C , 16-C ) :   1.3605
B( 15-C , 32-H ) :   0.9700 B( 16-C , 17-C ) :   1.3319 B( 16-C , 33-H ) :   0.9846
B( 17-C , 18-O ) :   1.1090 B( 17-C , 19-C ) :   1.3622 B( 18-O , 34-H ) :   0.9794
B( 19-C , 35-H ) :   0.9573

MP2 TOTAL ENERGY:    -1274.319907497 Eh
FINAL SINGLE POINT ENERGY     -1274.319907497432

DIPOLE MOMENT
-------------
                                X             Y             Z
Electronic contribution:      9.05797       5.99993       7.26148
Nuclear contribution   :    -10.75827      -7.22946      -7.80382
                        -----------------------------------------
Total Dipole Moment    :     -1.70031      -1.22952      -0.54234
                        -----------------------------------------
Magnitude (a.u.)       :      2.16723
Magnitude (Debye)      :      5.50867

Rotational constants in cm-1:     0.011344     0.009264     0.006477
Rotational constants in MHz :   340.090182   277.724575   194.175959

                             ****ORCA TERMINATED NORMALLY****
TOTAL RUN TIME: 0 days 2 hours 1 minutes 36 seconds 84 msec
