                         Program Version 4.2.0 -  RELEASE  -
|  1> ! ri-mp2 cc-pvtz cc-pvtz/c TightSCF NoKeepInts
|  2>
|  3> %scf
|  4>   MaxCore 4096
|  5> end
|  6> *xyz  0  1
|  7>     C       14.6162706   14.7864648   15.8456923
|  8>     C       15.9446147   14.8589019   15.0656563
|  9>     O       16.7526823   15.9138909   15.6171391
| 10>     C       16.3939298   17.2199801   15.4297592
| 11>     O       15.6769565   17.5683754   14.5067267
| 12>     C       16.9329083   18.1285999   16.5012453
| 13>     C       16.9448562   19.4755720   16.3327753
| 14>     C       16.2443288   20.2678837   15.2484481
| 15>     N       17.6663674   20.3021525   17.1971207
| 16>     C       18.5447499   19.8521379   18.1454644
| 17>     S       19.4346927   20.8892568   19.0772268
| 18>     N       18.6650258   18.4911365   18.2704720
| 19>     C       17.8452885   17.4902354   17.5616901
| 20>     C       17.1176270   16.5475170   18.5116308
| 21>     C       17.5158141   15.2032750   18.6313035
| 22>     C       16.8366577   14.3325359   19.5000625
| 23>     C       15.7529269   14.8111017   20.2563334
| 24>     C       15.3576254   16.1511767   20.1418624
| 25>     O       14.3116661   16.6156477   20.8706455
| 26>     C       16.0355443   17.0152775   19.2763665
| 27>     H       14.8045646   14.6759581   16.9213129
| 28>     H       14.0226086   13.9272676   15.5113795
| 29>     H       14.0164660   15.6919298   15.6900629
| 30>     H       16.4752089   13.9040012   15.1703632
| 31>     H       15.7535713   15.0294702   13.9972622
| 32>     H       16.6556215   20.0207609   14.2614525
| 33>     H       16.3331359   21.3524004   15.3821880
| 34>     H       15.1734887   20.0278527   15.2265198
| 35>     H       17.6029774   21.3031156   17.1020293
| 36>     H       19.2959373   18.1895947   19.0021816
| 37>     H       18.6248184   16.9528841   17.0031855
| 38>     H       18.3486149   14.8308721   18.0407657
| 39>     H       17.1496490   13.2933205   19.5844306
| 40>     H       15.2251704   14.1426102   20.9285624
| 41>     H       13.9960171   15.8865838   21.4253256
| 42>     H       15.7186172   18.0502586   19.2033573
| 43> *
| 44>
| 45>                          ****END OF INPUT****

CARTESIAN COORDINATES (ANGSTROEM)
---------------------------------
  C     14.616271   14.786465   15.845692
  C     15.944615   14.858902   15.065656
  O     16.752682   15.913891   15.617139
  C     16.393930   17.219980   15.429759
  O     15.676956   17.568375   14.506727
  C     16.932908   18.128600   16.501245
  C     16.944856   19.475572   16.332775
  C     16.244329   20.267884   15.248448
  N     17.666367   20.302152   17.197121
  C     18.544750   19.852138   18.145464
  S     19.434693   20.889257   19.077227
  N     18.665026   18.491136   18.270472
  C     17.845288   17.490235   17.561690
  C     17.117627   16.547517   18.511631
  C     17.515814   15.203275   18.631304
  C     16.836658   14.332536   19.500062
  C     15.752927   14.811102   20.256333
  C     15.357625   16.151177   20.141862
  O     14.311666   16.615648   20.870645
  C     16.035544   17.015277   19.276367
  H     14.804565   14.675958   16.921313
  H     14.022609   13.927268   15.511380
  H     14.016466   15.691930   15.690063
  H     16.475209   13.904001   15.170363
  H     15.753571   15.029470   13.997262
  H     16.655621   20.020761   14.261453
  H     16.333136   21.352400   15.382188
  H     15.173489   20.027853   15.226520
  H     17.602977   21.303116   17.102029
  H     19.295937   18.189595   19.002182
  H     18.624818   16.952884   17.003186
  H     18.348615   14.830872   18.040766
  H     17.149649   13.293321   19.584431
  H     15.225170   14.142610   20.928562
  H     13.996017   15.886584   21.425326
  H     15.718617   18.050259   19.203357

 Total Charge           Charge          ....    0
 Multiplicity           Mult            ....    1
 Number of Electrons    NEL             ....  154
 Basis Dimension        Dim             ....  828

ORBITAL ENERGIES
----------------

  NO   OCC          E(Eh)            E(eV)
   0   2.0000     -91.889112     -2500.4299
   1   2.0000     -20.597655      -560.4907
   2   2.0000     -20.597638      -560.4902
   3   2.0000     -20.541304      -558.9573
   4   2.0000     -15.629521      -425.3009
   5   2.0000     -15.607331      -424.6971
   6   2.0000     -11.394671      -310.0648
   7   2.0000     -11.383876      -309.7710
   8   2.0000     -11.337532      -308.5099
   9   2.0000     -11.315051      -307.8982
  10   2.0000     -11.307760      -307.6998
  11   2.0000     -11.296413      -307.3910
  12   2.0000     -11.261739      -306.4475
  13   2.0000     -11.259014      -306.3733
  14   2.0000     -11.256330      -306.3003
  15   2.0000     -11.251916      -306.1802
  16   2.0000     -11.244943      -305.9904
  17   2.0000     -11.240096      -305.8586
  18   2.0000     -11.239654      -305.8465
  19   2.0000     -11.222367      -305.3761
  20   2.0000      -8.894180      -242.0229
  21   2.0000      -6.575751      -178.9353
  22   2.0000      -6.573754      -178.8809
  23   2.0000      -6.573163      -178.8649
  24   2.0000      -1.450074       -39.4585
  25   2.0000      -1.417335       -38.5677
  26   2.0000      -1.353470       -36.8298
  27   2.0000      -1.340530       -36.4777
  28   2.0000      -1.238469       -33.7004
  29   2.0000      -1.158763       -31.5316
  30   2.0000      -1.121599       -30.5203
  31   2.0000      -1.043635       -28.3987
  32   2.0000      -1.034565       -28.1519
  33   2.0000      -1.016184       -27.6518
  34   2.0000      -0.996293       -27.1105
  35   2.0000      -0.984965       -26.8023
  36   2.0000      -0.922354       -25.0985
  37   2.0000      -0.894380       -24.3373
  38   2.0000      -0.846852       -23.0440
  39   2.0000      -0.838925       -22.8283
  40   2.0000      -0.835248       -22.7283
  41   2.0000      -0.815160       -22.1816
  42   2.0000      -0.754524       -20.5316
  43   2.0000      -0.734498       -19.9867
  44   2.0000      -0.722646       -19.6642
  45   2.0000      -0.696541       -18.9538
  46   2.0000      -0.689409       -18.7598
  47   2.0000      -0.678379       -18.4596
  48   2.0000      -0.671367       -18.2688
  49   2.0000      -0.660658       -17.9774
  50   2.0000      -0.647278       -17.6133
  51   2.0000      -0.639804       -17.4099
  52   2.0000      -0.634241       -17.2586
  53   2.0000      -0.610380       -16.6093
  54   2.0000      -0.607653       -16.5351
  55   2.0000      -0.601033       -16.3549
  56   2.0000      -0.599911       -16.3244
  57   2.0000      -0.578200       -15.7336
  58   2.0000      -0.570080       -15.5127
  59   2.0000      -0.566594       -15.4178
  60   2.0000      -0.557091       -15.1592
  61   2.0000      -0.545466       -14.8429
  62   2.0000      -0.533140       -14.5075
  63   2.0000      -0.531217       -14.4551
  64   2.0000      -0.524864       -14.2823
  65   2.0000      -0.513419       -13.9708
  66   2.0000      -0.500745       -13.6260
  67   2.0000      -0.498334       -13.5604
  68   2.0000      -0.481225       -13.0948
  69   2.0000      -0.464079       -12.6282
  70   2.0000      -0.454620       -12.3708
  71   2.0000      -0.445863       -12.1326
  72   2.0000      -0.353542        -9.6204
  73   2.0000      -0.350879        -9.5479
  74   2.0000      -0.328362        -8.9352
  75   2.0000      -0.322379        -8.7724
  76   2.0000      -0.318374        -8.6634
  77   0.0000       0.076523         2.0823
  78   0.0000       0.103912         2.8276
  79   0.0000       0.124650         3.3919
  80   0.0000       0.132104         3.5947
  81   0.0000       0.137097         3.7306

MULLIKEN ATOMIC CHARGES
-----------------------
   0 C :   -0.306956
   1 C :    0.017452
   2 O :   -0.358483
   3 C :    0.444102
   4 O :   -0.436895
   5 C :   -0.231350
   6 C :    0.175091
   7 C :   -0.267768
   8 N :   -0.126230
   9 C :    0.210919
  10 S :   -0.441589
  11 N :   -0.216427
  12 C :    0.068667
  13 C :    0.033707
  14 C :   -0.182841
  15 C :   -0.135114
  16 C :   -0.276391
  17 C :    0.313238
  18 O :   -0.356834
  19 C :   -0.239958
  20 H :    0.110579
  21 H :    0.099470
  22 H :    0.110646
  23 H :    0.111319
  24 H :    0.119653
  25 H :    0.129280
  26 H :    0.094819
  27 H :    0.133956
  28 H :    0.199677
  29 H :    0.200467
  30 H :    0.153160
  31 H :    0.154010
  32 H :    0.160995
  33 H :    0.131150
  34 H :    0.240692
  35 H :    0.163786
Sum of atomic charges:   -0.0000000

LOEWDIN ATOMIC CHARGES
----------------------
   0 C :    0.105076
   1 C :   -0.018649
   2 O :    0.306226
   3 C :   -0.415017
   4 O :    0.096054
   5 C :   -0.095356
   6 C :   -0.056565
   7 C :    0.131486
   8 N :    0.407219
   9 C :   -0.456063
  10 S :   -0.036314
  11 N :    0.394557
  12 C :   -0.054057
  13 C :   -0.039995
  14 C :    0.016510
  15 C :    0.038622
  16 C :   -0.001328
  17 C :   -0.190159
  18 O :    0.395614
  19 C :    0.033382
  20 H :   -0.025348
  21 H :   -0.027290
  22 H :   -0.026016
  23 H :   -0.025492
  24 H :   -0.027922
  25 H :   -0.004829
  26 H :   -0.023590
  27 H :   -0.004299
  28 H :   -0.057115
  29 H :   -0.064490
  30 H :   -0.013313
  31 H :   -0.028798
  32 H :   -0.021176
  33 H :   -0.035185
  34 H :   -0.153776
  35 H :   -0.022604

  Mayer bond orders larger than 0.100000
B(  0-C ,  1-C ) :   0.9589 B(  0-C , 20-H ) :   0.9706 B(  0-C , 21-H ) :   0.9779
B(  0-C , 22-H ) :   0.9759 B(  1-C ,  2-O ) :   0.8941 B(  1-C , 23-H ) :   0.9842
B(  1-C , 24-H ) :   0.9809 B(  2-O ,  3-C ) :   1.1503 B(  3-C ,  4-O ) :   1.9631
B(  3-C ,  5-C ) :   1.0669 B(  5-C ,  6-C ) :   1.6385 B(  5-C , 12-C ) :   0.9544
B(  6-C ,  7-C ) :   0.9645 B(  6-C ,  8-N ) :   1.1556 B(  7-C , 25-H ) :   0.9591
B(  7-C , 26-H ) :   0.9904 B(  7-C , 27-H ) :   0.9611 B(  8-N ,  9-C ) :   1.1870
B(  8-N , 28-H ) :   0.9463 B(  9-C , 10-S ) :   1.6061 B(  9-C , 11-N ) :   1.3094
B( 11-N , 12-C ) :   0.9688 B( 11-N , 29-H ) :   0.9485 B( 12-C , 13-C ) :   0.9611
B( 12-C , 30-H ) :   1.0002 B( 13-C , 14-C ) :   1.3541 B( 13-C , 19-C ) :   1.3813
B( 14-C , 15-C ) :   1.3936 B( 14-C , 31-H ) :   0.9714 B( 15-C , 16-C ) :   1.3568
B( 15-C , 32-H ) :   0.9713 B( 16-C , 17-C ) :   1.3336 B( 16-C , 33-H ) :   0.9850
B( 17-C , 18-O ) :   1.1059 B( 17-C , 19-C ) :   1.3646 B( 18-O , 34-H ) :   0.9797
B( 19-C , 35-H ) :   0.9588

MP2 TOTAL ENERGY:    -1274.344202129 Eh
FINAL SINGLE POINT ENERGY     -1274.344202128983

DIPOLE MOMENT
-------------
                                X             Y             Z
Electronic contribution:      9.10772      10.48707       7.24761
Nuclear contribution   :    -10.00338     -12.25977      -7.57774
                        -----------------------------------------
Total Dipole Moment    :     -0.89566      -1.77270      -0.33013
                        -----------------------------------------
Magnitude (a.u.)       :      2.01337
Magnitude (Debye)      :      5.11758

Rotational constants in cm-1:     0.012116     0.008576     0.006061
Rotational constants in MHz :   363.226639   257.107221   181.710885

                             ****ORCA TERMINATED NORMALLY****
TOTAL RUN TIME: 0 days 2 hours 16 minutes 17 seconds 945 msec
