                         Program Version 4.2.0 -  RELEASE  -
|  1> ! ri-mp2 cc-pvtz cc-pvtz/c TightSCF NoKeepInts
|  2>
|  3> %scf
|  4>   MaxCore 4096
|  5> end
|  6> *xyz  0  1
|  7>     C       14.4710364   15.6138121   16.3848092
|  8>     C       15.1436752   16.1528523   15.1103472
|  9>     O       16.5296335   15.7611714   15.1218168
| 10>     C       17.5645414   16.5948825   15.4562871
| 11>     O       18.7100416   16.3594738   15.1223472
| 12>     C       17.2404652   17.6860273   16.4157637
| 13>     C       16.9616586   18.9186485   15.9307673
| 14>     C       16.6400189   19.2766881   14.4936440
| 15>     N       17.0249604   20.0456007   16.7517460
| 16>     C       17.6220658   20.0599055   17.9850538
| 17>     S       17.7835425   21.4537855   18.8599288
| 18>     N       18.1075432   18.8592968   18.4432957
| 19>     C       17.8773863   17.5497880   17.7996357
| 20>     C       17.2213608   16.4953278   18.6788372
| 21>     C       17.6041014   15.1469892   18.5598373
| 22>     C       16.9923275   14.1583611   19.3481759
| 23>     C       15.9889789   14.5210719   20.2628702
| 24>     C       15.6040410   15.8634669   20.3822394
| 25>     O       14.6287835   16.2147330   21.2573976
| 26>     C       16.2137002   16.8461537   19.5954294
| 27>     H       14.8171281   16.1569756   17.2700226
| 28>     H       14.6954343   14.5485163   16.5232737
| 29>     H       13.3822318   15.7297477   16.3237553
| 30>     H       14.6584240   15.6865923   14.2429539
| 31>     H       15.0054876   17.2356999   15.0250697
| 32>     H       16.8210108   18.4485115   13.7976747
| 33>     H       17.2673648   20.1099667   14.1511533
| 34>     H       15.5911166   19.5797005   14.3884328
| 35>     H       16.7152795   20.9404969   16.4065029
| 36>     H       18.5489101   18.8964809   19.3537064
| 37>     H       18.9201272   17.2571456   17.6035247
| 38>     H       18.3742414   14.8636172   17.8451599
| 39>     H       17.2950891   13.1175138   19.2459579
| 40>     H       15.5129799   13.7601876   20.8726338
| 41>     H       14.3591160   15.4129366   21.7302968
| 42>     H       15.8931962   17.8778750   19.6976520
| 43> *
| 44>
| 45>                          ****END OF INPUT****

CARTESIAN COORDINATES (ANGSTROEM)
---------------------------------
  C     14.471036   15.613812   16.384809
  C     15.143675   16.152852   15.110347
  O     16.529633   15.761171   15.121817
  C     17.564541   16.594883   15.456287
  O     18.710042   16.359474   15.122347
  C     17.240465   17.686027   16.415764
  C     16.961659   18.918648   15.930767
  C     16.640019   19.276688   14.493644
  N     17.024960   20.045601   16.751746
  C     17.622066   20.059905   17.985054
  S     17.783542   21.453785   18.859929
  N     18.107543   18.859297   18.443296
  C     17.877386   17.549788   17.799636
  C     17.221361   16.495328   18.678837
  C     17.604101   15.146989   18.559837
  C     16.992327   14.158361   19.348176
  C     15.988979   14.521072   20.262870
  C     15.604041   15.863467   20.382239
  O     14.628784   16.214733   21.257398
  C     16.213700   16.846154   19.595429
  H     14.817128   16.156976   17.270023
  H     14.695434   14.548516   16.523274
  H     13.382232   15.729748   16.323755
  H     14.658424   15.686592   14.242954
  H     15.005488   17.235700   15.025070
  H     16.821011   18.448511   13.797675
  H     17.267365   20.109967   14.151153
  H     15.591117   19.579701   14.388433
  H     16.715280   20.940497   16.406503
  H     18.548910   18.896481   19.353706
  H     18.920127   17.257146   17.603525
  H     18.374241   14.863617   17.845160
  H     17.295089   13.117514   19.245958
  H     15.512980   13.760188   20.872634
  H     14.359116   15.412937   21.730297
  H     15.893196   17.877875   19.697652

 Total Charge           Charge          ....    0
 Multiplicity           Mult            ....    1
 Number of Electrons    NEL             ....  154
 Basis Dimension        Dim             ....  828

ORBITAL ENERGIES
----------------

  NO   OCC          E(Eh)            E(eV)
   0   2.0000     -91.889165     -2500.4313
   1   2.0000     -20.602672      -560.6272
   2   2.0000     -20.600564      -560.5699
   3   2.0000     -20.555302      -559.3382
   4   2.0000     -15.625400      -425.1888
   5   2.0000     -15.610212      -424.7755
   6   2.0000     -11.400692      -310.2286
   7   2.0000     -11.385350      -309.8111
   8   2.0000     -11.329028      -308.2785
   9   2.0000     -11.318483      -307.9916
  10   2.0000     -11.314077      -307.8717
  11   2.0000     -11.306850      -307.6750
  12   2.0000     -11.268464      -306.6305
  13   2.0000     -11.267171      -306.5953
  14   2.0000     -11.263088      -306.4842
  15   2.0000     -11.259471      -306.3858
  16   2.0000     -11.247167      -306.0510
  17   2.0000     -11.242877      -305.9342
  18   2.0000     -11.241732      -305.9031
  19   2.0000     -11.227267      -305.5095
  20   2.0000      -8.894271      -242.0254
  21   2.0000      -6.575856      -178.9381
  22   2.0000      -6.573839      -178.8833
  23   2.0000      -6.573261      -178.8675
  24   2.0000      -1.450655       -39.4743
  25   2.0000      -1.420276       -38.6477
  26   2.0000      -1.365234       -37.1499
  27   2.0000      -1.339695       -36.4549
  28   2.0000      -1.239024       -33.7155
  29   2.0000      -1.162736       -31.6396
  30   2.0000      -1.127178       -30.6721
  31   2.0000      -1.049699       -28.5638
  32   2.0000      -1.038498       -28.2590
  33   2.0000      -1.020985       -27.7824
  34   2.0000      -1.006715       -27.3941
  35   2.0000      -0.990186       -26.9443
  36   2.0000      -0.927311       -25.2334
  37   2.0000      -0.890444       -24.2302
  38   2.0000      -0.853830       -23.2339
  39   2.0000      -0.842435       -22.9238
  40   2.0000      -0.837889       -22.8001
  41   2.0000      -0.834653       -22.7121
  42   2.0000      -0.756094       -20.5744
  43   2.0000      -0.739632       -20.1264
  44   2.0000      -0.732780       -19.9400
  45   2.0000      -0.698319       -19.0022
  46   2.0000      -0.692324       -18.8391
  47   2.0000      -0.683548       -18.6003
  48   2.0000      -0.674902       -18.3650
  49   2.0000      -0.665516       -18.1096
  50   2.0000      -0.652652       -17.7596
  51   2.0000      -0.638751       -17.3813
  52   2.0000      -0.633608       -17.2413
  53   2.0000      -0.621728       -16.9181
  54   2.0000      -0.613739       -16.7007
  55   2.0000      -0.608242       -16.5511
  56   2.0000      -0.603860       -16.4319
  57   2.0000      -0.587485       -15.9863
  58   2.0000      -0.578931       -15.7535
  59   2.0000      -0.572886       -15.5890
  60   2.0000      -0.563462       -15.3326
  61   2.0000      -0.559353       -15.2208
  62   2.0000      -0.538851       -14.6629
  63   2.0000      -0.532986       -14.5033
  64   2.0000      -0.521026       -14.1778
  65   2.0000      -0.513336       -13.9686
  66   2.0000      -0.504890       -13.7388
  67   2.0000      -0.503227       -13.6935
  68   2.0000      -0.488881       -13.3031
  69   2.0000      -0.467276       -12.7152
  70   2.0000      -0.455608       -12.3977
  71   2.0000      -0.452299       -12.3077
  72   2.0000      -0.356653        -9.7050
  73   2.0000      -0.351496        -9.5647
  74   2.0000      -0.328824        -8.9478
  75   2.0000      -0.326198        -8.8763
  76   2.0000      -0.319427        -8.6921
  77   0.0000       0.093081         2.5329
  78   0.0000       0.104396         2.8408
  79   0.0000       0.115123         3.1327
  80   0.0000       0.126383         3.4391
  81   0.0000       0.128877         3.5069

MULLIKEN ATOMIC CHARGES
-----------------------
   0 C :   -0.286969
   1 C :    0.023588
   2 O :   -0.314097
   3 C :    0.418409
   4 O :   -0.378775
   5 C :   -0.178536
   6 C :    0.121084
   7 C :   -0.328213
   8 N :   -0.140845
   9 C :    0.214293
  10 S :   -0.444441
  11 N :   -0.237385
  12 C :    0.057370
  13 C :    0.017503
  14 C :   -0.210117
  15 C :   -0.138155
  16 C :   -0.270211
  17 C :    0.320215
  18 O :   -0.355550
  19 C :   -0.252188
  20 H :    0.105573
  21 H :    0.108179
  22 H :    0.101235
  23 H :    0.120479
  24 H :    0.085786
  25 H :    0.123282
  26 H :    0.136578
  27 H :    0.123832
  28 H :    0.196179
  29 H :    0.206469
  30 H :    0.170054
  31 H :    0.167468
  32 H :    0.165396
  33 H :    0.132986
  34 H :    0.241219
  35 H :    0.178308
Sum of atomic charges:   -0.0000000

LOEWDIN ATOMIC CHARGES
----------------------
   0 C :    0.107085
   1 C :   -0.023213
   2 O :    0.310538
   3 C :   -0.419957
   4 O :    0.125348
   5 C :   -0.080551
   6 C :   -0.101091
   7 C :    0.123271
   8 N :    0.402050
   9 C :   -0.455412
  10 S :   -0.039270
  11 N :    0.396706
  12 C :   -0.049347
  13 C :   -0.043249
  14 C :    0.019434
  15 C :    0.046944
  16 C :    0.000134
  17 C :   -0.190118
  18 O :    0.396733
  19 C :    0.027005
  20 H :   -0.030363
  21 H :   -0.022992
  22 H :   -0.027235
  23 H :   -0.023711
  24 H :   -0.036948
  25 H :   -0.008983
  26 H :   -0.008840
  27 H :   -0.017309
  28 H :   -0.057603
  29 H :   -0.064047
  30 H :   -0.003341
  31 H :   -0.022560
  32 H :   -0.018131
  33 H :   -0.034547
  34 H :   -0.152891
  35 H :   -0.023539

  Mayer bond orders larger than 0.100000
B(  0-C ,  1-C ) :   0.9718 B(  0-C , 20-H ) :   0.9697 B(  0-C , 21-H ) :   0.9747
B(  0-C , 22-H ) :   0.9776 B(  1-C ,  2-O ) :   0.9055 B(  1-C , 23-H ) :   0.9840
B(  1-C , 24-H ) :   0.9660 B(  2-O ,  3-C ) :   1.1583 B(  3-C ,  4-O ) :   2.1099
B(  3-C ,  5-C ) :   0.9043 B(  5-C ,  6-C ) :   1.7324 B(  5-C , 12-C ) :   0.9418
B(  6-C ,  7-C ) :   0.9344 B(  6-C ,  8-N ) :   1.1027 B(  7-C , 25-H ) :   0.9792
B(  7-C , 26-H ) :   0.9721 B(  7-C , 27-H ) :   0.9678 B(  8-N ,  9-C ) :   1.2043
B(  8-N , 28-H ) :   0.9523 B(  9-C , 10-S ) :   1.6065 B(  9-C , 11-N ) :   1.2876
B( 11-N , 12-C ) :   0.9703 B( 11-N , 29-H ) :   0.9451 B( 12-C , 13-C ) :   0.9720
B( 12-C , 30-H ) :   0.9889 B( 13-C , 14-C ) :   1.3821 B( 13-C , 19-C ) :   1.3437
B( 14-C , 15-C ) :   1.4014 B( 14-C , 31-H ) :   0.9643 B( 15-C , 16-C ) :   1.3578
B( 15-C , 32-H ) :   0.9690 B( 16-C , 17-C ) :   1.3336 B( 16-C , 33-H ) :   0.9842
B( 17-C , 18-O ) :   1.1102 B( 17-C , 19-C ) :   1.3601 B( 18-O , 34-H ) :   0.9792
B( 19-C , 35-H ) :   0.9570

MP2 TOTAL ENERGY:    -1274.325003349 Eh
FINAL SINGLE POINT ENERGY     -1274.325003349249

DIPOLE MOMENT
-------------
                                X             Y             Z
Electronic contribution:      9.06565       7.68644       6.85662
Nuclear contribution   :    -10.74611      -9.00937      -7.37620
                        -----------------------------------------
Total Dipole Moment    :     -1.68046      -1.32293      -0.51958
                        -----------------------------------------
Magnitude (a.u.)       :      2.20092
Magnitude (Debye)      :      5.59428

Rotational constants in cm-1:     0.011799     0.009161     0.006341
Rotational constants in MHz :   353.720091   274.650742   190.090666

                             ****ORCA TERMINATED NORMALLY****
TOTAL RUN TIME: 0 days 1 hours 41 minutes 28 seconds 579 msec
