                         Program Version 4.2.0 -  RELEASE  -
|  1> ! ri-mp2 cc-pvtz cc-pvtz/c TightSCF NoKeepInts
|  2>
|  3> %scf
|  4>   MaxCore 4096
|  5> end
|  6> *xyz  0  1
|  7>     C       14.5212077   15.8956718   16.4334191
|  8>     C       15.1044884   16.1854798   15.0366005
|  9>     O       16.4933549   15.7985107   14.9920896
| 10>     C       17.5517570   16.5305385   15.4707874
| 11>     O       18.7003858   16.1903987   15.2587928
| 12>     C       17.2327941   17.6371677   16.4157508
| 13>     C       16.9307411   18.8619493   15.9230966
| 14>     C       16.6258495   19.2158254   14.4812766
| 15>     N       16.9798055   19.9949184   16.7369809
| 16>     C       17.5800284   20.0277128   17.9682791
| 17>     S       17.7216649   21.4306085   18.8320491
| 18>     N       18.0871316   18.8388670   18.4329325
| 19>     C       17.8773777   17.5216423   17.7986836
| 20>     C       17.2355102   16.4643857   18.6855408
| 21>     C       17.6439219   15.1223149   18.5826812
| 22>     C       17.0448816   14.1301560   19.3763390
| 23>     C       16.0276817   14.4828929   20.2795646
| 24>     C       15.6168661   15.8189605   20.3825189
| 25>     O       14.6283812   16.1605763   21.2466205
| 26>     C       16.2147216   16.8051831   19.5912076
| 27>     H       14.8106221   16.6662715   17.1552816
| 28>     H       14.8629042   14.9215578   16.8067353
| 29>     H       13.4253953   15.8785908   16.3926908
| 30>     H       14.5597205   15.5687103   14.3098990
| 31>     H       14.9485279   17.2318295   14.7568311
| 32>     H       16.8311439   18.3909130   13.7881896
| 33>     H       17.2467723   20.0578819   14.1485788
| 34>     H       15.5751276   19.5059226   14.3593704
| 35>     H       16.6548953   20.8825718   16.3870579
| 36>     H       18.5307182   18.8892737   19.3416259
| 37>     H       18.9239970   17.2423158   17.6041853
| 38>     H       18.4246503   14.8466949   17.8762478
| 39>     H       17.3680319   13.0942845   19.2867254
| 40>     H       15.5611960   13.7192235   20.8931703
| 41>     H       14.3698914   15.3583993   21.7250804
| 42>     H       15.8748552   17.8317987   19.6811189
| 43> *
| 44>
| 45>                          ****END OF INPUT****

CARTESIAN COORDINATES (ANGSTROEM)
---------------------------------
  C     14.521208   15.895672   16.433419
  C     15.104488   16.185480   15.036601
  O     16.493355   15.798511   14.992090
  C     17.551757   16.530538   15.470787
  O     18.700386   16.190399   15.258793
  C     17.232794   17.637168   16.415751
  C     16.930741   18.861949   15.923097
  C     16.625850   19.215825   14.481277
  N     16.979806   19.994918   16.736981
  C     17.580028   20.027713   17.968279
  S     17.721665   21.430609   18.832049
  N     18.087132   18.838867   18.432932
  C     17.877378   17.521642   17.798684
  C     17.235510   16.464386   18.685541
  C     17.643922   15.122315   18.582681
  C     17.044882   14.130156   19.376339
  C     16.027682   14.482893   20.279565
  C     15.616866   15.818960   20.382519
  O     14.628381   16.160576   21.246620
  C     16.214722   16.805183   19.591208
  H     14.810622   16.666272   17.155282
  H     14.862904   14.921558   16.806735
  H     13.425395   15.878591   16.392691
  H     14.559720   15.568710   14.309899
  H     14.948528   17.231829   14.756831
  H     16.831144   18.390913   13.788190
  H     17.246772   20.057882   14.148579
  H     15.575128   19.505923   14.359370
  H     16.654895   20.882572   16.387058
  H     18.530718   18.889274   19.341626
  H     18.923997   17.242316   17.604185
  H     18.424650   14.846695   17.876248
  H     17.368032   13.094284   19.286725
  H     15.561196   13.719224   20.893170
  H     14.369891   15.358399   21.725080
  H     15.874855   17.831799   19.681119

 Total Charge           Charge          ....    0
 Multiplicity           Mult            ....    1
 Number of Electrons    NEL             ....  154
 Basis Dimension        Dim             ....  828

ORBITAL ENERGIES
----------------

  NO   OCC          E(Eh)            E(eV)
   0   2.0000     -91.889395     -2500.4376
   1   2.0000     -20.603144      -560.6401
   2   2.0000     -20.600027      -560.5552
   3   2.0000     -20.553099      -559.2783
   4   2.0000     -15.626029      -425.2059
   5   2.0000     -15.610120      -424.7730
   6   2.0000     -11.401403      -310.2480
   7   2.0000     -11.385545      -309.8164
   8   2.0000     -11.330361      -308.3148
   9   2.0000     -11.317719      -307.9708
  10   2.0000     -11.312964      -307.8414
  11   2.0000     -11.308393      -307.7170
  12   2.0000     -11.269253      -306.6520
  13   2.0000     -11.266182      -306.5684
  14   2.0000     -11.264452      -306.5213
  15   2.0000     -11.258548      -306.3607
  16   2.0000     -11.246482      -306.0323
  17   2.0000     -11.242101      -305.9131
  18   2.0000     -11.240444      -305.8680
  19   2.0000     -11.228012      -305.5297
  20   2.0000      -8.894506      -242.0318
  21   2.0000      -6.576092      -178.9446
  22   2.0000      -6.574074      -178.8897
  23   2.0000      -6.573496      -178.8739
  24   2.0000      -1.448898       -39.4265
  25   2.0000      -1.419736       -38.6330
  26   2.0000      -1.363459       -37.1016
  27   2.0000      -1.340233       -36.4696
  28   2.0000      -1.239265       -33.7221
  29   2.0000      -1.162036       -31.6206
  30   2.0000      -1.127098       -30.6699
  31   2.0000      -1.049327       -28.5536
  32   2.0000      -1.038101       -28.2482
  33   2.0000      -1.020341       -27.7649
  34   2.0000      -1.007086       -27.4042
  35   2.0000      -0.990466       -26.9520
  36   2.0000      -0.927312       -25.2334
  37   2.0000      -0.894569       -24.3424
  38   2.0000      -0.854083       -23.2408
  39   2.0000      -0.842139       -22.9158
  40   2.0000      -0.837279       -22.7835
  41   2.0000      -0.832713       -22.6593
  42   2.0000      -0.752222       -20.4690
  43   2.0000      -0.740255       -20.1434
  44   2.0000      -0.732600       -19.9351
  45   2.0000      -0.697587       -18.9823
  46   2.0000      -0.690962       -18.8020
  47   2.0000      -0.682007       -18.5584
  48   2.0000      -0.674528       -18.3548
  49   2.0000      -0.665408       -18.1067
  50   2.0000      -0.652393       -17.7525
  51   2.0000      -0.641478       -17.4555
  52   2.0000      -0.638507       -17.3747
  53   2.0000      -0.618382       -16.8270
  54   2.0000      -0.613347       -16.6900
  55   2.0000      -0.608228       -16.5507
  56   2.0000      -0.603370       -16.4185
  57   2.0000      -0.588964       -16.0265
  58   2.0000      -0.578953       -15.7541
  59   2.0000      -0.573355       -15.6018
  60   2.0000      -0.563930       -15.3453
  61   2.0000      -0.558196       -15.1893
  62   2.0000      -0.539018       -14.6674
  63   2.0000      -0.533263       -14.5108
  64   2.0000      -0.520202       -14.1554
  65   2.0000      -0.512458       -13.9447
  66   2.0000      -0.506905       -13.7936
  67   2.0000      -0.502627       -13.6772
  68   2.0000      -0.487572       -13.2675
  69   2.0000      -0.464891       -12.6503
  70   2.0000      -0.454426       -12.3656
  71   2.0000      -0.453763       -12.3475
  72   2.0000      -0.357268        -9.7218
  73   2.0000      -0.350219        -9.5299
  74   2.0000      -0.329057        -8.9541
  75   2.0000      -0.325603        -8.8601
  76   2.0000      -0.319743        -8.7006
  77   0.0000       0.091560         2.4915
  78   0.0000       0.104918         2.8550
  79   0.0000       0.113484         3.0881
  80   0.0000       0.125520         3.4156
  81   0.0000       0.129430         3.5220

MULLIKEN ATOMIC CHARGES
-----------------------
   0 C :   -0.306615
   1 C :    0.024079
   2 O :   -0.316401
   3 C :    0.424816
   4 O :   -0.381275
   5 C :   -0.214981
   6 C :    0.141794
   7 C :   -0.334458
   8 N :   -0.141532
   9 C :    0.212719
  10 S :   -0.444179
  11 N :   -0.236573
  12 C :    0.083047
  13 C :    0.021390
  14 C :   -0.226988
  15 C :   -0.134310
  16 C :   -0.275187
  17 C :    0.323838
  18 O :   -0.355147
  19 C :   -0.259907
  20 H :    0.105083
  21 H :    0.117749
  22 H :    0.108093
  23 H :    0.126559
  24 H :    0.085754
  25 H :    0.125012
  26 H :    0.138003
  27 H :    0.123545
  28 H :    0.196276
  29 H :    0.206134
  30 H :    0.170713
  31 H :    0.173408
  32 H :    0.165561
  33 H :    0.132492
  34 H :    0.241302
  35 H :    0.180184
Sum of atomic charges:   -0.0000000

LOEWDIN ATOMIC CHARGES
----------------------
   0 C :    0.105228
   1 C :   -0.021315
   2 O :    0.306295
   3 C :   -0.416813
   4 O :    0.122450
   5 C :   -0.078194
   6 C :   -0.099615
   7 C :    0.122122
   8 N :    0.401976
   9 C :   -0.456192
  10 S :   -0.039208
  11 N :    0.396785
  12 C :   -0.048442
  13 C :   -0.042072
  14 C :    0.018919
  15 C :    0.045471
  16 C :   -0.000469
  17 C :   -0.190059
  18 O :    0.396369
  19 C :    0.028309
  20 H :   -0.034517
  21 H :   -0.020837
  22 H :   -0.026662
  23 H :   -0.020322
  24 H :   -0.037533
  25 H :   -0.008835
  26 H :   -0.008685
  27 H :   -0.017998
  28 H :   -0.057525
  29 H :   -0.063813
  30 H :   -0.002824
  31 H :   -0.021949
  32 H :   -0.018251
  33 H :   -0.034715
  34 H :   -0.153032
  35 H :   -0.024046

  Mayer bond orders larger than 0.100000
B(  0-C ,  1-C ) :   0.9589 B(  0-C , 20-H ) :   0.9709 B(  0-C , 21-H ) :   0.9707
B(  0-C , 22-H ) :   0.9773 B(  1-C ,  2-O ) :   0.9031 B(  1-C , 23-H ) :   0.9851
B(  1-C , 24-H ) :   0.9718 B(  2-O ,  3-C ) :   1.1716 B(  3-C ,  4-O ) :   2.0993
B(  3-C ,  5-C ) :   0.9094 B(  5-C ,  6-C ) :   1.7262 B(  5-C , 12-C ) :   0.9298
B(  6-C ,  7-C ) :   0.9344 B(  6-C ,  8-N ) :   1.1034 B(  7-C , 25-H ) :   0.9791
B(  7-C , 26-H ) :   0.9711 B(  7-C , 27-H ) :   0.9677 B(  8-N ,  9-C ) :   1.2027
B(  8-N , 28-H ) :   0.9522 B(  9-C , 10-S ) :   1.6066 B(  9-C , 11-N ) :   1.2886
B( 11-N , 12-C ) :   0.9729 B( 11-N , 29-H ) :   0.9456 B( 12-C , 13-C ) :   0.9714
B( 12-C , 30-H ) :   0.9883 B( 13-C , 14-C ) :   1.3829 B( 13-C , 19-C ) :   1.3410
B( 14-C , 15-C ) :   1.4020 B( 14-C , 31-H ) :   0.9613 B( 15-C , 16-C ) :   1.3580
B( 15-C , 32-H ) :   0.9691 B( 16-C , 17-C ) :   1.3322 B( 16-C , 33-H ) :   0.9846
B( 17-C , 18-O ) :   1.1102 B( 17-C , 19-C ) :   1.3603 B( 18-O , 34-H ) :   0.9793
B( 19-C , 35-H ) :   0.9558

MP2 TOTAL ENERGY:    -1274.325609726 Eh
FINAL SINGLE POINT ENERGY     -1274.325609726445

DIPOLE MOMENT
-------------
                                X             Y             Z
Electronic contribution:      8.82890       6.99872       6.73595
Nuclear contribution   :    -10.49789      -8.24418      -7.29076
                        -----------------------------------------
Total Dipole Moment    :     -1.66899      -1.24546      -0.55480
                        -----------------------------------------
Magnitude (a.u.)       :      2.15511
Magnitude (Debye)      :      5.47784

Rotational constants in cm-1:     0.011779     0.009217     0.006415
Rotational constants in MHz :   353.116132   276.314608   192.327836

                             ****ORCA TERMINATED NORMALLY****
TOTAL RUN TIME: 0 days 1 hours 46 minutes 32 seconds 131 msec
