                         Program Version 4.2.0 -  RELEASE  -
|  1> ! ri-mp2 cc-pvtz cc-pvtz/c TightSCF NoKeepInts
|  2>
|  3> %scf
|  4>   MaxCore 4096
|  5> end
|  6> *xyz  0  1
|  7>     C       14.9984717   14.6739053   13.9574358
|  8>     C       14.4979296   15.8448402   14.8296882
|  9>     O       15.5338038   16.8312817   15.0138338
| 10>     C       16.6016305   16.5917146   15.8332532
| 11>     O       17.0926618   15.4861239   15.9828233
| 12>     C       16.9859702   17.7590917   16.6975965
| 13>     C       16.8859468   19.0466756   16.2730767
| 14>     C       16.1971700   19.5651848   15.0257952
| 15>     N       17.5024254   20.0812947   16.9815247
| 16>     C       18.4154738   19.8967828   17.9843852
| 17>     S       19.1906693   21.1684028   18.7038245
| 18>     N       18.6706978   18.5981529   18.3449675
| 19>     C       17.9363855   17.4165872   17.8522701
| 20>     C       17.2763375   16.6118887   18.9642627
| 21>     C       17.5454247   15.2394296   19.1132787
| 22>     C       16.9366943   14.4991105   20.1405800
| 23>     C       16.0522733   15.1372030   21.0271565
| 24>     C       15.7807274   16.5044295   20.8794952
| 25>     O       14.9238120   17.1220124   21.7313261
| 26>     C       16.3876429   17.2384024   19.8553382
| 27>     H       15.5049200   15.0474930   13.0589661
| 28>     H       14.1546075   14.0503101   13.6388224
| 29>     H       15.6949586   14.0290251   14.5061970
| 30>     H       13.6466719   16.3187529   14.3244051
| 31>     H       14.1481598   15.4688669   15.8007178
| 32>     H       16.5684937   19.0491710   14.1313955
| 33>     H       16.3584622   20.6381289   14.8650210
| 34>     H       15.1137666   19.4029612   15.0852505
| 35>     H       17.3425452   21.0388613   16.7124962
| 36>     H       19.3326997   18.4897711   19.1029686
| 37>     H       18.7625219   16.8477133   17.4011934
| 38>     H       18.2177215   14.7424314   18.4177457
| 39>     H       17.1478446   13.4361123   20.2420489
| 40>     H       15.5790262   14.5689209   21.8208951
| 41>     H       14.6345468   16.4626174   22.3796411
| 42>     H       16.1679056   18.2963488   19.7583235
| 43> *
| 44>
| 45>                          ****END OF INPUT****

CARTESIAN COORDINATES (ANGSTROEM)
---------------------------------
  C     14.998472   14.673905   13.957436
  C     14.497930   15.844840   14.829688
  O     15.533804   16.831282   15.013834
  C     16.601630   16.591715   15.833253
  O     17.092662   15.486124   15.982823
  C     16.985970   17.759092   16.697596
  C     16.885947   19.046676   16.273077
  C     16.197170   19.565185   15.025795
  N     17.502425   20.081295   16.981525
  C     18.415474   19.896783   17.984385
  S     19.190669   21.168403   18.703824
  N     18.670698   18.598153   18.344967
  C     17.936386   17.416587   17.852270
  C     17.276338   16.611889   18.964263
  C     17.545425   15.239430   19.113279
  C     16.936694   14.499110   20.140580
  C     16.052273   15.137203   21.027156
  C     15.780727   16.504430   20.879495
  O     14.923812   17.122012   21.731326
  C     16.387643   17.238402   19.855338
  H     15.504920   15.047493   13.058966
  H     14.154607   14.050310   13.638822
  H     15.694959   14.029025   14.506197
  H     13.646672   16.318753   14.324405
  H     14.148160   15.468867   15.800718
  H     16.568494   19.049171   14.131395
  H     16.358462   20.638129   14.865021
  H     15.113767   19.402961   15.085251
  H     17.342545   21.038861   16.712496
  H     19.332700   18.489771   19.102969
  H     18.762522   16.847713   17.401193
  H     18.217721   14.742431   18.417746
  H     17.147845   13.436112   20.242049
  H     15.579026   14.568921   21.820895
  H     14.634547   16.462617   22.379641
  H     16.167906   18.296349   19.758323

 Total Charge           Charge          ....    0
 Multiplicity           Mult            ....    1
 Number of Electrons    NEL             ....  154
 Basis Dimension        Dim             ....  828

ORBITAL ENERGIES
----------------

  NO   OCC          E(Eh)            E(eV)
   0   2.0000     -91.887889     -2500.3966
   1   2.0000     -20.597134      -560.4765
   2   2.0000     -20.592296      -560.3449
   3   2.0000     -20.548803      -559.1614
   4   2.0000     -15.628217      -425.2654
   5   2.0000     -15.605621      -424.6505
   6   2.0000     -11.397037      -310.1291
   7   2.0000     -11.382462      -309.7325
   8   2.0000     -11.337257      -308.5025
   9   2.0000     -11.308372      -307.7164
  10   2.0000     -11.304243      -307.6041
  11   2.0000     -11.304219      -307.6034
  12   2.0000     -11.259791      -306.3945
  13   2.0000     -11.258730      -306.3656
  14   2.0000     -11.255577      -306.2798
  15   2.0000     -11.248506      -306.0874
  16   2.0000     -11.238629      -305.8186
  17   2.0000     -11.234658      -305.7106
  18   2.0000     -11.231504      -305.6248
  19   2.0000     -11.221643      -305.3564
  20   2.0000      -8.892976      -241.9902
  21   2.0000      -6.574554      -178.9027
  22   2.0000      -6.572550      -178.8482
  23   2.0000      -6.571963      -178.8322
  24   2.0000      -1.451195       -39.4890
  25   2.0000      -1.412041       -38.4236
  26   2.0000      -1.358871       -36.9768
  27   2.0000      -1.339595       -36.4522
  28   2.0000      -1.236815       -33.6554
  29   2.0000      -1.152813       -31.3696
  30   2.0000      -1.120610       -30.4933
  31   2.0000      -1.042413       -28.3655
  32   2.0000      -1.033033       -28.1103
  33   2.0000      -1.010354       -27.4931
  34   2.0000      -0.998131       -27.1605
  35   2.0000      -0.983061       -26.7505
  36   2.0000      -0.920883       -25.0585
  37   2.0000      -0.890787       -24.2395
  38   2.0000      -0.847879       -23.0720
  39   2.0000      -0.835837       -22.7443
  40   2.0000      -0.828642       -22.5485
  41   2.0000      -0.821060       -22.3422
  42   2.0000      -0.750782       -20.4298
  43   2.0000      -0.732611       -19.9353
  44   2.0000      -0.726441       -19.7675
  45   2.0000      -0.691136       -18.8068
  46   2.0000      -0.685546       -18.6546
  47   2.0000      -0.680327       -18.5126
  48   2.0000      -0.668970       -18.2036
  49   2.0000      -0.664103       -18.0712
  50   2.0000      -0.644928       -17.5494
  51   2.0000      -0.641647       -17.4601
  52   2.0000      -0.632887       -17.2217
  53   2.0000      -0.605171       -16.4675
  54   2.0000      -0.598834       -16.2951
  55   2.0000      -0.597509       -16.2591
  56   2.0000      -0.595051       -16.1922
  57   2.0000      -0.587893       -15.9974
  58   2.0000      -0.573190       -15.5973
  59   2.0000      -0.568494       -15.4695
  60   2.0000      -0.560107       -15.2413
  61   2.0000      -0.547345       -14.8940
  62   2.0000      -0.536707       -14.6045
  63   2.0000      -0.520426       -14.1615
  64   2.0000      -0.516154       -14.0453
  65   2.0000      -0.510713       -13.8972
  66   2.0000      -0.501729       -13.6527
  67   2.0000      -0.494329       -13.4514
  68   2.0000      -0.479635       -13.0515
  69   2.0000      -0.461784       -12.5658
  70   2.0000      -0.458092       -12.4653
  71   2.0000      -0.448803       -12.2125
  72   2.0000      -0.352730        -9.5983
  73   2.0000      -0.344954        -9.3867
  74   2.0000      -0.326994        -8.8980
  75   2.0000      -0.317092        -8.6285
  76   2.0000      -0.315097        -8.5742
  77   0.0000       0.076221         2.0741
  78   0.0000       0.110787         3.0147
  79   0.0000       0.121854         3.3158
  80   0.0000       0.135560         3.6888
  81   0.0000       0.139919         3.8074

MULLIKEN ATOMIC CHARGES
-----------------------
   0 C :   -0.289500
   1 C :    0.042564
   2 O :   -0.358112
   3 C :    0.420499
   4 O :   -0.415981
   5 C :   -0.152342
   6 C :    0.151503
   7 C :   -0.279723
   8 N :   -0.128391
   9 C :    0.207702
  10 S :   -0.442698
  11 N :   -0.211047
  12 C :    0.039140
  13 C :    0.033135
  14 C :   -0.171107
  15 C :   -0.134509
  16 C :   -0.277458
  17 C :    0.313772
  18 O :   -0.358801
  19 C :   -0.251078
  20 H :    0.091762
  21 H :    0.091838
  22 H :    0.125219
  23 H :    0.100760
  24 H :    0.091055
  25 H :    0.124944
  26 H :    0.101369
  27 H :    0.128106
  28 H :    0.198757
  29 H :    0.199789
  30 H :    0.156189
  31 H :    0.159975
  32 H :    0.160245
  33 H :    0.128462
  34 H :    0.239956
  35 H :    0.164004
Sum of atomic charges:   -0.0000000

LOEWDIN ATOMIC CHARGES
----------------------
   0 C :    0.104730
   1 C :   -0.014519
   2 O :    0.295833
   3 C :   -0.413367
   4 O :    0.116955
   5 C :   -0.092371
   6 C :   -0.065147
   7 C :    0.125343
   8 N :    0.405344
   9 C :   -0.458548
  10 S :   -0.037926
  11 N :    0.396266
  12 C :   -0.048250
  13 C :   -0.040720
  14 C :    0.024073
  15 C :    0.040708
  16 C :   -0.001324
  17 C :   -0.192573
  18 O :    0.393179
  19 C :    0.029613
  20 H :   -0.028216
  21 H :   -0.029816
  22 H :   -0.026458
  23 H :   -0.024733
  24 H :   -0.028424
  25 H :   -0.009205
  26 H :   -0.021097
  27 H :   -0.009415
  28 H :   -0.058714
  29 H :   -0.063278
  30 H :   -0.008247
  31 H :   -0.024016
  32 H :   -0.021024
  33 H :   -0.036132
  34 H :   -0.154810
  35 H :   -0.023712

  Mayer bond orders larger than 0.100000
B(  0-C ,  1-C ) :   0.9730 B(  0-C , 20-H ) :   0.9755 B(  0-C , 21-H ) :   0.9764
B(  0-C , 22-H ) :   0.9707 B(  1-C ,  2-O ) :   0.9086 B(  1-C , 23-H ) :   0.9846
B(  1-C , 24-H ) :   0.9772 B(  2-O ,  3-C ) :   1.0954 B(  3-C ,  4-O ) :   1.9880
B(  3-C ,  5-C ) :   1.0448 B(  5-C ,  6-C ) :   1.6575 B(  5-C , 12-C ) :   0.9454
B(  6-C ,  7-C ) :   0.9552 B(  6-C ,  8-N ) :   1.1336 B(  7-C , 25-H ) :   0.9658
B(  7-C , 26-H ) :   0.9909 B(  7-C , 27-H ) :   0.9632 B(  8-N ,  9-C ) :   1.1861
B(  8-N , 28-H ) :   0.9470 B(  9-C , 10-S ) :   1.6081 B(  9-C , 11-N ) :   1.3054
B( 11-N , 12-C ) :   0.9760 B( 11-N , 29-H ) :   0.9485 B( 12-C , 13-C ) :   0.9721
B( 12-C , 30-H ) :   0.9967 B( 13-C , 14-C ) :   1.3770 B( 13-C , 19-C ) :   1.3655
B( 14-C , 15-C ) :   1.3972 B( 14-C , 31-H ) :   0.9635 B( 15-C , 16-C ) :   1.3590
B( 15-C , 32-H ) :   0.9711 B( 16-C , 17-C ) :   1.3331 B( 16-C , 33-H ) :   0.9859
B( 17-C , 18-O ) :   1.1038 B( 17-C , 19-C ) :   1.3673 B( 18-O , 34-H ) :   0.9806
B( 19-C , 35-H ) :   0.9600

MP2 TOTAL ENERGY:    -1274.332380444 Eh
FINAL SINGLE POINT ENERGY     -1274.332380444054

DIPOLE MOMENT
-------------
                                X             Y             Z
Electronic contribution:      9.48744      10.33178      11.45318
Nuclear contribution   :    -11.11908     -11.50391     -12.31774
                        -----------------------------------------
Total Dipole Moment    :     -1.63164      -1.17213      -0.86455
                        -----------------------------------------
Magnitude (a.u.)       :      2.18714
Magnitude (Debye)      :      5.55927

Rotational constants in cm-1:     0.009946     0.009091     0.005566
Rotational constants in MHz :   298.185244   272.547015   166.858203

                             ****ORCA TERMINATED NORMALLY****
TOTAL RUN TIME: 0 days 1 hours 34 minutes 54 seconds 56 msec
