                         Program Version 4.2.0 -  RELEASE  -
|  1> ! ri-mp2 cc-pvtz cc-pvtz/c TightSCF NoKeepInts
|  2>
|  3> %scf
|  4>   MaxCore 4096
|  5> end
|  6> *xyz  0  1
|  7>     C       15.0951950   14.0778719   15.7017440
|  8>     C       15.0744031   15.5983907   15.9290525
|  9>     O       16.3063197   16.1293078   15.4129450
| 10>     C       16.3594146   17.4767329   15.2294311
| 11>     O       15.9184369   17.9680946   14.2068381
| 12>     C       16.8711895   18.2471257   16.4205705
| 13>     C       16.9342435   19.6042076   16.3739332
| 14>     C       16.2371675   20.5240320   15.3922110
| 15>     N       17.6934356   20.3254690   17.2979127
| 16>     C       18.6030332   19.7669872   18.1532553
| 17>     S       19.5605388   20.6867078   19.1393146
| 18>     N       18.6977079   18.3992585   18.1310441
| 19>     C       17.7990750   17.4922267   17.3924692
| 20>     C       17.1220868   16.4886552   18.3136093
| 21>     C       17.4985274   15.1331315   18.2979185
| 22>     C       16.8739151   14.2102071   19.1536091
| 23>     C       15.8711670   14.6482930   20.0357028
| 24>     C       15.5038845   16.0008055   20.0616051
| 25>     O       14.5368395   16.4268611   20.9121084
| 26>     C       16.1258620   16.9169362   19.2075069
| 27>     H       14.1651857   13.6222887   16.0624352
| 28>     H       15.9337448   13.6173681   16.2378068
| 29>     H       15.1992572   13.8491875   14.6336512
| 30>     H       14.2228384   16.0267368   15.3824713
| 31>     H       14.9488519   15.8265612   16.9935510
| 32>     H       15.1893676   20.2273230   15.2566277
| 33>     H       16.7212069   20.4757509   14.4081216
| 34>     H       16.2366138   21.5724990   15.7128562
| 35>     H       17.6564837   21.3323833   17.2988382
| 36>     H       19.3613997   18.0136145   18.7910598
| 37>     H       18.5369056   16.9892434   16.7509701
| 38>     H       18.2705099   14.7926132   17.6124574
| 39>     H       17.1677868   13.1619955   19.1319340
| 40>     H       15.3864742   13.9388516   20.6986339
| 41>     H       14.2723200   15.6704863   21.4574817
| 42>     H       15.8356108   17.9617949   19.2463224
| 43> *
| 44>
| 45>                          ****END OF INPUT****

CARTESIAN COORDINATES (ANGSTROEM)
---------------------------------
  C     15.095195   14.077872   15.701744
  C     15.074403   15.598391   15.929052
  O     16.306320   16.129308   15.412945
  C     16.359415   17.476733   15.229431
  O     15.918437   17.968095   14.206838
  C     16.871189   18.247126   16.420571
  C     16.934244   19.604208   16.373933
  C     16.237168   20.524032   15.392211
  N     17.693436   20.325469   17.297913
  C     18.603033   19.766987   18.153255
  S     19.560539   20.686708   19.139315
  N     18.697708   18.399258   18.131044
  C     17.799075   17.492227   17.392469
  C     17.122087   16.488655   18.313609
  C     17.498527   15.133131   18.297919
  C     16.873915   14.210207   19.153609
  C     15.871167   14.648293   20.035703
  C     15.503884   16.000805   20.061605
  O     14.536839   16.426861   20.912108
  C     16.125862   16.916936   19.207507
  H     14.165186   13.622289   16.062435
  H     15.933745   13.617368   16.237807
  H     15.199257   13.849187   14.633651
  H     14.222838   16.026737   15.382471
  H     14.948852   15.826561   16.993551
  H     15.189368   20.227323   15.256628
  H     16.721207   20.475751   14.408122
  H     16.236614   21.572499   15.712856
  H     17.656484   21.332383   17.298838
  H     19.361400   18.013614   18.791060
  H     18.536906   16.989243   16.750970
  H     18.270510   14.792613   17.612457
  H     17.167787   13.161995   19.131934
  H     15.386474   13.938852   20.698634
  H     14.272320   15.670486   21.457482
  H     15.835611   17.961795   19.246322

 Total Charge           Charge          ....    0
 Multiplicity           Mult            ....    1
 Number of Electrons    NEL             ....  154
 Basis Dimension        Dim             ....  828

ORBITAL ENERGIES
----------------

  NO   OCC          E(Eh)            E(eV)
   0   2.0000     -91.891464     -2500.4938
   1   2.0000     -20.602647      -560.6265
   2   2.0000     -20.582366      -560.0746
   3   2.0000     -20.546809      -559.1071
   4   2.0000     -15.631638      -425.3585
   5   2.0000     -15.609661      -424.7605
   6   2.0000     -11.391136      -309.9686
   7   2.0000     -11.385695      -309.8205
   8   2.0000     -11.340006      -308.5773
   9   2.0000     -11.320658      -308.0508
  10   2.0000     -11.312098      -307.8178
  11   2.0000     -11.294651      -307.3431
  12   2.0000     -11.266591      -306.5795
  13   2.0000     -11.261888      -306.4516
  14   2.0000     -11.259565      -306.3884
  15   2.0000     -11.253431      -306.2214
  16   2.0000     -11.250595      -306.1442
  17   2.0000     -11.245031      -305.9928
  18   2.0000     -11.244803      -305.9866
  19   2.0000     -11.225953      -305.4737
  20   2.0000      -8.896510      -242.0863
  21   2.0000      -6.578075      -178.9985
  22   2.0000      -6.576084      -178.9443
  23   2.0000      -6.575485      -178.9281
  24   2.0000      -1.448294       -39.4101
  25   2.0000      -1.422399       -38.7055
  26   2.0000      -1.353609       -36.8336
  27   2.0000      -1.343438       -36.5568
  28   2.0000      -1.241571       -33.7849
  29   2.0000      -1.163772       -31.6678
  30   2.0000      -1.123069       -30.5603
  31   2.0000      -1.047810       -28.5124
  32   2.0000      -1.034085       -28.1389
  33   2.0000      -1.021845       -27.8058
  34   2.0000      -0.999584       -27.2001
  35   2.0000      -0.987573       -26.8732
  36   2.0000      -0.925738       -25.1906
  37   2.0000      -0.876430       -23.8489
  38   2.0000      -0.850003       -23.1298
  39   2.0000      -0.843185       -22.9442
  40   2.0000      -0.840477       -22.8705
  41   2.0000      -0.831361       -22.6225
  42   2.0000      -0.762756       -20.7557
  43   2.0000      -0.738735       -20.1020
  44   2.0000      -0.725078       -19.7304
  45   2.0000      -0.701358       -19.0849
  46   2.0000      -0.690900       -18.8004
  47   2.0000      -0.679243       -18.4832
  48   2.0000      -0.673970       -18.3397
  49   2.0000      -0.655486       -17.8367
  50   2.0000      -0.649653       -17.6779
  51   2.0000      -0.642088       -17.4721
  52   2.0000      -0.633373       -17.2350
  53   2.0000      -0.620597       -16.8873
  54   2.0000      -0.612562       -16.6687
  55   2.0000      -0.604783       -16.4570
  56   2.0000      -0.602621       -16.3982
  57   2.0000      -0.581970       -15.8362
  58   2.0000      -0.572083       -15.5672
  59   2.0000      -0.566890       -15.4259
  60   2.0000      -0.554057       -15.0767
  61   2.0000      -0.544113       -14.8061
  62   2.0000      -0.534599       -14.5472
  63   2.0000      -0.529400       -14.4057
  64   2.0000      -0.517325       -14.0771
  65   2.0000      -0.516115       -14.0442
  66   2.0000      -0.505291       -13.7497
  67   2.0000      -0.500121       -13.6090
  68   2.0000      -0.485577       -13.2132
  69   2.0000      -0.465317       -12.6619
  70   2.0000      -0.460485       -12.5304
  71   2.0000      -0.445414       -12.1203
  72   2.0000      -0.356064        -9.6890
  73   2.0000      -0.355083        -9.6623
  74   2.0000      -0.331082        -9.0092
  75   2.0000      -0.327833        -8.9208
  76   2.0000      -0.321160        -8.7392
  77   0.0000       0.070953         1.9307
  78   0.0000       0.098177         2.6715
  79   0.0000       0.122328         3.3287
  80   0.0000       0.128452         3.4953
  81   0.0000       0.130369         3.5475

MULLIKEN ATOMIC CHARGES
-----------------------
   0 C :   -0.267317
   1 C :    0.009456
   2 O :   -0.370311
   3 C :    0.479089
   4 O :   -0.395161
   5 C :   -0.293104
   6 C :    0.182272
   7 C :   -0.265566
   8 N :   -0.127359
   9 C :    0.208534
  10 S :   -0.437871
  11 N :   -0.211706
  12 C :    0.057369
  13 C :   -0.018252
  14 C :   -0.155100
  15 C :   -0.144267
  16 C :   -0.264581
  17 C :    0.304619
  18 O :   -0.356616
  19 C :   -0.227235
  20 H :    0.088785
  21 H :    0.091222
  22 H :    0.108368
  23 H :    0.110108
  24 H :    0.114563
  25 H :    0.128684
  26 H :    0.134684
  27 H :    0.093960
  28 H :    0.200202
  29 H :    0.200770
  30 H :    0.152323
  31 H :    0.158529
  32 H :    0.168299
  33 H :    0.134553
  34 H :    0.241596
  35 H :    0.166463
Sum of atomic charges:   -0.0000000

LOEWDIN ATOMIC CHARGES
----------------------
   0 C :    0.110564
   1 C :   -0.021841
   2 O :    0.295510
   3 C :   -0.425474
   4 O :    0.119361
   5 C :   -0.103939
   6 C :   -0.053384
   7 C :    0.130872
   8 N :    0.407977
   9 C :   -0.457957
  10 S :   -0.033144
  11 N :    0.395066
  12 C :   -0.054578
  13 C :   -0.042460
  14 C :    0.020149
  15 C :    0.043820
  16 C :    0.000436
  17 C :   -0.191882
  18 O :    0.396550
  19 C :    0.032033
  20 H :   -0.025757
  21 H :   -0.031334
  22 H :   -0.024372
  23 H :   -0.030111
  24 H :   -0.035855
  25 H :   -0.005087
  26 H :   -0.003890
  27 H :   -0.023316
  28 H :   -0.056397
  29 H :   -0.063741
  30 H :   -0.011701
  31 H :   -0.027502
  32 H :   -0.019721
  33 H :   -0.033885
  34 H :   -0.152595
  35 H :   -0.022414

  Mayer bond orders larger than 0.100000
B(  0-C ,  1-C ) :   0.9809 B(  0-C , 20-H ) :   0.9759 B(  0-C , 21-H ) :   0.9772
B(  0-C , 22-H ) :   0.9782 B(  1-C ,  2-O ) :   0.8826 B(  1-C , 23-H ) :   0.9784
B(  1-C , 24-H ) :   0.9630 B(  2-O ,  3-C ) :   1.1118 B(  3-C ,  4-O ) :   2.0539
B(  3-C ,  5-C ) :   1.0473 B(  5-C ,  6-C ) :   1.6299 B(  5-C , 12-C ) :   0.9567
B(  6-C ,  7-C ) :   0.9671 B(  6-C ,  8-N ) :   1.1551 B(  7-C , 25-H ) :   0.9647
B(  7-C , 26-H ) :   0.9550 B(  7-C , 27-H ) :   0.9888 B(  8-N ,  9-C ) :   1.1861
B(  8-N , 28-H ) :   0.9465 B(  9-C , 10-S ) :   1.6110 B(  9-C , 11-N ) :   1.3069
B( 11-N , 12-C ) :   0.9667 B( 11-N , 29-H ) :   0.9486 B( 12-C , 13-C ) :   0.9656
B( 12-C , 30-H ) :   1.0035 B( 13-C , 14-C ) :   1.3559 B( 13-C , 19-C ) :   1.3702
B( 14-C , 15-C ) :   1.3858 B( 14-C , 31-H ) :   0.9703 B( 15-C , 16-C ) :   1.3611
B( 15-C , 32-H ) :   0.9680 B( 16-C , 17-C ) :   1.3305 B( 16-C , 33-H ) :   0.9833
B( 17-C , 18-O ) :   1.1076 B( 17-C , 19-C ) :   1.3684 B( 18-O , 34-H ) :   0.9787
B( 19-C , 35-H ) :   0.9600

MP2 TOTAL ENERGY:    -1274.327622512 Eh
FINAL SINGLE POINT ENERGY     -1274.327622511728

DIPOLE MOMENT
-------------
                                X             Y             Z
Electronic contribution:      9.10393      10.93033       5.99629
Nuclear contribution   :    -10.28471     -12.42062      -5.70946
                        -----------------------------------------
Total Dipole Moment    :     -1.18078      -1.49029       0.28684
                        -----------------------------------------
Magnitude (a.u.)       :      1.92289
Magnitude (Debye)      :      4.88759

Rotational constants in cm-1:     0.012519     0.008534     0.006028
Rotational constants in MHz :   375.319431   255.855018   180.706497

                             ****ORCA TERMINATED NORMALLY****
TOTAL RUN TIME: 0 days 1 hours 42 minutes 22 seconds 836 msec
