                         Program Version 4.2.0 -  RELEASE  -
|  1> ! ri-mp2 cc-pvtz cc-pvtz/c TightSCF NoKeepInts
|  2>
|  3> %scf
|  4>   MaxCore 4096
|  5> end
|  6> *xyz  0  1
|  7>     C       14.5419770   16.0308215   16.1219340
|  8>     C       15.1143862   15.8597815   14.6967382
|  9>     O       16.3724119   16.5448181   14.5040279
| 10>     C       17.3111431   16.5701962   15.4930054
| 11>     O       18.0914067   15.6465365   15.6386719
| 12>     C       17.1974847   17.7066154   16.4684021
| 13>     C       16.8299505   18.9549105   16.0797365
| 14>     C       16.2754511   19.3785362   14.7341470
| 15>     N       16.9960661   20.0457992   16.9363200
| 16>     C       17.7228184   20.0139645   18.0961567
| 17>     S       17.9698921   21.3714303   19.0078131
| 18>     N       18.2537258   18.7993609   18.4509876
| 19>     C       17.9756029   17.5169911   17.7749068
| 20>     C       17.3592607   16.4683275   18.6906956
| 21>     C       17.9196227   15.1821084   18.7867989
| 22>     C       17.3403515   14.2107818   19.6202750
| 23>     C       16.1906779   14.5285109   20.3636593
| 24>     C       15.6286881   15.8089051   20.2676623
| 25>     O       14.5134483   16.1159355   20.9767704
| 26>     C       16.2074169   16.7735609   19.4369119
| 27>     H       15.1861688   15.5525781   16.8709011
| 28>     H       13.5554885   15.5563097   16.1900240
| 29>     H       14.4210406   17.0899185   16.3793624
| 30>     H       15.2636203   14.7874620   14.5119556
| 31>     H       14.3873301   16.2237315   13.9594433
| 32>     H       15.2731487   18.9626366   14.5763462
| 33>     H       16.9197368   19.0273931   13.9179569
| 34>     H       16.1987110   20.4679036   14.6310870
| 35>     H       16.6357170   20.9498397   16.6755661
| 36>     H       18.7719583   18.7994448   19.3205930
| 37>     H       18.9941247   17.2250248   17.4793665
| 38>     H       18.7989001   14.9304236   18.1978667
| 39>     H       17.7797828   13.2166801   19.6816953
| 40>     H       15.7389569   13.7802532   21.0064309
| 41>     H       14.2925881   15.3434432   21.5186261
| 42>     H       15.7579446   17.7590651   19.3751583
| 43> *
| 44>
| 45>                          ****END OF INPUT****

CARTESIAN COORDINATES (ANGSTROEM)
---------------------------------
  C     14.541977   16.030821   16.121934
  C     15.114386   15.859782   14.696738
  O     16.372412   16.544818   14.504028
  C     17.311143   16.570196   15.493005
  O     18.091407   15.646536   15.638672
  C     17.197485   17.706615   16.468402
  C     16.829950   18.954910   16.079736
  C     16.275451   19.378536   14.734147
  N     16.996066   20.045799   16.936320
  C     17.722818   20.013964   18.096157
  S     17.969892   21.371430   19.007813
  N     18.253726   18.799361   18.450988
  C     17.975603   17.516991   17.774907
  C     17.359261   16.468328   18.690696
  C     17.919623   15.182108   18.786799
  C     17.340351   14.210782   19.620275
  C     16.190678   14.528511   20.363659
  C     15.628688   15.808905   20.267662
  O     14.513448   16.115935   20.976770
  C     16.207417   16.773561   19.436912
  H     15.186169   15.552578   16.870901
  H     13.555488   15.556310   16.190024
  H     14.421041   17.089918   16.379362
  H     15.263620   14.787462   14.511956
  H     14.387330   16.223731   13.959443
  H     15.273149   18.962637   14.576346
  H     16.919737   19.027393   13.917957
  H     16.198711   20.467904   14.631087
  H     16.635717   20.949840   16.675566
  H     18.771958   18.799445   19.320593
  H     18.994125   17.225025   17.479367
  H     18.798900   14.930424   18.197867
  H     17.779783   13.216680   19.681695
  H     15.738957   13.780253   21.006431
  H     14.292588   15.343443   21.518626
  H     15.757945   17.759065   19.375158

 Total Charge           Charge          ....    0
 Multiplicity           Mult            ....    1
 Number of Electrons    NEL             ....  154
 Basis Dimension        Dim             ....  828

ORBITAL ENERGIES
----------------

  NO   OCC          E(Eh)            E(eV)
   0   2.0000     -91.889946     -2500.4525
   1   2.0000     -20.595819      -560.4407
   2   2.0000     -20.584703      -560.1382
   3   2.0000     -20.551617      -559.2379
   4   2.0000     -15.630506      -425.3277
   5   2.0000     -15.607677      -424.7065
   6   2.0000     -11.394134      -310.0501
   7   2.0000     -11.384709      -309.7937
   8   2.0000     -11.338796      -308.5443
   9   2.0000     -11.312106      -307.8180
  10   2.0000     -11.307747      -307.6994
  11   2.0000     -11.306148      -307.6559
  12   2.0000     -11.262103      -306.4574
  13   2.0000     -11.260205      -306.4058
  14   2.0000     -11.258886      -306.3699
  15   2.0000     -11.252146      -306.1864
  16   2.0000     -11.242310      -305.9188
  17   2.0000     -11.238049      -305.8028
  18   2.0000     -11.234716      -305.7122
  19   2.0000     -11.233013      -305.6658
  20   2.0000      -8.895021      -242.0458
  21   2.0000      -6.576595      -178.9583
  22   2.0000      -6.574594      -178.9038
  23   2.0000      -6.574003      -178.8877
  24   2.0000      -1.447410       -39.3860
  25   2.0000      -1.415616       -38.5209
  26   2.0000      -1.356063       -36.9003
  27   2.0000      -1.341725       -36.5102
  28   2.0000      -1.238905       -33.7123
  29   2.0000      -1.156500       -31.4700
  30   2.0000      -1.122699       -30.5502
  31   2.0000      -1.044701       -28.4278
  32   2.0000      -1.034331       -28.1456
  33   2.0000      -1.014131       -27.5959
  34   2.0000      -1.002925       -27.2910
  35   2.0000      -0.987975       -26.8842
  36   2.0000      -0.924133       -25.1469
  37   2.0000      -0.897817       -24.4308
  38   2.0000      -0.850215       -23.1355
  39   2.0000      -0.838733       -22.8231
  40   2.0000      -0.832225       -22.6460
  41   2.0000      -0.820206       -22.3189
  42   2.0000      -0.748053       -20.3556
  43   2.0000      -0.733978       -19.9726
  44   2.0000      -0.728439       -19.8218
  45   2.0000      -0.693448       -18.8697
  46   2.0000      -0.687077       -18.6963
  47   2.0000      -0.677511       -18.4360
  48   2.0000      -0.671788       -18.2803
  49   2.0000      -0.664570       -18.0839
  50   2.0000      -0.652272       -17.7492
  51   2.0000      -0.648200       -17.6384
  52   2.0000      -0.637108       -17.3366
  53   2.0000      -0.617607       -16.8060
  54   2.0000      -0.605199       -16.4683
  55   2.0000      -0.602149       -16.3853
  56   2.0000      -0.599574       -16.3153
  57   2.0000      -0.581892       -15.8341
  58   2.0000      -0.575848       -15.6696
  59   2.0000      -0.563581       -15.3358
  60   2.0000      -0.558375       -15.1942
  61   2.0000      -0.548665       -14.9299
  62   2.0000      -0.545719       -14.8498
  63   2.0000      -0.532250       -14.4833
  64   2.0000      -0.520193       -14.1552
  65   2.0000      -0.511895       -13.9294
  66   2.0000      -0.498622       -13.5682
  67   2.0000      -0.492542       -13.4027
  68   2.0000      -0.482439       -13.1278
  69   2.0000      -0.465757       -12.6739
  70   2.0000      -0.457074       -12.4376
  71   2.0000      -0.450260       -12.2522
  72   2.0000      -0.354706        -9.6520
  73   2.0000      -0.347827        -9.4649
  74   2.0000      -0.329032        -8.9534
  75   2.0000      -0.319729        -8.7003
  76   2.0000      -0.318856        -8.6765
  77   0.0000       0.072794         1.9808
  78   0.0000       0.106704         2.9036
  79   0.0000       0.117655         3.2016
  80   0.0000       0.132442         3.6039
  81   0.0000       0.136568         3.7162

MULLIKEN ATOMIC CHARGES
-----------------------
   0 C :   -0.336625
   1 C :    0.036413
   2 O :   -0.380258
   3 C :    0.462273
   4 O :   -0.389046
   5 C :   -0.241733
   6 C :    0.165696
   7 C :   -0.287669
   8 N :   -0.127932
   9 C :    0.205235
  10 S :   -0.439970
  11 N :   -0.212241
  12 C :    0.063177
  13 C :    0.011349
  14 C :   -0.172392
  15 C :   -0.135274
  16 C :   -0.277784
  17 C :    0.317589
  18 O :   -0.359104
  19 C :   -0.255369
  20 H :    0.126494
  21 H :    0.119448
  22 H :    0.102382
  23 H :    0.112962
  24 H :    0.109083
  25 H :    0.117278
  26 H :    0.135435
  27 H :    0.106834
  28 H :    0.197942
  29 H :    0.199439
  30 H :    0.157932
  31 H :    0.166488
  32 H :    0.162177
  33 H :    0.130840
  34 H :    0.240722
  35 H :    0.168211
Sum of atomic charges:   -0.0000000

LOEWDIN ATOMIC CHARGES
----------------------
   0 C :    0.103799
   1 C :   -0.017697
   2 O :    0.286718
   3 C :   -0.422422
   4 O :    0.124911
   5 C :   -0.094281
   6 C :   -0.068999
   7 C :    0.126527
   8 N :    0.405864
   9 C :   -0.458423
  10 S :   -0.035984
  11 N :    0.396391
  12 C :   -0.048369
  13 C :   -0.043490
  14 C :    0.023858
  15 C :    0.041990
  16 C :   -0.001045
  17 C :   -0.194092
  18 O :    0.393796
  19 C :    0.030121
  20 H :   -0.021663
  21 H :   -0.022177
  22 H :   -0.032042
  23 H :   -0.025566
  24 H :   -0.025059
  25 H :   -0.012641
  26 H :   -0.005853
  27 H :   -0.019794
  28 H :   -0.058539
  29 H :   -0.063295
  30 H :   -0.006582
  31 H :   -0.022489
  32 H :   -0.019842
  33 H :   -0.035409
  34 H :   -0.154096
  35 H :   -0.024128

  Mayer bond orders larger than 0.100000
B(  0-C ,  1-C ) :   0.9588 B(  0-C , 20-H ) :   0.9662 B(  0-C , 21-H ) :   0.9761
B(  0-C , 22-H ) :   0.9706 B(  1-C ,  2-O ) :   0.9023 B(  1-C , 23-H ) :   0.9860
B(  1-C , 24-H ) :   0.9811 B(  2-O ,  3-C ) :   1.0793 B(  3-C ,  4-O ) :   2.0540
B(  3-C ,  5-C ) :   0.9985 B(  5-C ,  6-C ) :   1.6804 B(  5-C , 12-C ) :   0.9453
B(  6-C ,  7-C ) :   0.9518 B(  6-C ,  8-N ) :   1.1358 B(  7-C , 25-H ) :   0.9663
B(  7-C , 26-H ) :   0.9642 B(  7-C , 27-H ) :   0.9898 B(  8-N ,  9-C ) :   1.1848
B(  8-N , 28-H ) :   0.9469 B(  9-C , 10-S ) :   1.6124 B(  9-C , 11-N ) :   1.3015
B( 11-N , 12-C ) :   0.9802 B( 11-N , 29-H ) :   0.9489 B( 12-C , 13-C ) :   0.9645
B( 12-C , 30-H ) :   0.9959 B( 13-C , 14-C ) :   1.3847 B( 13-C , 19-C ) :   1.3587
B( 14-C , 15-C ) :   1.3971 B( 14-C , 31-H ) :   0.9603 B( 15-C , 16-C ) :   1.3601
B( 15-C , 32-H ) :   0.9708 B( 16-C , 17-C ) :   1.3315 B( 16-C , 33-H ) :   0.9850
B( 17-C , 18-O ) :   1.1062 B( 17-C , 19-C ) :   1.3648 B( 18-O , 34-H ) :   0.9801
B( 19-C , 35-H ) :   0.9598

MP2 TOTAL ENERGY:    -1274.325167810 Eh
FINAL SINGLE POINT ENERGY     -1274.325167809757

DIPOLE MOMENT
-------------
                                X             Y             Z
Electronic contribution:      9.15820       7.62927       7.06079
Nuclear contribution   :    -10.60783      -8.83548      -7.75779
                        -----------------------------------------
Total Dipole Moment    :     -1.44963      -1.20621      -0.69700
                        -----------------------------------------
Magnitude (a.u.)       :      2.01052
Magnitude (Debye)      :      5.11034

Rotational constants in cm-1:     0.011245     0.009380     0.006406
Rotational constants in MHz :   337.124109   281.207168   192.060365

                             ****ORCA TERMINATED NORMALLY****
TOTAL RUN TIME: 0 days 1 hours 50 minutes 22 seconds 225 msec
