                         Program Version 4.2.0 -  RELEASE  -
|  1> ! ri-mp2 cc-pvtz cc-pvtz/c TightSCF NoKeepInts
|  2>
|  3> %scf
|  4>   MaxCore 4096
|  5> end
|  6> *xyz  0  1
|  7>     C       14.2873293   16.7895156   16.0094150
|  8>     C       15.2227346   15.5945302   15.7265065
|  9>     O       16.3880044   15.9405232   14.9391130
| 10>     C       17.4710987   16.6391279   15.4102137
| 11>     O       18.6012258   16.3877054   15.0369466
| 12>     C       17.2029072   17.6829996   16.4319797
| 13>     C       16.8169525   18.9133054   16.0234974
| 14>     C       16.3601931   19.2991121   14.6323232
| 15>     N       16.8992341   20.0110084   16.8813196
| 16>     C       17.5680329   19.9987156   18.0779278
| 17>     S       17.7204432   21.3590913   19.0056436
| 18>     N       18.1279090   18.8019396   18.4566570
| 19>     C       17.9386034   17.5149537   17.7574606
| 20>     C       17.3631529   16.3910508   18.6035763
| 21>     C       17.9245646   15.1031312   18.5421757
| 22>     C       17.3745131   14.0493897   19.2909050
| 23>     C       16.2517461   14.2856582   20.1028449
| 24>     C       15.6871477   15.5673713   20.1602740
| 25>     O       14.5958556   15.7955037   20.9330421
| 26>     C       16.2360365   16.6143177   19.4130078
| 27>     H       14.6456214   17.4075514   16.8394602
| 28>     H       13.2956225   16.4200407   16.2980466
| 29>     H       14.1608870   17.4127726   15.1165806
| 30>     H       15.5267083   15.1249102   16.6719242
| 31>     H       14.6504501   14.8456642   15.1636834
| 32>     H       16.1107757   18.4292963   14.0132775
| 33>     H       17.1519168   19.8501023   14.1086371
| 34>     H       15.4679210   19.9360247   14.6668030
| 35>     H       16.5360608   20.9056570   16.5922406
| 36>     H       18.6140228   18.8210856   19.3445015
| 37>     H       18.9804142   17.2860098   17.4863948
| 38>     H       18.7859012   14.9173785   17.9035663
| 39>     H       17.8170140   13.0557885   19.2379541
| 40>     H       15.8232598   13.4740489   20.6819462
| 41>     H       14.4008619   14.9760989   21.4127403
| 42>     H       15.7818775   17.5986201   19.4654140
| 43> *
| 44>
| 45>                          ****END OF INPUT****

CARTESIAN COORDINATES (ANGSTROEM)
---------------------------------
  C     14.287329   16.789516   16.009415
  C     15.222735   15.594530   15.726506
  O     16.388004   15.940523   14.939113
  C     17.471099   16.639128   15.410214
  O     18.601226   16.387705   15.036947
  C     17.202907   17.683000   16.431980
  C     16.816952   18.913305   16.023497
  C     16.360193   19.299112   14.632323
  N     16.899234   20.011008   16.881320
  C     17.568033   19.998716   18.077928
  S     17.720443   21.359091   19.005644
  N     18.127909   18.801940   18.456657
  C     17.938603   17.514954   17.757461
  C     17.363153   16.391051   18.603576
  C     17.924565   15.103131   18.542176
  C     17.374513   14.049390   19.290905
  C     16.251746   14.285658   20.102845
  C     15.687148   15.567371   20.160274
  O     14.595856   15.795504   20.933042
  C     16.236037   16.614318   19.413008
  H     14.645621   17.407551   16.839460
  H     13.295622   16.420041   16.298047
  H     14.160887   17.412773   15.116581
  H     15.526708   15.124910   16.671924
  H     14.650450   14.845664   15.163683
  H     16.110776   18.429296   14.013277
  H     17.151917   19.850102   14.108637
  H     15.467921   19.936025   14.666803
  H     16.536061   20.905657   16.592241
  H     18.614023   18.821086   19.344501
  H     18.980414   17.286010   17.486395
  H     18.785901   14.917378   17.903566
  H     17.817014   13.055789   19.237954
  H     15.823260   13.474049   20.681946
  H     14.400862   14.976099   21.412740
  H     15.781878   17.598620   19.465414

 Total Charge           Charge          ....    0
 Multiplicity           Mult            ....    1
 Number of Electrons    NEL             ....  154
 Basis Dimension        Dim             ....  828

ORBITAL ENERGIES
----------------

  NO   OCC          E(Eh)            E(eV)
   0   2.0000     -91.889087     -2500.4292
   1   2.0000     -20.604295      -560.6714
   2   2.0000     -20.596901      -560.4702
   3   2.0000     -20.553513      -559.2895
   4   2.0000     -15.625569      -425.1933
   5   2.0000     -15.610143      -424.7736
   6   2.0000     -11.398160      -310.1597
   7   2.0000     -11.385307      -309.8100
   8   2.0000     -11.326903      -308.2207
   9   2.0000     -11.322631      -308.1044
  10   2.0000     -11.312562      -307.8305
  11   2.0000     -11.306464      -307.6645
  12   2.0000     -11.269711      -306.6644
  13   2.0000     -11.263436      -306.4937
  14   2.0000     -11.262092      -306.4571
  15   2.0000     -11.257980      -306.3452
  16   2.0000     -11.251647      -306.1729
  17   2.0000     -11.246987      -306.0461
  18   2.0000     -11.245956      -306.0180
  19   2.0000     -11.232976      -305.6648
  20   2.0000      -8.894190      -242.0232
  21   2.0000      -6.575773      -178.9359
  22   2.0000      -6.573761      -178.8811
  23   2.0000      -6.573180      -178.8653
  24   2.0000      -1.445693       -39.3393
  25   2.0000      -1.423999       -38.7490
  26   2.0000      -1.360372       -37.0176
  27   2.0000      -1.339046       -36.4373
  28   2.0000      -1.238637       -33.7050
  29   2.0000      -1.166391       -31.7391
  30   2.0000      -1.126906       -30.6647
  31   2.0000      -1.051447       -28.6113
  32   2.0000      -1.037057       -28.2198
  33   2.0000      -1.024067       -27.8663
  34   2.0000      -1.005912       -27.3722
  35   2.0000      -0.990431       -26.9510
  36   2.0000      -0.927757       -25.2456
  37   2.0000      -0.894646       -24.3446
  38   2.0000      -0.852029       -23.1849
  39   2.0000      -0.843804       -22.9611
  40   2.0000      -0.842299       -22.9201
  41   2.0000      -0.831914       -22.6375
  42   2.0000      -0.754093       -20.5199
  43   2.0000      -0.738578       -20.0977
  44   2.0000      -0.728783       -19.8312
  45   2.0000      -0.702280       -19.1100
  46   2.0000      -0.691962       -18.8292
  47   2.0000      -0.679718       -18.4961
  48   2.0000      -0.675939       -18.3932
  49   2.0000      -0.664441       -18.0804
  50   2.0000      -0.653770       -17.7900
  51   2.0000      -0.643971       -17.5233
  52   2.0000      -0.638734       -17.3808
  53   2.0000      -0.615945       -16.7607
  54   2.0000      -0.609746       -16.5920
  55   2.0000      -0.607663       -16.5354
  56   2.0000      -0.605098       -16.4655
  57   2.0000      -0.587890       -15.9973
  58   2.0000      -0.582233       -15.8434
  59   2.0000      -0.578691       -15.7470
  60   2.0000      -0.565852       -15.3976
  61   2.0000      -0.555718       -15.1219
  62   2.0000      -0.540526       -14.7085
  63   2.0000      -0.533519       -14.5178
  64   2.0000      -0.524855       -14.2820
  65   2.0000      -0.514981       -14.0133
  66   2.0000      -0.504006       -13.7147
  67   2.0000      -0.500100       -13.6084
  68   2.0000      -0.491426       -13.3724
  69   2.0000      -0.462607       -12.5882
  70   2.0000      -0.456713       -12.4278
  71   2.0000      -0.453131       -12.3303
  72   2.0000      -0.356859        -9.7106
  73   2.0000      -0.352891        -9.6026
  74   2.0000      -0.331178        -9.0118
  75   2.0000      -0.328179        -8.9302
  76   2.0000      -0.318590        -8.6693
  77   0.0000       0.089256         2.4288
  78   0.0000       0.099540         2.7086
  79   0.0000       0.119699         3.2572
  80   0.0000       0.123331         3.3560
  81   0.0000       0.127024         3.4565

MULLIKEN ATOMIC CHARGES
-----------------------
   0 C :   -0.331096
   1 C :    0.034533
   2 O :   -0.333327
   3 C :    0.411399
   4 O :   -0.374257
   5 C :   -0.210650
   6 C :    0.150642
   7 C :   -0.328911
   8 N :   -0.138323
   9 C :    0.210529
  10 S :   -0.443616
  11 N :   -0.222710
  12 C :    0.067494
  13 C :    0.011010
  14 C :   -0.223506
  15 C :   -0.126294
  16 C :   -0.277404
  17 C :    0.313092
  18 O :   -0.353990
  19 C :   -0.249067
  20 H :    0.113501
  21 H :    0.120718
  22 H :    0.105115
  23 H :    0.103554
  24 H :    0.124398
  25 H :    0.122580
  26 H :    0.150091
  27 H :    0.112119
  28 H :    0.197841
  29 H :    0.200960
  30 H :    0.169055
  31 H :    0.172325
  32 H :    0.166275
  33 H :    0.134457
  34 H :    0.242023
  35 H :    0.179439
Sum of atomic charges:   -0.0000000

LOEWDIN ATOMIC CHARGES
----------------------
   0 C :    0.101449
   1 C :   -0.012694
   2 O :    0.291413
   3 C :   -0.417154
   4 O :    0.127464
   5 C :   -0.083038
   6 C :   -0.091493
   7 C :    0.125756
   8 N :    0.403559
   9 C :   -0.454299
  10 S :   -0.038968
  11 N :    0.395713
  12 C :   -0.052713
  13 C :   -0.045392
  14 C :    0.016166
  15 C :    0.044805
  16 C :    0.000457
  17 C :   -0.190832
  18 O :    0.396851
  19 C :    0.029966
  20 H :   -0.035253
  21 H :   -0.023101
  22 H :   -0.029506
  23 H :   -0.029055
  24 H :   -0.019526
  25 H :   -0.011602
  26 H :   -0.007177
  27 H :   -0.017468
  28 H :   -0.057222
  29 H :   -0.064607
  30 H :   -0.003901
  31 H :   -0.022352
  32 H :   -0.017788
  33 H :   -0.033759
  34 H :   -0.152282
  35 H :   -0.022417

  Mayer bond orders larger than 0.100000
B(  0-C ,  1-C ) :   0.9545 B(  0-C , 20-H ) :   0.9718 B(  0-C , 21-H ) :   0.9792
B(  0-C , 22-H ) :   0.9759 B(  1-C ,  2-O ) :   0.9024 B(  1-C , 23-H ) :   0.9725
B(  1-C , 24-H ) :   0.9845 B(  2-O ,  3-C ) :   1.1623 B(  3-C ,  4-O ) :   2.1228
B(  3-C ,  5-C ) :   0.9116 B(  5-C ,  6-C ) :   1.7253 B(  5-C , 12-C ) :   0.9333
B(  6-C ,  7-C ) :   0.9483 B(  6-C ,  8-N ) :   1.1055 B(  7-C , 25-H ) :   0.9773
B(  7-C , 26-H ) :   0.9639 B(  7-C , 27-H ) :   0.9724 B(  8-N ,  9-C ) :   1.2010
B(  8-N , 28-H ) :   0.9498 B(  9-C , 10-S ) :   1.6105 B(  9-C , 11-N ) :   1.2858
B( 11-N , 12-C ) :   0.9860 B( 11-N , 29-H ) :   0.9480 B( 12-C , 13-C ) :   0.9605
B( 12-C , 30-H ) :   0.9927 B( 13-C , 14-C ) :   1.3821 B( 13-C , 19-C ) :   1.3499
B( 14-C , 15-C ) :   1.3935 B( 14-C , 31-H ) :   0.9631 B( 15-C , 16-C ) :   1.3636
B( 15-C , 32-H ) :   0.9692 B( 16-C , 17-C ) :   1.3286 B( 16-C , 33-H ) :   0.9839
B( 17-C , 18-O ) :   1.1131 B( 17-C , 19-C ) :   1.3659 B( 18-O , 34-H ) :   0.9786
B( 19-C , 35-H ) :   0.9542

MP2 TOTAL ENERGY:    -1274.324960300 Eh
FINAL SINGLE POINT ENERGY     -1274.324960300057

DIPOLE MOMENT
-------------
                                X             Y             Z
Electronic contribution:      9.22589       5.99482       6.56822
Nuclear contribution   :    -10.77721      -7.59767      -6.64154
                        -----------------------------------------
Total Dipole Moment    :     -1.55132      -1.60285      -0.07332
                        -----------------------------------------
Magnitude (a.u.)       :      2.23184
Magnitude (Debye)      :      5.67289

Rotational constants in cm-1:     0.012010     0.009071     0.006638
Rotational constants in MHz :   360.040535   271.952050   199.003629

                             ****ORCA TERMINATED NORMALLY****
TOTAL RUN TIME: 0 days 1 hours 46 minutes 5 seconds 843 msec
