                         Program Version 4.2.0 -  RELEASE  -
|  1> ! ri-mp2 cc-pvtz cc-pvtz/c TightSCF NoKeepInts
|  2>
|  3> %scf
|  4>   MaxCore 4096
|  5> end
|  6> *xyz  0  1
|  7>     C       14.5707499   16.3951992   16.1572938
|  8>     C       15.5106180   15.2187040   15.8075280
|  9>     O       16.8721165   15.5566338   15.4217253
| 10>     C       17.4344008   16.7978148   15.2683754
| 11>     O       18.1238118   17.0488395   14.2973000
| 12>     C       17.1539479   17.8053922   16.3362854
| 13>     C       16.9325005   19.0914196   15.9759181
| 14>     C       16.5482272   19.5740053   14.5936065
| 15>     N       17.0661953   20.1346927   16.8932606
| 16>     C       17.6636470   20.0032523   18.1187232
| 17>     S       17.9048103   21.2979829   19.1188093
| 18>     N       18.0774319   18.7403744   18.4655916
| 19>     C       17.7802806   17.5074560   17.7089267
| 20>     C       17.1356457   16.4092183   18.5454089
| 21>     C       17.6184185   15.0892957   18.4749044
| 22>     C       17.0379725   14.0728562   19.2517845
| 23>     C       15.9713145   14.3800959   20.1134940
| 24>     C       15.4976205   15.6964350   20.1976284
| 25>     O       14.4688211   15.9967326   21.0291356
| 26>     C       16.0779606   16.7062553   19.4235057
| 27>     H       14.8357828   16.8825157   17.0981097
| 28>     H       13.5458963   16.0221864   16.2740862
| 29>     H       14.5556075   17.1420059   15.3547001
| 30>     H       15.5424009   14.5288974   16.6607417
| 31>     H       15.0576009   14.6644651   14.9752642
| 32>     H       15.9500785   18.8254406   14.0600149
| 33>     H       17.4481846   19.7574157   13.9918409
| 34>     H       15.9619401   20.5001356   14.6224222
| 35>     H       16.8117719   21.0731739   16.6287358
| 36>     H       18.5102943   18.6727675   19.3784120
| 37>     H       18.8089200   17.1993154   17.4705815
| 38>     H       18.4409579   14.8480429   17.8055212
| 39>     H       17.4159698   13.0538136   19.1850730
| 40>     H       15.5199382   13.5982155   20.7156819
| 41>     H       14.2372865   15.1892143   21.5125559
| 42>     H       15.6978789   17.7197387   19.5050533
| 43> *
| 44>
| 45>                          ****END OF INPUT****

CARTESIAN COORDINATES (ANGSTROEM)
---------------------------------
  C     14.570750   16.395199   16.157294
  C     15.510618   15.218704   15.807528
  O     16.872117   15.556634   15.421725
  C     17.434401   16.797815   15.268375
  O     18.123812   17.048839   14.297300
  C     17.153948   17.805392   16.336285
  C     16.932500   19.091420   15.975918
  C     16.548227   19.574005   14.593606
  N     17.066195   20.134693   16.893261
  C     17.663647   20.003252   18.118723
  S     17.904810   21.297983   19.118809
  N     18.077432   18.740374   18.465592
  C     17.780281   17.507456   17.708927
  C     17.135646   16.409218   18.545409
  C     17.618419   15.089296   18.474904
  C     17.037972   14.072856   19.251784
  C     15.971315   14.380096   20.113494
  C     15.497620   15.696435   20.197628
  O     14.468821   15.996733   21.029136
  C     16.077961   16.706255   19.423506
  H     14.835783   16.882516   17.098110
  H     13.545896   16.022186   16.274086
  H     14.555608   17.142006   15.354700
  H     15.542401   14.528897   16.660742
  H     15.057601   14.664465   14.975264
  H     15.950078   18.825441   14.060015
  H     17.448185   19.757416   13.991841
  H     15.961940   20.500136   14.622422
  H     16.811772   21.073174   16.628736
  H     18.510294   18.672767   19.378412
  H     18.808920   17.199315   17.470581
  H     18.440958   14.848043   17.805521
  H     17.415970   13.053814   19.185073
  H     15.519938   13.598215   20.715682
  H     14.237286   15.189214   21.512556
  H     15.697879   17.719739   19.505053

 Total Charge           Charge          ....    0
 Multiplicity           Mult            ....    1
 Number of Electrons    NEL             ....  154
 Basis Dimension        Dim             ....  828

ORBITAL ENERGIES
----------------

  NO   OCC          E(Eh)            E(eV)
   0   2.0000     -91.890068     -2500.4559
   1   2.0000     -20.603530      -560.6506
   2   2.0000     -20.590523      -560.2966
   3   2.0000     -20.551251      -559.2280
   4   2.0000     -15.626542      -425.2198
   5   2.0000     -15.610708      -424.7890
   6   2.0000     -11.396438      -310.1129
   7   2.0000     -11.385359      -309.8114
   8   2.0000     -11.327739      -308.2435
   9   2.0000     -11.321631      -308.0772
  10   2.0000     -11.316294      -307.9320
  11   2.0000     -11.306261      -307.6590
  12   2.0000     -11.269825      -306.6675
  13   2.0000     -11.262409      -306.4657
  14   2.0000     -11.255992      -306.2911
  15   2.0000     -11.255966      -306.2904
  16   2.0000     -11.251614      -306.1720
  17   2.0000     -11.247147      -306.0504
  18   2.0000     -11.246042      -306.0204
  19   2.0000     -11.234446      -305.7048
  20   2.0000      -8.895143      -242.0491
  21   2.0000      -6.576717      -178.9616
  22   2.0000      -6.574716      -178.9071
  23   2.0000      -6.574127      -178.8911
  24   2.0000      -1.441256       -39.2186
  25   2.0000      -1.423335       -38.7309
  26   2.0000      -1.354850       -36.8673
  27   2.0000      -1.339668       -36.4542
  28   2.0000      -1.239635       -33.7322
  29   2.0000      -1.165033       -31.7022
  30   2.0000      -1.123910       -30.5832
  31   2.0000      -1.049638       -28.5621
  32   2.0000      -1.036402       -28.2019
  33   2.0000      -1.023575       -27.8529
  34   2.0000      -1.003693       -27.3119
  35   2.0000      -0.989358       -26.9218
  36   2.0000      -0.926284       -25.2055
  37   2.0000      -0.901371       -24.5276
  38   2.0000      -0.850308       -23.1381
  39   2.0000      -0.843954       -22.9652
  40   2.0000      -0.841638       -22.9021
  41   2.0000      -0.825146       -22.4534
  42   2.0000      -0.747476       -20.3399
  43   2.0000      -0.738578       -20.0977
  44   2.0000      -0.722618       -19.6634
  45   2.0000      -0.701938       -19.1007
  46   2.0000      -0.688903       -18.7460
  47   2.0000      -0.675949       -18.3935
  48   2.0000      -0.674782       -18.3617
  49   2.0000      -0.662336       -18.0231
  50   2.0000      -0.657141       -17.8817
  51   2.0000      -0.648798       -17.6547
  52   2.0000      -0.639328       -17.3970
  53   2.0000      -0.617373       -16.7996
  54   2.0000      -0.611891       -16.6504
  55   2.0000      -0.605860       -16.4863
  56   2.0000      -0.603126       -16.4119
  57   2.0000      -0.582851       -15.8602
  58   2.0000      -0.577081       -15.7032
  59   2.0000      -0.566813       -15.4238
  60   2.0000      -0.565607       -15.3910
  61   2.0000      -0.555394       -15.1130
  62   2.0000      -0.541937       -14.7468
  63   2.0000      -0.531731       -14.4691
  64   2.0000      -0.525326       -14.2948
  65   2.0000      -0.515329       -14.0228
  66   2.0000      -0.504681       -13.7331
  67   2.0000      -0.493608       -13.4318
  68   2.0000      -0.489518       -13.3205
  69   2.0000      -0.467810       -12.7297
  70   2.0000      -0.452424       -12.3111
  71   2.0000      -0.449022       -12.2185
  72   2.0000      -0.358648        -9.7593
  73   2.0000      -0.348287        -9.4774
  74   2.0000      -0.329888        -8.9767
  75   2.0000      -0.328464        -8.9380
  76   2.0000      -0.319569        -8.6959
  77   0.0000       0.082145         2.2353
  78   0.0000       0.098098         2.6694
  79   0.0000       0.120609         3.2819
  80   0.0000       0.126746         3.4489
  81   0.0000       0.128239         3.4896

MULLIKEN ATOMIC CHARGES
-----------------------
   0 C :   -0.323958
   1 C :    0.029848
   2 O :   -0.346705
   3 C :    0.417422
   4 O :   -0.367746
   5 C :   -0.244569
   6 C :    0.166320
   7 C :   -0.286976
   8 N :   -0.135048
   9 C :    0.213035
  10 S :   -0.440625
  11 N :   -0.226795
  12 C :    0.063353
  13 C :    0.027269
  14 C :   -0.224841
  15 C :   -0.136451
  16 C :   -0.274466
  17 C :    0.322219
  18 O :   -0.354195
  19 C :   -0.249832
  20 H :    0.118342
  21 H :    0.121664
  22 H :    0.097396
  23 H :    0.108595
  24 H :    0.122966
  25 H :    0.114101
  26 H :    0.146541
  27 H :    0.099033
  28 H :    0.197658
  29 H :    0.203764
  30 H :    0.159424
  31 H :    0.158483
  32 H :    0.167610
  33 H :    0.134957
  34 H :    0.241580
  35 H :    0.180625
Sum of atomic charges:   -0.0000000

LOEWDIN ATOMIC CHARGES
----------------------
   0 C :    0.102852
   1 C :   -0.010680
   2 O :    0.290118
   3 C :   -0.424613
   4 O :    0.129199
   5 C :   -0.092698
   6 C :   -0.078466
   7 C :    0.128232
   8 N :    0.405565
   9 C :   -0.455345
  10 S :   -0.036226
  11 N :    0.395674
  12 C :   -0.053008
  13 C :   -0.042542
  14 C :    0.022595
  15 C :    0.041680
  16 C :    0.000015
  17 C :   -0.191975
  18 O :    0.396753
  19 C :    0.031359
  20 H :   -0.034491
  21 H :   -0.020525
  22 H :   -0.031652
  23 H :   -0.026841
  24 H :   -0.024917
  25 H :   -0.012412
  26 H :   -0.003551
  27 H :   -0.020875
  28 H :   -0.057589
  29 H :   -0.064127
  30 H :   -0.009237
  31 H :   -0.025156
  32 H :   -0.018826
  33 H :   -0.033785
  34 H :   -0.152547
  35 H :   -0.021960

  Mayer bond orders larger than 0.100000
B(  0-C ,  1-C ) :   0.9624 B(  0-C , 20-H ) :   0.9679 B(  0-C , 21-H ) :   0.9754
B(  0-C , 22-H ) :   0.9729 B(  1-C ,  2-O ) :   0.9018 B(  1-C , 23-H ) :   0.9723
B(  1-C , 24-H ) :   0.9821 B(  2-O ,  3-C ) :   1.1557 B(  3-C ,  4-O ) :   2.1183
B(  3-C ,  5-C ) :   0.9368 B(  5-C ,  6-C ) :   1.6845 B(  5-C , 12-C ) :   0.9492
B(  6-C ,  7-C ) :   0.9493 B(  6-C ,  8-N ) :   1.1330 B(  7-C , 25-H ) :   0.9768
B(  7-C , 26-H ) :   0.9568 B(  7-C , 27-H ) :   0.9831 B(  8-N ,  9-C ) :   1.1995
B(  8-N , 28-H ) :   0.9497 B(  9-C , 10-S ) :   1.6109 B(  9-C , 11-N ) :   1.2866
B( 11-N , 12-C ) :   0.9752 B( 11-N , 29-H ) :   0.9456 B( 12-C , 13-C ) :   0.9587
B( 12-C , 30-H ) :   1.0031 B( 13-C , 14-C ) :   1.3632 B( 13-C , 19-C ) :   1.3413
B( 14-C , 15-C ) :   1.3998 B( 14-C , 31-H ) :   0.9716 B( 15-C , 16-C ) :   1.3541
B( 15-C , 32-H ) :   0.9695 B( 16-C , 17-C ) :   1.3320 B( 16-C , 33-H ) :   0.9837
B( 17-C , 18-O ) :   1.1103 B( 17-C , 19-C ) :   1.3617 B( 18-O , 34-H ) :   0.9789
B( 19-C , 35-H ) :   0.9563

MP2 TOTAL ENERGY:    -1274.314766632 Eh
FINAL SINGLE POINT ENERGY     -1274.314766632264

DIPOLE MOMENT
-------------
                                X             Y             Z
Electronic contribution:      8.56823       7.07597       6.43445
Nuclear contribution   :    -10.07186      -8.80878      -6.37850
                        -----------------------------------------
Total Dipole Moment    :     -1.50363      -1.73281       0.05594
                        -----------------------------------------
Magnitude (a.u.)       :      2.29492
Magnitude (Debye)      :      5.83322

Rotational constants in cm-1:     0.012380     0.009146     0.006300
Rotational constants in MHz :   371.147974   274.204091   188.857669

                             ****ORCA TERMINATED NORMALLY****
TOTAL RUN TIME: 0 days 2 hours 7 minutes 54 seconds 766 msec
