                         Program Version 4.2.0 -  RELEASE  -
|  1> ! ri-mp2 cc-pvtz cc-pvtz/c TightSCF NoKeepInts
|  2>
|  3> %scf
|  4>   MaxCore 4096
|  5> end
|  6> *xyz  0  1
|  7>     C       14.9471586   14.4394764   16.5321499
|  8>     C       15.2915629   15.4365862   15.4150749
|  9>     O       16.6925260   15.7635778   15.4669453
| 10>     C       17.0142397   17.0404749   15.1222817
| 11>     O       17.0715333   17.3547489   13.9473668
| 12>     C       17.0992163   18.0034533   16.2743209
| 13>     C       17.0775329   19.3397601   16.0295905
| 14>     C       16.5781279   20.0323750   14.7780504
| 15>     N       17.5228139   20.2586146   16.9816420
| 16>     C       18.2383535   19.9225102   18.0977769
| 17>     S       18.8549117   21.0650415   19.1222679
| 18>     N       18.4417876   18.5825115   18.3073662
| 19>     C       17.8120841   17.4911531   17.5388789
| 20>     C       17.0340829   16.5464936   18.4410415
| 21>     C       17.5039946   15.2434108   18.6885291
| 22>     C       16.8331359   14.4037731   19.5942418
| 23>     C       15.6886544   14.8740163   20.2618315
| 24>     C       15.2228936   16.1743844   20.0209558
| 25>     O       14.1196935   16.6315037   20.6645813
| 26>     C       15.8914955   17.0071744   19.1176003
| 27>     H       15.6954941   13.6391973   16.5879817
| 28>     H       13.9683859   13.9816128   16.3456037
| 29>     H       14.8961960   14.9429895   17.5003186
| 30>     H       15.0600805   14.9985456   14.4350932
| 31>     H       14.6708649   16.3346764   15.5403607
| 32>     H       17.3437373   20.0040286   13.9917232
| 33>     H       16.3109025   21.0816440   14.9507852
| 34>     H       15.6847520   19.5330140   14.3827069
| 35>     H       17.4129834   21.2462892   16.8152711
| 36>     H       18.9543191   18.3628050   19.1523352
| 37>     H       18.7203137   16.9957479   17.1668494
| 38>     H       18.3941425   14.8819022   18.1801784
| 39>     H       17.2025996   13.3963903   19.7787671
| 40>     H       15.1690086   14.2296729   20.9634753
| 41>     H       13.8356233   15.9417448   21.2833520
| 42>     H       15.5317980   18.0186998   18.9607048
| 43> *
| 44>
| 45>                          ****END OF INPUT****

CARTESIAN COORDINATES (ANGSTROEM)
---------------------------------
  C     14.947159   14.439476   16.532150
  C     15.291563   15.436586   15.415075
  O     16.692526   15.763578   15.466945
  C     17.014240   17.040475   15.122282
  O     17.071533   17.354749   13.947367
  C     17.099216   18.003453   16.274321
  C     17.077533   19.339760   16.029591
  C     16.578128   20.032375   14.778050
  N     17.522814   20.258615   16.981642
  C     18.238353   19.922510   18.097777
  S     18.854912   21.065041   19.122268
  N     18.441788   18.582511   18.307366
  C     17.812084   17.491153   17.538879
  C     17.034083   16.546494   18.441041
  C     17.503995   15.243411   18.688529
  C     16.833136   14.403773   19.594242
  C     15.688654   14.874016   20.261831
  C     15.222894   16.174384   20.020956
  O     14.119693   16.631504   20.664581
  C     15.891495   17.007174   19.117600
  H     15.695494   13.639197   16.587982
  H     13.968386   13.981613   16.345604
  H     14.896196   14.942989   17.500319
  H     15.060080   14.998546   14.435093
  H     14.670865   16.334676   15.540361
  H     17.343737   20.004029   13.991723
  H     16.310903   21.081644   14.950785
  H     15.684752   19.533014   14.382707
  H     17.412983   21.246289   16.815271
  H     18.954319   18.362805   19.152335
  H     18.720314   16.995748   17.166849
  H     18.394142   14.881902   18.180178
  H     17.202600   13.396390   19.778767
  H     15.169009   14.229673   20.963475
  H     13.835623   15.941745   21.283352
  H     15.531798   18.018700   18.960705

 Total Charge           Charge          ....    0
 Multiplicity           Mult            ....    1
 Number of Electrons    NEL             ....  154
 Basis Dimension        Dim             ....  828

ORBITAL ENERGIES
----------------

  NO   OCC          E(Eh)            E(eV)
   0   2.0000     -91.891204     -2500.4868
   1   2.0000     -20.601316      -560.5903
   2   2.0000     -20.581581      -560.0533
   3   2.0000     -20.550085      -559.1962
   4   2.0000     -15.630935      -425.3394
   5   2.0000     -15.609390      -424.7531
   6   2.0000     -11.391853      -309.9881
   7   2.0000     -11.385423      -309.8131
   8   2.0000     -11.338604      -308.5391
   9   2.0000     -11.319053      -308.0071
  10   2.0000     -11.312653      -307.8329
  11   2.0000     -11.298345      -307.4436
  12   2.0000     -11.265594      -306.5524
  13   2.0000     -11.259512      -306.3869
  14   2.0000     -11.259166      -306.3775
  15   2.0000     -11.254332      -306.2459
  16   2.0000     -11.248644      -306.0912
  17   2.0000     -11.243955      -305.9636
  18   2.0000     -11.242990      -305.9373
  19   2.0000     -11.221917      -305.3639
  20   2.0000      -8.896244      -242.0791
  21   2.0000      -6.577809      -178.9913
  22   2.0000      -6.575818      -178.9371
  23   2.0000      -6.575220      -178.9208
  24   2.0000      -1.449104       -39.4321
  25   2.0000      -1.421072       -38.6693
  26   2.0000      -1.354232       -36.8505
  27   2.0000      -1.343080       -36.5471
  28   2.0000      -1.241285       -33.7771
  29   2.0000      -1.161973       -31.6189
  30   2.0000      -1.123273       -30.5658
  31   2.0000      -1.046756       -28.4837
  32   2.0000      -1.033156       -28.1136
  33   2.0000      -1.020035       -27.7566
  34   2.0000      -1.000768       -27.2323
  35   2.0000      -0.987568       -26.8731
  36   2.0000      -0.925331       -25.1795
  37   2.0000      -0.879106       -23.9217
  38   2.0000      -0.849318       -23.1111
  39   2.0000      -0.842532       -22.9265
  40   2.0000      -0.838809       -22.8251
  41   2.0000      -0.828506       -22.5448
  42   2.0000      -0.762489       -20.7484
  43   2.0000      -0.737302       -20.0630
  44   2.0000      -0.723895       -19.6982
  45   2.0000      -0.699639       -19.0382
  46   2.0000      -0.689327       -18.7575
  47   2.0000      -0.680868       -18.5274
  48   2.0000      -0.674171       -18.3451
  49   2.0000      -0.662955       -18.0399
  50   2.0000      -0.648233       -17.6393
  51   2.0000      -0.642965       -17.4960
  52   2.0000      -0.632151       -17.2017
  53   2.0000      -0.611214       -16.6320
  54   2.0000      -0.611070       -16.6281
  55   2.0000      -0.604224       -16.4418
  56   2.0000      -0.602341       -16.3905
  57   2.0000      -0.580870       -15.8063
  58   2.0000      -0.573610       -15.6087
  59   2.0000      -0.567017       -15.4293
  60   2.0000      -0.556676       -15.1479
  61   2.0000      -0.545895       -14.8546
  62   2.0000      -0.540791       -14.7157
  63   2.0000      -0.527404       -14.3514
  64   2.0000      -0.516556       -14.0562
  65   2.0000      -0.511373       -13.9152
  66   2.0000      -0.505329       -13.7507
  67   2.0000      -0.502149       -13.6642
  68   2.0000      -0.484048       -13.1716
  69   2.0000      -0.463982       -12.6256
  70   2.0000      -0.453375       -12.3370
  71   2.0000      -0.448182       -12.1957
  72   2.0000      -0.356078        -9.6894
  73   2.0000      -0.353749        -9.6260
  74   2.0000      -0.330421        -8.9912
  75   2.0000      -0.326431        -8.8826
  76   2.0000      -0.320933        -8.7330
  77   0.0000       0.071596         1.9482
  78   0.0000       0.099872         2.7177
  79   0.0000       0.121645         3.3101
  80   0.0000       0.128287         3.4909
  81   0.0000       0.130845         3.5605

MULLIKEN ATOMIC CHARGES
-----------------------
   0 C :   -0.296613
   1 C :    0.047461
   2 O :   -0.366741
   3 C :    0.441222
   4 O :   -0.383916
   5 C :   -0.251322
   6 C :    0.177231
   7 C :   -0.268618
   8 N :   -0.127727
   9 C :    0.208148
  10 S :   -0.437765
  11 N :   -0.209899
  12 C :    0.042699
  13 C :   -0.003448
  14 C :   -0.151242
  15 C :   -0.138864
  16 C :   -0.268921
  17 C :    0.298189
  18 O :   -0.359984
  19 C :   -0.219969
  20 H :    0.101098
  21 H :    0.108784
  22 H :    0.106453
  23 H :    0.113474
  24 H :    0.078256
  25 H :    0.137636
  26 H :    0.094640
  27 H :    0.122988
  28 H :    0.200042
  29 H :    0.200703
  30 H :    0.151189
  31 H :    0.151186
  32 H :    0.163267
  33 H :    0.133494
  34 H :    0.241443
  35 H :    0.165424
Sum of atomic charges:   -0.0000000

LOEWDIN ATOMIC CHARGES
----------------------
   0 C :    0.109125
   1 C :   -0.018280
   2 O :    0.289633
   3 C :   -0.427872
   4 O :    0.125143
   5 C :   -0.104285
   6 C :   -0.056888
   7 C :    0.129629
   8 N :    0.407873
   9 C :   -0.457940
  10 S :   -0.033044
  11 N :    0.395947
  12 C :   -0.054473
  13 C :   -0.041323
  14 C :    0.021590
  15 C :    0.045041
  16 C :    0.000230
  17 C :   -0.192531
  18 O :    0.396428
  19 C :    0.031237
  20 H :   -0.025833
  21 H :   -0.026188
  22 H :   -0.028765
  23 H :   -0.028059
  24 H :   -0.033069
  25 H :   -0.004202
  26 H :   -0.022701
  27 H :   -0.007028
  28 H :   -0.056314
  29 H :   -0.063410
  30 H :   -0.011918
  31 H :   -0.027783
  32 H :   -0.020027
  33 H :   -0.034548
  34 H :   -0.152784
  35 H :   -0.022607

  Mayer bond orders larger than 0.100000
B(  0-C ,  1-C ) :   0.9718 B(  0-C , 20-H ) :   0.9736 B(  0-C , 21-H ) :   0.9809
B(  0-C , 22-H ) :   0.9764 B(  1-C ,  2-O ) :   0.8945 B(  1-C , 23-H ) :   0.9860
B(  1-C , 24-H ) :   0.9703 B(  2-O ,  3-C ) :   1.1011 B(  3-C ,  4-O ) :   2.0701
B(  3-C ,  5-C ) :   1.0363 B(  5-C ,  6-C ) :   1.6236 B(  5-C , 12-C ) :   0.9686
B(  6-C ,  7-C ) :   0.9637 B(  6-C ,  8-N ) :   1.1502 B(  7-C , 25-H ) :   0.9543
B(  7-C , 26-H ) :   0.9869 B(  7-C , 27-H ) :   0.9694 B(  8-N ,  9-C ) :   1.1871
B(  8-N , 28-H ) :   0.9475 B(  9-C , 10-S ) :   1.6123 B(  9-C , 11-N ) :   1.3037
B( 11-N , 12-C ) :   0.9703 B( 11-N , 29-H ) :   0.9484 B( 12-C , 13-C ) :   0.9572
B( 12-C , 30-H ) :   1.0061 B( 13-C , 14-C ) :   1.3608 B( 13-C , 19-C ) :   1.3722
B( 14-C , 15-C ) :   1.3892 B( 14-C , 31-H ) :   0.9718 B( 15-C , 16-C ) :   1.3600
B( 15-C , 32-H ) :   0.9709 B( 16-C , 17-C ) :   1.3331 B( 16-C , 33-H ) :   0.9845
B( 17-C , 18-O ) :   1.1069 B( 17-C , 19-C ) :   1.3661 B( 18-O , 34-H ) :   0.9790
B( 19-C , 35-H ) :   0.9596

MP2 TOTAL ENERGY:    -1274.321533028 Eh
FINAL SINGLE POINT ENERGY     -1274.321533027554

DIPOLE MOMENT
-------------
                                X             Y             Z
Electronic contribution:      8.80785      10.46297       5.19296
Nuclear contribution   :    -10.08984     -11.91813      -5.04965
                        -----------------------------------------
Total Dipole Moment    :     -1.28199      -1.45517       0.14331
                        -----------------------------------------
Magnitude (a.u.)       :      1.94462
Magnitude (Debye)      :      4.94283

Rotational constants in cm-1:     0.012276     0.008876     0.006058
Rotational constants in MHz :   368.030417   266.106549   181.626170

                             ****ORCA TERMINATED NORMALLY****
TOTAL RUN TIME: 0 days 1 hours 44 minutes 8 seconds 365 msec
