                         Program Version 4.2.0 -  RELEASE  -
|  1> ! ri-mp2 cc-pvtz cc-pvtz/c TightSCF NoKeepInts
|  2>
|  3> %scf
|  4>   MaxCore 4096
|  5> end
|  6> *xyz  0  1
|  7>     C       14.8686285   14.2988482   15.6187218
|  8>     C       15.9890739   14.9830074   14.8163215
|  9>     O       16.5629291   15.9970113   15.6600377
| 10>     C       16.2220312   17.3121048   15.5004119
| 11>     O       15.5040720   17.6955541   14.5922986
| 12>     C       16.8228349   18.1951188   16.5616469
| 13>     C       16.8554338   19.5441401   16.4099300
| 14>     C       16.1210691   20.3673860   15.3718388
| 15>     N       17.6331114   20.3443958   17.2500574
| 16>     C       18.5479071   19.8646677   18.1478445
| 17>     S       19.5036809   20.8714258   19.0471403
| 18>     N       18.6468951   18.5001399   18.2488887
| 19>     C       17.7713772   17.5255482   17.5707741
| 20>     C       17.0739704   16.5860900   18.5463250
| 21>     C       17.4317883   15.2268489   18.6128665
| 22>     C       16.7840977   14.3615244   19.5105967
| 23>     C       15.7733030   14.8606854   20.3499863
| 24>     C       15.4185538   16.2155373   20.2883530
| 25>     O       14.4437691   16.7000988   21.0983386
| 26>     C       16.0650905   17.0742360   19.3938840
| 27>     H       15.2567890   13.8985554   16.5638616
| 28>     H       14.4331758   13.4716244   15.0454307
| 29>     H       14.0692288   15.0142878   15.8495094
| 30>     H       16.7568505   14.2369632   14.5748700
| 31>     H       15.6035718   15.3902582   13.8717193
| 32>     H       15.0481267   20.1362041   15.3849557
| 33>     H       16.4928686   20.1410993   14.3644273
| 34>     H       16.2232842   21.4476990   15.5281566
| 35>     H       17.5851401   21.3476074   17.1711437
| 36>     H       19.3062264   18.1761682   18.9451083
| 37>     H       18.5125708   16.9801432   16.9696629
| 38>     H       18.2079206   14.8388815   17.9587151
| 39>     H       17.0648002   13.3106582   19.5530859
| 40>     H       15.2700099   14.1965220   21.0448158
| 41>     H       14.1355379   15.9680955   21.6532301
| 42>     H       15.7812816   18.1208633   19.3630456
| 43> *
| 44>
| 45>                          ****END OF INPUT****

CARTESIAN COORDINATES (ANGSTROEM)
---------------------------------
  C     14.868628   14.298848   15.618722
  C     15.989074   14.983007   14.816321
  O     16.562929   15.997011   15.660038
  C     16.222031   17.312105   15.500412
  O     15.504072   17.695554   14.592299
  C     16.822835   18.195119   16.561647
  C     16.855434   19.544140   16.409930
  C     16.121069   20.367386   15.371839
  N     17.633111   20.344396   17.250057
  C     18.547907   19.864668   18.147845
  S     19.503681   20.871426   19.047140
  N     18.646895   18.500140   18.248889
  C     17.771377   17.525548   17.570774
  C     17.073970   16.586090   18.546325
  C     17.431788   15.226849   18.612866
  C     16.784098   14.361524   19.510597
  C     15.773303   14.860685   20.349986
  C     15.418554   16.215537   20.288353
  O     14.443769   16.700099   21.098339
  C     16.065091   17.074236   19.393884
  H     15.256789   13.898555   16.563862
  H     14.433176   13.471624   15.045431
  H     14.069229   15.014288   15.849509
  H     16.756850   14.236963   14.574870
  H     15.603572   15.390258   13.871719
  H     15.048127   20.136204   15.384956
  H     16.492869   20.141099   14.364427
  H     16.223284   21.447699   15.528157
  H     17.585140   21.347607   17.171144
  H     19.306226   18.176168   18.945108
  H     18.512571   16.980143   16.969663
  H     18.207921   14.838881   17.958715
  H     17.064800   13.310658   19.553086
  H     15.270010   14.196522   21.044816
  H     14.135538   15.968096   21.653230
  H     15.781282   18.120863   19.363046

 Total Charge           Charge          ....    0
 Multiplicity           Mult            ....    1
 Number of Electrons    NEL             ....  154
 Basis Dimension        Dim             ....  828

ORBITAL ENERGIES
----------------

  NO   OCC          E(Eh)            E(eV)
   0   2.0000     -91.888661     -2500.4176
   1   2.0000     -20.601559      -560.5969
   2   2.0000     -20.596264      -560.4528
   3   2.0000     -20.540895      -558.9462
   4   2.0000     -15.628976      -425.2861
   5   2.0000     -15.606894      -424.6852
   6   2.0000     -11.395733      -310.0937
   7   2.0000     -11.383363      -309.7571
   8   2.0000     -11.337125      -308.4989
   9   2.0000     -11.313471      -307.8552
  10   2.0000     -11.307350      -307.6886
  11   2.0000     -11.295404      -307.3636
  12   2.0000     -11.260477      -306.4132
  13   2.0000     -11.259392      -306.3836
  14   2.0000     -11.254851      -306.2601
  15   2.0000     -11.251457      -306.1677
  16   2.0000     -11.243537      -305.9522
  17   2.0000     -11.238855      -305.8248
  18   2.0000     -11.238491      -305.8149
  19   2.0000     -11.224627      -305.4376
  20   2.0000      -8.893734      -242.0108
  21   2.0000      -6.575308      -178.9232
  22   2.0000      -6.573309      -178.8688
  23   2.0000      -6.572719      -178.8528
  24   2.0000      -1.451193       -39.4890
  25   2.0000      -1.415942       -38.5297
  26   2.0000      -1.354633       -36.8614
  27   2.0000      -1.340146       -36.4672
  28   2.0000      -1.238062       -33.6894
  29   2.0000      -1.157442       -31.4956
  30   2.0000      -1.121041       -30.5051
  31   2.0000      -1.042818       -28.3765
  32   2.0000      -1.037712       -28.2376
  33   2.0000      -1.014852       -27.6155
  34   2.0000      -0.995814       -27.0975
  35   2.0000      -0.984413       -26.7873
  36   2.0000      -0.921634       -25.0789
  37   2.0000      -0.891697       -24.2643
  38   2.0000      -0.846231       -23.0271
  39   2.0000      -0.837817       -22.7982
  40   2.0000      -0.833996       -22.6942
  41   2.0000      -0.815421       -22.1887
  42   2.0000      -0.761368       -20.7179
  43   2.0000      -0.733361       -19.9558
  44   2.0000      -0.721996       -19.6465
  45   2.0000      -0.695492       -18.9253
  46   2.0000      -0.689087       -18.7510
  47   2.0000      -0.679937       -18.5020
  48   2.0000      -0.670445       -18.2437
  49   2.0000      -0.659164       -17.9368
  50   2.0000      -0.646400       -17.5894
  51   2.0000      -0.640457       -17.4277
  52   2.0000      -0.633495       -17.2383
  53   2.0000      -0.607262       -16.5244
  54   2.0000      -0.604644       -16.4532
  55   2.0000      -0.599388       -16.3102
  56   2.0000      -0.598730       -16.2923
  57   2.0000      -0.577248       -15.7077
  58   2.0000      -0.569255       -15.4902
  59   2.0000      -0.567074       -15.4309
  60   2.0000      -0.561178       -15.2704
  61   2.0000      -0.546109       -14.8604
  62   2.0000      -0.535943       -14.5837
  63   2.0000      -0.530607       -14.4386
  64   2.0000      -0.523892       -14.2558
  65   2.0000      -0.513026       -13.9601
  66   2.0000      -0.500327       -13.6146
  67   2.0000      -0.497500       -13.5377
  68   2.0000      -0.482759       -13.1365
  69   2.0000      -0.462991       -12.5986
  70   2.0000      -0.453262       -12.3339
  71   2.0000      -0.448879       -12.2146
  72   2.0000      -0.353056        -9.6071
  73   2.0000      -0.349688        -9.5155
  74   2.0000      -0.327847        -8.9212
  75   2.0000      -0.320767        -8.7285
  76   2.0000      -0.317872        -8.6497
  77   0.0000       0.078161         2.1269
  78   0.0000       0.104736         2.8500
  79   0.0000       0.124494         3.3877
  80   0.0000       0.132991         3.6189
  81   0.0000       0.138326         3.7640

MULLIKEN ATOMIC CHARGES
-----------------------
   0 C :   -0.276417
   1 C :    0.009476
   2 O :   -0.344350
   3 C :    0.441435
   4 O :   -0.438799
   5 C :   -0.224615
   6 C :    0.173068
   7 C :   -0.268813
   8 N :   -0.126355
   9 C :    0.210169
  10 S :   -0.442371
  11 N :   -0.215398
  12 C :    0.058645
  13 C :    0.052084
  14 C :   -0.187347
  15 C :   -0.134162
  16 C :   -0.276478
  17 C :    0.316665
  18 O :   -0.356847
  19 C :   -0.247905
  20 H :    0.098973
  21 H :    0.094930
  22 H :    0.100973
  23 H :    0.102180
  24 H :    0.123979
  25 H :    0.133803
  26 H :    0.128709
  27 H :    0.094440
  28 H :    0.199730
  29 H :    0.200359
  30 H :    0.152437
  31 H :    0.151242
  32 H :    0.162777
  33 H :    0.130384
  34 H :    0.240476
  35 H :    0.162925
Sum of atomic charges:   -0.0000000

LOEWDIN ATOMIC CHARGES
----------------------
   0 C :    0.104963
   1 C :   -0.015972
   2 O :    0.312213
   3 C :   -0.413998
   4 O :    0.093223
   5 C :   -0.094292
   6 C :   -0.057013
   7 C :    0.131039
   8 N :    0.407032
   9 C :   -0.456539
  10 S :   -0.036910
  11 N :    0.394654
  12 C :   -0.054694
  13 C :   -0.039671
  14 C :    0.017034
  15 C :    0.039133
  16 C :   -0.000574
  17 C :   -0.189402
  18 O :    0.395089
  19 C :    0.033835
  20 H :   -0.027272
  21 H :   -0.027696
  22 H :   -0.025122
  23 H :   -0.028768
  24 H :   -0.028160
  25 H :   -0.004225
  26 H :   -0.005188
  27 H :   -0.023699
  28 H :   -0.057174
  29 H :   -0.064396
  30 H :   -0.014121
  31 H :   -0.029579
  32 H :   -0.021689
  33 H :   -0.035361
  34 H :   -0.154039
  35 H :   -0.022661

  Mayer bond orders larger than 0.100000
B(  0-C ,  1-C ) :   0.9681 B(  0-C , 20-H ) :   0.9733 B(  0-C , 21-H ) :   0.9764
B(  0-C , 22-H ) :   0.9785 B(  1-C ,  2-O ) :   0.8913 B(  1-C , 23-H ) :   0.9846
B(  1-C , 24-H ) :   0.9749 B(  2-O ,  3-C ) :   1.1745 B(  3-C ,  4-O ) :   1.9592
B(  3-C ,  5-C ) :   1.0662 B(  5-C ,  6-C ) :   1.6442 B(  5-C , 12-C ) :   0.9542
B(  6-C ,  7-C ) :   0.9651 B(  6-C ,  8-N ) :   1.1532 B(  7-C , 25-H ) :   0.9613
B(  7-C , 26-H ) :   0.9590 B(  7-C , 27-H ) :   0.9905 B(  8-N ,  9-C ) :   1.1880
B(  8-N , 28-H ) :   0.9463 B(  9-C , 10-S ) :   1.6056 B(  9-C , 11-N ) :   1.3091
B( 11-N , 12-C ) :   0.9688 B( 11-N , 29-H ) :   0.9484 B( 12-C , 13-C ) :   0.9642
B( 12-C , 30-H ) :   1.0003 B( 13-C , 14-C ) :   1.3517 B( 13-C , 19-C ) :   1.3801
B( 14-C , 15-C ) :   1.3929 B( 14-C , 31-H ) :   0.9716 B( 15-C , 16-C ) :   1.3579
B( 15-C , 32-H ) :   0.9703 B( 16-C , 17-C ) :   1.3337 B( 16-C , 33-H ) :   0.9850
B( 17-C , 18-O ) :   1.1046 B( 17-C , 19-C ) :   1.3644 B( 18-O , 34-H ) :   0.9799
B( 19-C , 35-H ) :   0.9594

MP2 TOTAL ENERGY:    -1274.344835335 Eh
FINAL SINGLE POINT ENERGY     -1274.344835335465

DIPOLE MOMENT
-------------
                                X             Y             Z
Electronic contribution:      8.35277      11.42797       8.05297
Nuclear contribution   :     -9.19900     -13.20931      -8.53215
                        -----------------------------------------
Total Dipole Moment    :     -0.84624      -1.78133      -0.47918
                        -----------------------------------------
Magnitude (a.u.)       :      2.02950
Magnitude (Debye)      :      5.15859

Rotational constants in cm-1:     0.011698     0.008508     0.005920
Rotational constants in MHz :   350.691772   255.076039   177.477153

                             ****ORCA TERMINATED NORMALLY****
TOTAL RUN TIME: 0 days 1 hours 36 minutes 58 seconds 98 msec
