                         Program Version 4.2.0 -  RELEASE  -
|  1> ! ri-mp2 cc-pvtz cc-pvtz/c TightSCF NoKeepInts
|  2>
|  3> %scf
|  4>   MaxCore 4096
|  5> end
|  6> *xyz  0  1
|  7>     C       14.4240379   15.3312646   15.1191929
|  8>     C       15.7036413   15.0013955   15.9172549
|  9>     O       16.8191573   15.8554247   15.5639209
| 10>     C       16.6481145   17.1885062   15.3175330
| 11>     O       16.2117227   17.5766676   14.2484452
| 12>     C       16.9978642   18.0728212   16.4876042
| 13>     C       16.9455447   19.4252155   16.3621791
| 14>     C       16.2687176   20.2218764   15.2654041
| 15>     N       17.5484827   20.2623017   17.3036494
| 16>     C       18.4070310   19.8360387   18.2795666
| 17>     S       19.1774580   20.8916460   19.2932197
| 18>     N       18.6155791   18.4830103   18.3576142
| 19>     C       17.8836071   17.4594253   17.5883995
| 20>     C       17.1945208   16.4486185   18.4928820
| 21>     C       17.7350420   15.1614224   18.6692107
| 22>     C       17.0965961   14.2288418   19.5039942
| 23>     C       15.9133200   14.5892238   20.1716385
| 24>     C       15.3796862   15.8748576   20.0058640
| 25>     O       14.2380529   16.2256259   20.6491269
| 26>     C       16.0157211   16.8001669   19.1723484
| 27>     H       14.0313111   16.3208253   15.3842593
| 28>     H       13.6415789   14.5932331   15.3327526
| 29>     H       14.6233829   15.3117032   14.0400017
| 30>     H       15.4738726   15.1039589   16.9840932
| 31>     H       15.9853813   13.9553117   15.7417666
| 32>     H       15.2568034   19.8413743   15.0765646
| 33>     H       16.8303094   20.1390965   14.3258844
| 34>     H       16.1739568   21.2876857   15.5043043
| 35>     H       17.4270183   21.2602224   17.2363780
| 36>     H       19.2343983   18.1961451   19.1055136
| 37>     H       18.7233865   16.9912217   17.0551006
| 38>     H       18.6485816   14.8811819   18.1508811
| 39>     H       17.5198043   13.2339136   19.6333572
| 40>     H       15.4177567   13.8726391   20.8187150
| 41>     H       13.9824783   15.4838401   21.2182230
| 42>     H       15.5930821   17.7932970   19.0611564
| 43> *
| 44>
| 45>                          ****END OF INPUT****

CARTESIAN COORDINATES (ANGSTROEM)
---------------------------------
  C     14.424038   15.331265   15.119193
  C     15.703641   15.001395   15.917255
  O     16.819157   15.855425   15.563921
  C     16.648114   17.188506   15.317533
  O     16.211723   17.576668   14.248445
  C     16.997864   18.072821   16.487604
  C     16.945545   19.425216   16.362179
  C     16.268718   20.221876   15.265404
  N     17.548483   20.262302   17.303649
  C     18.407031   19.836039   18.279567
  S     19.177458   20.891646   19.293220
  N     18.615579   18.483010   18.357614
  C     17.883607   17.459425   17.588400
  C     17.194521   16.448618   18.492882
  C     17.735042   15.161422   18.669211
  C     17.096596   14.228842   19.503994
  C     15.913320   14.589224   20.171638
  C     15.379686   15.874858   20.005864
  O     14.238053   16.225626   20.649127
  C     16.015721   16.800167   19.172348
  H     14.031311   16.320825   15.384259
  H     13.641579   14.593233   15.332753
  H     14.623383   15.311703   14.040002
  H     15.473873   15.103959   16.984093
  H     15.985381   13.955312   15.741767
  H     15.256803   19.841374   15.076565
  H     16.830309   20.139097   14.325884
  H     16.173957   21.287686   15.504304
  H     17.427018   21.260222   17.236378
  H     19.234398   18.196145   19.105514
  H     18.723386   16.991222   17.055101
  H     18.648582   14.881182   18.150881
  H     17.519804   13.233914   19.633357
  H     15.417757   13.872639   20.818715
  H     13.982478   15.483840   21.218223
  H     15.593082   17.793297   19.061156

 Total Charge           Charge          ....    0
 Multiplicity           Mult            ....    1
 Number of Electrons    NEL             ....  154
 Basis Dimension        Dim             ....  828

ORBITAL ENERGIES
----------------

  NO   OCC          E(Eh)            E(eV)
   0   2.0000     -91.890530     -2500.4684
   1   2.0000     -20.602344      -560.6183
   2   2.0000     -20.581114      -560.0406
   3   2.0000     -20.544935      -559.0561
   4   2.0000     -15.630850      -425.3371
   5   2.0000     -15.608631      -424.7325
   6   2.0000     -11.392777      -310.0132
   7   2.0000     -11.384847      -309.7974
   8   2.0000     -11.339073      -308.5519
   9   2.0000     -11.320309      -308.0413
  10   2.0000     -11.310316      -307.7693
  11   2.0000     -11.297193      -307.4122
  12   2.0000     -11.265776      -306.5573
  13   2.0000     -11.261329      -306.4363
  14   2.0000     -11.258788      -306.3672
  15   2.0000     -11.252934      -306.2079
  16   2.0000     -11.249908      -306.1256
  17   2.0000     -11.244582      -305.9806
  18   2.0000     -11.243955      -305.9636
  19   2.0000     -11.222387      -305.3767
  20   2.0000      -8.895585      -242.0612
  21   2.0000      -6.577154      -178.9734
  22   2.0000      -6.575160      -178.9192
  23   2.0000      -6.574564      -178.9030
  24   2.0000      -1.441910       -39.2364
  25   2.0000      -1.422062       -38.6963
  26   2.0000      -1.350538       -36.7500
  27   2.0000      -1.342415       -36.5290
  28   2.0000      -1.240492       -33.7555
  29   2.0000      -1.163024       -31.6475
  30   2.0000      -1.122179       -30.5360
  31   2.0000      -1.046960       -28.4892
  32   2.0000      -1.030442       -28.0397
  33   2.0000      -1.021009       -27.7831
  34   2.0000      -0.998843       -27.1799
  35   2.0000      -0.986571       -26.8460
  36   2.0000      -0.924781       -25.1646
  37   2.0000      -0.890252       -24.2250
  38   2.0000      -0.849426       -23.1140
  39   2.0000      -0.842919       -22.9370
  40   2.0000      -0.839616       -22.8471
  41   2.0000      -0.824027       -22.4229
  42   2.0000      -0.748018       -20.3546
  43   2.0000      -0.736654       -20.0454
  44   2.0000      -0.716209       -19.4890
  45   2.0000      -0.700341       -19.0572
  46   2.0000      -0.689045       -18.7499
  47   2.0000      -0.677456       -18.4345
  48   2.0000      -0.667476       -18.1629
  49   2.0000      -0.665541       -18.1103
  50   2.0000      -0.650327       -17.6963
  51   2.0000      -0.645186       -17.5564
  52   2.0000      -0.637487       -17.3469
  53   2.0000      -0.614961       -16.7339
  54   2.0000      -0.612229       -16.6596
  55   2.0000      -0.603943       -16.4341
  56   2.0000      -0.602597       -16.3975
  57   2.0000      -0.581400       -15.8207
  58   2.0000      -0.571337       -15.5469
  59   2.0000      -0.567787       -15.4503
  60   2.0000      -0.552712       -15.0401
  61   2.0000      -0.542154       -14.7528
  62   2.0000      -0.536284       -14.5930
  63   2.0000      -0.528684       -14.3862
  64   2.0000      -0.524379       -14.2691
  65   2.0000      -0.515517       -14.0279
  66   2.0000      -0.502915       -13.6850
  67   2.0000      -0.493351       -13.4248
  68   2.0000      -0.482251       -13.1227
  69   2.0000      -0.464085       -12.6284
  70   2.0000      -0.454059       -12.3556
  71   2.0000      -0.441930       -12.0255
  72   2.0000      -0.356259        -9.6943
  73   2.0000      -0.353884        -9.6297
  74   2.0000      -0.330580        -8.9955
  75   2.0000      -0.327132        -8.9017
  76   2.0000      -0.320089        -8.7101
  77   0.0000       0.071446         1.9441
  78   0.0000       0.098938         2.6922
  79   0.0000       0.122611         3.3364
  80   0.0000       0.128715         3.5025
  81   0.0000       0.131484         3.5779

MULLIKEN ATOMIC CHARGES
-----------------------
   0 C :   -0.286452
   1 C :    0.033477
   2 O :   -0.385561
   3 C :    0.468922
   4 O :   -0.401765
   5 C :   -0.274546
   6 C :    0.182618
   7 C :   -0.266107
   8 N :   -0.126961
   9 C :    0.211361
  10 S :   -0.439805
  11 N :   -0.214855
  12 C :    0.067555
  13 C :   -0.013407
  14 C :   -0.159689
  15 C :   -0.132979
  16 C :   -0.273177
  17 C :    0.307262
  18 O :   -0.356880
  19 C :   -0.226281
  20 H :    0.092680
  21 H :    0.100305
  22 H :    0.116909
  23 H :    0.100209
  24 H :    0.107317
  25 H :    0.128952
  26 H :    0.133990
  27 H :    0.094160
  28 H :    0.199815
  29 H :    0.200846
  30 H :    0.152165
  31 H :    0.155309
  32 H :    0.163774
  33 H :    0.133886
  34 H :    0.241727
  35 H :    0.165225
Sum of atomic charges:   -0.0000000

LOEWDIN ATOMIC CHARGES
----------------------
   0 C :    0.104938
   1 C :   -0.016070
   2 O :    0.284289
   3 C :   -0.420077
   4 O :    0.119121
   5 C :   -0.102739
   6 C :   -0.053738
   7 C :    0.130782
   8 N :    0.407829
   9 C :   -0.457157
  10 S :   -0.034639
  11 N :    0.394807
  12 C :   -0.054659
  13 C :   -0.041086
  14 C :    0.018741
  15 C :    0.041869
  16 C :   -0.000464
  17 C :   -0.191619
  18 O :    0.396466
  19 C :    0.031295
  20 H :   -0.029747
  21 H :   -0.026642
  22 H :   -0.022313
  23 H :   -0.033599
  24 H :   -0.023582
  25 H :   -0.005490
  26 H :   -0.003956
  27 H :   -0.023478
  28 H :   -0.056661
  29 H :   -0.064244
  30 H :   -0.011688
  31 H :   -0.027331
  32 H :   -0.019579
  33 H :   -0.034141
  34 H :   -0.152640
  35 H :   -0.022799

  Mayer bond orders larger than 0.100000
B(  0-C ,  1-C ) :   0.9801 B(  0-C , 20-H ) :   0.9742 B(  0-C , 21-H ) :   0.9747
B(  0-C , 22-H ) :   0.9740 B(  1-C ,  2-O ) :   0.8967 B(  1-C , 23-H ) :   0.9664
B(  1-C , 24-H ) :   0.9798 B(  2-O ,  3-C ) :   1.0880 B(  3-C ,  4-O ) :   2.0292
B(  3-C ,  5-C ) :   1.0632 B(  5-C ,  6-C ) :   1.6231 B(  5-C , 12-C ) :   0.9556
B(  6-C ,  7-C ) :   0.9679 B(  6-C ,  8-N ) :   1.1574 B(  7-C , 25-H ) :   0.9644
B(  7-C , 26-H ) :   0.9556 B(  7-C , 27-H ) :   0.9888 B(  8-N ,  9-C ) :   1.1857
B(  8-N , 28-H ) :   0.9466 B(  9-C , 10-S ) :   1.6075 B(  9-C , 11-N ) :   1.3096
B( 11-N , 12-C ) :   0.9627 B( 11-N , 29-H ) :   0.9486 B( 12-C , 13-C ) :   0.9644
B( 12-C , 30-H ) :   1.0021 B( 13-C , 14-C ) :   1.3553 B( 13-C , 19-C ) :   1.3763
B( 14-C , 15-C ) :   1.3939 B( 14-C , 31-H ) :   0.9714 B( 15-C , 16-C ) :   1.3590
B( 15-C , 32-H ) :   0.9700 B( 16-C , 17-C ) :   1.3314 B( 16-C , 33-H ) :   0.9840
B( 17-C , 18-O ) :   1.1073 B( 17-C , 19-C ) :   1.3657 B( 18-O , 34-H ) :   0.9787
B( 19-C , 35-H ) :   0.9600

MP2 TOTAL ENERGY:    -1274.325493623 Eh
FINAL SINGLE POINT ENERGY     -1274.325493622804

DIPOLE MOMENT
-------------
                                X             Y             Z
Electronic contribution:      9.69218       9.04397       7.56481
Nuclear contribution   :    -10.76749     -10.68964      -7.39534
                        -----------------------------------------
Total Dipole Moment    :     -1.07531      -1.64567       0.16947
                        -----------------------------------------
Magnitude (a.u.)       :      1.97313
Magnitude (Debye)      :      5.01530

Rotational constants in cm-1:     0.011999     0.008806     0.006109
Rotational constants in MHz :   359.713244   264.006444   183.141843

                             ****ORCA TERMINATED NORMALLY****
TOTAL RUN TIME: 0 days 1 hours 46 minutes 23 seconds 968 msec
