                         Program Version 4.2.0 -  RELEASE  -
|  1> ! ri-mp2 cc-pvtz cc-pvtz/c TightSCF NoKeepInts
|  2>
|  3> %scf
|  4>   MaxCore 4096
|  5> end
|  6> *xyz  0  1
|  7>     C       14.5916611   14.7471039   15.1846648
|  8>     C       14.7088005   16.2829364   15.1658554
|  9>     O       16.0207407   16.6476078   14.7027373
| 10>     C       17.0429083   16.5682465   15.5990646
| 11>     O       17.7254289   15.5645274   15.7008328
| 12>     C       17.1759667   17.7477076   16.5164332
| 13>     C       16.9581724   19.0213625   16.0985264
| 14>     C       16.3661371   19.4731674   14.7782441
| 15>     N       17.3463786   20.1059849   16.8887705
| 16>     C       18.1480215   20.0092007   17.9945959
| 17>     S       18.6545942   21.3473742   18.8237048
| 18>     N       18.5254508   18.7433793   18.3668891
| 19>     C       18.0204513   17.4921252   17.7684291
| 20>     C       17.3345291   16.5706290   18.7678749
| 21>     C       17.7198517   15.2227159   18.8796887
| 22>     C       17.0782759   14.3694155   19.7929085
| 23>     C       16.0422348   14.8684494   20.6009266
| 24>     C       15.6537765   16.2105052   20.4887830
| 25>     O       14.6485334   16.6932798   21.2616961
| 26>     C       16.2934374   17.0571820   19.5777330
| 27>     H       15.2713569   14.3101135   15.9275229
| 28>     H       14.8411519   14.3277755   14.2018579
| 29>     H       13.5697371   14.4416355   15.4395176
| 30>     H       13.9579950   16.6854149   14.4736954
| 31>     H       14.5110875   16.6960444   16.1645800
| 32>     H       16.8693320   18.9822872   13.9352332
| 33>     H       16.4648449   20.5539309   14.6181740
| 34>     H       15.2985793   19.2292256   14.7236930
| 35>     H       17.1002089   21.0433447   16.6130551
| 36>     H       19.1036349   18.6985743   19.1966813
| 37>     H       18.9613605   17.0469185   17.4125342
| 38>     H       18.5103968   14.8320355   18.2426524
| 39>     H       17.3819366   13.3265869   19.8666798
| 40>     H       15.5431770   14.2121990   21.3061940
| 41>     H       14.3668835   15.9776349   21.8513654
| 42>     H       15.9799663   18.0933780   19.5062051
| 43> *
| 44>
| 45>                          ****END OF INPUT****

CARTESIAN COORDINATES (ANGSTROEM)
---------------------------------
  C     14.591661   14.747104   15.184665
  C     14.708800   16.282936   15.165855
  O     16.020741   16.647608   14.702737
  C     17.042908   16.568247   15.599065
  O     17.725429   15.564527   15.700833
  C     17.175967   17.747708   16.516433
  C     16.958172   19.021362   16.098526
  C     16.366137   19.473167   14.778244
  N     17.346379   20.105985   16.888770
  C     18.148021   20.009201   17.994596
  S     18.654594   21.347374   18.823705
  N     18.525451   18.743379   18.366889
  C     18.020451   17.492125   17.768429
  C     17.334529   16.570629   18.767875
  C     17.719852   15.222716   18.879689
  C     17.078276   14.369415   19.792908
  C     16.042235   14.868449   20.600927
  C     15.653776   16.210505   20.488783
  O     14.648533   16.693280   21.261696
  C     16.293437   17.057182   19.577733
  H     15.271357   14.310113   15.927523
  H     14.841152   14.327775   14.201858
  H     13.569737   14.441636   15.439518
  H     13.957995   16.685415   14.473695
  H     14.511088   16.696044   16.164580
  H     16.869332   18.982287   13.935233
  H     16.464845   20.553931   14.618174
  H     15.298579   19.229226   14.723693
  H     17.100209   21.043345   16.613055
  H     19.103635   18.698574   19.196681
  H     18.961361   17.046919   17.412534
  H     18.510397   14.832035   18.242652
  H     17.381937   13.326587   19.866680
  H     15.543177   14.212199   21.306194
  H     14.366883   15.977635   21.851365
  H     15.979966   18.093378   19.506205

 Total Charge           Charge          ....    0
 Multiplicity           Mult            ....    1
 Number of Electrons    NEL             ....  154
 Basis Dimension        Dim             ....  828

ORBITAL ENERGIES
----------------

  NO   OCC          E(Eh)            E(eV)
   0   2.0000     -91.890176     -2500.4588
   1   2.0000     -20.595710      -560.4378
   2   2.0000     -20.588547      -560.2428
   3   2.0000     -20.553535      -559.2901
   4   2.0000     -15.630993      -425.3409
   5   2.0000     -15.607924      -424.7132
   6   2.0000     -11.394670      -310.0647
   7   2.0000     -11.385047      -309.8029
   8   2.0000     -11.340221      -308.5831
   9   2.0000     -11.312111      -307.8182
  10   2.0000     -11.306565      -307.6673
  11   2.0000     -11.305999      -307.6519
  12   2.0000     -11.262661      -306.4726
  13   2.0000     -11.260735      -306.4202
  14   2.0000     -11.259232      -306.3793
  15   2.0000     -11.252027      -306.1832
  16   2.0000     -11.241985      -305.9100
  17   2.0000     -11.238334      -305.8106
  18   2.0000     -11.234705      -305.7119
  19   2.0000     -11.224923      -305.4457
  20   2.0000      -8.895250      -242.0521
  21   2.0000      -6.576824      -178.9645
  22   2.0000      -6.574823      -178.9100
  23   2.0000      -6.574231      -178.8939
  24   2.0000      -1.452102       -39.5137
  25   2.0000      -1.415465       -38.5168
  26   2.0000      -1.360633       -37.0247
  27   2.0000      -1.342007       -36.5179
  28   2.0000      -1.239123       -33.7182
  29   2.0000      -1.156475       -31.4693
  30   2.0000      -1.123156       -30.5626
  31   2.0000      -1.044770       -28.4296
  32   2.0000      -1.033381       -28.1197
  33   2.0000      -1.014118       -27.5956
  34   2.0000      -1.002148       -27.2698
  35   2.0000      -0.986808       -26.8524
  36   2.0000      -0.923779       -25.1373
  37   2.0000      -0.886578       -24.1250
  38   2.0000      -0.852337       -23.1933
  39   2.0000      -0.840131       -22.8611
  40   2.0000      -0.832318       -22.6485
  41   2.0000      -0.830207       -22.5911
  42   2.0000      -0.750208       -20.4142
  43   2.0000      -0.734300       -19.9813
  44   2.0000      -0.729556       -19.8522
  45   2.0000      -0.693874       -18.8813
  46   2.0000      -0.686347       -18.6764
  47   2.0000      -0.680325       -18.5126
  48   2.0000      -0.676445       -18.4070
  49   2.0000      -0.666497       -18.1363
  50   2.0000      -0.650804       -17.7093
  51   2.0000      -0.645265       -17.5585
  52   2.0000      -0.636652       -17.3242
  53   2.0000      -0.608265       -16.5517
  54   2.0000      -0.603240       -16.4150
  55   2.0000      -0.601083       -16.3563
  56   2.0000      -0.599101       -16.3024
  57   2.0000      -0.577909       -15.7257
  58   2.0000      -0.575193       -15.6518
  59   2.0000      -0.572729       -15.5847
  60   2.0000      -0.560229       -15.2446
  61   2.0000      -0.553804       -15.0698
  62   2.0000      -0.540650       -14.7118
  63   2.0000      -0.523479       -14.2446
  64   2.0000      -0.518897       -14.1199
  65   2.0000      -0.512257       -13.9392
  66   2.0000      -0.499215       -13.5843
  67   2.0000      -0.495262       -13.4768
  68   2.0000      -0.483610       -13.1597
  69   2.0000      -0.466471       -12.6933
  70   2.0000      -0.460266       -12.5245
  71   2.0000      -0.449938       -12.2434
  72   2.0000      -0.355658        -9.6780
  73   2.0000      -0.348434        -9.4814
  74   2.0000      -0.329241        -8.9591
  75   2.0000      -0.319671        -8.6987
  76   2.0000      -0.318781        -8.6745
  77   0.0000       0.072272         1.9666
  78   0.0000       0.105836         2.8799
  79   0.0000       0.119629         3.2553
  80   0.0000       0.132847         3.6150
  81   0.0000       0.138259         3.7622

MULLIKEN ATOMIC CHARGES
-----------------------
   0 C :   -0.263103
   1 C :    0.016191
   2 O :   -0.369691
   3 C :    0.470617
   4 O :   -0.387234
   5 C :   -0.245625
   6 C :    0.170576
   7 C :   -0.289511
   8 N :   -0.128343
   9 C :    0.205973
  10 S :   -0.439538
  11 N :   -0.213095
  12 C :    0.051058
  13 C :    0.031746
  14 C :   -0.186567
  15 C :   -0.132085
  16 C :   -0.277494
  17 C :    0.314568
  18 O :   -0.358303
  19 C :   -0.258292
  20 H :    0.108198
  21 H :    0.101370
  22 H :    0.089951
  23 H :    0.106450
  24 H :    0.096171
  25 H :    0.134605
  26 H :    0.107452
  27 H :    0.120693
  28 H :    0.198594
  29 H :    0.199952
  30 H :    0.158164
  31 H :    0.166439
  32 H :    0.162485
  33 H :    0.129993
  34 H :    0.240740
  35 H :    0.166894
Sum of atomic charges:   -0.0000000

LOEWDIN ATOMIC CHARGES
----------------------
   0 C :    0.109153
   1 C :   -0.026562
   2 O :    0.296716
   3 C :   -0.421233
   4 O :    0.128583
   5 C :   -0.098102
   6 C :   -0.067234
   7 C :    0.127011
   8 N :    0.405608
   9 C :   -0.458091
  10 S :   -0.035601
  11 N :    0.396151
  12 C :   -0.049318
  13 C :   -0.042406
  14 C :    0.023623
  15 C :    0.041788
  16 C :   -0.000760
  17 C :   -0.193076
  18 O :    0.393384
  19 C :    0.027610
  20 H :   -0.024575
  21 H :   -0.023154
  22 H :   -0.028518
  23 H :   -0.025283
  24 H :   -0.034076
  25 H :   -0.005963
  26 H :   -0.019421
  27 H :   -0.011498
  28 H :   -0.058183
  29 H :   -0.063327
  30 H :   -0.006988
  31 H :   -0.022799
  32 H :   -0.020012
  33 H :   -0.035529
  34 H :   -0.154021
  35 H :   -0.023897

  Mayer bond orders larger than 0.100000
B(  0-C ,  1-C ) :   0.9856 B(  0-C , 20-H ) :   0.9719 B(  0-C , 21-H ) :   0.9763
B(  0-C , 22-H ) :   0.9752 B(  1-C ,  2-O ) :   0.8986 B(  1-C , 23-H ) :   0.9794
B(  1-C , 24-H ) :   0.9665 B(  2-O ,  3-C ) :   1.0813 B(  3-C ,  4-O ) :   2.0520
B(  3-C ,  5-C ) :   1.0006 B(  5-C ,  6-C ) :   1.6673 B(  5-C , 12-C ) :   0.9545
B(  6-C ,  7-C ) :   0.9491 B(  6-C ,  8-N ) :   1.1381 B(  7-C , 25-H ) :   0.9644
B(  7-C , 26-H ) :   0.9890 B(  7-C , 27-H ) :   0.9677 B(  8-N ,  9-C ) :   1.1845
B(  8-N , 28-H ) :   0.9471 B(  9-C , 10-S ) :   1.6125 B(  9-C , 11-N ) :   1.3022
B( 11-N , 12-C ) :   0.9822 B( 11-N , 29-H ) :   0.9487 B( 12-C , 13-C ) :   0.9684
B( 12-C , 30-H ) :   0.9947 B( 13-C , 14-C ) :   1.3801 B( 13-C , 19-C ) :   1.3607
B( 14-C , 15-C ) :   1.3955 B( 14-C , 31-H ) :   0.9612 B( 15-C , 16-C ) :   1.3602
B( 15-C , 32-H ) :   0.9703 B( 16-C , 17-C ) :   1.3324 B( 16-C , 33-H ) :   0.9854
B( 17-C , 18-O ) :   1.1056 B( 17-C , 19-C ) :   1.3655 B( 18-O , 34-H ) :   0.9800
B( 19-C , 35-H ) :   0.9594

MP2 TOTAL ENERGY:    -1274.327799244 Eh
FINAL SINGLE POINT ENERGY     -1274.327799243753

DIPOLE MOMENT
-------------
                                X             Y             Z
Electronic contribution:     10.06291       9.73592       8.31494
Nuclear contribution   :    -11.64965     -10.75175      -8.87615
                        -----------------------------------------
Total Dipole Moment    :     -1.58674      -1.01583      -0.56120
                        -----------------------------------------
Magnitude (a.u.)       :      1.96586
Magnitude (Debye)      :      4.99681

Rotational constants in cm-1:     0.010847     0.009194     0.006028
Rotational constants in MHz :   325.174999   275.618249   180.720019

                             ****ORCA TERMINATED NORMALLY****
TOTAL RUN TIME: 0 days 1 hours 40 minutes 20 seconds 198 msec
