                         Program Version 4.2.0 -  RELEASE  -
|  1> ! ri-mp2 cc-pvtz cc-pvtz/c TightSCF NoKeepInts
|  2>
|  3> %scf
|  4>   MaxCore 4096
|  5> end
|  6> *xyz  0  1
|  7>     C       15.0255901   14.5068888   14.3888430
|  8>     C       14.7368121   16.0088602   14.1787050
|  9>     O       15.5404780   16.9391445   14.9550079
| 10>     C       16.5554988   16.6615706   15.8359071
| 11>     O       17.1051544   15.5785895   15.9369941
| 12>     C       16.9261013   17.8152728   16.7289326
| 13>     C       16.7872764   19.1174295   16.3595341
| 14>     C       16.0591903   19.6783618   15.1531662
| 15>     N       17.3895143   20.1374505   17.1011248
| 16>     C       18.3200036   19.9373423   18.0842710
| 17>     S       19.0733202   21.1992409   18.8431333
| 18>     N       18.6109348   18.6328350   18.3904745
| 19>     C       17.9005700   17.4537465   17.8590147
| 20>     C       17.2760651   16.5915093   18.9484227
| 21>     C       17.5877660   15.2235356   19.0475986
| 22>     C       17.0126299   14.4304991   20.0547182
| 23>     C       16.1193078   15.0109505   20.9714609
| 24>     C       15.8055627   16.3736288   20.8737194
| 25>     O       14.9403481   16.9356617   21.7551648
| 26>     C       16.3792840   17.1601991   19.8696877
| 27>     H       16.0367088   14.2468850   14.0511617
| 28>     H       14.3180273   13.9008647   13.8104885
| 29>     H       14.9197896   14.2274306   15.4448180
| 30>     H       14.8692267   16.2387043   13.1136490
| 31>     H       13.6800742   16.1904156   14.4134399
| 32>     H       14.9873115   19.4506304   15.2069962
| 33>     H       16.4534702   19.2468994   14.2246692
| 34>     H       16.1551224   20.7674627   15.0652822
| 35>     H       17.2023840   21.1006416   16.8732493
| 36>     H       19.2842931   18.5110474   19.1362711
| 37>     H       18.7354205   16.9242487   17.3771685
| 38>     H       18.2667333   14.7711364   18.3285685
| 39>     H       17.2561265   13.3714564   20.1171152
| 40>     H       15.6716903   14.4018408   21.7495873
| 41>     H       14.6721771   16.2439376   22.3783001
| 42>     H       16.1270366   18.2136816   19.8113549
| 43> *
| 44>
| 45>                          ****END OF INPUT****

CARTESIAN COORDINATES (ANGSTROEM)
---------------------------------
  C     15.025590   14.506889   14.388843
  C     14.736812   16.008860   14.178705
  O     15.540478   16.939145   14.955008
  C     16.555499   16.661571   15.835907
  O     17.105154   15.578589   15.936994
  C     16.926101   17.815273   16.728933
  C     16.787276   19.117430   16.359534
  C     16.059190   19.678362   15.153166
  N     17.389514   20.137450   17.101125
  C     18.320004   19.937342   18.084271
  S     19.073320   21.199241   18.843133
  N     18.610935   18.632835   18.390474
  C     17.900570   17.453746   17.859015
  C     17.276065   16.591509   18.948423
  C     17.587766   15.223536   19.047599
  C     17.012630   14.430499   20.054718
  C     16.119308   15.010950   20.971461
  C     15.805563   16.373629   20.873719
  O     14.940348   16.935662   21.755165
  C     16.379284   17.160199   19.869688
  H     16.036709   14.246885   14.051162
  H     14.318027   13.900865   13.810488
  H     14.919790   14.227431   15.444818
  H     14.869227   16.238704   13.113649
  H     13.680074   16.190416   14.413440
  H     14.987311   19.450630   15.206996
  H     16.453470   19.246899   14.224669
  H     16.155122   20.767463   15.065282
  H     17.202384   21.100642   16.873249
  H     19.284293   18.511047   19.136271
  H     18.735420   16.924249   17.377168
  H     18.266733   14.771136   18.328568
  H     17.256127   13.371456   20.117115
  H     15.671690   14.401841   21.749587
  H     14.672177   16.243938   22.378300
  H     16.127037   18.213682   19.811355

 Total Charge           Charge          ....    0
 Multiplicity           Mult            ....    1
 Number of Electrons    NEL             ....  154
 Basis Dimension        Dim             ....  828

ORBITAL ENERGIES
----------------

  NO   OCC          E(Eh)            E(eV)
   0   2.0000     -91.886683     -2500.3638
   1   2.0000     -20.600805      -560.5764
   2   2.0000     -20.591072      -560.3116
   3   2.0000     -20.543314      -559.0120
   4   2.0000     -15.626709      -425.2244
   5   2.0000     -15.604439      -424.6184
   6   2.0000     -11.399323      -310.1914
   7   2.0000     -11.381087      -309.6951
   8   2.0000     -11.336010      -308.4685
   9   2.0000     -11.307710      -307.6984
  10   2.0000     -11.307031      -307.6800
  11   2.0000     -11.302833      -307.5657
  12   2.0000     -11.259862      -306.3964
  13   2.0000     -11.257644      -306.3361
  14   2.0000     -11.254148      -306.2409
  15   2.0000     -11.247198      -306.0518
  16   2.0000     -11.237340      -305.7836
  17   2.0000     -11.233310      -305.6739
  18   2.0000     -11.230148      -305.5879
  19   2.0000     -11.225434      -305.4596
  20   2.0000      -8.891782      -241.9577
  21   2.0000      -6.573364      -178.8703
  22   2.0000      -6.571358      -178.8157
  23   2.0000      -6.570774      -178.7998
  24   2.0000      -1.444725       -39.3130
  25   2.0000      -1.410816       -38.3903
  26   2.0000      -1.356751       -36.9191
  27   2.0000      -1.338392       -36.4195
  28   2.0000      -1.235691       -33.6249
  29   2.0000      -1.151350       -31.3298
  30   2.0000      -1.118739       -30.4424
  31   2.0000      -1.042101       -28.3570
  32   2.0000      -1.034416       -28.1479
  33   2.0000      -1.009013       -27.4566
  34   2.0000      -0.997173       -27.1344
  35   2.0000      -0.981895       -26.7187
  36   2.0000      -0.920080       -25.0367
  37   2.0000      -0.897385       -24.4191
  38   2.0000      -0.846982       -23.0475
  39   2.0000      -0.834428       -22.7060
  40   2.0000      -0.827301       -22.5120
  41   2.0000      -0.817356       -22.2414
  42   2.0000      -0.742567       -20.2063
  43   2.0000      -0.726866       -19.7790
  44   2.0000      -0.723825       -19.6963
  45   2.0000      -0.688632       -18.7386
  46   2.0000      -0.683107       -18.5883
  47   2.0000      -0.677245       -18.4288
  48   2.0000      -0.673679       -18.3317
  49   2.0000      -0.664444       -18.0804
  50   2.0000      -0.646566       -17.5940
  51   2.0000      -0.642346       -17.4791
  52   2.0000      -0.631750       -17.1908
  53   2.0000      -0.605821       -16.4852
  54   2.0000      -0.601875       -16.3778
  55   2.0000      -0.597152       -16.2493
  56   2.0000      -0.594412       -16.1748
  57   2.0000      -0.578578       -15.7439
  58   2.0000      -0.572415       -15.5762
  59   2.0000      -0.570019       -15.5110
  60   2.0000      -0.558333       -15.1930
  61   2.0000      -0.543248       -14.7825
  62   2.0000      -0.537993       -14.6395
  63   2.0000      -0.526618       -14.3300
  64   2.0000      -0.514694       -14.0055
  65   2.0000      -0.509881       -13.8746
  66   2.0000      -0.498032       -13.5521
  67   2.0000      -0.492958       -13.4141
  68   2.0000      -0.479488       -13.0475
  69   2.0000      -0.462972       -12.5981
  70   2.0000      -0.451772       -12.2933
  71   2.0000      -0.446431       -12.1480
  72   2.0000      -0.351476        -9.5641
  73   2.0000      -0.343691        -9.3523
  74   2.0000      -0.325874        -8.8675
  75   2.0000      -0.315854        -8.5948
  76   2.0000      -0.313667        -8.5353
  77   0.0000       0.079232         2.1560
  78   0.0000       0.112453         3.0600
  79   0.0000       0.121173         3.2973
  80   0.0000       0.136267         3.7080
  81   0.0000       0.139151         3.7865

MULLIKEN ATOMIC CHARGES
-----------------------
   0 C :   -0.290024
   1 C :    0.049541
   2 O :   -0.358560
   3 C :    0.415881
   4 O :   -0.421242
   5 C :   -0.156189
   6 C :    0.160995
   7 C :   -0.283588
   8 N :   -0.129278
   9 C :    0.207359
  10 S :   -0.444843
  11 N :   -0.211031
  12 C :    0.041827
  13 C :    0.031022
  14 C :   -0.170151
  15 C :   -0.134539
  16 C :   -0.277286
  17 C :    0.314362
  18 O :   -0.359011
  19 C :   -0.250568
  20 H :    0.115264
  21 H :    0.097344
  22 H :    0.109410
  23 H :    0.089219
  24 H :    0.092805
  25 H :    0.129244
  26 H :    0.124113
  27 H :    0.102862
  28 H :    0.198445
  29 H :    0.199795
  30 H :    0.156136
  31 H :    0.159616
  32 H :    0.159782
  33 H :    0.128000
  34 H :    0.239757
  35 H :    0.163531
Sum of atomic charges:   -0.0000000

LOEWDIN ATOMIC CHARGES
----------------------
   0 C :    0.102984
   1 C :   -0.007937
   2 O :    0.292678
   3 C :   -0.412839
   4 O :    0.113800
   5 C :   -0.090171
   6 C :   -0.064911
   7 C :    0.124038
   8 N :    0.404949
   9 C :   -0.459085
  10 S :   -0.039504
  11 N :    0.396586
  12 C :   -0.048304
  13 C :   -0.040378
  14 C :    0.024198
  15 C :    0.040340
  16 C :   -0.001439
  17 C :   -0.192450
  18 O :    0.393083
  19 C :    0.029970
  20 H :   -0.024601
  21 H :   -0.027415
  22 H :   -0.024224
  23 H :   -0.029218
  24 H :   -0.027433
  25 H :   -0.009606
  26 H :   -0.009843
  27 H :   -0.021613
  28 H :   -0.059157
  29 H :   -0.063196
  30 H :   -0.008876
  31 H :   -0.024089
  32 H :   -0.021257
  33 H :   -0.036312
  34 H :   -0.155013
  35 H :   -0.023753

  Mayer bond orders larger than 0.100000
B(  0-C ,  1-C ) :   0.9826 B(  0-C , 20-H ) :   0.9725 B(  0-C , 21-H ) :   0.9723
B(  0-C , 22-H ) :   0.9738 B(  1-C ,  2-O ) :   0.9013 B(  1-C , 23-H ) :   0.9773
B(  1-C , 24-H ) :   0.9784 B(  2-O ,  3-C ) :   1.1390 B(  3-C ,  4-O ) :   1.9843
B(  3-C ,  5-C ) :   1.0378 B(  5-C ,  6-C ) :   1.6652 B(  5-C , 12-C ) :   0.9500
B(  6-C ,  7-C ) :   0.9520 B(  6-C ,  8-N ) :   1.1317 B(  7-C , 25-H ) :   0.9638
B(  7-C , 26-H ) :   0.9661 B(  7-C , 27-H ) :   0.9921 B(  8-N ,  9-C ) :   1.1874
B(  8-N , 28-H ) :   0.9470 B(  9-C , 10-S ) :   1.6056 B(  9-C , 11-N ) :   1.3069
B( 11-N , 12-C ) :   0.9761 B( 11-N , 29-H ) :   0.9487 B( 12-C , 13-C ) :   0.9733
B( 12-C , 30-H ) :   0.9972 B( 13-C , 14-C ) :   1.3752 B( 13-C , 19-C ) :   1.3673
B( 14-C , 15-C ) :   1.3967 B( 14-C , 31-H ) :   0.9637 B( 15-C , 16-C ) :   1.3586
B( 15-C , 32-H ) :   0.9713 B( 16-C , 17-C ) :   1.3333 B( 16-C , 33-H ) :   0.9861
B( 17-C , 18-O ) :   1.1033 B( 17-C , 19-C ) :   1.3670 B( 18-O , 34-H ) :   0.9808
B( 19-C , 35-H ) :   0.9600

MP2 TOTAL ENERGY:    -1274.329631471 Eh
FINAL SINGLE POINT ENERGY     -1274.329631470652

DIPOLE MOMENT
-------------
                                X             Y             Z
Electronic contribution:      9.01449      10.42465      11.50882
Nuclear contribution   :    -10.59250     -11.66872     -12.68263
                        -----------------------------------------
Total Dipole Moment    :     -1.57801      -1.24407      -1.17381
                        -----------------------------------------
Magnitude (a.u.)       :      2.32716
Magnitude (Debye)      :      5.91516

Rotational constants in cm-1:     0.009911     0.009098     0.005535
Rotational constants in MHz :   297.113023   272.745412   165.930791

                             ****ORCA TERMINATED NORMALLY****
TOTAL RUN TIME: 0 days 1 hours 53 minutes 33 seconds 357 msec
