                         Program Version 4.2.0 -  RELEASE  -
|  1> ! ri-mp2 cc-pvtz cc-pvtz/c TightSCF NoKeepInts
|  2>
|  3> %scf
|  4>   MaxCore 4096
|  5> end
|  6> *xyz  0  1
|  7>     C       13.9862851   15.5364633   14.5258699
|  8>     C       14.9844732   16.0524540   15.5749248
|  9>     O       16.2933598   16.0103689   14.9771841
| 10>     C       17.3824723   16.3223611   15.7410455
| 11>     O       18.3579689   15.5958246   15.7848066
| 12>     C       17.2592115   17.5609344   16.5717159
| 13>     C       16.9099848   18.7437939   16.0070072
| 14>     C       16.4176497   18.9717877   14.5907698
| 15>     N       17.0745961   19.9424500   16.7042067
| 16>     C       17.7988306   20.0664348   17.8604428
| 17>     S       18.0497034   21.5349635   18.5778386
| 18>     N       18.3252726   18.9094109   18.3800526
| 19>     C       18.0397413   17.5473716   17.8864201
| 20>     C       17.4274326   16.6156011   18.9218268
| 21>     C       17.9244274   15.3100301   19.0832917
| 22>     C       17.3500050   14.4384381   20.0234688
| 23>     C       16.2677044   14.8756168   20.8063523
| 24>     C       15.7664047   16.1742714   20.6425824
| 25>     O       14.7152045   16.5957818   21.3895729
| 26>     C       16.3391978   17.0393826   19.7046203
| 27>     H       14.2439309   14.5148051   14.2188856
| 28>     H       13.9941814   16.1766223   13.6349833
| 29>     H       12.9682126   15.5255267   14.9338303
| 30>     H       14.7071990   17.0677460   15.8831135
| 31>     H       14.9551627   15.4016056   16.4598419
| 32>     H       16.9043964   18.2912745   13.8804506
| 33>     H       16.6361483   19.9880566   14.2392163
| 34>     H       15.3346985   18.8211417   14.5147734
| 35>     H       16.7236649   20.8040814   16.3166019
| 36>     H       18.8495017   19.0274606   19.2381548
| 37>     H       19.0564211   17.2149364   17.6282961
| 38>     H       18.7531474   14.9665549   18.4672065
| 39>     H       17.7418464   13.4291244   20.1383821
| 40>     H       15.8205145   14.2048592   21.5325986
| 41>     H       14.4919776   15.8820271   22.0061008
| 42>     H       15.9360706   18.0404369   19.5915644
| 43> *
| 44>
| 45>                          ****END OF INPUT****

CARTESIAN COORDINATES (ANGSTROEM)
---------------------------------
  C     13.986285   15.536463   14.525870
  C     14.984473   16.052454   15.574925
  O     16.293360   16.010369   14.977184
  C     17.382472   16.322361   15.741045
  O     18.357969   15.595825   15.784807
  C     17.259211   17.560934   16.571716
  C     16.909985   18.743794   16.007007
  C     16.417650   18.971788   14.590770
  N     17.074596   19.942450   16.704207
  C     17.798831   20.066435   17.860443
  S     18.049703   21.534963   18.577839
  N     18.325273   18.909411   18.380053
  C     18.039741   17.547372   17.886420
  C     17.427433   16.615601   18.921827
  C     17.924427   15.310030   19.083292
  C     17.350005   14.438438   20.023469
  C     16.267704   14.875617   20.806352
  C     15.766405   16.174271   20.642582
  O     14.715204   16.595782   21.389573
  C     16.339198   17.039383   19.704620
  H     14.243931   14.514805   14.218886
  H     13.994181   16.176622   13.634983
  H     12.968213   15.525527   14.933830
  H     14.707199   17.067746   15.883113
  H     14.955163   15.401606   16.459842
  H     16.904396   18.291275   13.880451
  H     16.636148   19.988057   14.239216
  H     15.334699   18.821142   14.514773
  H     16.723665   20.804081   16.316602
  H     18.849502   19.027461   19.238155
  H     19.056421   17.214936   17.628296
  H     18.753147   14.966555   18.467206
  H     17.741846   13.429124   20.138382
  H     15.820514   14.204859   21.532599
  H     14.491978   15.882027   22.006101
  H     15.936071   18.040437   19.591564

 Total Charge           Charge          ....    0
 Multiplicity           Mult            ....    1
 Number of Electrons    NEL             ....  154
 Basis Dimension        Dim             ....  828

ORBITAL ENERGIES
----------------

  NO   OCC          E(Eh)            E(eV)
   0   2.0000     -91.890175     -2500.4588
   1   2.0000     -20.598789      -560.5216
   2   2.0000     -20.597752      -560.4933
   3   2.0000     -20.553027      -559.2763
   4   2.0000     -15.629578      -425.3024
   5   2.0000     -15.608926      -424.7405
   6   2.0000     -11.396450      -310.1132
   7   2.0000     -11.385668      -309.8198
   8   2.0000     -11.336865      -308.4918
   9   2.0000     -11.314610      -307.8862
  10   2.0000     -11.308074      -307.7083
  11   2.0000     -11.306881      -307.6759
  12   2.0000     -11.265988      -306.5631
  13   2.0000     -11.262170      -306.4592
  14   2.0000     -11.262079      -306.4567
  15   2.0000     -11.254710      -306.2562
  16   2.0000     -11.244074      -305.9668
  17   2.0000     -11.240235      -305.8624
  18   2.0000     -11.236994      -305.7742
  19   2.0000     -11.236941      -305.7727
  20   2.0000      -8.895270      -242.0526
  21   2.0000      -6.576847      -178.9651
  22   2.0000      -6.574840      -178.9105
  23   2.0000      -6.574253      -178.8945
  24   2.0000      -1.451942       -39.5093
  25   2.0000      -1.417473       -38.5714
  26   2.0000      -1.363396       -37.0999
  27   2.0000      -1.341552       -36.5055
  28   2.0000      -1.239271       -33.7223
  29   2.0000      -1.159029       -31.5388
  30   2.0000      -1.125172       -30.6175
  31   2.0000      -1.047071       -28.4922
  32   2.0000      -1.041800       -28.3488
  33   2.0000      -1.016756       -27.6673
  34   2.0000      -1.004381       -27.3306
  35   2.0000      -0.988942       -26.9105
  36   2.0000      -0.925304       -25.1788
  37   2.0000      -0.880667       -23.9642
  38   2.0000      -0.855204       -23.2713
  39   2.0000      -0.842799       -22.9337
  40   2.0000      -0.836289       -22.7566
  41   2.0000      -0.834067       -22.6961
  42   2.0000      -0.759674       -20.6718
  43   2.0000      -0.739085       -20.1115
  44   2.0000      -0.731430       -19.9032
  45   2.0000      -0.695159       -18.9163
  46   2.0000      -0.688328       -18.7304
  47   2.0000      -0.684615       -18.6293
  48   2.0000      -0.674004       -18.3406
  49   2.0000      -0.662395       -18.0247
  50   2.0000      -0.654239       -17.8027
  51   2.0000      -0.647458       -17.6182
  52   2.0000      -0.639586       -17.4040
  53   2.0000      -0.612935       -16.6788
  54   2.0000      -0.605304       -16.4712
  55   2.0000      -0.604458       -16.4481
  56   2.0000      -0.600889       -16.3510
  57   2.0000      -0.582867       -15.8606
  58   2.0000      -0.576678       -15.6922
  59   2.0000      -0.565894       -15.3988
  60   2.0000      -0.560542       -15.2531
  61   2.0000      -0.558986       -15.2108
  62   2.0000      -0.546019       -14.8579
  63   2.0000      -0.527365       -14.3503
  64   2.0000      -0.523243       -14.2382
  65   2.0000      -0.514141       -13.9905
  66   2.0000      -0.502592       -13.6762
  67   2.0000      -0.500118       -13.6089
  68   2.0000      -0.488832       -13.3018
  69   2.0000      -0.468659       -12.7529
  70   2.0000      -0.462408       -12.5828
  71   2.0000      -0.451970       -12.2987
  72   2.0000      -0.356248        -9.6940
  73   2.0000      -0.350107        -9.5269
  74   2.0000      -0.329467        -8.9652
  75   2.0000      -0.322131        -8.7656
  76   2.0000      -0.319642        -8.6979
  77   0.0000       0.078091         2.1250
  78   0.0000       0.105293         2.8652
  79   0.0000       0.116279         3.1641
  80   0.0000       0.131333         3.5737
  81   0.0000       0.132619         3.6087

MULLIKEN ATOMIC CHARGES
-----------------------
   0 C :   -0.259248
   1 C :    0.016697
   2 O :   -0.329600
   3 C :    0.427054
   4 O :   -0.376582
   5 C :   -0.235360
   6 C :    0.159789
   7 C :   -0.309628
   8 N :   -0.134976
   9 C :    0.207334
  10 S :   -0.441063
  11 N :   -0.218625
  12 C :    0.058449
  13 C :    0.025566
  14 C :   -0.210054
  15 C :   -0.128813
  16 C :   -0.278159
  17 C :    0.313875
  18 O :   -0.357000
  19 C :   -0.251245
  20 H :    0.108107
  21 H :    0.094269
  22 H :    0.091472
  23 H :    0.093148
  24 H :    0.114304
  25 H :    0.140301
  26 H :    0.118997
  27 H :    0.118751
  28 H :    0.198046
  29 H :    0.201497
  30 H :    0.163424
  31 H :    0.173500
  32 H :    0.163802
  33 H :    0.130914
  34 H :    0.241030
  35 H :    0.170026
Sum of atomic charges:    0.0000000

LOEWDIN ATOMIC CHARGES
----------------------
   0 C :    0.111527
   1 C :   -0.026235
   2 O :    0.303050
   3 C :   -0.418791
   4 O :    0.125838
   5 C :   -0.091060
   6 C :   -0.079986
   7 C :    0.128201
   8 N :    0.403715
   9 C :   -0.457294
  10 S :   -0.036826
  11 N :    0.396018
  12 C :   -0.049566
  13 C :   -0.043578
  14 C :    0.021133
  15 C :    0.043263
  16 C :   -0.000672
  17 C :   -0.192274
  18 O :    0.394187
  19 C :    0.027221
  20 H :   -0.021787
  21 H :   -0.028226
  22 H :   -0.023980
  23 H :   -0.039650
  24 H :   -0.026792
  25 H :   -0.006242
  26 H :   -0.014993
  27 H :   -0.016264
  28 H :   -0.057986
  29 H :   -0.063495
  30 H :   -0.005306
  31 H :   -0.021672
  32 H :   -0.019173
  33 H :   -0.035168
  34 H :   -0.153527
  35 H :   -0.023607

  Mayer bond orders larger than 0.100000
B(  0-C ,  1-C ) :   0.9789 B(  0-C , 20-H ) :   0.9774 B(  0-C , 21-H ) :   0.9773
B(  0-C , 22-H ) :   0.9759 B(  1-C ,  2-O ) :   0.8989 B(  1-C , 23-H ) :   0.9677
B(  1-C , 24-H ) :   0.9761 B(  2-O ,  3-C ) :   1.1471 B(  3-C ,  4-O ) :   2.0995
B(  3-C ,  5-C ) :   0.9415 B(  5-C ,  6-C ) :   1.7022 B(  5-C , 12-C ) :   0.9445
B(  6-C ,  7-C ) :   0.9383 B(  6-C ,  8-N ) :   1.1196 B(  7-C , 25-H ) :   0.9685
B(  7-C , 26-H ) :   0.9854 B(  7-C , 27-H ) :   0.9658 B(  8-N ,  9-C ) :   1.1907
B(  8-N , 28-H ) :   0.9490 B(  9-C , 10-S ) :   1.6114 B(  9-C , 11-N ) :   1.2954
B( 11-N , 12-C ) :   0.9840 B( 11-N , 29-H ) :   0.9482 B( 12-C , 13-C ) :   0.9691
B( 12-C , 30-H ) :   0.9911 B( 13-C , 14-C ) :   1.3840 B( 13-C , 19-C ) :   1.3576
B( 14-C , 15-C ) :   1.3937 B( 14-C , 31-H ) :   0.9597 B( 15-C , 16-C ) :   1.3611
B( 15-C , 32-H ) :   0.9701 B( 16-C , 17-C ) :   1.3311 B( 16-C , 33-H ) :   0.9852
B( 17-C , 18-O ) :   1.1074 B( 17-C , 19-C ) :   1.3671 B( 18-O , 34-H ) :   0.9796
B( 19-C , 35-H ) :   0.9574

MP2 TOTAL ENERGY:    -1274.330766630 Eh
FINAL SINGLE POINT ENERGY     -1274.330766629658

DIPOLE MOMENT
-------------
                                X             Y             Z
Electronic contribution:     10.48319       8.30853       9.50314
Nuclear contribution   :    -12.07187      -9.46454      -9.88813
                        -----------------------------------------
Total Dipole Moment    :     -1.58868      -1.15600      -0.38499
                        -----------------------------------------
Magnitude (a.u.)       :      2.00212
Magnitude (Debye)      :      5.08898

Rotational constants in cm-1:     0.010158     0.009283     0.006119
Rotational constants in MHz :   304.514989   278.296813   183.432574

                             ****ORCA TERMINATED NORMALLY****
TOTAL RUN TIME: 0 days 1 hours 48 minutes 30 seconds 997 msec
