                         Program Version 4.2.0 -  RELEASE  -
|  1> ! ri-mp2 cc-pvtz cc-pvtz/c TightSCF NoKeepInts
|  2>
|  3> %scf
|  4>   MaxCore 4096
|  5> end
|  6> *xyz  0  1
|  7>     C       14.5156037   14.8936082   15.1821887
|  8>     C       15.1419819   15.8266962   14.1211266
|  9>     O       15.8499645   16.9225146   14.7391621
| 10>     C       16.8119481   16.7119040   15.6864321
| 11>     O       17.4180196   15.6569756   15.7776481
| 12>     C       17.0264417   17.8529564   16.6414596
| 13>     C       16.7992381   19.1520194   16.3098933
| 14>     C       16.0988590   19.6943363   15.0793442
| 15>     N       17.2642888   20.1872841   17.1251795
| 16>     C       18.1410783   20.0233341   18.1632281
| 17>     S       18.7326216   21.3101079   19.0175777
| 18>     N       18.5201522   18.7353095   18.4432943
| 19>     C       17.9516583   17.5243744   17.8203317
| 20>     C       17.3297009   16.5672077   18.8288100
| 21>     C       17.7486961   15.2263369   18.8981427
| 22>     C       17.1726942   14.3446524   19.8280820
| 23>     C       16.1699920   14.8083490   20.6969434
| 24>     C       15.7491911   16.1436743   20.6285113
| 25>     O       14.7780513   16.5927870   21.4630946
| 26>     C       16.3240525   17.0186486   19.7012322
| 27>     H       15.2777912   14.3147374   15.7177983
| 28>     H       13.8371190   14.1778069   14.7027542
| 29>     H       13.9380215   15.4703176   15.9152396
| 30>     H       15.8301053   15.2466883   13.4915241
| 31>     H       14.3506081   16.2283011   13.4754281
| 32>     H       15.0526715   19.3648754   15.0520730
| 33>     H       16.5903131   19.3416616   14.1639383
| 34>     H       16.0949193   20.7903940   15.0389771
| 35>     H       17.0121231   21.1404511   16.9186264
| 36>     H       19.1500917   18.6390878   19.2297016
| 37>     H       18.8581588   17.0863358   17.3777007
| 38>     H       18.5129349   14.8634982   18.2148096
| 39>     H       17.5004034   13.3074308   19.8678325
| 40>     H       15.7214119   14.1304482   21.4153618
| 41>     H       14.5286536   15.8555915   22.0402340
| 42>     H       15.9874397   18.0492977   19.6643186
| 43> *
| 44>
| 45>                          ****END OF INPUT****

CARTESIAN COORDINATES (ANGSTROEM)
---------------------------------
  C     14.515604   14.893608   15.182189
  C     15.141982   15.826696   14.121127
  O     15.849964   16.922515   14.739162
  C     16.811948   16.711904   15.686432
  O     17.418020   15.656976   15.777648
  C     17.026442   17.852956   16.641460
  C     16.799238   19.152019   16.309893
  C     16.098859   19.694336   15.079344
  N     17.264289   20.187284   17.125180
  C     18.141078   20.023334   18.163228
  S     18.732622   21.310108   19.017578
  N     18.520152   18.735309   18.443294
  C     17.951658   17.524374   17.820332
  C     17.329701   16.567208   18.828810
  C     17.748696   15.226337   18.898143
  C     17.172694   14.344652   19.828082
  C     16.169992   14.808349   20.696943
  C     15.749191   16.143674   20.628511
  O     14.778051   16.592787   21.463095
  C     16.324053   17.018649   19.701232
  H     15.277791   14.314737   15.717798
  H     13.837119   14.177807   14.702754
  H     13.938021   15.470318   15.915240
  H     15.830105   15.246688   13.491524
  H     14.350608   16.228301   13.475428
  H     15.052672   19.364875   15.052073
  H     16.590313   19.341662   14.163938
  H     16.094919   20.790394   15.038977
  H     17.012123   21.140451   16.918626
  H     19.150092   18.639088   19.229702
  H     18.858159   17.086336   17.377701
  H     18.512935   14.863498   18.214810
  H     17.500403   13.307431   19.867832
  H     15.721412   14.130448   21.415362
  H     14.528654   15.855591   22.040234
  H     15.987440   18.049298   19.664319

 Total Charge           Charge          ....    0
 Multiplicity           Mult            ....    1
 Number of Electrons    NEL             ....  154
 Basis Dimension        Dim             ....  828

ORBITAL ENERGIES
----------------

  NO   OCC          E(Eh)            E(eV)
   0   2.0000     -91.887796     -2500.3940
   1   2.0000     -20.600259      -560.5616
   2   2.0000     -20.591986      -560.3364
   3   2.0000     -20.545315      -559.0664
   4   2.0000     -15.628245      -425.2662
   5   2.0000     -15.605557      -424.6488
   6   2.0000     -11.396518      -310.1150
   7   2.0000     -11.382339      -309.7292
   8   2.0000     -11.337819      -308.5177
   9   2.0000     -11.308024      -307.7070
  10   2.0000     -11.304061      -307.5991
  11   2.0000     -11.303210      -307.5760
  12   2.0000     -11.260817      -306.4224
  13   2.0000     -11.258360      -306.3555
  14   2.0000     -11.255193      -306.2694
  15   2.0000     -11.248141      -306.0775
  16   2.0000     -11.238298      -305.8096
  17   2.0000     -11.234396      -305.7035
  18   2.0000     -11.231146      -305.6150
  19   2.0000     -11.225999      -305.4750
  20   2.0000      -8.892881      -241.9876
  21   2.0000      -6.574459      -178.9001
  22   2.0000      -6.572455      -178.8456
  23   2.0000      -6.571868      -178.8296
  24   2.0000      -1.451353       -39.4933
  25   2.0000      -1.411738       -38.4153
  26   2.0000      -1.356277       -36.9062
  27   2.0000      -1.339602       -36.4524
  28   2.0000      -1.236831       -33.6559
  29   2.0000      -1.152563       -31.3628
  30   2.0000      -1.120415       -30.4880
  31   2.0000      -1.042184       -28.3593
  32   2.0000      -1.033191       -28.1145
  33   2.0000      -1.010076       -27.4856
  34   2.0000      -0.998430       -27.1687
  35   2.0000      -0.983348       -26.7583
  36   2.0000      -0.920975       -25.0610
  37   2.0000      -0.896255       -24.3883
  38   2.0000      -0.847585       -23.0640
  39   2.0000      -0.835154       -22.7257
  40   2.0000      -0.828296       -22.5391
  41   2.0000      -0.816043       -22.2057
  42   2.0000      -0.748557       -20.3693
  43   2.0000      -0.734543       -19.9879
  44   2.0000      -0.726042       -19.7566
  45   2.0000      -0.690473       -18.7887
  46   2.0000      -0.685612       -18.6565
  47   2.0000      -0.678476       -18.4623
  48   2.0000      -0.669414       -18.2157
  49   2.0000      -0.656564       -17.8660
  50   2.0000      -0.652219       -17.7478
  51   2.0000      -0.644214       -17.5300
  52   2.0000      -0.630994       -17.1702
  53   2.0000      -0.615459       -16.7475
  54   2.0000      -0.602837       -16.4040
  55   2.0000      -0.598349       -16.2819
  56   2.0000      -0.595289       -16.1986
  57   2.0000      -0.578362       -15.7380
  58   2.0000      -0.573608       -15.6087
  59   2.0000      -0.564075       -15.3493
  60   2.0000      -0.556823       -15.1519
  61   2.0000      -0.546091       -14.8599
  62   2.0000      -0.537684       -14.6311
  63   2.0000      -0.527425       -14.3520
  64   2.0000      -0.515641       -14.0313
  65   2.0000      -0.508933       -13.8488
  66   2.0000      -0.499180       -13.5834
  67   2.0000      -0.493930       -13.4405
  68   2.0000      -0.480157       -13.0657
  69   2.0000      -0.463769       -12.6198
  70   2.0000      -0.458548       -12.4777
  71   2.0000      -0.449665       -12.2360
  72   2.0000      -0.352777        -9.5995
  73   2.0000      -0.344756        -9.3813
  74   2.0000      -0.326898        -8.8953
  75   2.0000      -0.316953        -8.6247
  76   2.0000      -0.314646        -8.5620
  77   0.0000       0.077145         2.0992
  78   0.0000       0.111066         3.0223
  79   0.0000       0.121647         3.3102
  80   0.0000       0.135746         3.6938
  81   0.0000       0.141579         3.8526

MULLIKEN ATOMIC CHARGES
-----------------------
   0 C :   -0.311567
   1 C :    0.042234
   2 O :   -0.357034
   3 C :    0.437421
   4 O :   -0.426570
   5 C :   -0.172987
   6 C :    0.156419
   7 C :   -0.279368
   8 N :   -0.128252
   9 C :    0.207911
  10 S :   -0.442747
  11 N :   -0.211082
  12 C :    0.042376
  13 C :    0.033444
  14 C :   -0.172228
  15 C :   -0.134253
  16 C :   -0.277089
  17 C :    0.314480
  18 O :   -0.358953
  19 C :   -0.252262
  20 H :    0.128479
  21 H :    0.097471
  22 H :    0.096503
  23 H :    0.100189
  24 H :    0.106049
  25 H :    0.127871
  26 H :    0.125918
  27 H :    0.100989
  28 H :    0.198769
  29 H :    0.199868
  30 H :    0.155716
  31 H :    0.160142
  32 H :    0.160227
  33 H :    0.128344
  34 H :    0.239944
  35 H :    0.163627
Sum of atomic charges:   -0.0000000

LOEWDIN ATOMIC CHARGES
----------------------
   0 C :    0.105985
   1 C :   -0.014372
   2 O :    0.298933
   3 C :   -0.414172
   4 O :    0.106467
   5 C :   -0.091631
   6 C :   -0.064028
   7 C :    0.125164
   8 N :    0.405438
   9 C :   -0.458559
  10 S :   -0.037946
  11 N :    0.396520
  12 C :   -0.048240
  13 C :   -0.040575
  14 C :    0.024514
  15 C :    0.040439
  16 C :   -0.001152
  17 C :   -0.192530
  18 O :    0.393130
  19 C :    0.029700
  20 H :   -0.024241
  21 H :   -0.026394
  22 H :   -0.028481
  23 H :   -0.028802
  24 H :   -0.024977
  25 H :   -0.009601
  26 H :   -0.009035
  27 H :   -0.021463
  28 H :   -0.058776
  29 H :   -0.063178
  30 H :   -0.008311
  31 H :   -0.023973
  32 H :   -0.021082
  33 H :   -0.036146
  34 H :   -0.154855
  35 H :   -0.023769

  Mayer bond orders larger than 0.100000
B(  0-C ,  1-C ) :   0.9604 B(  0-C , 20-H ) :   0.9715 B(  0-C , 21-H ) :   0.9764
B(  0-C , 22-H ) :   0.9752 B(  1-C ,  2-O ) :   0.9021 B(  1-C , 23-H ) :   0.9816
B(  1-C , 24-H ) :   0.9837 B(  2-O ,  3-C ) :   1.1285 B(  3-C ,  4-O ) :   1.9793
B(  3-C ,  5-C ) :   1.0427 B(  5-C ,  6-C ) :   1.6541 B(  5-C , 12-C ) :   0.9509
B(  6-C ,  7-C ) :   0.9556 B(  6-C ,  8-N ) :   1.1379 B(  7-C , 25-H ) :   0.9637
B(  7-C , 26-H ) :   0.9649 B(  7-C , 27-H ) :   0.9908 B(  8-N ,  9-C ) :   1.1852
B(  8-N , 28-H ) :   0.9469 B(  9-C , 10-S ) :   1.6079 B(  9-C , 11-N ) :   1.3061
B( 11-N , 12-C ) :   0.9773 B( 11-N , 29-H ) :   0.9485 B( 12-C , 13-C ) :   0.9722
B( 12-C , 30-H ) :   0.9970 B( 13-C , 14-C ) :   1.3760 B( 13-C , 19-C ) :   1.3659
B( 14-C , 15-C ) :   1.3966 B( 14-C , 31-H ) :   0.9633 B( 15-C , 16-C ) :   1.3588
B( 15-C , 32-H ) :   0.9711 B( 16-C , 17-C ) :   1.3335 B( 16-C , 33-H ) :   0.9859
B( 17-C , 18-O ) :   1.1036 B( 17-C , 19-C ) :   1.3670 B( 18-O , 34-H ) :   0.9806
B( 19-C , 35-H ) :   0.9601

MP2 TOTAL ENERGY:    -1274.338509934 Eh
FINAL SINGLE POINT ENERGY     -1274.338509933642

DIPOLE MOMENT
-------------
                                X             Y             Z
Electronic contribution:      9.45125      10.16276       9.83568
Nuclear contribution   :    -10.88873     -11.44727     -10.96687
                        -----------------------------------------
Total Dipole Moment    :     -1.43748      -1.28451      -1.13119
                        -----------------------------------------
Magnitude (a.u.)       :      2.23515
Magnitude (Debye)      :      5.68130

Rotational constants in cm-1:     0.010232     0.009269     0.005747
Rotational constants in MHz :   306.757579   277.866553   172.293627

                             ****ORCA TERMINATED NORMALLY****
TOTAL RUN TIME: 0 days 1 hours 36 minutes 21 seconds 261 msec
