                         Program Version 4.2.0 -  RELEASE  -
|  1> ! ri-mp2 cc-pvtz cc-pvtz/c TightSCF NoKeepInts
|  2>
|  3> %scf
|  4>   MaxCore 4096
|  5> end
|  6> *xyz  0  1
|  7>     C       14.5718364   15.2623746   16.0667667
|  8>     C       15.8817230   14.8264353   15.3737686
|  9>     O       16.9261809   15.8065256   15.5491526
| 10>     C       16.6812204   17.1201409   15.2721471
| 11>     O       16.1341059   17.4516897   14.2346445
| 12>     C       17.0310312   18.0431532   16.4099453
| 13>     C       17.0163756   19.3897237   16.2312668
| 14>     C       16.4080974   20.1556813   15.0743584
| 15>     N       17.6104306   20.2467549   17.1604755
| 16>     C       18.4210884   19.8359136   18.1833172
| 17>     S       19.1823875   20.9101131   19.1843076
| 18>     N       18.5889437   18.4816665   18.3213765
| 19>     C       17.8600706   17.4478284   17.5621586
| 20>     C       17.0962074   16.4924200   18.4689087
| 21>     C       17.4820233   15.1438851   18.5807640
| 22>     C       16.7760894   14.2674508   19.4220070
| 23>     C       15.6807004   14.7455547   20.1617224
| 24>     C       15.3005993   16.0909711   20.0588523
| 25>     O       14.2434678   16.5550027   20.7713386
| 26>     C       16.0037366   16.9602408   19.2188980
| 27>     H       14.7380013   15.4567461   17.1320880
| 28>     H       13.8198370   14.4685510   15.9844604
| 29>     H       14.1520169   16.1650839   15.6058709
| 30>     H       16.2131566   13.8653997   15.7873457
| 31>     H       15.6889841   14.6843524   14.3018341
| 32>     H       16.9618147   19.9598805   14.1471700
| 33>     H       16.3999945   21.2404361   15.2331481
| 34>     H       15.3691133   19.8436128   14.9077693
| 35>     H       17.5160586   21.2440842   17.0534036
| 36>     H       19.1703821   18.2073562   19.1031974
| 37>     H       18.7061447   16.9353998   17.0824897
| 38>     H       18.3266652   14.7731494   18.0058760
| 39>     H       17.0791540   13.2247245   19.5000114
| 40>     H       15.1330335   14.0727376   20.8135058
| 41>     H       13.9169640   15.8252324   21.3189232
| 42>     H       15.6993634   17.9997273   19.1547300
| 43> *
| 44>
| 45>                          ****END OF INPUT****

CARTESIAN COORDINATES (ANGSTROEM)
---------------------------------
  C     14.571836   15.262375   16.066767
  C     15.881723   14.826435   15.373769
  O     16.926181   15.806526   15.549153
  C     16.681220   17.120141   15.272147
  O     16.134106   17.451690   14.234644
  C     17.031031   18.043153   16.409945
  C     17.016376   19.389724   16.231267
  C     16.408097   20.155681   15.074358
  N     17.610431   20.246755   17.160475
  C     18.421088   19.835914   18.183317
  S     19.182387   20.910113   19.184308
  N     18.588944   18.481666   18.321376
  C     17.860071   17.447828   17.562159
  C     17.096207   16.492420   18.468909
  C     17.482023   15.143885   18.580764
  C     16.776089   14.267451   19.422007
  C     15.680700   14.745555   20.161722
  C     15.300599   16.090971   20.058852
  O     14.243468   16.555003   20.771339
  C     16.003737   16.960241   19.218898
  H     14.738001   15.456746   17.132088
  H     13.819837   14.468551   15.984460
  H     14.152017   16.165084   15.605871
  H     16.213157   13.865400   15.787346
  H     15.688984   14.684352   14.301834
  H     16.961815   19.959881   14.147170
  H     16.399994   21.240436   15.233148
  H     15.369113   19.843613   14.907769
  H     17.516059   21.244084   17.053404
  H     19.170382   18.207356   19.103197
  H     18.706145   16.935400   17.082490
  H     18.326665   14.773149   18.005876
  H     17.079154   13.224725   19.500011
  H     15.133033   14.072738   20.813506
  H     13.916964   15.825232   21.318923
  H     15.699363   17.999727   19.154730

 Total Charge           Charge          ....    0
 Multiplicity           Mult            ....    1
 Number of Electrons    NEL             ....  154
 Basis Dimension        Dim             ....  828

ORBITAL ENERGIES
----------------

  NO   OCC          E(Eh)            E(eV)
   0   2.0000     -91.890341     -2500.4633
   1   2.0000     -20.599408      -560.5384
   2   2.0000     -20.587874      -560.2245
   3   2.0000     -20.542608      -558.9928
   4   2.0000     -15.630802      -425.3357
   5   2.0000     -15.608274      -424.7227
   6   2.0000     -11.393225      -310.0254
   7   2.0000     -11.384752      -309.7948
   8   2.0000     -11.339192      -308.5551
   9   2.0000     -11.316981      -307.9507
  10   2.0000     -11.309276      -307.7411
  11   2.0000     -11.297924      -307.4321
  12   2.0000     -11.263525      -306.4961
  13   2.0000     -11.259398      -306.3838
  14   2.0000     -11.258542      -306.3605
  15   2.0000     -11.252690      -306.2013
  16   2.0000     -11.247108      -306.0494
  17   2.0000     -11.241917      -305.9081
  18   2.0000     -11.241592      -305.8993
  19   2.0000     -11.222833      -305.3888
  20   2.0000      -8.895393      -242.0560
  21   2.0000      -6.576961      -178.9682
  22   2.0000      -6.574968      -178.9140
  23   2.0000      -6.574372      -178.8977
  24   2.0000      -1.446967       -39.3740
  25   2.0000      -1.419168       -38.6175
  26   2.0000      -1.351162       -36.7670
  27   2.0000      -1.342036       -36.5187
  28   2.0000      -1.239895       -33.7393
  29   2.0000      -1.160527       -31.5795
  30   2.0000      -1.122216       -30.5371
  31   2.0000      -1.045077       -28.4380
  32   2.0000      -1.032104       -28.0850
  33   2.0000      -1.018238       -27.7077
  34   2.0000      -0.998163       -27.1614
  35   2.0000      -0.986537       -26.8450
  36   2.0000      -0.923693       -25.1350
  37   2.0000      -0.895598       -24.3704
  38   2.0000      -0.848090       -23.0777
  39   2.0000      -0.840926       -22.8828
  40   2.0000      -0.837325       -22.7848
  41   2.0000      -0.816064       -22.2062
  42   2.0000      -0.749303       -20.3896
  43   2.0000      -0.735863       -20.0239
  44   2.0000      -0.722842       -19.6695
  45   2.0000      -0.697991       -18.9933
  46   2.0000      -0.690271       -18.7832
  47   2.0000      -0.675221       -18.3737
  48   2.0000      -0.671924       -18.2840
  49   2.0000      -0.662721       -18.0336
  50   2.0000      -0.648217       -17.6389
  51   2.0000      -0.641204       -17.4480
  52   2.0000      -0.636411       -17.3176
  53   2.0000      -0.616453       -16.7745
  54   2.0000      -0.609640       -16.5891
  55   2.0000      -0.602518       -16.3954
  56   2.0000      -0.601148       -16.3581
  57   2.0000      -0.579535       -15.7699
  58   2.0000      -0.570429       -15.5222
  59   2.0000      -0.566508       -15.4155
  60   2.0000      -0.550249       -14.9730
  61   2.0000      -0.546206       -14.8630
  62   2.0000      -0.534058       -14.5325
  63   2.0000      -0.531484       -14.4624
  64   2.0000      -0.525942       -14.3116
  65   2.0000      -0.514509       -14.0005
  66   2.0000      -0.501545       -13.6477
  67   2.0000      -0.499719       -13.5980
  68   2.0000      -0.479859       -13.0576
  69   2.0000      -0.465026       -12.6540
  70   2.0000      -0.453150       -12.3308
  71   2.0000      -0.444281       -12.0895
  72   2.0000      -0.354078        -9.6350
  73   2.0000      -0.352886        -9.6025
  74   2.0000      -0.329532        -8.9670
  75   2.0000      -0.324784        -8.8378
  76   2.0000      -0.319730        -8.7003
  77   0.0000       0.072473         1.9721
  78   0.0000       0.101862         2.7718
  79   0.0000       0.123506         3.3608
  80   0.0000       0.130296         3.5455
  81   0.0000       0.134955         3.6723

MULLIKEN ATOMIC CHARGES
-----------------------
   0 C :   -0.326071
   1 C :    0.026010
   2 O :   -0.378895
   3 C :    0.459641
   4 O :   -0.425060
   5 C :   -0.234363
   6 C :    0.170274
   7 C :   -0.266653
   8 N :   -0.125429
   9 C :    0.208083
  10 S :   -0.438947
  11 N :   -0.213323
  12 C :    0.058043
  13 C :    0.000811
  14 C :   -0.167019
  15 C :   -0.139520
  16 C :   -0.268513
  17 C :    0.305347
  18 O :   -0.359383
  19 C :   -0.228326
  20 H :    0.113483
  21 H :    0.106961
  22 H :    0.113534
  23 H :    0.112694
  24 H :    0.122411
  25 H :    0.131633
  26 H :    0.094652
  27 H :    0.132313
  28 H :    0.200235
  29 H :    0.200119
  30 H :    0.154539
  31 H :    0.159732
  32 H :    0.162980
  33 H :    0.132659
  34 H :    0.240799
  35 H :    0.164552
Sum of atomic charges:   -0.0000000

LOEWDIN ATOMIC CHARGES
----------------------
   0 C :    0.106553
   1 C :   -0.016968
   2 O :    0.294258
   3 C :   -0.420481
   4 O :    0.104043
   5 C :   -0.098921
   6 C :   -0.053753
   7 C :    0.131616
   8 N :    0.407805
   9 C :   -0.457622
  10 S :   -0.034366
  11 N :    0.395138
  12 C :   -0.053907
  13 C :   -0.041989
  14 C :    0.019451
  15 C :    0.039118
  16 C :   -0.000838
  17 C :   -0.191860
  18 O :    0.396264
  19 C :    0.032888
  20 H :   -0.027605
  21 H :   -0.024867
  22 H :   -0.026816
  23 H :   -0.025049
  24 H :   -0.028234
  25 H :   -0.004213
  26 H :   -0.023518
  27 H :   -0.004700
  28 H :   -0.056835
  29 H :   -0.063964
  30 H :   -0.012049
  31 H :   -0.027409
  32 H :   -0.020643
  33 H :   -0.034785
  34 H :   -0.153371
  35 H :   -0.022371

  Mayer bond orders larger than 0.100000
B(  0-C ,  1-C ) :   0.9545 B(  0-C , 20-H ) :   0.9684 B(  0-C , 21-H ) :   0.9782
B(  0-C , 22-H ) :   0.9741 B(  1-C ,  2-O ) :   0.8913 B(  1-C , 23-H ) :   0.9815
B(  1-C , 24-H ) :   0.9856 B(  2-O ,  3-C ) :   1.1197 B(  3-C ,  4-O ) :   1.9914
B(  3-C ,  5-C ) :   1.0676 B(  5-C ,  6-C ) :   1.6293 B(  5-C , 12-C ) :   0.9555
B(  6-C ,  7-C ) :   0.9662 B(  6-C ,  8-N ) :   1.1543 B(  7-C , 25-H ) :   0.9573
B(  7-C , 26-H ) :   0.9900 B(  7-C , 27-H ) :   0.9622 B(  8-N ,  9-C ) :   1.1854
B(  8-N , 28-H ) :   0.9464 B(  9-C , 10-S ) :   1.6110 B(  9-C , 11-N ) :   1.3070
B( 11-N , 12-C ) :   0.9702 B( 11-N , 29-H ) :   0.9487 B( 12-C , 13-C ) :   0.9572
B( 12-C , 30-H ) :   1.0021 B( 13-C , 14-C ) :   1.3613 B( 13-C , 19-C ) :   1.3798
B( 14-C , 15-C ) :   1.3885 B( 14-C , 31-H ) :   0.9687 B( 15-C , 16-C ) :   1.3585
B( 15-C , 32-H ) :   0.9706 B( 16-C , 17-C ) :   1.3343 B( 16-C , 33-H ) :   0.9843
B( 17-C , 18-O ) :   1.1062 B( 17-C , 19-C ) :   1.3638 B( 18-O , 34-H ) :   0.9795
B( 19-C , 35-H ) :   0.9602

MP2 TOTAL ENERGY:    -1274.335204603 Eh
FINAL SINGLE POINT ENERGY     -1274.335204602554

DIPOLE MOMENT
-------------
                                X             Y             Z
Electronic contribution:      9.28502       9.49081       6.49051
Nuclear contribution   :    -10.29005     -11.18717      -6.58405
                        -----------------------------------------
Total Dipole Moment    :     -1.00503      -1.69636      -0.09354
                        -----------------------------------------
Magnitude (a.u.)       :      1.97395
Magnitude (Debye)      :      5.01737

Rotational constants in cm-1:     0.012279     0.008848     0.006179
Rotational constants in MHz :   368.113991   265.246500   185.236488

                             ****ORCA TERMINATED NORMALLY****
TOTAL RUN TIME: 0 days 2 hours 2 minutes 17 seconds 27 msec
