                         Program Version 4.2.0 -  RELEASE  -
|  1> ! ri-mp2 cc-pvtz cc-pvtz/c TightSCF NoKeepInts
|  2>
|  3> %scf
|  4>   MaxCore 4096
|  5> end
|  6> *xyz  0  1
|  7>     C       14.0799093   15.1827156   15.4797821
|  8>     C       14.9886696   16.4097568   15.3025593
|  9>     O       16.3263386   15.9118965   15.1018988
| 10>     C       17.4667139   16.4954021   15.5957285
| 11>     O       18.5610677   15.9966428   15.4112371
| 12>     C       17.2836681   17.6596311   16.5100721
| 13>     C       16.9732520   18.8750297   15.9997970
| 14>     C       16.5370671   19.1820085   14.5815538
| 15>     N       17.1152744   20.0311372   16.7690153
| 16>     C       17.7922867   20.0809244   17.9595239
| 17>     S       18.0253638   21.5035076   18.7694942
| 18>     N       18.2886292   18.8903154   18.4323938
| 19>     C       18.0124942   17.5621510   17.8483352
| 20>     C       17.3659745   16.5610992   18.7931592
| 21>     C       17.8163355   15.2292310   18.8242625
| 22>     C       17.2087039   14.2901147   19.6741661
| 23>     C       16.1394155   14.6859299   20.4960103
| 24>     C       15.6837960   16.0110622   20.4605228
| 25>     O       14.6446883   16.3931340   21.2447526
| 26>     C       16.2899273   16.9439986   19.6128571
| 27>     H       14.3939782   14.5933546   16.3508404
| 28>     H       14.1233284   14.5376789   14.5931419
| 29>     H       13.0382390   15.4907633   15.6310875
| 30>     H       14.6637870   17.0042910   14.4393772
| 31>     H       14.9030258   17.0189973   16.2111001
| 32>     H       16.7861949   18.3747390   13.8816241
| 33>     H       17.0381780   20.0816197   14.2011665
| 34>     H       15.4554063   19.3550687   14.5303351
| 35>     H       16.7916928   20.9175054   16.4144681
| 36>     H       18.7815742   18.9534436   19.3145061
| 37>     H       19.0365843   17.2411216   17.6048566
| 38>     H       18.6347584   14.9194024   18.1772598
| 39>     H       17.5643701   13.2611711   19.6893286
| 40>     H       15.6662996   13.9630393   21.1524234
| 41>     H       14.3900095   15.6281919   21.7826220
| 42>     H       15.9199981   17.9639238   19.5967410
| 43> *
| 44>
| 45>                          ****END OF INPUT****

CARTESIAN COORDINATES (ANGSTROEM)
---------------------------------
  C     14.079909   15.182716   15.479782
  C     14.988670   16.409757   15.302559
  O     16.326339   15.911896   15.101899
  C     17.466714   16.495402   15.595728
  O     18.561068   15.996643   15.411237
  C     17.283668   17.659631   16.510072
  C     16.973252   18.875030   15.999797
  C     16.537067   19.182008   14.581554
  N     17.115274   20.031137   16.769015
  C     17.792287   20.080924   17.959524
  S     18.025364   21.503508   18.769494
  N     18.288629   18.890315   18.432394
  C     18.012494   17.562151   17.848335
  C     17.365975   16.561099   18.793159
  C     17.816336   15.229231   18.824262
  C     17.208704   14.290115   19.674166
  C     16.139415   14.685930   20.496010
  C     15.683796   16.011062   20.460523
  O     14.644688   16.393134   21.244753
  C     16.289927   16.943999   19.612857
  H     14.393978   14.593355   16.350840
  H     14.123328   14.537679   14.593142
  H     13.038239   15.490763   15.631087
  H     14.663787   17.004291   14.439377
  H     14.903026   17.018997   16.211100
  H     16.786195   18.374739   13.881624
  H     17.038178   20.081620   14.201166
  H     15.455406   19.355069   14.530335
  H     16.791693   20.917505   16.414468
  H     18.781574   18.953444   19.314506
  H     19.036584   17.241122   17.604857
  H     18.634758   14.919402   18.177260
  H     17.564370   13.261171   19.689329
  H     15.666300   13.963039   21.152423
  H     14.390009   15.628192   21.782622
  H     15.919998   17.963924   19.596741

 Total Charge           Charge          ....    0
 Multiplicity           Mult            ....    1
 Number of Electrons    NEL             ....  154
 Basis Dimension        Dim             ....  828

ORBITAL ENERGIES
----------------

  NO   OCC          E(Eh)            E(eV)
   0   2.0000     -91.889445     -2500.4389
   1   2.0000     -20.606210      -560.7235
   2   2.0000     -20.599617      -560.5441
   3   2.0000     -20.550199      -559.1993
   4   2.0000     -15.627004      -425.2324
   5   2.0000     -15.609675      -424.7609
   6   2.0000     -11.399873      -310.2063
   7   2.0000     -11.385562      -309.8169
   8   2.0000     -11.331644      -308.3497
   9   2.0000     -11.317047      -307.9525
  10   2.0000     -11.310958      -307.7868
  11   2.0000     -11.306822      -307.6743
  12   2.0000     -11.268989      -306.6448
  13   2.0000     -11.265007      -306.5364
  14   2.0000     -11.263281      -306.4894
  15   2.0000     -11.257451      -306.3308
  16   2.0000     -11.246019      -306.0197
  17   2.0000     -11.242212      -305.9161
  18   2.0000     -11.239857      -305.8521
  19   2.0000     -11.233297      -305.6736
  20   2.0000      -8.894558      -242.0332
  21   2.0000      -6.576142      -178.9459
  22   2.0000      -6.574127      -178.8911
  23   2.0000      -6.573547      -178.8753
  24   2.0000      -1.449382       -39.4397
  25   2.0000      -1.419311       -38.6214
  26   2.0000      -1.363066       -37.0909
  27   2.0000      -1.340336       -36.4724
  28   2.0000      -1.239015       -33.7153
  29   2.0000      -1.161492       -31.6058
  30   2.0000      -1.126814       -30.6622
  31   2.0000      -1.048935       -28.5430
  32   2.0000      -1.042387       -28.3648
  33   2.0000      -1.019314       -27.7370
  34   2.0000      -1.006311       -27.3831
  35   2.0000      -0.989745       -26.9323
  36   2.0000      -0.926728       -25.2176
  37   2.0000      -0.884120       -24.0581
  38   2.0000      -0.855961       -23.2919
  39   2.0000      -0.842128       -22.9155
  40   2.0000      -0.837639       -22.7933
  41   2.0000      -0.836168       -22.7533
  42   2.0000      -0.757794       -20.6206
  43   2.0000      -0.740402       -20.1474
  44   2.0000      -0.731932       -19.9169
  45   2.0000      -0.697577       -18.9820
  46   2.0000      -0.690406       -18.7869
  47   2.0000      -0.684417       -18.6239
  48   2.0000      -0.674586       -18.3564
  49   2.0000      -0.662922       -18.0390
  50   2.0000      -0.656836       -17.8734
  51   2.0000      -0.646745       -17.5988
  52   2.0000      -0.638488       -17.3741
  53   2.0000      -0.613350       -16.6901
  54   2.0000      -0.609051       -16.5731
  55   2.0000      -0.603039       -16.4095
  56   2.0000      -0.600788       -16.3483
  57   2.0000      -0.583272       -15.8716
  58   2.0000      -0.578462       -15.7408
  59   2.0000      -0.569498       -15.4968
  60   2.0000      -0.560450       -15.2506
  61   2.0000      -0.558305       -15.1922
  62   2.0000      -0.552242       -15.0273
  63   2.0000      -0.531059       -14.4508
  64   2.0000      -0.519734       -14.1427
  65   2.0000      -0.514364       -13.9966
  66   2.0000      -0.506457       -13.7814
  67   2.0000      -0.501645       -13.6504
  68   2.0000      -0.488400       -13.2900
  69   2.0000      -0.471216       -12.8224
  70   2.0000      -0.455678       -12.3996
  71   2.0000      -0.452137       -12.3033
  72   2.0000      -0.355624        -9.6770
  73   2.0000      -0.351759        -9.5719
  74   2.0000      -0.329009        -8.9528
  75   2.0000      -0.324640        -8.8339
  76   2.0000      -0.319209        -8.6861
  77   0.0000       0.087646         2.3850
  78   0.0000       0.103343         2.8121
  79   0.0000       0.115057         3.1309
  80   0.0000       0.129386         3.5208
  81   0.0000       0.130255         3.5444

MULLIKEN ATOMIC CHARGES
-----------------------
   0 C :   -0.254359
   1 C :    0.023003
   2 O :   -0.305421
   3 C :    0.409234
   4 O :   -0.383609
   5 C :   -0.210711
   6 C :    0.157591
   7 C :   -0.336956
   8 N :   -0.140237
   9 C :    0.209770
  10 S :   -0.443575
  11 N :   -0.223339
  12 C :    0.055264
  13 C :    0.032458
  14 C :   -0.222257
  15 C :   -0.127524
  16 C :   -0.277693
  17 C :    0.315690
  18 O :   -0.355778
  19 C :   -0.257033
  20 H :    0.105596
  21 H :    0.102115
  22 H :    0.086462
  23 H :    0.092774
  24 H :    0.103838
  25 H :    0.131581
  26 H :    0.133657
  27 H :    0.126025
  28 H :    0.197703
  29 H :    0.202638
  30 H :    0.168452
  31 H :    0.173812
  32 H :    0.164698
  33 H :    0.131523
  34 H :    0.241350
  35 H :    0.173259
Sum of atomic charges:   -0.0000000

LOEWDIN ATOMIC CHARGES
----------------------
   0 C :    0.110848
   1 C :   -0.022853
   2 O :    0.311806
   3 C :   -0.416741
   4 O :    0.118463
   5 C :   -0.083564
   6 C :   -0.094287
   7 C :    0.125601
   8 N :    0.402103
   9 C :   -0.455973
  10 S :   -0.038828
  11 N :    0.396145
  12 C :   -0.050019
  13 C :   -0.043599
  14 C :    0.019878
  15 C :    0.045225
  16 C :   -0.000035
  17 C :   -0.190742
  18 O :    0.395080
  19 C :    0.026889
  20 H :   -0.022127
  21 H :   -0.025157
  22 H :   -0.025849
  23 H :   -0.035598
  24 H :   -0.035611
  25 H :   -0.007565
  26 H :   -0.010052
  27 H :   -0.016911
  28 H :   -0.057693
  29 H :   -0.063713
  30 H :   -0.003750
  31 H :   -0.021506
  32 H :   -0.018488
  33 H :   -0.034797
  34 H :   -0.153183
  35 H :   -0.023396

  Mayer bond orders larger than 0.100000
B(  0-C ,  1-C ) :   0.9828 B(  0-C , 20-H ) :   0.9772 B(  0-C , 21-H ) :   0.9798
B(  0-C , 22-H ) :   0.9765 B(  1-C ,  2-O ) :   0.9128 B(  1-C , 23-H ) :   0.9720
B(  1-C , 24-H ) :   0.9569 B(  2-O ,  3-C ) :   1.1889 B(  3-C ,  4-O ) :   2.1000
B(  3-C ,  5-C ) :   0.9190 B(  5-C ,  6-C ) :   1.7214 B(  5-C , 12-C ) :   0.9416
B(  6-C ,  7-C ) :   0.9303 B(  6-C ,  8-N ) :   1.1048 B(  7-C , 25-H ) :   0.9779
B(  7-C , 26-H ) :   0.9758 B(  7-C , 27-H ) :   0.9663 B(  8-N ,  9-C ) :   1.1986
B(  8-N , 28-H ) :   0.9513 B(  9-C , 10-S ) :   1.6093 B(  9-C , 11-N ) :   1.2902
B( 11-N , 12-C ) :   0.9835 B( 11-N , 29-H ) :   0.9471 B( 12-C , 13-C ) :   0.9689
B( 12-C , 30-H ) :   0.9893 B( 13-C , 14-C ) :   1.3826 B( 13-C , 19-C ) :   1.3534
B( 14-C , 15-C ) :   1.3946 B( 14-C , 31-H ) :   0.9609 B( 15-C , 16-C ) :   1.3620
B( 15-C , 32-H ) :   0.9694 B( 16-C , 17-C ) :   1.3304 B( 16-C , 33-H ) :   0.9851
B( 17-C , 18-O ) :   1.1090 B( 17-C , 19-C ) :   1.3660 B( 18-O , 34-H ) :   0.9793
B( 19-C , 35-H ) :   0.9563

MP2 TOTAL ENERGY:    -1274.329767750 Eh
FINAL SINGLE POINT ENERGY     -1274.329767749595

DIPOLE MOMENT
-------------
                                X             Y             Z
Electronic contribution:     10.26030       8.41846       8.25155
Nuclear contribution   :    -11.97215      -9.53506      -8.69380
                        -----------------------------------------
Total Dipole Moment    :     -1.71185      -1.11661      -0.44225
                        -----------------------------------------
Magnitude (a.u.)       :      2.09113
Magnitude (Debye)      :      5.31524

Rotational constants in cm-1:     0.010979     0.009024     0.006250
Rotational constants in MHz :   329.132782   270.542287   187.374850

                             ****ORCA TERMINATED NORMALLY****
TOTAL RUN TIME: 0 days 1 hours 39 minutes 31 seconds 881 msec
