                         Program Version 4.2.0 -  RELEASE  -
|  1> ! ri-mp2 cc-pvtz cc-pvtz/c TightSCF NoKeepInts
|  2>
|  3> %scf
|  4>   MaxCore 4096
|  5> end
|  6> *xyz  0  1
|  7>     C       14.8117187   14.5594697   15.9944422
|  8>     C       15.9324276   14.9253510   15.0041901
|  9>     O       16.7227870   15.9684854   15.6006795
| 10>     C       16.3822012   17.2777698   15.4029780
| 11>     O       15.6880003   17.6343970   14.4660018
| 12>     C       16.8947549   18.1792290   16.4939641
| 13>     C       16.8858971   19.5288468   16.3451551
| 14>     C       16.1780026   20.3268710   15.2697108
| 15>     N       17.5883909   20.3546634   17.2257552
| 16>     C       18.4706056   19.9060131   18.1710118
| 17>     S       19.3394782   20.9443654   19.1211556
| 18>     N       18.6142116   18.5457149   18.2758123
| 19>     C       17.8133222   17.5417637   17.5503614
| 20>     C       17.1066758   16.5698221   18.4865700
| 21>     C       17.5912358   15.2594060   18.6536322
| 22>     C       16.9378546   14.3612957   19.5143296
| 23>     C       15.7918969   14.7779007   20.2133619
| 24>     C       15.3102192   16.0844138   20.0514789
| 25>     O       14.2046297   16.4893123   20.7257485
| 26>     C       15.9637705   16.9765709   19.1957707
| 27>     H       15.2312815   14.2595937   16.9627683
| 28>     H       14.2118971   13.7274334   15.6066391
| 29>     H       14.1443636   15.4150466   16.1577285
| 30>     H       16.5633357   14.0416735   14.8447474
| 31>     H       15.5180976   15.2260058   14.0321106
| 32>     H       15.1138091   20.0610545   15.2297056
| 33>     H       16.6067993   20.1116676   14.2826790
| 34>     H       16.2376752   21.4101001   15.4278813
| 35>     H       17.5084143   21.3556879   17.1449827
| 36>     H       19.2468206   18.2443130   19.0060749
| 37>     H       18.6036012   17.0273139   16.9854278
| 38>     H       18.4729070   14.9344979   18.1077356
| 39>     H       17.3184101   13.3486661   19.6361593
| 40>     H       15.2833255   14.0879235   20.8786239
| 41>     H       13.9175076   15.7516454   21.2845563
| 42>     H       15.5806743   17.9857155   19.0880698
| 43> *
| 44>
| 45>                          ****END OF INPUT****

CARTESIAN COORDINATES (ANGSTROEM)
---------------------------------
  C     14.811719   14.559470   15.994442
  C     15.932428   14.925351   15.004190
  O     16.722787   15.968485   15.600679
  C     16.382201   17.277770   15.402978
  O     15.688000   17.634397   14.466002
  C     16.894755   18.179229   16.493964
  C     16.885897   19.528847   16.345155
  C     16.178003   20.326871   15.269711
  N     17.588391   20.354663   17.225755
  C     18.470606   19.906013   18.171012
  S     19.339478   20.944365   19.121156
  N     18.614212   18.545715   18.275812
  C     17.813322   17.541764   17.550361
  C     17.106676   16.569822   18.486570
  C     17.591236   15.259406   18.653632
  C     16.937855   14.361296   19.514330
  C     15.791897   14.777901   20.213362
  C     15.310219   16.084414   20.051479
  O     14.204630   16.489312   20.725749
  C     15.963771   16.976571   19.195771
  H     15.231281   14.259594   16.962768
  H     14.211897   13.727433   15.606639
  H     14.144364   15.415047   16.157729
  H     16.563336   14.041673   14.844747
  H     15.518098   15.226006   14.032111
  H     15.113809   20.061054   15.229706
  H     16.606799   20.111668   14.282679
  H     16.237675   21.410100   15.427881
  H     17.508414   21.355688   17.144983
  H     19.246821   18.244313   19.006075
  H     18.603601   17.027314   16.985428
  H     18.472907   14.934498   18.107736
  H     17.318410   13.348666   19.636159
  H     15.283326   14.087923   20.878624
  H     13.917508   15.751645   21.284556
  H     15.580674   17.985715   19.088070

 Total Charge           Charge          ....    0
 Multiplicity           Mult            ....    1
 Number of Electrons    NEL             ....  154
 Basis Dimension        Dim             ....  828

ORBITAL ENERGIES
----------------

  NO   OCC          E(Eh)            E(eV)
   0   2.0000     -91.889059     -2500.4284
   1   2.0000     -20.598267      -560.5074
   2   2.0000     -20.597942      -560.4985
   3   2.0000     -20.541082      -558.9512
   4   2.0000     -15.629481      -425.2998
   5   2.0000     -15.607275      -424.6955
   6   2.0000     -11.394621      -310.0634
   7   2.0000     -11.383793      -309.7688
   8   2.0000     -11.337628      -308.5126
   9   2.0000     -11.315336      -307.9059
  10   2.0000     -11.307868      -307.7027
  11   2.0000     -11.294292      -307.3333
  12   2.0000     -11.262033      -306.4555
  13   2.0000     -11.259050      -306.3743
  14   2.0000     -11.256571      -306.3069
  15   2.0000     -11.251812      -306.1774
  16   2.0000     -11.245051      -305.9934
  17   2.0000     -11.240084      -305.8582
  18   2.0000     -11.239768      -305.8496
  19   2.0000     -11.222530      -305.3806
  20   2.0000      -8.894126      -242.0215
  21   2.0000      -6.575698      -178.9338
  22   2.0000      -6.573700      -178.8795
  23   2.0000      -6.573110      -178.8634
  24   2.0000      -1.450219       -39.4625
  25   2.0000      -1.417615       -38.5753
  26   2.0000      -1.353722       -36.8366
  27   2.0000      -1.340555       -36.4783
  28   2.0000      -1.238514       -33.7017
  29   2.0000      -1.158871       -31.5345
  30   2.0000      -1.121537       -30.5186
  31   2.0000      -1.043724       -28.4012
  32   2.0000      -1.035387       -28.1743
  33   2.0000      -1.016427       -27.6584
  34   2.0000      -0.996358       -27.1123
  35   2.0000      -0.984901       -26.8005
  36   2.0000      -0.922388       -25.0995
  37   2.0000      -0.891990       -24.2723
  38   2.0000      -0.846819       -23.0431
  39   2.0000      -0.839022       -22.8310
  40   2.0000      -0.835299       -22.7296
  41   2.0000      -0.814510       -22.1640
  42   2.0000      -0.758566       -20.6416
  43   2.0000      -0.734553       -19.9882
  44   2.0000      -0.722341       -19.6559
  45   2.0000      -0.696875       -18.9629
  46   2.0000      -0.689103       -18.7515
  47   2.0000      -0.678784       -18.4707
  48   2.0000      -0.670910       -18.2564
  49   2.0000      -0.662120       -18.0172
  50   2.0000      -0.646907       -17.6032
  51   2.0000      -0.640668       -17.4335
  52   2.0000      -0.634816       -17.2742
  53   2.0000      -0.608291       -16.5524
  54   2.0000      -0.603872       -16.4322
  55   2.0000      -0.600072       -16.3288
  56   2.0000      -0.599440       -16.3116
  57   2.0000      -0.578392       -15.7389
  58   2.0000      -0.569779       -15.5045
  59   2.0000      -0.566479       -15.4147
  60   2.0000      -0.558489       -15.1973
  61   2.0000      -0.546951       -14.8833
  62   2.0000      -0.536480       -14.5984
  63   2.0000      -0.529377       -14.4051
  64   2.0000      -0.525327       -14.2949
  65   2.0000      -0.513409       -13.9706
  66   2.0000      -0.501254       -13.6398
  67   2.0000      -0.497789       -13.5455
  68   2.0000      -0.480986       -13.0883
  69   2.0000      -0.463529       -12.6133
  70   2.0000      -0.453183       -12.3317
  71   2.0000      -0.446816       -12.1585
  72   2.0000      -0.353611        -9.6222
  73   2.0000      -0.350994        -9.5510
  74   2.0000      -0.328374        -8.9355
  75   2.0000      -0.322598        -8.7783
  76   2.0000      -0.318483        -8.6664
  77   0.0000       0.076934         2.0935
  78   0.0000       0.103347         2.8122
  79   0.0000       0.124362         3.3841
  80   0.0000       0.132300         3.6001
  81   0.0000       0.136353         3.7104

MULLIKEN ATOMIC CHARGES
-----------------------
   0 C :   -0.293792
   1 C :    0.013191
   2 O :   -0.353200
   3 C :    0.440521
   4 O :   -0.435045
   5 C :   -0.240278
   6 C :    0.179565
   7 C :   -0.267124
   8 N :   -0.126756
   9 C :    0.212269
  10 S :   -0.442122
  11 N :   -0.218024
  12 C :    0.071299
  13 C :    0.043879
  14 C :   -0.185062
  15 C :   -0.139998
  16 C :   -0.273492
  17 C :    0.314664
  18 O :   -0.356599
  19 C :   -0.242355
  20 H :    0.106091
  21 H :    0.101708
  22 H :    0.101544
  23 H :    0.105486
  24 H :    0.123564
  25 H :    0.133361
  26 H :    0.129509
  27 H :    0.094595
  28 H :    0.199589
  29 H :    0.200937
  30 H :    0.151811
  31 H :    0.151620
  32 H :    0.162156
  33 H :    0.131416
  34 H :    0.240844
  35 H :    0.164226
Sum of atomic charges:   -0.0000000

LOEWDIN ATOMIC CHARGES
----------------------
   0 C :    0.104408
   1 C :   -0.017347
   2 O :    0.308668
   3 C :   -0.415573
   4 O :    0.095566
   5 C :   -0.095883
   6 C :   -0.056332
   7 C :    0.131320
   8 N :    0.407285
   9 C :   -0.455740
  10 S :   -0.036511
  11 N :    0.394384
  12 C :   -0.054128
  13 C :   -0.038576
  14 C :    0.015513
  15 C :    0.039244
  16 C :   -0.001143
  17 C :   -0.189337
  18 O :    0.395682
  19 C :    0.033891
  20 H :   -0.025718
  21 H :   -0.027566
  22 H :   -0.026594
  23 H :   -0.027059
  24 H :   -0.028237
  25 H :   -0.004325
  26 H :   -0.004782
  27 H :   -0.023647
  28 H :   -0.057111
  29 H :   -0.064656
  30 H :   -0.013443
  31 H :   -0.029162
  32 H :   -0.021146
  33 H :   -0.035218
  34 H :   -0.153688
  35 H :   -0.023040

  Mayer bond orders larger than 0.100000
B(  0-C ,  1-C ) :   0.9638 B(  0-C , 20-H ) :   0.9711 B(  0-C , 21-H ) :   0.9778
B(  0-C , 22-H ) :   0.9774 B(  1-C ,  2-O ) :   0.8912 B(  1-C , 23-H ) :   0.9850
B(  1-C , 24-H ) :   0.9765 B(  2-O ,  3-C ) :   1.1579 B(  3-C ,  4-O ) :   1.9683
B(  3-C ,  5-C ) :   1.0644 B(  5-C ,  6-C ) :   1.6348 B(  5-C , 12-C ) :   0.9538
B(  6-C ,  7-C ) :   0.9650 B(  6-C ,  8-N ) :   1.1566 B(  7-C , 25-H ) :   0.9612
B(  7-C , 26-H ) :   0.9588 B(  7-C , 27-H ) :   0.9904 B(  8-N ,  9-C ) :   1.1871
B(  8-N , 28-H ) :   0.9464 B(  9-C , 10-S ) :   1.6041 B(  9-C , 11-N ) :   1.3111
B( 11-N , 12-C ) :   0.9640 B( 11-N , 29-H ) :   0.9483 B( 12-C , 13-C ) :   0.9634
B( 12-C , 30-H ) :   1.0006 B( 13-C , 14-C ) :   1.3508 B( 13-C , 19-C ) :   1.3799
B( 14-C , 15-C ) :   1.3931 B( 14-C , 31-H ) :   0.9727 B( 15-C , 16-C ) :   1.3552
B( 15-C , 32-H ) :   0.9715 B( 16-C , 17-C ) :   1.3337 B( 16-C , 33-H ) :   0.9850
B( 17-C , 18-O ) :   1.1057 B( 17-C , 19-C ) :   1.3643 B( 18-O , 34-H ) :   0.9796
B( 19-C , 35-H ) :   0.9587

MP2 TOTAL ENERGY:    -1274.344371304 Eh
FINAL SINGLE POINT ENERGY     -1274.344371304041

DIPOLE MOMENT
-------------
                                X             Y             Z
Electronic contribution:      8.47452      10.98587       6.92389
Nuclear contribution   :     -9.32079     -12.76452      -7.24996
                        -----------------------------------------
Total Dipole Moment    :     -0.84627      -1.77865      -0.32607
                        -----------------------------------------
Magnitude (a.u.)       :      1.99652
Magnitude (Debye)      :      5.07476

Rotational constants in cm-1:     0.012274     0.008488     0.006061
Rotational constants in MHz :   367.970394   254.457621   181.691899

                             ****ORCA TERMINATED NORMALLY****
TOTAL RUN TIME: 0 days 1 hours 40 minutes 34 seconds 483 msec
