                         Program Version 4.2.0 -  RELEASE  -
|  1> ! ri-mp2 cc-pvtz cc-pvtz/c TightSCF NoKeepInts
|  2>
|  3> %scf
|  4>   MaxCore 4096
|  5> end
|  6> *xyz  0  1
|  7>     C       14.5537236   16.3656778   16.1790949
|  8>     C       15.4726301   15.1994428   15.7502894
|  9>     O       16.8650562   15.5250601   15.4895481
| 10>     C       17.3762634   16.7712004   15.2486378
| 11>     O       17.9405751   17.0164219   14.1984478
| 12>     C       17.1598404   17.7908528   16.3241822
| 13>     C       16.9800149   19.0866663   15.9724254
| 14>     C       16.5715587   19.5943829   14.6058741
| 15>     N       17.1736549   20.1203871   16.8899365
| 16>     C       17.7941590   19.9629352   18.1003944
| 17>     S       18.1095409   21.2446861   19.0965389
| 18>     N       18.1661432   18.6842123   18.4349574
| 19>     C       17.8001912   17.4650466   17.6860981
| 20>     C       17.1245011   16.4022327   18.5450277
| 21>     C       17.5439347   15.0606239   18.4777314
| 22>     C       16.9346553   14.0790604   19.2769960
| 23>     C       15.9040433   14.4431707   20.1600466
| 24>     C       15.4947595   15.7809804   20.2425485
| 25>     O       14.5012714   16.1363406   21.0950771
| 26>     C       16.1032681   16.7558127   19.4455227
| 27>     H       14.8283587   16.7797187   17.1510623
| 28>     H       13.5213009   16.0059272   16.2670665
| 29>     H       14.5551727   17.1682706   15.4321315
| 30>     H       15.4299517   14.4118314   16.5139461
| 31>     H       15.0529262   14.7705238   14.8309785
| 32>     H       17.4573040   19.7380485   13.9731181
| 33>     H       16.0306763   20.5467645   14.6573697
| 34>     H       15.9201388   18.8771494   14.0918779
| 35>     H       16.9481920   21.0685905   16.6340360
| 36>     H       18.6157697   18.5975056   19.3380144
| 37>     H       18.8100819   17.1131417   17.4294920
| 38>     H       18.3393447   14.7754498   17.7931581
| 39>     H       17.2631685   13.0429967   19.2114642
| 40>     H       15.4307810   13.6884873   20.7798091
| 41>     H       14.2418192   15.3439719   21.5891850
| 42>     H       15.7722289   17.7864286   19.5259155
| 43> *
| 44>
| 45>                          ****END OF INPUT****

CARTESIAN COORDINATES (ANGSTROEM)
---------------------------------
  C     14.553724   16.365678   16.179095
  C     15.472630   15.199443   15.750289
  O     16.865056   15.525060   15.489548
  C     17.376263   16.771200   15.248638
  O     17.940575   17.016422   14.198448
  C     17.159840   17.790853   16.324182
  C     16.980015   19.086666   15.972425
  C     16.571559   19.594383   14.605874
  N     17.173655   20.120387   16.889937
  C     17.794159   19.962935   18.100394
  S     18.109541   21.244686   19.096539
  N     18.166143   18.684212   18.434957
  C     17.800191   17.465047   17.686098
  C     17.124501   16.402233   18.545028
  C     17.543935   15.060624   18.477731
  C     16.934655   14.079060   19.276996
  C     15.904043   14.443171   20.160047
  C     15.494760   15.780980   20.242548
  O     14.501271   16.136341   21.095077
  C     16.103268   16.755813   19.445523
  H     14.828359   16.779719   17.151062
  H     13.521301   16.005927   16.267066
  H     14.555173   17.168271   15.432132
  H     15.429952   14.411831   16.513946
  H     15.052926   14.770524   14.830979
  H     17.457304   19.738049   13.973118
  H     16.030676   20.546764   14.657370
  H     15.920139   18.877149   14.091878
  H     16.948192   21.068590   16.634036
  H     18.615770   18.597506   19.338014
  H     18.810082   17.113142   17.429492
  H     18.339345   14.775450   17.793158
  H     17.263168   13.042997   19.211464
  H     15.430781   13.688487   20.779809
  H     14.241819   15.343972   21.589185
  H     15.772229   17.786429   19.525915

 Total Charge           Charge          ....    0
 Multiplicity           Mult            ....    1
 Number of Electrons    NEL             ....  154
 Basis Dimension        Dim             ....  828

ORBITAL ENERGIES
----------------

  NO   OCC          E(Eh)            E(eV)
   0   2.0000     -91.890358     -2500.4638
   1   2.0000     -20.602201      -560.6144
   2   2.0000     -20.586986      -560.2004
   3   2.0000     -20.552770      -559.2693
   4   2.0000     -15.627356      -425.2420
   5   2.0000     -15.610417      -424.7810
   6   2.0000     -11.395563      -310.0890
   7   2.0000     -11.385411      -309.8128
   8   2.0000     -11.329866      -308.3013
   9   2.0000     -11.320012      -308.0332
  10   2.0000     -11.315703      -307.9159
  11   2.0000     -11.306424      -307.6634
  12   2.0000     -11.268452      -306.6302
  13   2.0000     -11.260955      -306.4262
  14   2.0000     -11.256426      -306.3029
  15   2.0000     -11.255668      -306.2823
  16   2.0000     -11.250110      -306.1311
  17   2.0000     -11.245634      -306.0092
  18   2.0000     -11.244450      -305.9770
  19   2.0000     -11.233519      -305.6796
  20   2.0000      -8.895426      -242.0569
  21   2.0000      -6.576999      -178.9692
  22   2.0000      -6.575000      -178.9148
  23   2.0000      -6.574408      -178.8987
  24   2.0000      -1.442526       -39.2531
  25   2.0000      -1.422017       -38.6951
  26   2.0000      -1.355033       -36.8723
  27   2.0000      -1.340268       -36.4705
  28   2.0000      -1.239875       -33.7387
  29   2.0000      -1.163461       -31.6594
  30   2.0000      -1.123327       -30.5673
  31   2.0000      -1.048384       -28.5280
  32   2.0000      -1.036129       -28.1945
  33   2.0000      -1.021981       -27.8095
  34   2.0000      -1.003289       -27.3009
  35   2.0000      -0.989079       -26.9142
  36   2.0000      -0.925746       -25.1908
  37   2.0000      -0.900807       -24.5122
  38   2.0000      -0.849758       -23.1231
  39   2.0000      -0.843343       -22.9485
  40   2.0000      -0.840258       -22.8646
  41   2.0000      -0.823668       -22.4132
  42   2.0000      -0.747256       -20.3339
  43   2.0000      -0.737862       -20.0783
  44   2.0000      -0.723795       -19.6955
  45   2.0000      -0.700430       -19.0597
  46   2.0000      -0.688914       -18.7463
  47   2.0000      -0.675348       -18.3771
  48   2.0000      -0.673155       -18.3175
  49   2.0000      -0.664800       -18.0901
  50   2.0000      -0.655055       -17.8250
  51   2.0000      -0.648224       -17.6391
  52   2.0000      -0.639117       -17.3913
  53   2.0000      -0.617626       -16.8065
  54   2.0000      -0.611197       -16.6315
  55   2.0000      -0.604821       -16.4580
  56   2.0000      -0.602434       -16.3931
  57   2.0000      -0.581799       -15.8316
  58   2.0000      -0.576513       -15.6877
  59   2.0000      -0.565515       -15.3884
  60   2.0000      -0.564709       -15.3665
  61   2.0000      -0.555252       -15.1092
  62   2.0000      -0.542332       -14.7576
  63   2.0000      -0.530582       -14.4379
  64   2.0000      -0.524920       -14.2838
  65   2.0000      -0.514990       -14.0136
  66   2.0000      -0.504116       -13.7177
  67   2.0000      -0.493972       -13.4417
  68   2.0000      -0.485775       -13.2186
  69   2.0000      -0.468121       -12.7382
  70   2.0000      -0.452437       -12.3114
  71   2.0000      -0.450657       -12.2630
  72   2.0000      -0.357860        -9.7379
  73   2.0000      -0.348194        -9.4748
  74   2.0000      -0.329635        -8.9698
  75   2.0000      -0.327233        -8.9045
  76   2.0000      -0.320070        -8.7096
  77   0.0000       0.079798         2.1714
  78   0.0000       0.099157         2.6982
  79   0.0000       0.120645         3.2829
  80   0.0000       0.127106         3.4587
  81   0.0000       0.128821         3.5054

MULLIKEN ATOMIC CHARGES
-----------------------
   0 C :   -0.323176
   1 C :    0.028116
   2 O :   -0.359370
   3 C :    0.427278
   4 O :   -0.365750
   5 C :   -0.248071
   6 C :    0.170121
   7 C :   -0.284681
   8 N :   -0.134153
   9 C :    0.211860
  10 S :   -0.439712
  11 N :   -0.226199
  12 C :    0.061244
  13 C :    0.027199
  14 C :   -0.215989
  15 C :   -0.140146
  16 C :   -0.273469
  17 C :    0.320030
  18 O :   -0.354971
  19 C :   -0.247723
  20 H :    0.119374
  21 H :    0.121280
  22 H :    0.096268
  23 H :    0.111501
  24 H :    0.120722
  25 H :    0.145427
  26 H :    0.098268
  27 H :    0.115643
  28 H :    0.197999
  29 H :    0.203857
  30 H :    0.156030
  31 H :    0.158374
  32 H :    0.167612
  33 H :    0.134401
  34 H :    0.241287
  35 H :    0.179519
Sum of atomic charges:   -0.0000000

LOEWDIN ATOMIC CHARGES
----------------------
   0 C :    0.103720
   1 C :   -0.011898
   2 O :    0.288693
   3 C :   -0.425698
   4 O :    0.131035
   5 C :   -0.094223
   6 C :   -0.074265
   7 C :    0.128273
   8 N :    0.406156
   9 C :   -0.456085
  10 S :   -0.035422
  11 N :    0.395666
  12 C :   -0.052267
  13 C :   -0.042388
  14 C :    0.023149
  15 C :    0.041110
  16 C :   -0.000438
  17 C :   -0.192517
  18 O :    0.396369
  19 C :    0.030644
  20 H :   -0.033775
  21 H :   -0.020532
  22 H :   -0.031863
  23 H :   -0.024624
  24 H :   -0.026401
  25 H :   -0.003760
  26 H :   -0.021223
  27 H :   -0.012034
  28 H :   -0.057326
  29 H :   -0.063974
  30 H :   -0.010117
  31 H :   -0.025551
  32 H :   -0.019183
  33 H :   -0.034131
  34 H :   -0.152837
  35 H :   -0.022286

  Mayer bond orders larger than 0.100000
B(  0-C ,  1-C ) :   0.9628 B(  0-C , 20-H ) :   0.9674 B(  0-C , 21-H ) :   0.9757
B(  0-C , 22-H ) :   0.9724 B(  1-C ,  2-O ) :   0.8993 B(  1-C , 23-H ) :   0.9751
B(  1-C , 24-H ) :   0.9832 B(  2-O ,  3-C ) :   1.1350 B(  3-C ,  4-O ) :   2.1142
B(  3-C ,  5-C ) :   0.9519 B(  5-C ,  6-C ) :   1.6724 B(  5-C , 12-C ) :   0.9536
B(  6-C ,  7-C ) :   0.9515 B(  6-C ,  8-N ) :   1.1361 B(  7-C , 25-H ) :   0.9563
B(  7-C , 26-H ) :   0.9835 B(  7-C , 27-H ) :   0.9757 B(  8-N ,  9-C ) :   1.1971
B(  8-N , 28-H ) :   0.9494 B(  9-C , 10-S ) :   1.6118 B(  9-C , 11-N ) :   1.2888
B( 11-N , 12-C ) :   0.9751 B( 11-N , 29-H ) :   0.9456 B( 12-C , 13-C ) :   0.9621
B( 12-C , 30-H ) :   1.0027 B( 13-C , 14-C ) :   1.3611 B( 13-C , 19-C ) :   1.3419
B( 14-C , 15-C ) :   1.4011 B( 14-C , 31-H ) :   0.9708 B( 15-C , 16-C ) :   1.3536
B( 15-C , 32-H ) :   0.9693 B( 16-C , 17-C ) :   1.3329 B( 16-C , 33-H ) :   0.9837
B( 17-C , 18-O ) :   1.1092 B( 17-C , 19-C ) :   1.3624 B( 18-O , 34-H ) :   0.9792
B( 19-C , 35-H ) :   0.9577

MP2 TOTAL ENERGY:    -1274.314116798 Eh
FINAL SINGLE POINT ENERGY     -1274.314116797562

DIPOLE MOMENT
-------------
                                X             Y             Z
Electronic contribution:      8.95866       7.03635       6.41630
Nuclear contribution   :    -10.46338      -8.70347      -6.38858
                        -----------------------------------------
Total Dipole Moment    :     -1.50472      -1.66713       0.02772
                        -----------------------------------------
Magnitude (a.u.)       :      2.24594
Magnitude (Debye)      :      5.70873

Rotational constants in cm-1:     0.012275     0.009201     0.006260
Rotational constants in MHz :   367.992578   275.852600   187.679711

                             ****ORCA TERMINATED NORMALLY****
TOTAL RUN TIME: 0 days 2 hours 4 minutes 3 seconds 901 msec
