                         Program Version 4.2.0 -  RELEASE  -
|  1> ! ri-mp2 cc-pvtz cc-pvtz/c TightSCF NoKeepInts
|  2>
|  3> %scf
|  4>   MaxCore 4096
|  5> end
|  6> *xyz  0  1
|  7>     C       14.7487058   14.7200116   16.5245142
|  8>     C       15.0408832   15.9769477   15.6879875
|  9>     O       16.3815266   15.8615437   15.1711285
| 10>     C       17.2857395   16.8902934   15.1832964
| 11>     O       18.1521669   16.9767454   14.3334640
| 12>     C       17.1744021   17.8804135   16.2946036
| 13>     C       17.0611752   19.1826822   15.9469408
| 14>     C       16.6452046   19.6913037   14.5832806
| 15>     N       17.3595443   20.2055727   16.8479583
| 16>     C       18.0221880   20.0089562   18.0301790
| 17>     S       18.4602303   21.2687962   19.0078340
| 18>     N       18.3285083   18.7086283   18.3495860
| 19>     C       17.8607047   17.5158163   17.6158012
| 20>     C       17.1296122   16.5193179   18.4987365
| 21>     C       17.7077618   15.2725308   18.8000438
| 22>     C       17.0515779   14.3717929   19.6563598
| 23>     C       15.8096462   14.7218826   20.2144752
| 24>     C       15.2359023   15.9664823   19.9195653
| 25>     O       14.0363405   16.3065398   20.4537654
| 26>     C       15.8931494   16.8631256   19.0710795
| 27>     H       15.5410682   14.5355983   17.2550338
| 28>     H       14.6801353   13.8383391   15.8754800
| 29>     H       13.7990537   14.8247646   17.0629986
| 30>     H       14.3225177   16.0585577   14.8619094
| 31>     H       14.9192817   16.8575730   16.3300462
| 32>     H       15.8455978   19.0744485   14.1552382
| 33>     H       17.4954459   19.6549340   13.8886831
| 34>     H       16.2800948   20.7249257   14.6141889
| 35>     H       17.1860888   21.1663328   16.5981061
| 36>     H       18.8073324   18.5931178   19.2341113
| 37>     H       18.8325508   17.0983796   17.3134312
| 38>     H       18.6690126   15.0006400   18.3708561
| 39>     H       17.5047707   13.4080684   19.8834879
| 40>     H       15.2986215   14.0277989   20.8738368
| 41>     H       13.7753794   15.5966673   21.0602530
| 42>     H       15.4450790   17.8304716   18.8697398
| 43> *
| 44>
| 45>                          ****END OF INPUT****

CARTESIAN COORDINATES (ANGSTROEM)
---------------------------------
  C     14.748706   14.720012   16.524514
  C     15.040883   15.976948   15.687987
  O     16.381527   15.861544   15.171128
  C     17.285739   16.890293   15.183296
  O     18.152167   16.976745   14.333464
  C     17.174402   17.880413   16.294604
  C     17.061175   19.182682   15.946941
  C     16.645205   19.691304   14.583281
  N     17.359544   20.205573   16.847958
  C     18.022188   20.008956   18.030179
  S     18.460230   21.268796   19.007834
  N     18.328508   18.708628   18.349586
  C     17.860705   17.515816   17.615801
  C     17.129612   16.519318   18.498736
  C     17.707762   15.272531   18.800044
  C     17.051578   14.371793   19.656360
  C     15.809646   14.721883   20.214475
  C     15.235902   15.966482   19.919565
  O     14.036340   16.306540   20.453765
  C     15.893149   16.863126   19.071079
  H     15.541068   14.535598   17.255034
  H     14.680135   13.838339   15.875480
  H     13.799054   14.824765   17.062999
  H     14.322518   16.058558   14.861909
  H     14.919282   16.857573   16.330046
  H     15.845598   19.074448   14.155238
  H     17.495446   19.654934   13.888683
  H     16.280095   20.724926   14.614189
  H     17.186089   21.166333   16.598106
  H     18.807332   18.593118   19.234111
  H     18.832551   17.098380   17.313431
  H     18.669013   15.000640   18.370856
  H     17.504771   13.408068   19.883488
  H     15.298621   14.027799   20.873837
  H     13.775379   15.596667   21.060253
  H     15.445079   17.830472   18.869740

 Total Charge           Charge          ....    0
 Multiplicity           Mult            ....    1
 Number of Electrons    NEL             ....  154
 Basis Dimension        Dim             ....  828

ORBITAL ENERGIES
----------------

  NO   OCC          E(Eh)            E(eV)
   0   2.0000     -91.889141     -2500.4307
   1   2.0000     -20.606093      -560.7203
   2   2.0000     -20.598302      -560.5083
   3   2.0000     -20.551751      -559.2416
   4   2.0000     -15.626020      -425.2056
   5   2.0000     -15.610021      -424.7703
   6   2.0000     -11.396138      -310.1047
   7   2.0000     -11.384579      -309.7901
   8   2.0000     -11.327490      -308.2367
   9   2.0000     -11.323846      -308.1375
  10   2.0000     -11.316435      -307.9358
  11   2.0000     -11.300783      -307.5099
  12   2.0000     -11.270435      -306.6841
  13   2.0000     -11.264920      -306.5341
  14   2.0000     -11.258588      -306.3618
  15   2.0000     -11.256330      -306.3003
  16   2.0000     -11.253858      -306.2330
  17   2.0000     -11.249451      -306.1131
  18   2.0000     -11.248701      -306.0927
  19   2.0000     -11.223908      -305.4181
  20   2.0000      -8.894227      -242.0242
  21   2.0000      -6.575804      -178.9367
  22   2.0000      -6.573799      -178.8822
  23   2.0000      -6.573215      -178.8663
  24   2.0000      -1.446803       -39.3695
  25   2.0000      -1.425744       -38.7965
  26   2.0000      -1.360610       -37.0241
  27   2.0000      -1.339485       -36.4492
  28   2.0000      -1.239302       -33.7231
  29   2.0000      -1.167278       -31.7632
  30   2.0000      -1.126072       -30.6420
  31   2.0000      -1.051983       -28.6259
  32   2.0000      -1.034933       -28.1620
  33   2.0000      -1.025241       -27.8982
  34   2.0000      -1.004247       -27.3270
  35   2.0000      -0.989085       -26.9144
  36   2.0000      -0.927486       -25.2382
  37   2.0000      -0.880557       -23.9612
  38   2.0000      -0.852502       -23.1978
  39   2.0000      -0.845258       -23.0006
  40   2.0000      -0.843455       -22.9516
  41   2.0000      -0.836432       -22.7605
  42   2.0000      -0.759191       -20.6586
  43   2.0000      -0.739878       -20.1331
  44   2.0000      -0.730147       -19.8683
  45   2.0000      -0.705007       -19.1842
  46   2.0000      -0.693715       -18.8769
  47   2.0000      -0.681530       -18.5454
  48   2.0000      -0.676187       -18.4000
  49   2.0000      -0.661265       -17.9939
  50   2.0000      -0.652257       -17.7488
  51   2.0000      -0.639157       -17.3923
  52   2.0000      -0.637045       -17.3349
  53   2.0000      -0.616740       -16.7823
  54   2.0000      -0.615533       -16.7495
  55   2.0000      -0.606059       -16.4917
  56   2.0000      -0.604801       -16.4575
  57   2.0000      -0.584553       -15.9065
  58   2.0000      -0.578340       -15.7374
  59   2.0000      -0.567971       -15.4553
  60   2.0000      -0.561731       -15.2855
  61   2.0000      -0.549721       -14.9587
  62   2.0000      -0.537707       -14.6317
  63   2.0000      -0.534161       -14.5353
  64   2.0000      -0.527778       -14.3616
  65   2.0000      -0.515684       -14.0325
  66   2.0000      -0.504423       -13.7260
  67   2.0000      -0.497484       -13.5372
  68   2.0000      -0.492359       -13.3978
  69   2.0000      -0.465995       -12.6804
  70   2.0000      -0.455872       -12.4049
  71   2.0000      -0.449935       -12.2434
  72   2.0000      -0.359669        -9.7871
  73   2.0000      -0.352297        -9.5865
  74   2.0000      -0.333484        -9.0746
  75   2.0000      -0.327770        -8.9191
  76   2.0000      -0.318584        -8.6691
  77   0.0000       0.085485         2.3262
  78   0.0000       0.095009         2.5853
  79   0.0000       0.118690         3.2297
  80   0.0000       0.125047         3.4027
  81   0.0000       0.130602         3.5539

MULLIKEN ATOMIC CHARGES
-----------------------
   0 C :   -0.288919
   1 C :    0.026516
   2 O :   -0.311870
   3 C :    0.407680
   4 O :   -0.374680
   5 C :   -0.250167
   6 C :    0.161371
   7 C :   -0.290670
   8 N :   -0.132019
   9 C :    0.213500
  10 S :   -0.443011
  11 N :   -0.211511
  12 C :    0.040906
  13 C :    0.010214
  14 C :   -0.179950
  15 C :   -0.131711
  16 C :   -0.266272
  17 C :    0.311162
  18 O :   -0.360145
  19 C :   -0.242008
  20 H :    0.110634
  21 H :    0.111869
  22 H :    0.093521
  23 H :    0.112433
  24 H :    0.091547
  25 H :    0.113166
  26 H :    0.146463
  27 H :    0.099479
  28 H :    0.197158
  29 H :    0.200396
  30 H :    0.161058
  31 H :    0.157926
  32 H :    0.164890
  33 H :    0.134796
  34 H :    0.242614
  35 H :    0.173631
Sum of atomic charges:   -0.0000000

LOEWDIN ATOMIC CHARGES
----------------------
   0 C :    0.107292
   1 C :   -0.019888
   2 O :    0.308156
   3 C :   -0.418478
   4 O :    0.127385
   5 C :   -0.095057
   6 C :   -0.087328
   7 C :    0.129172
   8 N :    0.404172
   9 C :   -0.454137
  10 S :   -0.037643
  11 N :    0.395456
  12 C :   -0.054872
  13 C :   -0.044118
  14 C :    0.016199
  15 C :    0.045220
  16 C :    0.004429
  17 C :   -0.189181
  18 O :    0.396936
  19 C :    0.036171
  20 H :   -0.026585
  21 H :   -0.027953
  22 H :   -0.025948
  23 H :   -0.030542
  24 H :   -0.042050
  25 H :   -0.011167
  26 H :   -0.003014
  27 H :   -0.019790
  28 H :   -0.058465
  29 H :   -0.064141
  30 H :   -0.008443
  31 H :   -0.026258
  32 H :   -0.018432
  33 H :   -0.033208
  34 H :   -0.151699
  35 H :   -0.022190

  Mayer bond orders larger than 0.100000
B(  0-C ,  1-C ) :   0.9751 B(  0-C , 20-H ) :   0.9712 B(  0-C , 21-H ) :   0.9818
B(  0-C , 22-H ) :   0.9745 B(  1-C ,  2-O ) :   0.9037 B(  1-C , 23-H ) :   0.9781
B(  1-C , 24-H ) :   0.9571 B(  2-O ,  3-C ) :   1.1904 B(  3-C ,  4-O ) :   2.1258
B(  3-C ,  5-C ) :   0.9293 B(  5-C ,  6-C ) :   1.6989 B(  5-C , 12-C ) :   0.9623
B(  6-C ,  7-C ) :   0.9385 B(  6-C ,  8-N ) :   1.1250 B(  7-C , 25-H ) :   0.9783
B(  7-C , 26-H ) :   0.9583 B(  7-C , 27-H ) :   0.9859 B(  8-N ,  9-C ) :   1.1987
B(  8-N , 28-H ) :   0.9495 B(  9-C , 10-S ) :   1.6087 B(  9-C , 11-N ) :   1.2923
B( 11-N , 12-C ) :   0.9718 B( 11-N , 29-H ) :   0.9477 B( 12-C , 13-C ) :   0.9621
B( 12-C , 30-H ) :   1.0034 B( 13-C , 14-C ) :   1.3631 B( 13-C , 19-C ) :   1.3582
B( 14-C , 15-C ) :   1.3887 B( 14-C , 31-H ) :   0.9701 B( 15-C , 16-C ) :   1.3688
B( 15-C , 32-H ) :   0.9702 B( 16-C , 17-C ) :   1.3264 B( 16-C , 33-H ) :   0.9837
B( 17-C , 18-O ) :   1.1038 B( 17-C , 19-C ) :   1.3630 B( 18-O , 34-H ) :   0.9781
B( 19-C , 35-H ) :   0.9586

MP2 TOTAL ENERGY:    -1274.325192814 Eh
FINAL SINGLE POINT ENERGY     -1274.325192814227

DIPOLE MOMENT
-------------
                                X             Y             Z
Electronic contribution:      8.80067       9.52706       4.86358
Nuclear contribution   :    -10.45077     -10.97072      -4.57779
                        -----------------------------------------
Total Dipole Moment    :     -1.65010      -1.44366       0.28579
                        -----------------------------------------
Magnitude (a.u.)       :      2.21103
Magnitude (Debye)      :      5.62000

Rotational constants in cm-1:     0.012574     0.008754     0.006261
Rotational constants in MHz :   376.954336   262.441920   187.689833

                             ****ORCA TERMINATED NORMALLY****
TOTAL RUN TIME: 0 days 1 hours 44 minutes 29 seconds 367 msec
