                         Program Version 4.2.0 -  RELEASE  -
|  1> ! ri-mp2 cc-pvtz cc-pvtz/c TightSCF NoKeepInts
|  2>
|  3> %scf
|  4>   MaxCore 4096
|  5> end
|  6> *xyz  0  1
|  7>     C       14.7723842   15.4868426   16.1342285
|  8>     C       15.0150991   16.0429813   14.7109803
|  9>     O       16.3414935   16.5900038   14.5123774
| 10>     C       17.2767604   16.5927006   15.5051365
| 11>     O       18.0505543   15.6622086   15.6439697
| 12>     C       17.1950007   17.7430041   16.4661354
| 13>     C       16.8686819   18.9992076   16.0666058
| 14>     C       16.3405088   19.4328535   14.7136681
| 15>     N       17.0638948   20.0901398   16.9171480
| 16>     C       17.7824754   20.0437661   18.0816329
| 17>     S       18.0655949   21.3990932   18.9859474
| 18>     N       18.2733897   18.8158071   18.4478610
| 19>     C       17.9600523   17.5382356   17.7781564
| 20>     C       17.3075918   16.5127744   18.6957496
| 21>     C       17.8154618   15.2042170   18.7828139
| 22>     C       17.2021220   14.2532389   19.6152880
| 23>     C       16.0711384   14.6140498   20.3674927
| 24>     C       15.5619067   15.9169895   20.2814815
| 25>     O       14.4648528   16.2659802   20.9994659
| 26>     C       16.1744048   16.8613454   19.4515437
| 27>     H       15.5053634   14.7108164   16.3918920
| 28>     H       13.7760240   15.0327699   16.1960411
| 29>     H       14.8187533   16.2818468   16.8880119
| 30>     H       14.8619389   15.2306014   13.9885018
| 31>     H       14.2667247   16.8160044   14.4950646
| 32>     H       15.3139081   19.0792776   14.5633342
| 33>     H       16.9610980   19.0298620   13.9030531
| 34>     H       16.3334148   20.5230871   14.5923106
| 35>     H       16.7330377   21.0031168   16.6485308
| 36>     H       18.7870345   18.8057992   19.3201377
| 37>     H       18.9706684   17.2130679   17.4900609
| 38>     H       18.6803549   14.9195211   18.1875780
| 39>     H       17.6010443   13.2417752   19.6693406
| 40>     H       15.5931224   13.8817549   21.0096280
| 41>     H       14.2160532   15.5005832   21.5392903
| 42>     H       15.7650912   17.8646771   19.3975418
| 43> *
| 44>
| 45>                          ****END OF INPUT****

CARTESIAN COORDINATES (ANGSTROEM)
---------------------------------
  C     14.772384   15.486843   16.134228
  C     15.015099   16.042981   14.710980
  O     16.341493   16.590004   14.512377
  C     17.276760   16.592701   15.505137
  O     18.050554   15.662209   15.643970
  C     17.195001   17.743004   16.466135
  C     16.868682   18.999208   16.066606
  C     16.340509   19.432854   14.713668
  N     17.063895   20.090140   16.917148
  C     17.782475   20.043766   18.081633
  S     18.065595   21.399093   18.985947
  N     18.273390   18.815807   18.447861
  C     17.960052   17.538236   17.778156
  C     17.307592   16.512774   18.695750
  C     17.815462   15.204217   18.782814
  C     17.202122   14.253239   19.615288
  C     16.071138   14.614050   20.367493
  C     15.561907   15.916989   20.281481
  O     14.464853   16.265980   20.999466
  C     16.174405   16.861345   19.451544
  H     15.505363   14.710816   16.391892
  H     13.776024   15.032770   16.196041
  H     14.818753   16.281847   16.888012
  H     14.861939   15.230601   13.988502
  H     14.266725   16.816004   14.495065
  H     15.313908   19.079278   14.563334
  H     16.961098   19.029862   13.903053
  H     16.333415   20.523087   14.592311
  H     16.733038   21.003117   16.648531
  H     18.787034   18.805799   19.320138
  H     18.970668   17.213068   17.490061
  H     18.680355   14.919521   18.187578
  H     17.601044   13.241775   19.669341
  H     15.593122   13.881755   21.009628
  H     14.216053   15.500583   21.539290
  H     15.765091   17.864677   19.397542

 Total Charge           Charge          ....    0
 Multiplicity           Mult            ....    1
 Number of Electrons    NEL             ....  154
 Basis Dimension        Dim             ....  828

ORBITAL ENERGIES
----------------

  NO   OCC          E(Eh)            E(eV)
   0   2.0000     -91.889996     -2500.4539
   1   2.0000     -20.596059      -560.4473
   2   2.0000     -20.584379      -560.1294
   3   2.0000     -20.551700      -559.2402
   4   2.0000     -15.630516      -425.3280
   5   2.0000     -15.607729      -424.7079
   6   2.0000     -11.394791      -310.0680
   7   2.0000     -11.384794      -309.7960
   8   2.0000     -11.339407      -308.5610
   9   2.0000     -11.312377      -307.8254
  10   2.0000     -11.308601      -307.7227
  11   2.0000     -11.306113      -307.6550
  12   2.0000     -11.262189      -306.4597
  13   2.0000     -11.260475      -306.4131
  14   2.0000     -11.259144      -306.3769
  15   2.0000     -11.252285      -306.1902
  16   2.0000     -11.242316      -305.9190
  17   2.0000     -11.238140      -305.8053
  18   2.0000     -11.234489      -305.7060
  19   2.0000     -11.231239      -305.6176
  20   2.0000      -8.895073      -242.0472
  21   2.0000      -6.576646      -178.9596
  22   2.0000      -6.574645      -178.9052
  23   2.0000      -6.574054      -178.8891
  24   2.0000      -1.446156       -39.3519
  25   2.0000      -1.415847       -38.5272
  26   2.0000      -1.355926       -36.8966
  27   2.0000      -1.341761       -36.5112
  28   2.0000      -1.238951       -33.7136
  29   2.0000      -1.156539       -31.4710
  30   2.0000      -1.122744       -30.5514
  31   2.0000      -1.044764       -28.4295
  32   2.0000      -1.033337       -28.1185
  33   2.0000      -1.014361       -27.6022
  34   2.0000      -1.002865       -27.2893
  35   2.0000      -0.987678       -26.8761
  36   2.0000      -0.924244       -25.1500
  37   2.0000      -0.898492       -24.4492
  38   2.0000      -0.850848       -23.1527
  39   2.0000      -0.838965       -22.8294
  40   2.0000      -0.832353       -22.6495
  41   2.0000      -0.822037       -22.3688
  42   2.0000      -0.744136       -20.2490
  43   2.0000      -0.730825       -19.8868
  44   2.0000      -0.728007       -19.8101
  45   2.0000      -0.693015       -18.8579
  46   2.0000      -0.687068       -18.6961
  47   2.0000      -0.678032       -18.4502
  48   2.0000      -0.675237       -18.3741
  49   2.0000      -0.664234       -18.0747
  50   2.0000      -0.650849       -17.7105
  51   2.0000      -0.648789       -17.6544
  52   2.0000      -0.635931       -17.3046
  53   2.0000      -0.624824       -17.0023
  54   2.0000      -0.606586       -16.5060
  55   2.0000      -0.602228       -16.3875
  56   2.0000      -0.599609       -16.3162
  57   2.0000      -0.579920       -15.7804
  58   2.0000      -0.575654       -15.6643
  59   2.0000      -0.564374       -15.3574
  60   2.0000      -0.555288       -15.1101
  61   2.0000      -0.545836       -14.8529
  62   2.0000      -0.538849       -14.6628
  63   2.0000      -0.534881       -14.5549
  64   2.0000      -0.519847       -14.1458
  65   2.0000      -0.511358       -13.9147
  66   2.0000      -0.498789       -13.5727
  67   2.0000      -0.492444       -13.4001
  68   2.0000      -0.483837       -13.1659
  69   2.0000      -0.467917       -12.7327
  70   2.0000      -0.456640       -12.4258
  71   2.0000      -0.448936       -12.2162
  72   2.0000      -0.355099        -9.6627
  73   2.0000      -0.347878        -9.4662
  74   2.0000      -0.329094        -8.9551
  75   2.0000      -0.319988        -8.7073
  76   2.0000      -0.318783        -8.6745
  77   0.0000       0.072955         1.9852
  78   0.0000       0.105514         2.8712
  79   0.0000       0.118902         3.2355
  80   0.0000       0.132147         3.5959
  81   0.0000       0.137433         3.7397

MULLIKEN ATOMIC CHARGES
-----------------------
   0 C :   -0.335040
   1 C :    0.049943
   2 O :   -0.384673
   3 C :    0.494655
   4 O :   -0.392531
   5 C :   -0.262499
   6 C :    0.171987
   7 C :   -0.291704
   8 N :   -0.128600
   9 C :    0.205103
  10 S :   -0.439967
  11 N :   -0.214648
  12 C :    0.058502
  13 C :    0.030678
  14 C :   -0.189940
  15 C :   -0.133341
  16 C :   -0.276890
  17 C :    0.323064
  18 O :   -0.358944
  19 C :   -0.270932
  20 H :    0.124272
  21 H :    0.115165
  22 H :    0.108090
  23 H :    0.115233
  24 H :    0.088235
  25 H :    0.119526
  26 H :    0.135808
  27 H :    0.108091
  28 H :    0.198473
  29 H :    0.200024
  30 H :    0.158362
  31 H :    0.168716
  32 H :    0.163007
  33 H :    0.130592
  34 H :    0.240647
  35 H :    0.171535
Sum of atomic charges:   -0.0000000

LOEWDIN ATOMIC CHARGES
----------------------
   0 C :    0.107119
   1 C :   -0.012754
   2 O :    0.285735
   3 C :   -0.424417
   4 O :    0.125521
   5 C :   -0.096293
   6 C :   -0.068772
   7 C :    0.127325
   8 N :    0.405443
   9 C :   -0.458433
  10 S :   -0.035968
  11 N :    0.396295
  12 C :   -0.048390
  13 C :   -0.041749
  14 C :    0.024480
  15 C :    0.041979
  16 C :   -0.001051
  17 C :   -0.193500
  18 O :    0.393859
  19 C :    0.028852
  20 H :   -0.020300
  21 H :   -0.022226
  22 H :   -0.031129
  23 H :   -0.024357
  24 H :   -0.034600
  25 H :   -0.012524
  26 H :   -0.005878
  27 H :   -0.019400
  28 H :   -0.058391
  29 H :   -0.063332
  30 H :   -0.006636
  31 H :   -0.022703
  32 H :   -0.019931
  33 H :   -0.035482
  34 H :   -0.154013
  35 H :   -0.024377

  Mayer bond orders larger than 0.100000
B(  0-C ,  1-C ) :   0.9616 B(  0-C , 20-H ) :   0.9671 B(  0-C , 21-H ) :   0.9746
B(  0-C , 22-H ) :   0.9695 B(  1-C ,  2-O ) :   0.9033 B(  1-C , 23-H ) :   0.9834
B(  1-C , 24-H ) :   0.9776 B(  2-O ,  3-C ) :   1.0817 B(  3-C ,  4-O ) :   2.0503
B(  3-C ,  5-C ) :   0.9959 B(  5-C ,  6-C ) :   1.6711 B(  5-C , 12-C ) :   0.9493
B(  6-C ,  7-C ) :   0.9484 B(  6-C ,  8-N ) :   1.1359 B(  7-C , 25-H ) :   0.9678
B(  7-C , 26-H ) :   0.9639 B(  7-C , 27-H ) :   0.9895 B(  8-N ,  9-C ) :   1.1858
B(  8-N , 28-H ) :   0.9471 B(  9-C , 10-S ) :   1.6120 B(  9-C , 11-N ) :   1.3018
B( 11-N , 12-C ) :   0.9802 B( 11-N , 29-H ) :   0.9487 B( 12-C , 13-C ) :   0.9673
B( 12-C , 30-H ) :   0.9951 B( 13-C , 14-C ) :   1.3840 B( 13-C , 19-C ) :   1.3506
B( 14-C , 15-C ) :   1.3957 B( 14-C , 31-H ) :   0.9598 B( 15-C , 16-C ) :   1.3597
B( 15-C , 32-H ) :   0.9703 B( 16-C , 17-C ) :   1.3322 B( 16-C , 33-H ) :   0.9850
B( 17-C , 18-O ) :   1.1063 B( 17-C , 19-C ) :   1.3576 B( 18-O , 34-H ) :   0.9802
B( 19-C , 35-H ) :   0.9597

MP2 TOTAL ENERGY:    -1274.324065874 Eh
FINAL SINGLE POINT ENERGY     -1274.324065874458

DIPOLE MOMENT
-------------
                                X             Y             Z
Electronic contribution:      8.89166       8.52825       7.08428
Nuclear contribution   :    -10.38141      -9.71939      -7.75750
                        -----------------------------------------
Total Dipole Moment    :     -1.48975      -1.19115      -0.67322
                        -----------------------------------------
Magnitude (a.u.)       :      2.02272
Magnitude (Debye)      :      5.14135

Rotational constants in cm-1:     0.011348     0.009352     0.006326
Rotational constants in MHz :   340.204354   280.360322   189.656252

                             ****ORCA TERMINATED NORMALLY****
TOTAL RUN TIME: 0 days 2 hours 4 minutes 10 seconds 793 msec
