                         Program Version 4.2.0 -  RELEASE  -
|  1> ! ri-mp2 cc-pvtz cc-pvtz/c TightSCF NoKeepInts
|  2>
|  3> %scf
|  4>   MaxCore 4096
|  5> end
|  6> *xyz  0  1
|  7>     C       14.6978786   14.2056947   15.6958075
|  8>     C       14.8653496   15.5912796   15.0531273
|  9>     O       15.8743798   16.2697872   15.8135036
| 10>     C       16.2163539   17.5339936   15.4465125
| 11>     O       15.9189847   17.9973042   14.3572273
| 12>     C       16.8397146   18.2938481   16.5837101
| 13>     C       16.9341591   19.6452506   16.5192656
| 14>     C       16.1918789   20.5539364   15.5651020
| 15>     N       17.7849824   20.3552355   17.3670110
| 16>     C       18.7477145   19.7698637   18.1455005
| 17>     S       19.8341256   20.6677727   19.0092302
| 18>     N       18.7810134   18.3959316   18.1579802
| 19>     C       17.8103384   17.5092883   17.4863560
| 20>     C       17.1999299   16.4711107   18.4250148
| 21>     C       17.7273096   15.1653627   18.4781027
| 22>     C       17.1933116   14.2119155   19.3618039
| 23>     C       16.1231978   14.5657194   20.1998071
| 24>     C       15.5940794   15.8622225   20.1460245
| 25>     O       14.5628933   16.2050339   20.9570128
| 26>     C       16.1263819   16.8097198   19.2656257
| 27>     H       14.4070309   14.3194692   16.7494716
| 28>     H       15.6421717   13.6471694   15.6607629
| 29>     H       13.9221725   13.6234642   15.1815427
| 30>     H       15.1831768   15.4813557   14.0063105
| 31>     H       13.9265970   16.1599198   15.0727506
| 32>     H       15.1594308   20.2113044   15.4141450
| 33>     H       16.6864963   20.5393141   14.5859641
| 34>     H       16.1437559   21.5931219   15.9107454
| 35>     H       17.7793497   21.3641433   17.3571211
| 36>     H       19.4649348   17.9940790   18.7875400
| 37>     H       18.4830812   17.0013819   16.7810138
| 38>     H       18.5584853   14.8893431   17.8353309
| 39>     H       17.6097412   13.2070135   19.3987345
| 40>     H       15.7076222   13.8339862   20.8848946
| 41>     H       14.3757648   15.4431046   21.5254288
| 42>     H       15.7132123   17.8115590   19.2525183
| 43> *
| 44>
| 45>                          ****END OF INPUT****

CARTESIAN COORDINATES (ANGSTROEM)
---------------------------------
  C     14.697879   14.205695   15.695807
  C     14.865350   15.591280   15.053127
  O     15.874380   16.269787   15.813504
  C     16.216354   17.533994   15.446513
  O     15.918985   17.997304   14.357227
  C     16.839715   18.293848   16.583710
  C     16.934159   19.645251   16.519266
  C     16.191879   20.553936   15.565102
  N     17.784982   20.355235   17.367011
  C     18.747714   19.769864   18.145500
  S     19.834126   20.667773   19.009230
  N     18.781013   18.395932   18.157980
  C     17.810338   17.509288   17.486356
  C     17.199930   16.471111   18.425015
  C     17.727310   15.165363   18.478103
  C     17.193312   14.211915   19.361804
  C     16.123198   14.565719   20.199807
  C     15.594079   15.862222   20.146024
  O     14.562893   16.205034   20.957013
  C     16.126382   16.809720   19.265626
  H     14.407031   14.319469   16.749472
  H     15.642172   13.647169   15.660763
  H     13.922172   13.623464   15.181543
  H     15.183177   15.481356   14.006310
  H     13.926597   16.159920   15.072751
  H     15.159431   20.211304   15.414145
  H     16.686496   20.539314   14.585964
  H     16.143756   21.593122   15.910745
  H     17.779350   21.364143   17.357121
  H     19.464935   17.994079   18.787540
  H     18.483081   17.001382   16.781014
  H     18.558485   14.889343   17.835331
  H     17.609741   13.207013   19.398734
  H     15.707622   13.833986   20.884895
  H     14.375765   15.443105   21.525429
  H     15.713212   17.811559   19.252518

 Total Charge           Charge          ....    0
 Multiplicity           Mult            ....    1
 Number of Electrons    NEL             ....  154
 Basis Dimension        Dim             ....  828

ORBITAL ENERGIES
----------------

  NO   OCC          E(Eh)            E(eV)
   0   2.0000     -91.888438     -2500.4115
   1   2.0000     -20.599343      -560.5366
   2   2.0000     -20.597224      -560.4790
   3   2.0000     -20.545627      -559.0749
   4   2.0000     -15.628107      -425.2624
   5   2.0000     -15.607514      -424.7020
   6   2.0000     -11.393549      -310.0342
   7   2.0000     -11.383789      -309.7686
   8   2.0000     -11.333776      -308.4077
   9   2.0000     -11.314008      -307.8698
  10   2.0000     -11.310483      -307.7739
  11   2.0000     -11.294457      -307.3378
  12   2.0000     -11.262577      -306.4703
  13   2.0000     -11.257775      -306.3396
  14   2.0000     -11.255711      -306.2835
  15   2.0000     -11.250878      -306.1519
  16   2.0000     -11.243655      -305.9554
  17   2.0000     -11.239405      -305.8398
  18   2.0000     -11.238106      -305.8044
  19   2.0000     -11.227576      -305.5179
  20   2.0000      -8.893555      -242.0059
  21   2.0000      -6.575129      -178.9184
  22   2.0000      -6.573132      -178.8640
  23   2.0000      -6.572540      -178.8479
  24   2.0000      -1.455000       -39.5926
  25   2.0000      -1.417444       -38.5706
  26   2.0000      -1.356165       -36.9031
  27   2.0000      -1.338960       -36.4349
  28   2.0000      -1.237496       -33.6740
  29   2.0000      -1.157157       -31.4879
  30   2.0000      -1.121407       -30.5150
  31   2.0000      -1.043169       -28.3861
  32   2.0000      -1.039519       -28.2867
  33   2.0000      -1.015125       -27.6230
  34   2.0000      -0.996437       -27.1144
  35   2.0000      -0.984647       -26.7936
  36   2.0000      -0.921731       -25.0816
  37   2.0000      -0.885743       -24.1023
  38   2.0000      -0.845308       -23.0020
  39   2.0000      -0.838454       -22.8155
  40   2.0000      -0.833975       -22.6936
  41   2.0000      -0.816278       -22.2121
  42   2.0000      -0.765786       -20.8381
  43   2.0000      -0.733133       -19.9496
  44   2.0000      -0.720410       -19.6033
  45   2.0000      -0.695802       -18.9337
  46   2.0000      -0.687071       -18.6961
  47   2.0000      -0.679631       -18.4937
  48   2.0000      -0.677896       -18.4465
  49   2.0000      -0.666900       -18.1473
  50   2.0000      -0.646041       -17.5797
  51   2.0000      -0.642939       -17.4953
  52   2.0000      -0.633813       -17.2469
  53   2.0000      -0.607965       -16.5436
  54   2.0000      -0.601178       -16.3589
  55   2.0000      -0.599377       -16.3099
  56   2.0000      -0.591181       -16.0869
  57   2.0000      -0.577277       -15.7085
  58   2.0000      -0.571350       -15.5472
  59   2.0000      -0.567806       -15.4508
  60   2.0000      -0.557034       -15.1577
  61   2.0000      -0.549760       -14.9597
  62   2.0000      -0.539350       -14.6765
  63   2.0000      -0.525090       -14.2884
  64   2.0000      -0.515555       -14.0290
  65   2.0000      -0.512798       -13.9539
  66   2.0000      -0.507682       -13.8147
  67   2.0000      -0.498418       -13.5626
  68   2.0000      -0.481409       -13.0998
  69   2.0000      -0.462194       -12.5769
  70   2.0000      -0.458391       -12.4735
  71   2.0000      -0.450653       -12.2629
  72   2.0000      -0.351839        -9.5740
  73   2.0000      -0.349333        -9.5058
  74   2.0000      -0.327790        -8.9196
  75   2.0000      -0.321488        -8.7481
  76   2.0000      -0.318414        -8.6645
  77   0.0000       0.080238         2.1834
  78   0.0000       0.104963         2.8562
  79   0.0000       0.122594         3.3359
  80   0.0000       0.132079         3.5940
  81   0.0000       0.134561         3.6616

MULLIKEN ATOMIC CHARGES
-----------------------
   0 C :   -0.266825
   1 C :    0.046429
   2 O :   -0.331167
   3 C :    0.402760
   4 O :   -0.420050
   5 C :   -0.211617
   6 C :    0.179068
   7 C :   -0.266035
   8 N :   -0.131098
   9 C :    0.218488
  10 S :   -0.442734
  11 N :   -0.222563
  12 C :    0.047592
  13 C :    0.075068
  14 C :   -0.197729
  15 C :   -0.126333
  16 C :   -0.279435
  17 C :    0.314883
  18 O :   -0.357684
  19 C :   -0.244111
  20 H :    0.102847
  21 H :    0.094039
  22 H :    0.094917
  23 H :    0.098081
  24 H :    0.083541
  25 H :    0.123870
  26 H :    0.134671
  27 H :    0.094866
  28 H :    0.199742
  29 H :    0.203008
  30 H :    0.144365
  31 H :    0.147682
  32 H :    0.160832
  33 H :    0.130250
  34 H :    0.240880
  35 H :    0.159502
Sum of atomic charges:    0.0000000

LOEWDIN ATOMIC CHARGES
----------------------
   0 C :    0.106905
   1 C :   -0.019893
   2 O :    0.317038
   3 C :   -0.420001
   4 O :    0.101949
   5 C :   -0.095285
   6 C :   -0.064326
   7 C :    0.128859
   8 N :    0.406148
   9 C :   -0.453070
  10 S :   -0.035872
  11 N :    0.392090
  12 C :   -0.052504
  13 C :   -0.033729
  14 C :    0.013897
  15 C :    0.041560
  16 C :   -0.001492
  17 C :   -0.190485
  18 O :    0.395596
  19 C :    0.033855
  20 H :   -0.024082
  21 H :   -0.026619
  22 H :   -0.025962
  23 H :   -0.028898
  24 H :   -0.030466
  25 H :   -0.006059
  26 H :   -0.004913
  27 H :   -0.023386
  28 H :   -0.055240
  29 H :   -0.064674
  30 H :   -0.014720
  31 H :   -0.031372
  32 H :   -0.020824
  33 H :   -0.035223
  34 H :   -0.154012
  35 H :   -0.024789

  Mayer bond orders larger than 0.100000
B(  0-C ,  1-C ) :   0.9735 B(  0-C , 20-H ) :   0.9745 B(  0-C , 21-H ) :   0.9774
B(  0-C , 22-H ) :   0.9793 B(  1-C ,  2-O ) :   0.9131 B(  1-C , 23-H ) :   0.9799
B(  1-C , 24-H ) :   0.9754 B(  2-O ,  3-C ) :   1.1782 B(  3-C ,  4-O ) :   2.0002
B(  3-C ,  5-C ) :   1.0438 B(  5-C ,  6-C ) :   1.6285 B(  5-C , 12-C ) :   0.9657
B(  6-C ,  7-C ) :   0.9646 B(  6-C ,  8-N ) :   1.1515 B(  7-C , 25-H ) :   0.9695
B(  7-C , 26-H ) :   0.9552 B(  7-C , 27-H ) :   0.9865 B(  8-N ,  9-C ) :   1.1889
B(  8-N , 28-H ) :   0.9471 B(  9-C , 10-S ) :   1.6021 B(  9-C , 11-N ) :   1.3094
B( 11-N , 12-C ) :   0.9580 B( 11-N , 29-H ) :   0.9465 B( 12-C , 13-C ) :   0.9747
B( 12-C , 30-H ) :   1.0046 B( 13-C , 14-C ) :   1.3463 B( 13-C , 19-C ) :   1.3737
B( 14-C , 15-C ) :   1.3968 B( 14-C , 31-H ) :   0.9738 B( 15-C , 16-C ) :   1.3626
B( 15-C , 32-H ) :   0.9702 B( 16-C , 17-C ) :   1.3297 B( 16-C , 33-H ) :   0.9856
B( 17-C , 18-O ) :   1.1027 B( 17-C , 19-C ) :   1.3691 B( 18-O , 34-H ) :   0.9797
B( 19-C , 35-H ) :   0.9602

MP2 TOTAL ENERGY:    -1274.338059288 Eh
FINAL SINGLE POINT ENERGY     -1274.338059287737

DIPOLE MOMENT
-------------
                                X             Y             Z
Electronic contribution:      9.73249      10.69449       7.37771
Nuclear contribution   :    -11.02830     -12.33148      -7.60594
                        -----------------------------------------
Total Dipole Moment    :     -1.29582      -1.63698      -0.22823
                        -----------------------------------------
Magnitude (a.u.)       :      2.10022
Magnitude (Debye)      :      5.33835

Rotational constants in cm-1:     0.012003     0.008270     0.005774
Rotational constants in MHz :   359.848911   247.943051   173.107186

                             ****ORCA TERMINATED NORMALLY****
TOTAL RUN TIME: 0 days 1 hours 38 minutes 17 seconds 276 msec
