                         Program Version 4.2.0 -  RELEASE  -
|  1> ! ri-mp2 cc-pvtz cc-pvtz/c TightSCF NoKeepInts
|  2>
|  3> %scf
|  4>   MaxCore 4096
|  5> end
|  6> *xyz  0  1
|  7>     C       15.1988213   14.4252425   14.3348680
|  8>     C       15.0545844   15.2224483   15.6421019
|  9>     O       16.1657375   16.1309079   15.7218164
| 10>     C       15.9251206   17.4732248   15.6666777
| 11>     O       15.0811252   17.9433347   14.9231657
| 12>     C       16.7142900   18.2487134   16.6868577
| 13>     C       16.7969760   19.6022424   16.6189202
| 14>     C       15.9687862   20.5272505   15.7512139
| 15>     N       17.7282221   20.3057156   17.3862758
| 16>     C       18.7376480   19.7233496   18.1039989
| 17>     S       19.8653135   20.6201891   18.9162098
| 18>     N       18.7791137   18.3520569   18.0978437
| 19>     C       17.7626846   17.4676832   17.4971890
| 20>     C       17.1689305   16.4888565   18.5020431
| 21>     C       17.4797051   15.1180677   18.4361017
| 22>     C       16.9268094   14.2158580   19.3604600
| 23>     C       16.0596935   14.6894229   20.3601522
| 24>     C       15.7529987   16.0555309   20.4306964
| 25>     O       14.9169018   16.5154517   21.3951897
| 26>     C       16.3038485   16.9507313   19.5083636
| 27>     H       15.1586172   15.0984608   13.4690441
| 28>     H       14.3874074   13.6938609   14.2381310
| 29>     H       16.1541165   13.8865428   14.3118549
| 30>     H       14.0917802   15.7519134   15.6606349
| 31>     H       15.0821641   14.5337231   16.4965911
| 32>     H       14.8974606   20.3518226   15.9131456
| 33>     H       16.1731450   20.3467102   14.6881227
| 34>     H       16.1592149   21.5886017   15.9493210
| 35>     H       17.7226112   21.3131816   17.3809921
| 36>     H       19.5169717   17.9506899   18.6625860
| 37>     H       18.3768914   16.9367658   16.7559159
| 38>     H       18.1457287   14.7507286   17.6596691
| 39>     H       17.1713488   13.1566366   19.3012467
| 40>     H       15.6311332   13.9968710   21.0771879
| 41>     H       14.6710994   15.7617820   21.9524244
| 42>     H       16.0599992   18.0054311   19.5809871
| 43> *
| 44>
| 45>                          ****END OF INPUT****

CARTESIAN COORDINATES (ANGSTROEM)
---------------------------------
  C     15.198821   14.425242   14.334868
  C     15.054584   15.222448   15.642102
  O     16.165737   16.130908   15.721816
  C     15.925121   17.473225   15.666678
  O     15.081125   17.943335   14.923166
  C     16.714290   18.248713   16.686858
  C     16.796976   19.602242   16.618920
  C     15.968786   20.527250   15.751214
  N     17.728222   20.305716   17.386276
  C     18.737648   19.723350   18.103999
  S     19.865313   20.620189   18.916210
  N     18.779114   18.352057   18.097844
  C     17.762685   17.467683   17.497189
  C     17.168930   16.488857   18.502043
  C     17.479705   15.118068   18.436102
  C     16.926809   14.215858   19.360460
  C     16.059694   14.689423   20.360152
  C     15.752999   16.055531   20.430696
  O     14.916902   16.515452   21.395190
  C     16.303849   16.950731   19.508364
  H     15.158617   15.098461   13.469044
  H     14.387407   13.693861   14.238131
  H     16.154117   13.886543   14.311855
  H     14.091780   15.751913   15.660635
  H     15.082164   14.533723   16.496591
  H     14.897461   20.351823   15.913146
  H     16.173145   20.346710   14.688123
  H     16.159215   21.588602   15.949321
  H     17.722611   21.313182   17.380992
  H     19.516972   17.950690   18.662586
  H     18.376891   16.936766   16.755916
  H     18.145729   14.750729   17.659669
  H     17.171349   13.156637   19.301247
  H     15.631133   13.996871   21.077188
  H     14.671099   15.761782   21.952424
  H     16.059999   18.005431   19.580987

 Total Charge           Charge          ....    0
 Multiplicity           Mult            ....    1
 Number of Electrons    NEL             ....  154
 Basis Dimension        Dim             ....  828

ORBITAL ENERGIES
----------------

  NO   OCC          E(Eh)            E(eV)
   0   2.0000     -91.889675     -2500.4452
   1   2.0000     -20.598148      -560.5041
   2   2.0000     -20.593394      -560.3747
   3   2.0000     -20.543226      -559.0096
   4   2.0000     -15.630141      -425.3178
   5   2.0000     -15.607767      -424.7089
   6   2.0000     -11.394095      -310.0491
   7   2.0000     -11.384340      -309.7837
   8   2.0000     -11.338158      -308.5270
   9   2.0000     -11.315591      -307.9129
  10   2.0000     -11.308356      -307.7160
  11   2.0000     -11.295248      -307.3593
  12   2.0000     -11.262465      -306.4673
  13   2.0000     -11.258677      -306.3642
  14   2.0000     -11.257025      -306.3192
  15   2.0000     -11.252400      -306.1934
  16   2.0000     -11.245400      -306.0029
  17   2.0000     -11.240681      -305.8745
  18   2.0000     -11.240348      -305.8654
  19   2.0000     -11.223707      -305.4126
  20   2.0000      -8.894737      -242.0381
  21   2.0000      -6.576306      -178.9504
  22   2.0000      -6.574311      -178.8961
  23   2.0000      -6.573718      -178.8800
  24   2.0000      -1.450463       -39.4691
  25   2.0000      -1.417816       -38.5807
  26   2.0000      -1.354023       -36.8448
  27   2.0000      -1.341142       -36.4943
  28   2.0000      -1.239032       -33.7158
  29   2.0000      -1.159229       -31.5442
  30   2.0000      -1.121864       -30.5275
  31   2.0000      -1.044156       -28.4129
  32   2.0000      -1.036384       -28.2014
  33   2.0000      -1.016812       -27.6689
  34   2.0000      -0.996701       -27.1216
  35   2.0000      -0.985215       -26.8091
  36   2.0000      -0.922838       -25.1117
  37   2.0000      -0.886018       -24.1098
  38   2.0000      -0.847479       -23.0611
  39   2.0000      -0.839454       -22.8427
  40   2.0000      -0.835870       -22.7452
  41   2.0000      -0.821790       -22.3621
  42   2.0000      -0.761887       -20.7320
  43   2.0000      -0.734883       -19.9972
  44   2.0000      -0.723295       -19.6819
  45   2.0000      -0.696852       -18.9623
  46   2.0000      -0.689182       -18.7536
  47   2.0000      -0.679070       -18.4784
  48   2.0000      -0.672392       -18.2967
  49   2.0000      -0.651654       -17.7324
  50   2.0000      -0.648542       -17.6477
  51   2.0000      -0.641300       -17.4507
  52   2.0000      -0.629183       -17.1209
  53   2.0000      -0.614847       -16.7308
  54   2.0000      -0.608268       -16.5518
  55   2.0000      -0.601176       -16.3588
  56   2.0000      -0.600364       -16.3367
  57   2.0000      -0.579374       -15.7656
  58   2.0000      -0.571526       -15.5520
  59   2.0000      -0.568278       -15.4636
  60   2.0000      -0.564430       -15.3589
  61   2.0000      -0.541762       -14.7421
  62   2.0000      -0.534132       -14.5345
  63   2.0000      -0.525494       -14.2994
  64   2.0000      -0.520565       -14.1653
  65   2.0000      -0.514206       -13.9923
  66   2.0000      -0.501423       -13.6444
  67   2.0000      -0.496978       -13.5234
  68   2.0000      -0.487347       -13.2614
  69   2.0000      -0.464138       -12.6298
  70   2.0000      -0.453796       -12.3484
  71   2.0000      -0.447996       -12.1906
  72   2.0000      -0.353743        -9.6258
  73   2.0000      -0.351372        -9.5613
  74   2.0000      -0.328871        -8.9490
  75   2.0000      -0.323047        -8.7906
  76   2.0000      -0.318915        -8.6781
  77   0.0000       0.074283         2.0214
  78   0.0000       0.103214         2.8086
  79   0.0000       0.124594         3.3904
  80   0.0000       0.131708         3.5839
  81   0.0000       0.135440         3.6855

MULLIKEN ATOMIC CHARGES
-----------------------
   0 C :   -0.266900
   1 C :    0.030192
   2 O :   -0.362188
   3 C :    0.443385
   4 O :   -0.427322
   5 C :   -0.239718
   6 C :    0.177653
   7 C :   -0.267200
   8 N :   -0.126407
   9 C :    0.210266
  10 S :   -0.440543
  11 N :   -0.216109
  12 C :    0.067959
  13 C :    0.042223
  14 C :   -0.195071
  15 C :   -0.130226
  16 C :   -0.277943
  17 C :    0.316432
  18 O :   -0.356224
  19 C :   -0.248118
  20 H :    0.105871
  21 H :    0.088499
  22 H :    0.090204
  23 H :    0.101729
  24 H :    0.112903
  25 H :    0.133579
  26 H :    0.129627
  27 H :    0.094835
  28 H :    0.199904
  29 H :    0.200679
  30 H :    0.153127
  31 H :    0.155938
  32 H :    0.163244
  33 H :    0.131363
  34 H :    0.240807
  35 H :    0.163551
Sum of atomic charges:   -0.0000000

LOEWDIN ATOMIC CHARGES
----------------------
   0 C :    0.105106
   1 C :   -0.016368
   2 O :    0.307321
   3 C :   -0.418160
   4 O :    0.099993
   5 C :   -0.097713
   6 C :   -0.055393
   7 C :    0.131667
   8 N :    0.407424
   9 C :   -0.456327
  10 S :   -0.035467
  11 N :    0.394512
  12 C :   -0.054617
  13 C :   -0.039431
  14 C :    0.017520
  15 C :    0.038334
  16 C :   -0.001186
  17 C :   -0.189655
  18 O :    0.395360
  19 C :    0.032901
  20 H :   -0.023524
  21 H :   -0.028173
  22 H :   -0.029530
  23 H :   -0.027903
  24 H :   -0.029096
  25 H :   -0.004234
  26 H :   -0.004651
  27 H :   -0.023505
  28 H :   -0.057025
  29 H :   -0.064366
  30 H :   -0.012965
  31 H :   -0.028503
  32 H :   -0.021038
  33 H :   -0.035160
  34 H :   -0.153652
  35 H :   -0.022496

  Mayer bond orders larger than 0.100000
B(  0-C ,  1-C ) :   0.9784 B(  0-C , 20-H ) :   0.9777 B(  0-C , 21-H ) :   0.9765
B(  0-C , 22-H ) :   0.9789 B(  1-C ,  2-O ) :   0.8809 B(  1-C , 23-H ) :   0.9728
B(  1-C , 24-H ) :   0.9747 B(  2-O ,  3-C ) :   1.1332 B(  3-C ,  4-O ) :   1.9778
B(  3-C ,  5-C ) :   1.0734 B(  5-C ,  6-C ) :   1.6315 B(  5-C , 12-C ) :   0.9545
B(  6-C ,  7-C ) :   0.9655 B(  6-C ,  8-N ) :   1.1539 B(  7-C , 25-H ) :   0.9608
B(  7-C , 26-H ) :   0.9588 B(  7-C , 27-H ) :   0.9905 B(  8-N ,  9-C ) :   1.1865
B(  8-N , 28-H ) :   0.9462 B(  9-C , 10-S ) :   1.6074 B(  9-C , 11-N ) :   1.3092
B( 11-N , 12-C ) :   0.9677 B( 11-N , 29-H ) :   0.9484 B( 12-C , 13-C ) :   0.9615
B( 12-C , 30-H ) :   1.0013 B( 13-C , 14-C ) :   1.3491 B( 13-C , 19-C ) :   1.3798
B( 14-C , 15-C ) :   1.3903 B( 14-C , 31-H ) :   0.9715 B( 15-C , 16-C ) :   1.3584
B( 15-C , 32-H ) :   0.9702 B( 16-C , 17-C ) :   1.3332 B( 16-C , 33-H ) :   0.9847
B( 17-C , 18-O ) :   1.1055 B( 17-C , 19-C ) :   1.3646 B( 18-O , 34-H ) :   0.9796
B( 19-C , 35-H ) :   0.9594

MP2 TOTAL ENERGY:    -1274.337592129 Eh
FINAL SINGLE POINT ENERGY     -1274.337592128768

DIPOLE MOMENT
-------------
                                X             Y             Z
Electronic contribution:      8.97481      10.66567       9.49246
Nuclear contribution   :    -10.06141     -12.28833      -9.64203
                        -----------------------------------------
Total Dipole Moment    :     -1.08660      -1.62266      -0.14956
                        -----------------------------------------
Magnitude (a.u.)       :      1.95859
Magnitude (Debye)      :      4.97834

Rotational constants in cm-1:     0.011286     0.008513     0.005858
Rotational constants in MHz :   338.359599   255.214947   175.628212

                             ****ORCA TERMINATED NORMALLY****
TOTAL RUN TIME: 0 days 1 hours 45 minutes 45 seconds 485 msec
