                         Program Version 4.2.0 -  RELEASE  -
|  1> ! ri-mp2 cc-pvtz cc-pvtz/c TightSCF NoKeepInts
|  2>
|  3> %scf
|  4>   MaxCore 4096
|  5> end
|  6> *xyz  0  1
|  7>     C       14.8265663   14.8620523   16.3599661
|  8>     C       15.8268957   14.9367233   15.1931384
|  9>     O       16.8839681   15.8571411   15.5280223
| 10>     C       16.7097055   17.1751269   15.2179473
| 11>     O       16.2641347   17.5140575   14.1351709
| 12>     C       16.9700163   18.1012433   16.3774653
| 13>     C       16.8940982   19.4478028   16.2087838
| 14>     C       16.2654267   20.1966196   15.0512460
| 15>     N       17.4264191   20.3253995   17.1559097
| 16>     C       18.2442044   19.9478707   18.1854116
| 17>     S       18.9382994   21.0506255   19.2041532
| 18>     N       18.4808913   18.6031680   18.3121072
| 19>     C       17.8103748   17.5404485   17.5395885
| 20>     C       17.1030572   16.5402128   18.4426836
| 21>     C       17.6738279   15.2796373   18.6981207
| 22>     C       17.0413218   14.3730030   19.5657865
| 23>     C       15.8301988   14.7313327   20.1829533
| 24>     C       15.2630817   15.9889738   19.9334190
| 25>     O       14.0947681   16.3378240   20.5283095
| 26>     C       15.8966372   16.8904962   19.0723533
| 27>     H       15.3076970   14.4562977   17.2563211
| 28>     H       13.9868746   14.2057671   16.1018035
| 29>     H       14.4231765   15.8543387   16.5968144
| 30>     H       16.2552220   13.9387059   15.0350719
| 31>     H       15.3161733   15.2309723   14.2658865
| 32>     H       15.2647673   19.8026468   14.8322891
| 33>     H       16.8698150   20.0808479   14.1423878
| 34>     H       16.1553020   21.2704542   15.2430183
| 35>     H       17.2836079   21.3175844   17.0550305
| 36>     H       19.0649612   18.3518282   19.0996206
| 37>     H       18.6866023   17.0770348   17.0642545
| 38>     H       18.6102759   15.0022128   18.2214286
| 39>     H       17.4893483   13.3994511   19.7574416
| 40>     H       15.3378223   14.0344830   20.8532978
| 41>     H       13.8393347   15.6121671   21.1175990
| 42>     H       15.4521267   17.8654491   18.9031988
| 43> *
| 44>
| 45>                          ****END OF INPUT****

CARTESIAN COORDINATES (ANGSTROEM)
---------------------------------
  C     14.826566   14.862052   16.359966
  C     15.826896   14.936723   15.193138
  O     16.883968   15.857141   15.528022
  C     16.709705   17.175127   15.217947
  O     16.264135   17.514057   14.135171
  C     16.970016   18.101243   16.377465
  C     16.894098   19.447803   16.208784
  C     16.265427   20.196620   15.051246
  N     17.426419   20.325399   17.155910
  C     18.244204   19.947871   18.185412
  S     18.938299   21.050625   19.204153
  N     18.480891   18.603168   18.312107
  C     17.810375   17.540449   17.539589
  C     17.103057   16.540213   18.442684
  C     17.673828   15.279637   18.698121
  C     17.041322   14.373003   19.565787
  C     15.830199   14.731333   20.182953
  C     15.263082   15.988974   19.933419
  O     14.094768   16.337824   20.528309
  C     15.896637   16.890496   19.072353
  H     15.307697   14.456298   17.256321
  H     13.986875   14.205767   16.101803
  H     14.423176   15.854339   16.596814
  H     16.255222   13.938706   15.035072
  H     15.316173   15.230972   14.265887
  H     15.264767   19.802647   14.832289
  H     16.869815   20.080848   14.142388
  H     16.155302   21.270454   15.243018
  H     17.283608   21.317584   17.055030
  H     19.064961   18.351828   19.099621
  H     18.686602   17.077035   17.064255
  H     18.610276   15.002213   18.221429
  H     17.489348   13.399451   19.757442
  H     15.337822   14.034483   20.853298
  H     13.839335   15.612167   21.117599
  H     15.452127   17.865449   18.903199

 Total Charge           Charge          ....    0
 Multiplicity           Mult            ....    1
 Number of Electrons    NEL             ....  154
 Basis Dimension        Dim             ....  828

ORBITAL ENERGIES
----------------

  NO   OCC          E(Eh)            E(eV)
   0   2.0000     -91.890144     -2500.4580
   1   2.0000     -20.599465      -560.5399
   2   2.0000     -20.590207      -560.2880
   3   2.0000     -20.543288      -559.0113
   4   2.0000     -15.630684      -425.3325
   5   2.0000     -15.607996      -424.7152
   6   2.0000     -11.393384      -310.0297
   7   2.0000     -11.384445      -309.7865
   8   2.0000     -11.339437      -308.5618
   9   2.0000     -11.316673      -307.9423
  10   2.0000     -11.309467      -307.7462
  11   2.0000     -11.294003      -307.3254
  12   2.0000     -11.263279      -306.4894
  13   2.0000     -11.259691      -306.3918
  14   2.0000     -11.258145      -306.3497
  15   2.0000     -11.252709      -306.2018
  16   2.0000     -11.246598      -306.0355
  17   2.0000     -11.241266      -305.8904
  18   2.0000     -11.241042      -305.8843
  19   2.0000     -11.220906      -305.3364
  20   2.0000      -8.895196      -242.0506
  21   2.0000      -6.576763      -178.9628
  22   2.0000      -6.574770      -178.9086
  23   2.0000      -6.574175      -178.8924
  24   2.0000      -1.448585       -39.4180
  25   2.0000      -1.419144       -38.6169
  26   2.0000      -1.352247       -36.7965
  27   2.0000      -1.342128       -36.5212
  28   2.0000      -1.239965       -33.7412
  29   2.0000      -1.160081       -31.5674
  30   2.0000      -1.122132       -30.5348
  31   2.0000      -1.044769       -28.4296
  32   2.0000      -1.033020       -28.1099
  33   2.0000      -1.017805       -27.6959
  34   2.0000      -0.998226       -27.1631
  35   2.0000      -0.986125       -26.8338
  36   2.0000      -0.923606       -25.1326
  37   2.0000      -0.889991       -24.2179
  38   2.0000      -0.847918       -23.0730
  39   2.0000      -0.840580       -22.8733
  40   2.0000      -0.836706       -22.7679
  41   2.0000      -0.815321       -22.1860
  42   2.0000      -0.757661       -20.6170
  43   2.0000      -0.735695       -20.0193
  44   2.0000      -0.722418       -19.6580
  45   2.0000      -0.698192       -18.9988
  46   2.0000      -0.689246       -18.7553
  47   2.0000      -0.676315       -18.4035
  48   2.0000      -0.670681       -18.2502
  49   2.0000      -0.667270       -18.1574
  50   2.0000      -0.647076       -17.6078
  51   2.0000      -0.643140       -17.5007
  52   2.0000      -0.636819       -17.3287
  53   2.0000      -0.609797       -16.5934
  54   2.0000      -0.604302       -16.4439
  55   2.0000      -0.601328       -16.3630
  56   2.0000      -0.593818       -16.1586
  57   2.0000      -0.579320       -15.7641
  58   2.0000      -0.570395       -15.5212
  59   2.0000      -0.566859       -15.4250
  60   2.0000      -0.560433       -15.2502
  61   2.0000      -0.547709       -14.9039
  62   2.0000      -0.540153       -14.6983
  63   2.0000      -0.526473       -14.3261
  64   2.0000      -0.523079       -14.2337
  65   2.0000      -0.514020       -13.9872
  66   2.0000      -0.503052       -13.6887
  67   2.0000      -0.499325       -13.5873
  68   2.0000      -0.478265       -13.0143
  69   2.0000      -0.463685       -12.6175
  70   2.0000      -0.451182       -12.2773
  71   2.0000      -0.446653       -12.1541
  72   2.0000      -0.354110        -9.6358
  73   2.0000      -0.352622        -9.5953
  74   2.0000      -0.329403        -8.9635
  75   2.0000      -0.324488        -8.8298
  76   2.0000      -0.319764        -8.7012
  77   0.0000       0.072806         1.9812
  78   0.0000       0.101650         2.7660
  79   0.0000       0.122792         3.3413
  80   0.0000       0.131136         3.5684
  81   0.0000       0.134086         3.6487

MULLIKEN ATOMIC CHARGES
-----------------------
   0 C :   -0.311160
   1 C :    0.027497
   2 O :   -0.369221
   3 C :    0.453785
   4 O :   -0.420823
   5 C :   -0.248930
   6 C :    0.176808
   7 C :   -0.265206
   8 N :   -0.126332
   9 C :    0.210924
  10 S :   -0.439987
  11 N :   -0.215594
  12 C :    0.058057
  13 C :    0.042920
  14 C :   -0.180413
  15 C :   -0.133285
  16 C :   -0.280008
  17 C :    0.323080
  18 O :   -0.359211
  19 C :   -0.251520
  20 H :    0.106662
  21 H :    0.113109
  22 H :    0.101520
  23 H :    0.104902
  24 H :    0.117449
  25 H :    0.129998
  26 H :    0.132571
  27 H :    0.094195
  28 H :    0.200024
  29 H :    0.201328
  30 H :    0.152657
  31 H :    0.152017
  32 H :    0.162904
  33 H :    0.132022
  34 H :    0.241439
  35 H :    0.165819
Sum of atomic charges:   -0.0000000

LOEWDIN ATOMIC CHARGES
----------------------
   0 C :    0.103545
   1 C :   -0.017035
   2 O :    0.297905
   3 C :   -0.418847
   4 O :    0.104838
   5 C :   -0.100502
   6 C :   -0.053394
   7 C :    0.130948
   8 N :    0.407984
   9 C :   -0.457064
  10 S :   -0.034672
  11 N :    0.395120
  12 C :   -0.054088
  13 C :   -0.038725
  14 C :    0.016083
  15 C :    0.039710
  16 C :   -0.001144
  17 C :   -0.189734
  18 O :    0.396164
  19 C :    0.035822
  20 H :   -0.026053
  21 H :   -0.026781
  22 H :   -0.029027
  23 H :   -0.025695
  24 H :   -0.028336
  25 H :   -0.004983
  26 H :   -0.004244
  27 H :   -0.023531
  28 H :   -0.056769
  29 H :   -0.064126
  30 H :   -0.012393
  31 H :   -0.028338
  32 H :   -0.020583
  33 H :   -0.035028
  34 H :   -0.153266
  35 H :   -0.023764

  Mayer bond orders larger than 0.100000
B(  0-C ,  1-C ) :   0.9616 B(  0-C , 20-H ) :   0.9731 B(  0-C , 21-H ) :   0.9782
B(  0-C , 22-H ) :   0.9742 B(  1-C ,  2-O ) :   0.8901 B(  1-C , 23-H ) :   0.9862
B(  1-C , 24-H ) :   0.9778 B(  2-O ,  3-C ) :   1.1233 B(  3-C ,  4-O ) :   1.9989
B(  3-C ,  5-C ) :   1.0680 B(  5-C ,  6-C ) :   1.6240 B(  5-C , 12-C ) :   0.9589
B(  6-C ,  7-C ) :   0.9667 B(  6-C ,  8-N ) :   1.1567 B(  7-C , 25-H ) :   0.9631
B(  7-C , 26-H ) :   0.9563 B(  7-C , 27-H ) :   0.9898 B(  8-N ,  9-C ) :   1.1853
B(  8-N , 28-H ) :   0.9466 B(  9-C , 10-S ) :   1.6070 B(  9-C , 11-N ) :   1.3106
B( 11-N , 12-C ) :   0.9615 B( 11-N , 29-H ) :   0.9483 B( 12-C , 13-C ) :   0.9629
B( 12-C , 30-H ) :   1.0038 B( 13-C , 14-C ) :   1.3538 B( 13-C , 19-C ) :   1.3659
B( 14-C , 15-C ) :   1.3916 B( 14-C , 31-H ) :   0.9726 B( 15-C , 16-C ) :   1.3553
B( 15-C , 32-H ) :   0.9710 B( 16-C , 17-C ) :   1.3351 B( 16-C , 33-H ) :   0.9850
B( 17-C , 18-O ) :   1.1047 B( 17-C , 19-C ) :   1.3571 B( 18-O , 34-H ) :   0.9792
B( 19-C , 35-H ) :   0.9607

MP2 TOTAL ENERGY:    -1274.335574112 Eh
FINAL SINGLE POINT ENERGY     -1274.335574112160

DIPOLE MOMENT
-------------
                                X             Y             Z
Electronic contribution:      8.37492      10.33758       5.82369
Nuclear contribution   :     -9.31081     -12.03702      -5.91237
                        -----------------------------------------
Total Dipole Moment    :     -0.93589      -1.69945      -0.08869
                        -----------------------------------------
Magnitude (a.u.)       :      1.94213
Magnitude (Debye)      :      4.93651

Rotational constants in cm-1:     0.012357     0.008759     0.006151
Rotational constants in MHz :   370.456510   262.594965   184.388678

                             ****ORCA TERMINATED NORMALLY****
TOTAL RUN TIME: 0 days 1 hours 43 minutes 55 seconds 910 msec
