                         Program Version 4.2.0 -  RELEASE  -
|  1> ! ri-mp2 cc-pvtz cc-pvtz/c TightSCF NoKeepInts
|  2>
|  3> %scf
|  4>   MaxCore 4096
|  5> end
|  6> *xyz  0  1
|  7>     C       15.2787132   14.8386045   13.6524616
|  8>     C       14.5108437   15.7875904   14.5988535
|  9>     O       15.3669081   16.8262212   15.1220497
| 10>     C       16.4383350   16.5620326   15.9314310
| 11>     O       16.9110829   15.4476273   16.0761250
| 12>     C       16.8822817   17.7299361   16.7675792
| 13>     C       16.7918240   19.0170220   16.3380942
| 14>     C       16.0602205   19.5455571   15.1195794
| 15>     N       17.4598921   20.0426698   17.0121473
| 16>     C       18.4108056   19.8457207   17.9765283
| 17>     S       19.2436018   21.1053222   18.6514394
| 18>     N       18.6532325   18.5445868   18.3362043
| 19>     C       17.8732324   17.3759943   17.8847472
| 20>     C       17.2455576   16.5946114   19.0316291
| 21>     C       17.4971341   15.2193117   19.1851779
| 22>     C       16.9197389   14.5010926   20.2457380
| 23>     C       16.0848253   15.1643664   21.1613633
| 24>     C       15.8309654   16.5345349   21.0094713
| 25>     O       15.0221268   17.1765052   21.8898421
| 26>     C       16.4067548   17.2465147   19.9523589
| 27>     H       15.8969866   15.4077135   12.9474381
| 28>     H       14.5733700   14.2312329   13.0726923
| 29>     H       15.9256520   14.1475264   14.2055136
| 30>     H       13.6903254   16.2564396   14.0407763
| 31>     H       14.0703182   15.2098942   15.4225520
| 32>     H       14.9785875   19.3914282   15.2201289
| 33>     H       16.3935392   19.0302452   14.2100626
| 34>     H       16.2225421   20.6180334   14.9568264
| 35>     H       17.3085429   21.0016393   16.7433291
| 36>     H       19.3436717   18.4272000   19.0669783
| 37>     H       18.6674546   16.7862892   17.4041828
| 38>     H       18.1305722   14.7029590   18.4677059
| 39>     H       17.1162696   13.4356324   20.3503626
| 40>     H       15.6356904   14.6132116   21.9807432
| 41>     H       14.7439149   16.5276594   22.5533986
| 42>     H       16.2014860   18.3070739   19.8524887
| 43> *
| 44>
| 45>                          ****END OF INPUT****

CARTESIAN COORDINATES (ANGSTROEM)
---------------------------------
  C     15.278713   14.838605   13.652462
  C     14.510844   15.787590   14.598853
  O     15.366908   16.826221   15.122050
  C     16.438335   16.562033   15.931431
  O     16.911083   15.447627   16.076125
  C     16.882282   17.729936   16.767579
  C     16.791824   19.017022   16.338094
  C     16.060220   19.545557   15.119579
  N     17.459892   20.042670   17.012147
  C     18.410806   19.845721   17.976528
  S     19.243602   21.105322   18.651439
  N     18.653232   18.544587   18.336204
  C     17.873232   17.375994   17.884747
  C     17.245558   16.594611   19.031629
  C     17.497134   15.219312   19.185178
  C     16.919739   14.501093   20.245738
  C     16.084825   15.164366   21.161363
  C     15.830965   16.534535   21.009471
  O     15.022127   17.176505   21.889842
  C     16.406755   17.246515   19.952359
  H     15.896987   15.407713   12.947438
  H     14.573370   14.231233   13.072692
  H     15.925652   14.147526   14.205514
  H     13.690325   16.256440   14.040776
  H     14.070318   15.209894   15.422552
  H     14.978587   19.391428   15.220129
  H     16.393539   19.030245   14.210063
  H     16.222542   20.618033   14.956826
  H     17.308543   21.001639   16.743329
  H     19.343672   18.427200   19.066978
  H     18.667455   16.786289   17.404183
  H     18.130572   14.702959   18.467706
  H     17.116270   13.435632   20.350363
  H     15.635690   14.613212   21.980743
  H     14.743915   16.527659   22.553399
  H     16.201486   18.307074   19.852489

 Total Charge           Charge          ....    0
 Multiplicity           Mult            ....    1
 Number of Electrons    NEL             ....  154
 Basis Dimension        Dim             ....  828

ORBITAL ENERGIES
----------------

  NO   OCC          E(Eh)            E(eV)
   0   2.0000     -91.887407     -2500.3835
   1   2.0000     -20.601859      -560.6051
   2   2.0000     -20.591275      -560.3171
   3   2.0000     -20.546328      -559.0940
   4   2.0000     -15.627619      -425.2491
   5   2.0000     -15.605154      -424.6378
   6   2.0000     -11.397544      -310.1429
   7   2.0000     -11.381926      -309.7180
   8   2.0000     -11.336837      -308.4910
   9   2.0000     -11.307285      -307.6869
  10   2.0000     -11.304266      -307.6047
  11   2.0000     -11.303786      -307.5917
  12   2.0000     -11.260172      -306.4049
  13   2.0000     -11.258430      -306.3575
  14   2.0000     -11.254551      -306.2519
  15   2.0000     -11.247443      -306.0585
  16   2.0000     -11.237590      -305.7904
  17   2.0000     -11.233616      -305.6822
  18   2.0000     -11.230500      -305.5974
  19   2.0000     -11.223651      -305.4111
  20   2.0000      -8.892497      -241.9772
  21   2.0000      -6.574077      -178.8897
  22   2.0000      -6.572072      -178.8352
  23   2.0000      -6.571486      -178.8192
  24   2.0000      -1.450980       -39.4832
  25   2.0000      -1.411018       -38.3958
  26   2.0000      -1.358359       -36.9628
  27   2.0000      -1.339141       -36.4399
  28   2.0000      -1.236373       -33.6434
  29   2.0000      -1.151842       -31.3432
  30   2.0000      -1.120050       -30.4781
  31   2.0000      -1.042066       -28.3561
  32   2.0000      -1.033734       -28.1293
  33   2.0000      -1.009362       -27.4661
  34   2.0000      -0.997593       -27.1459
  35   2.0000      -0.982598       -26.7379
  36   2.0000      -0.920402       -25.0454
  37   2.0000      -0.893953       -24.3257
  38   2.0000      -0.847327       -23.0569
  39   2.0000      -0.834816       -22.7165
  40   2.0000      -0.827605       -22.5203
  41   2.0000      -0.818518       -22.2730
  42   2.0000      -0.749902       -20.4059
  43   2.0000      -0.732225       -19.9249
  44   2.0000      -0.725571       -19.7438
  45   2.0000      -0.690437       -18.7878
  46   2.0000      -0.684999       -18.6398
  47   2.0000      -0.679768       -18.4974
  48   2.0000      -0.668924       -18.2023
  49   2.0000      -0.663304       -18.0494
  50   2.0000      -0.644866       -17.5477
  51   2.0000      -0.640865       -17.4388
  52   2.0000      -0.632114       -17.2007
  53   2.0000      -0.606357       -16.4998
  54   2.0000      -0.600334       -16.3359
  55   2.0000      -0.597604       -16.2616
  56   2.0000      -0.594304       -16.1718
  57   2.0000      -0.587363       -15.9830
  58   2.0000      -0.572273       -15.5723
  59   2.0000      -0.567416       -15.4402
  60   2.0000      -0.559801       -15.2330
  61   2.0000      -0.546085       -14.8597
  62   2.0000      -0.536990       -14.6122
  63   2.0000      -0.522027       -14.2051
  64   2.0000      -0.515075       -14.0159
  65   2.0000      -0.510671       -13.8961
  66   2.0000      -0.501227       -13.6391
  67   2.0000      -0.493670       -13.4334
  68   2.0000      -0.479765       -13.0551
  69   2.0000      -0.462484       -12.5848
  70   2.0000      -0.457261       -12.4427
  71   2.0000      -0.449185       -12.2229
  72   2.0000      -0.352350        -9.5879
  73   2.0000      -0.343992        -9.3605
  74   2.0000      -0.326526        -8.8852
  75   2.0000      -0.316596        -8.6150
  76   2.0000      -0.313974        -8.5437
  77   0.0000       0.078265         2.1297
  78   0.0000       0.112114         3.0508
  79   0.0000       0.121176         3.2974
  80   0.0000       0.136238         3.7072
  81   0.0000       0.140620         3.8265

MULLIKEN ATOMIC CHARGES
-----------------------
   0 C :   -0.300648
   1 C :    0.043218
   2 O :   -0.349631
   3 C :    0.418031
   4 O :   -0.425755
   5 C :   -0.155914
   6 C :    0.159846
   7 C :   -0.281404
   8 N :   -0.129105
   9 C :    0.207790
  10 S :   -0.443483
  11 N :   -0.210819
  12 C :    0.039497
  13 C :    0.032608
  14 C :   -0.167959
  15 C :   -0.134539
  16 C :   -0.277115
  17 C :    0.314104
  18 O :   -0.358962
  19 C :   -0.250037
  20 H :    0.090408
  21 H :    0.094997
  22 H :    0.128640
  23 H :    0.103231
  24 H :    0.094040
  25 H :    0.130188
  26 H :    0.123269
  27 H :    0.101720
  28 H :    0.198685
  29 H :    0.199793
  30 H :    0.155449
  31 H :    0.158875
  32 H :    0.159683
  33 H :    0.128055
  34 H :    0.239798
  35 H :    0.163443
Sum of atomic charges:   -0.0000000

LOEWDIN ATOMIC CHARGES
----------------------
   0 C :    0.103995
   1 C :   -0.012842
   2 O :    0.298628
   3 C :   -0.412781
   4 O :    0.111157
   5 C :   -0.090308
   6 C :   -0.065130
   7 C :    0.124787
   8 N :    0.405160
   9 C :   -0.458718
  10 S :   -0.038490
  11 N :    0.396413
  12 C :   -0.048117
  13 C :   -0.040406
  14 C :    0.024413
  15 C :    0.040719
  16 C :   -0.001230
  17 C :   -0.192354
  18 O :    0.393140
  19 C :    0.030022
  20 H :   -0.029389
  21 H :   -0.028869
  22 H :   -0.025980
  23 H :   -0.024598
  24 H :   -0.027634
  25 H :   -0.009168
  26 H :   -0.010167
  27 H :   -0.021286
  28 H :   -0.058903
  29 H :   -0.063179
  30 H :   -0.008504
  31 H :   -0.024218
  32 H :   -0.021198
  33 H :   -0.036240
  34 H :   -0.154959
  35 H :   -0.023765

  Mayer bond orders larger than 0.100000
B(  0-C ,  1-C ) :   0.9674 B(  0-C , 20-H ) :   0.9759 B(  0-C , 21-H ) :   0.9771
B(  0-C , 22-H ) :   0.9706 B(  1-C ,  2-O ) :   0.9088 B(  1-C , 23-H ) :   0.9849
B(  1-C , 24-H ) :   0.9792 B(  2-O ,  3-C ) :   1.1332 B(  3-C ,  4-O ) :   1.9703
B(  3-C ,  5-C ) :   1.0525 B(  5-C ,  6-C ) :   1.6541 B(  5-C , 12-C ) :   0.9470
B(  6-C ,  7-C ) :   0.9537 B(  6-C ,  8-N ) :   1.1332 B(  7-C , 25-H ) :   0.9627
B(  7-C , 26-H ) :   0.9661 B(  7-C , 27-H ) :   0.9915 B(  8-N ,  9-C ) :   1.1865
B(  8-N , 28-H ) :   0.9471 B(  9-C , 10-S ) :   1.6071 B(  9-C , 11-N ) :   1.3058
B( 11-N , 12-C ) :   0.9765 B( 11-N , 29-H ) :   0.9485 B( 12-C , 13-C ) :   0.9743
B( 12-C , 30-H ) :   0.9970 B( 13-C , 14-C ) :   1.3760 B( 13-C , 19-C ) :   1.3670
B( 14-C , 15-C ) :   1.3972 B( 14-C , 31-H ) :   0.9639 B( 15-C , 16-C ) :   1.3589
B( 15-C , 32-H ) :   0.9713 B( 16-C , 17-C ) :   1.3332 B( 16-C , 33-H ) :   0.9861
B( 17-C , 18-O ) :   1.1033 B( 17-C , 19-C ) :   1.3675 B( 18-O , 34-H ) :   0.9807
B( 19-C , 35-H ) :   0.9600

MP2 TOTAL ENERGY:    -1274.336312623 Eh
FINAL SINGLE POINT ENERGY     -1274.336312623213

DIPOLE MOMENT
-------------
                                X             Y             Z
Electronic contribution:      8.71961       9.92983      12.46028
Nuclear contribution   :    -10.33349     -11.11926     -13.46231
                        -----------------------------------------
Total Dipole Moment    :     -1.61388      -1.18944      -1.00203
                        -----------------------------------------
Magnitude (a.u.)       :      2.24130
Magnitude (Debye)      :      5.69693

Rotational constants in cm-1:     0.009916     0.008948     0.005488
Rotational constants in MHz :   297.274064   268.257940   164.519227

                             ****ORCA TERMINATED NORMALLY****
TOTAL RUN TIME: 0 days 1 hours 51 minutes 51 seconds 782 msec
