                         Program Version 4.2.0 -  RELEASE  -
|  1> ! ri-mp2 cc-pvtz cc-pvtz/c TightSCF NoKeepInts
|  2>
|  3> %scf
|  4>   MaxCore 4096
|  5> end
|  6> *xyz  0  1
|  7>     C       14.5859123   15.7709600   16.3406154
|  8>     C       15.0157250   16.3148029   14.9630523
|  9>     O       16.4124743   16.0326124   14.7216999
| 10>     C       17.4685027   16.4831404   15.4765639
| 11>     O       18.5462848   15.9193247   15.4338117
| 12>     C       17.2147314   17.6168720   16.4173654
| 13>     C       16.9130888   18.8470475   15.9317589
| 14>     C       16.5973653   19.2233346   14.4969062
| 15>     N       16.9987919   19.9789008   16.7446115
| 16>     C       17.6345572   20.0073980   17.9573986
| 17>     S       17.8187846   21.4106046   18.8125103
| 18>     N       18.1408675   18.8139614   18.4087430
| 19>     C       17.8942092   17.4981211   17.7858130
| 20>     C       17.2505614   16.4653233   18.7003821
| 21>     C       17.6599837   15.1209686   18.6415725
| 22>     C       17.0582535   14.1537346   19.4634720
| 23>     C       16.0374009   14.5338236   20.3513301
| 24>     C       15.6257013   15.8722195   20.4108732
| 25>     O       14.6339390   16.2402566   21.2602684
| 26>     C       16.2260537   16.8334046   19.5911426
| 27>     H       14.8950430   16.4389336   17.1504675
| 28>     H       15.0152047   14.7771609   16.5225580
| 29>     H       13.4938750   15.6823063   16.3897939
| 30>     H       14.4260509   15.8070354   14.1886528
| 31>     H       14.7890799   17.3833238   14.8971432
| 32>     H       16.8160898   18.4175735   13.7863220
| 33>     H       17.2033929   20.0812216   14.1775041
| 34>     H       15.5427381   19.5010275   14.3817445
| 35>     H       16.6736853   20.8699731   16.4036765
| 36>     H       18.6095581   18.8600746   19.3049967
| 37>     H       18.9312326   17.1992334   17.5709452
| 38>     H       18.4438546   14.8237698   17.9474563
| 39>     H       17.3825730   13.1158843   19.4074476
| 40>     H       15.5690166   13.7894047   20.9867395
| 41>     H       14.3758110   15.4537713   21.7643060
| 42>     H       15.8866062   17.8624951   19.6483554
| 43> *
| 44>
| 45>                          ****END OF INPUT****

CARTESIAN COORDINATES (ANGSTROEM)
---------------------------------
  C     14.585912   15.770960   16.340615
  C     15.015725   16.314803   14.963052
  O     16.412474   16.032612   14.721700
  C     17.468503   16.483140   15.476564
  O     18.546285   15.919325   15.433812
  C     17.214731   17.616872   16.417365
  C     16.913089   18.847047   15.931759
  C     16.597365   19.223335   14.496906
  N     16.998792   19.978901   16.744612
  C     17.634557   20.007398   17.957399
  S     17.818785   21.410605   18.812510
  N     18.140867   18.813961   18.408743
  C     17.894209   17.498121   17.785813
  C     17.250561   16.465323   18.700382
  C     17.659984   15.120969   18.641572
  C     17.058253   14.153735   19.463472
  C     16.037401   14.533824   20.351330
  C     15.625701   15.872219   20.410873
  O     14.633939   16.240257   21.260268
  C     16.226054   16.833405   19.591143
  H     14.895043   16.438934   17.150467
  H     15.015205   14.777161   16.522558
  H     13.493875   15.682306   16.389794
  H     14.426051   15.807035   14.188653
  H     14.789080   17.383324   14.897143
  H     16.816090   18.417573   13.786322
  H     17.203393   20.081222   14.177504
  H     15.542738   19.501027   14.381744
  H     16.673685   20.869973   16.403676
  H     18.609558   18.860075   19.304997
  H     18.931233   17.199233   17.570945
  H     18.443855   14.823770   17.947456
  H     17.382573   13.115884   19.407448
  H     15.569017   13.789405   20.986739
  H     14.375811   15.453771   21.764306
  H     15.886606   17.862495   19.648355

 Total Charge           Charge          ....    0
 Multiplicity           Mult            ....    1
 Number of Electrons    NEL             ....  154
 Basis Dimension        Dim             ....  828

ORBITAL ENERGIES
----------------

  NO   OCC          E(Eh)            E(eV)
   0   2.0000     -91.890130     -2500.4575
   1   2.0000     -20.602196      -560.6142
   2   2.0000     -20.599105      -560.5301
   3   2.0000     -20.550529      -559.2083
   4   2.0000     -15.627950      -425.2581
   5   2.0000     -15.609813      -424.7646
   6   2.0000     -11.401041      -310.2381
   7   2.0000     -11.385915      -309.8265
   8   2.0000     -11.335141      -308.4449
   9   2.0000     -11.316506      -307.9378
  10   2.0000     -11.310833      -307.7834
  11   2.0000     -11.308994      -307.7334
  12   2.0000     -11.267998      -306.6178
  13   2.0000     -11.266341      -306.5727
  14   2.0000     -11.264503      -306.5227
  15   2.0000     -11.256887      -306.3155
  16   2.0000     -11.245409      -306.0031
  17   2.0000     -11.241191      -305.8884
  18   2.0000     -11.238180      -305.8064
  19   2.0000     -11.229290      -305.5645
  20   2.0000      -8.895234      -242.0516
  21   2.0000      -6.576817      -178.9643
  22   2.0000      -6.574803      -178.9095
  23   2.0000      -6.574220      -178.8936
  24   2.0000      -1.447552       -39.3899
  25   2.0000      -1.418835       -38.6085
  26   2.0000      -1.361285       -37.0425
  27   2.0000      -1.341713       -36.5099
  28   2.0000      -1.239955       -33.7409
  29   2.0000      -1.160666       -31.5833
  30   2.0000      -1.126401       -30.6509
  31   2.0000      -1.048186       -28.5226
  32   2.0000      -1.037495       -28.2317
  33   2.0000      -1.019060       -27.7300
  34   2.0000      -1.006795       -27.3963
  35   2.0000      -0.990368       -26.9493
  36   2.0000      -0.926980       -25.2244
  37   2.0000      -0.896486       -24.3946
  38   2.0000      -0.854399       -23.2494
  39   2.0000      -0.841842       -22.9077
  40   2.0000      -0.835994       -22.7486
  41   2.0000      -0.831432       -22.6244
  42   2.0000      -0.747619       -20.3438
  43   2.0000      -0.739971       -20.1356
  44   2.0000      -0.731907       -19.9162
  45   2.0000      -0.696384       -18.9496
  46   2.0000      -0.689082       -18.7509
  47   2.0000      -0.681804       -18.5528
  48   2.0000      -0.674764       -18.3613
  49   2.0000      -0.663171       -18.0458
  50   2.0000      -0.654054       -17.7977
  51   2.0000      -0.647453       -17.6181
  52   2.0000      -0.638217       -17.3668
  53   2.0000      -0.620941       -16.8967
  54   2.0000      -0.612214       -16.6592
  55   2.0000      -0.606755       -16.5106
  56   2.0000      -0.602439       -16.3932
  57   2.0000      -0.587946       -15.9988
  58   2.0000      -0.576926       -15.6990
  59   2.0000      -0.568067       -15.4579
  60   2.0000      -0.564158       -15.3515
  61   2.0000      -0.553820       -15.0702
  62   2.0000      -0.539537       -14.6816
  63   2.0000      -0.537173       -14.6172
  64   2.0000      -0.520860       -14.1733
  65   2.0000      -0.512372       -13.9424
  66   2.0000      -0.504042       -13.7157
  67   2.0000      -0.501594       -13.6491
  68   2.0000      -0.484845       -13.1933
  69   2.0000      -0.467269       -12.7150
  70   2.0000      -0.456347       -12.4178
  71   2.0000      -0.451154       -12.2765
  72   2.0000      -0.358169        -9.7463
  73   2.0000      -0.349828        -9.5193
  74   2.0000      -0.329676        -8.9709
  75   2.0000      -0.324343        -8.8258
  76   2.0000      -0.320477        -8.7206
  77   0.0000       0.084991         2.3127
  78   0.0000       0.104716         2.8495
  79   0.0000       0.115291         3.1372
  80   0.0000       0.126513         3.4426
  81   0.0000       0.130198         3.5429

MULLIKEN ATOMIC CHARGES
-----------------------
   0 C :   -0.315260
   1 C :    0.032140
   2 O :   -0.327910
   3 C :    0.436613
   4 O :   -0.382569
   5 C :   -0.234733
   6 C :    0.148972
   7 C :   -0.334609
   8 N :   -0.140109
   9 C :    0.208694
  10 S :   -0.442663
  11 N :   -0.231485
  12 C :    0.082797
  13 C :    0.013272
  14 C :   -0.226341
  15 C :   -0.133030
  16 C :   -0.273802
  17 C :    0.321398
  18 O :   -0.355952
  19 C :   -0.254942
  20 H :    0.110812
  21 H :    0.117674
  22 H :    0.108262
  23 H :    0.126270
  24 H :    0.083750
  25 H :    0.135025
  26 H :    0.135521
  27 H :    0.123026
  28 H :    0.197101
  29 H :    0.205437
  30 H :    0.168939
  31 H :    0.180939
  32 H :    0.165466
  33 H :    0.132085
  34 H :    0.241121
  35 H :    0.178090
Sum of atomic charges:   -0.0000000

LOEWDIN ATOMIC CHARGES
----------------------
   0 C :    0.106704
   1 C :   -0.020177
   2 O :    0.300463
   3 C :   -0.414720
   4 O :    0.120493
   5 C :   -0.082188
   6 C :   -0.091225
   7 C :    0.122977
   8 N :    0.402896
   9 C :   -0.457939
  10 S :   -0.037964
  11 N :    0.396639
  12 C :   -0.047609
  13 C :   -0.043059
  14 C :    0.020218
  15 C :    0.044814
  16 C :   -0.000445
  17 C :   -0.191069
  18 O :    0.395756
  19 C :    0.026925
  20 H :   -0.033433
  21 H :   -0.021344
  22 H :   -0.025427
  23 H :   -0.020006
  24 H :   -0.038485
  25 H :   -0.008290
  26 H :   -0.009615
  27 H :   -0.018691
  28 H :   -0.056779
  29 H :   -0.063328
  30 H :   -0.003632
  31 H :   -0.021637
  32 H :   -0.018530
  33 H :   -0.034886
  34 H :   -0.153219
  35 H :   -0.024187

  Mayer bond orders larger than 0.100000
B(  0-C ,  1-C ) :   0.9589 B(  0-C , 20-H ) :   0.9697 B(  0-C , 21-H ) :   0.9717
B(  0-C , 22-H ) :   0.9775 B(  1-C ,  2-O ) :   0.9007 B(  1-C , 23-H ) :   0.9828
B(  1-C , 24-H ) :   0.9704 B(  2-O ,  3-C ) :   1.1685 B(  3-C ,  4-O ) :   2.0854
B(  3-C ,  5-C ) :   0.9246 B(  5-C ,  6-C ) :   1.7138 B(  5-C , 12-C ) :   0.9312
B(  6-C ,  7-C ) :   0.9347 B(  6-C ,  8-N ) :   1.1085 B(  7-C , 25-H ) :   0.9753
B(  7-C , 26-H ) :   0.9732 B(  7-C , 27-H ) :   0.9664 B(  8-N ,  9-C ) :   1.1981
B(  8-N , 28-H ) :   0.9514 B(  9-C , 10-S ) :   1.6088 B(  9-C , 11-N ) :   1.2920
B( 11-N , 12-C ) :   0.9756 B( 11-N , 29-H ) :   0.9464 B( 12-C , 13-C ) :   0.9736
B( 12-C , 30-H ) :   0.9886 B( 13-C , 14-C ) :   1.3866 B( 13-C , 19-C ) :   1.3409
B( 14-C , 15-C ) :   1.3983 B( 14-C , 31-H ) :   0.9570 B( 15-C , 16-C ) :   1.3586
B( 15-C , 32-H ) :   0.9695 B( 16-C , 17-C ) :   1.3325 B( 16-C , 33-H ) :   0.9845
B( 17-C , 18-O ) :   1.1092 B( 17-C , 19-C ) :   1.3606 B( 18-O , 34-H ) :   0.9795
B( 19-C , 35-H ) :   0.9571

MP2 TOTAL ENERGY:    -1274.328807270 Eh
FINAL SINGLE POINT ENERGY     -1274.328807270033

DIPOLE MOMENT
-------------
                                X             Y             Z
Electronic contribution:      8.78253       7.14749       6.69506
Nuclear contribution   :    -10.43586      -8.26180      -7.22983
                        -----------------------------------------
Total Dipole Moment    :     -1.65333      -1.11430      -0.53477
                        -----------------------------------------
Magnitude (a.u.)       :      2.06426
Magnitude (Debye)      :      5.24692

Rotational constants in cm-1:     0.011575     0.009276     0.006388
Rotational constants in MHz :   347.002773   278.085880   191.514242

                             ****ORCA TERMINATED NORMALLY****
TOTAL RUN TIME: 0 days 2 hours 2 minutes 25 seconds 825 msec
