                         Program Version 4.2.0 -  RELEASE  -
|  1> ! ri-mp2 cc-pvtz cc-pvtz/c TightSCF NoKeepInts
|  2>
|  3> %scf
|  4>   MaxCore 4096
|  5> end
|  6> *xyz  0  1
|  7>     C       14.2177727   14.8451370   15.6785623
|  8>     C       15.0241575   16.1058472   16.0286161
|  9>     O       16.2420819   16.0569076   15.2628480
| 10>     C       17.1430407   17.0871719   15.2581120
| 11>     O       17.9431921   17.2350852   14.3539375
| 12>     C       17.0939756   18.0034679   16.4333752
| 13>     C       16.8810475   19.3167394   16.1965606
| 14>     C       16.3160967   19.8908572   14.9155435
| 15>     N       17.2175213   20.2877483   17.1410394
| 16>     C       18.0002102   20.0435903   18.2390782
| 17>     S       18.4658307   21.2521400   19.2671533
| 18>     N       18.3996159   18.7426321   18.4303004
| 19>     C       17.9245747   17.5818954   17.6499861
| 20>     C       17.3301270   16.4571452   18.4826803
| 21>     C       17.6772497   15.1200884   18.2166289
| 22>     C       17.1108250   14.0740552   18.9638347
| 23>     C       16.1914600   14.3678688   19.9854375
| 24>     C       15.8444502   15.6992728   20.2526954
| 25>     O       14.9503416   15.9852439   21.2318264
| 26>     C       16.4071735   16.7389626   19.5052543
| 27>     H       13.2644819   14.8337219   16.2206861
| 28>     H       14.7788412   13.9424524   15.9513312
| 29>     H       14.0040480   14.8078547   14.6029718
| 30>     H       14.4423230   16.9986947   15.7641335
| 31>     H       15.2188057   16.1199509   17.1052715
| 32>     H       15.4948277   19.2734637   14.5315232
| 33>     H       17.0926904   19.9242625   14.1393291
| 34>     H       15.9280301   20.9081373   15.0466800
| 35>     H       16.9728290   21.2526397   16.9837563
| 36>     H       18.9744244   18.5917507   19.2501318
| 37>     H       18.8831451   17.2464365   17.2264899
| 38>     H       18.3802923   14.8898546   17.4192275
| 39>     H       17.3836427   13.0420317   18.7486095
| 40>     H       15.7514385   13.5624313   20.5645529
| 41>     H       14.7151204   15.1513196   21.6663714
| 42>     H       16.1213150   17.7631415   19.7234644
| 43> *
| 44>
| 45>                          ****END OF INPUT****

CARTESIAN COORDINATES (ANGSTROEM)
---------------------------------
  C     14.217773   14.845137   15.678562
  C     15.024157   16.105847   16.028616
  O     16.242082   16.056908   15.262848
  C     17.143041   17.087172   15.258112
  O     17.943192   17.235085   14.353938
  C     17.093976   18.003468   16.433375
  C     16.881048   19.316739   16.196561
  C     16.316097   19.890857   14.915544
  N     17.217521   20.287748   17.141039
  C     18.000210   20.043590   18.239078
  S     18.465831   21.252140   19.267153
  N     18.399616   18.742632   18.430300
  C     17.924575   17.581895   17.649986
  C     17.330127   16.457145   18.482680
  C     17.677250   15.120088   18.216629
  C     17.110825   14.074055   18.963835
  C     16.191460   14.367869   19.985437
  C     15.844450   15.699273   20.252695
  O     14.950342   15.985244   21.231826
  C     16.407173   16.738963   19.505254
  H     13.264482   14.833722   16.220686
  H     14.778841   13.942452   15.951331
  H     14.004048   14.807855   14.602972
  H     14.442323   16.998695   15.764133
  H     15.218806   16.119951   17.105271
  H     15.494828   19.273464   14.531523
  H     17.092690   19.924262   14.139329
  H     15.928030   20.908137   15.046680
  H     16.972829   21.252640   16.983756
  H     18.974424   18.591751   19.250132
  H     18.883145   17.246437   17.226490
  H     18.380292   14.889855   17.419228
  H     17.383643   13.042032   18.748610
  H     15.751439   13.562431   20.564553
  H     14.715120   15.151320   21.666371
  H     16.121315   17.763141   19.723464

 Total Charge           Charge          ....    0
 Multiplicity           Mult            ....    1
 Number of Electrons    NEL             ....  154
 Basis Dimension        Dim             ....  828

ORBITAL ENERGIES
----------------

  NO   OCC          E(Eh)            E(eV)
   0   2.0000     -91.889829     -2500.4494
   1   2.0000     -20.604413      -560.6746
   2   2.0000     -20.600491      -560.5679
   3   2.0000     -20.553309      -559.2840
   4   2.0000     -15.626151      -425.2092
   5   2.0000     -15.611042      -424.7980
   6   2.0000     -11.396463      -310.1135
   7   2.0000     -11.385491      -309.8150
   8   2.0000     -11.327128      -308.2268
   9   2.0000     -11.323006      -308.1147
  10   2.0000     -11.316792      -307.9456
  11   2.0000     -11.299862      -307.4849
  12   2.0000     -11.270561      -306.6876
  13   2.0000     -11.264289      -306.5169
  14   2.0000     -11.259335      -306.3821
  15   2.0000     -11.255975      -306.2907
  16   2.0000     -11.252353      -306.1921
  17   2.0000     -11.247402      -306.0574
  18   2.0000     -11.247330      -306.0554
  19   2.0000     -11.231526      -305.6254
  20   2.0000      -8.894911      -242.0428
  21   2.0000      -6.576487      -178.9553
  22   2.0000      -6.574482      -178.9008
  23   2.0000      -6.573896      -178.8848
  24   2.0000      -1.449056       -39.4308
  25   2.0000      -1.424165       -38.7535
  26   2.0000      -1.363140       -37.0929
  27   2.0000      -1.339284       -36.4438
  28   2.0000      -1.239317       -33.7235
  29   2.0000      -1.166611       -31.7451
  30   2.0000      -1.126276       -30.6475
  31   2.0000      -1.051650       -28.6168
  32   2.0000      -1.038236       -28.2518
  33   2.0000      -1.024666       -27.8826
  34   2.0000      -1.003794       -27.3146
  35   2.0000      -0.989650       -26.9298
  36   2.0000      -0.927390       -25.2356
  37   2.0000      -0.878378       -23.9019
  38   2.0000      -0.853591       -23.2274
  39   2.0000      -0.844499       -22.9800
  40   2.0000      -0.842454       -22.9243
  41   2.0000      -0.838947       -22.8289
  42   2.0000      -0.760443       -20.6927
  43   2.0000      -0.739433       -20.1210
  44   2.0000      -0.730580       -19.8801
  45   2.0000      -0.702797       -19.1241
  46   2.0000      -0.692727       -18.8501
  47   2.0000      -0.680926       -18.5289
  48   2.0000      -0.676401       -18.4058
  49   2.0000      -0.665058       -18.0971
  50   2.0000      -0.655335       -17.8326
  51   2.0000      -0.650947       -17.7132
  52   2.0000      -0.637046       -17.3349
  53   2.0000      -0.614544       -16.7226
  54   2.0000      -0.608633       -16.5617
  55   2.0000      -0.605245       -16.4696
  56   2.0000      -0.593576       -16.1520
  57   2.0000      -0.581800       -15.8316
  58   2.0000      -0.577905       -15.7256
  59   2.0000      -0.566181       -15.4066
  60   2.0000      -0.562206       -15.2984
  61   2.0000      -0.557655       -15.1746
  62   2.0000      -0.551674       -15.0118
  63   2.0000      -0.530078       -14.4242
  64   2.0000      -0.522007       -14.2045
  65   2.0000      -0.517785       -14.0896
  66   2.0000      -0.510976       -13.9044
  67   2.0000      -0.504547       -13.7294
  68   2.0000      -0.487882       -13.2759
  69   2.0000      -0.467174       -12.7124
  70   2.0000      -0.454657       -12.3719
  71   2.0000      -0.453392       -12.3374
  72   2.0000      -0.357611        -9.7311
  73   2.0000      -0.352083        -9.5807
  74   2.0000      -0.331380        -9.0173
  75   2.0000      -0.328783        -8.9466
  76   2.0000      -0.319327        -8.6893
  77   0.0000       0.087005         2.3675
  78   0.0000       0.098101         2.6695
  79   0.0000       0.119613         3.2548
  80   0.0000       0.126168         3.4332
  81   0.0000       0.129414         3.5215

MULLIKEN ATOMIC CHARGES
-----------------------
   0 C :   -0.262627
   1 C :    0.025656
   2 O :   -0.302539
   3 C :    0.403809
   4 O :   -0.377148
   5 C :   -0.198025
   6 C :    0.136234
   7 C :   -0.293998
   8 N :   -0.135352
   9 C :    0.215192
  10 S :   -0.441140
  11 N :   -0.226585
  12 C :    0.033628
  13 C :    0.010782
  14 C :   -0.198417
  15 C :   -0.140019
  16 C :   -0.269918
  17 C :    0.309843
  18 O :   -0.353632
  19 C :   -0.234772
  20 H :    0.088908
  21 H :    0.099459
  22 H :    0.103951
  23 H :    0.091780
  24 H :    0.110760
  25 H :    0.113695
  26 H :    0.146118
  27 H :    0.099797
  28 H :    0.197094
  29 H :    0.202884
  30 H :    0.164756
  31 H :    0.160295
  32 H :    0.166571
  33 H :    0.135151
  34 H :    0.241684
  35 H :    0.176126
Sum of atomic charges:   -0.0000000

LOEWDIN ATOMIC CHARGES
----------------------
   0 C :    0.111992
   1 C :   -0.025755
   2 O :    0.308855
   3 C :   -0.418144
   4 O :    0.126472
   5 C :   -0.092369
   6 C :   -0.087904
   7 C :    0.129456
   8 N :    0.404094
   9 C :   -0.454088
  10 S :   -0.036724
  11 N :    0.395732
  12 C :   -0.053686
  13 C :   -0.045724
  14 C :    0.018304
  15 C :    0.045296
  16 C :    0.001355
  17 C :   -0.191231
  18 O :    0.397351
  19 C :    0.029620
  20 H :   -0.024982
  21 H :   -0.025614
  22 H :   -0.025161
  23 H :   -0.036585
  24 H :   -0.034888
  25 H :   -0.012259
  26 H :   -0.003076
  27 H :   -0.019436
  28 H :   -0.058754
  29 H :   -0.064298
  30 H :   -0.007832
  31 H :   -0.024984
  32 H :   -0.017947
  33 H :   -0.033526
  34 H :   -0.152206
  35 H :   -0.021353

  Mayer bond orders larger than 0.100000
B(  0-C ,  1-C ) :   0.9824 B(  0-C , 20-H ) :   0.9774 B(  0-C , 21-H ) :   0.9775
B(  0-C , 22-H ) :   0.9783 B(  1-C ,  2-O ) :   0.9010 B(  1-C , 23-H ) :   0.9763
B(  1-C , 24-H ) :   0.9591 B(  2-O ,  3-C ) :   1.1949 B(  3-C ,  4-O ) :   2.1284
B(  3-C ,  5-C ) :   0.9108 B(  5-C ,  6-C ) :   1.7173 B(  5-C , 12-C ) :   0.9530
B(  6-C ,  7-C ) :   0.9376 B(  6-C ,  8-N ) :   1.1171 B(  7-C , 25-H ) :   0.9786
B(  7-C , 26-H ) :   0.9588 B(  7-C , 27-H ) :   0.9863 B(  8-N ,  9-C ) :   1.2009
B(  8-N , 28-H ) :   0.9493 B(  9-C , 10-S ) :   1.6115 B(  9-C , 11-N ) :   1.2849
B( 11-N , 12-C ) :   0.9757 B( 11-N , 29-H ) :   0.9458 B( 12-C , 13-C ) :   0.9599
B( 12-C , 30-H ) :   1.0004 B( 13-C , 14-C ) :   1.3789 B( 13-C , 19-C ) :   1.3535
B( 14-C , 15-C ) :   1.3952 B( 14-C , 31-H ) :   0.9692 B( 15-C , 16-C ) :   1.3615
B( 15-C , 32-H ) :   0.9690 B( 16-C , 17-C ) :   1.3315 B( 16-C , 33-H ) :   0.9832
B( 17-C , 18-O ) :   1.1122 B( 17-C , 19-C ) :   1.3609 B( 18-O , 34-H ) :   0.9786
B( 19-C , 35-H ) :   0.9566

MP2 TOTAL ENERGY:    -1274.326139432 Eh
FINAL SINGLE POINT ENERGY     -1274.326139432315

DIPOLE MOMENT
-------------
                                X             Y             Z
Electronic contribution:     10.40162       9.39081       7.12059
Nuclear contribution   :    -12.05523     -10.96319      -7.01815
                        -----------------------------------------
Total Dipole Moment    :     -1.65361      -1.57238       0.10244
                        -----------------------------------------
Magnitude (a.u.)       :      2.28415
Magnitude (Debye)      :      5.80584

Rotational constants in cm-1:     0.012011     0.008855     0.006037
Rotational constants in MHz :   360.076602   265.454132   180.976994

                             ****ORCA TERMINATED NORMALLY****
TOTAL RUN TIME: 0 days 1 hours 43 minutes 17 seconds 42 msec
