                         Program Version 4.2.0 -  RELEASE  -
|  1> ! ri-mp2 cc-pvtz cc-pvtz/c TightSCF NoKeepInts
|  2>
|  3> %scf
|  4>   MaxCore 4096
|  5> end
|  6> *xyz  0  1
|  7>     C       14.1766250   15.1634321   15.1671368
|  8>     C       15.2040721   15.7268978   14.1666789
|  9>     O       15.8462964   16.8668863   14.7664366
| 10>     C       16.8403416   16.6744908   15.6831006
| 11>     O       17.4411275   15.6167696   15.7804090
| 12>     C       17.0547466   17.8181980   16.6342602
| 13>     C       16.8207168   19.1142245   16.2964021
| 14>     C       16.1140440   19.6449879   15.0644586
| 15>     N       17.2859879   20.1561208   17.1029710
| 16>     C       18.1706956   20.0015890   18.1357973
| 17>     S       18.7629989   21.2955352   18.9786957
| 18>     N       18.5575482   18.7167084   18.4200664
| 19>     C       17.9890378   17.4998601   17.8086334
| 20>     C       17.3781274   16.5461814   18.8270407
| 21>     C       17.8045581   15.2080187   18.9028867
| 22>     C       17.2390094   14.3298104   19.8424990
| 23>     C       16.2393688   14.7942890   20.7144741
| 24>     C       15.8111715   16.1269119   20.6395458
| 25>     O       14.8430155   16.5767590   21.4771959
| 26>     C       16.3756747   16.9984298   19.7027049
| 27>     H       14.6761453   14.7865211   16.0690182
| 28>     H       13.6190112   14.3331953   14.7171250
| 29>     H       13.4591080   15.9376879   15.4657020
| 30>     H       15.9354897   14.9574188   13.8832318
| 31>     H       14.6771861   16.0452374   13.2580883
| 32>     H       16.5961859   19.2781347   14.1497065
| 33>     H       16.1159652   20.7404599   15.0104061
| 34>     H       15.0659390   19.3206725   15.0492513
| 35>     H       17.0278862   21.1069675   16.8930081
| 36>     H       19.1932458   18.6276197   19.2026832
| 37>     H       18.8941439   17.0628334   17.3622173
| 38>     H       18.5663505   14.8444133   18.2172626
| 39>     H       17.5723124   13.2945765   19.8872818
| 40>     H       15.7988435   14.1190451   21.4403417
| 41>     H       14.6005244   15.8420586   22.0604215
| 42>     H       16.0334992   18.0270579   19.6608610
| 43> *
| 44>
| 45>                          ****END OF INPUT****

CARTESIAN COORDINATES (ANGSTROEM)
---------------------------------
  C     14.176625   15.163432   15.167137
  C     15.204072   15.726898   14.166679
  O     15.846296   16.866886   14.766437
  C     16.840342   16.674491   15.683101
  O     17.441128   15.616770   15.780409
  C     17.054747   17.818198   16.634260
  C     16.820717   19.114224   16.296402
  C     16.114044   19.644988   15.064459
  N     17.285988   20.156121   17.102971
  C     18.170696   20.001589   18.135797
  S     18.762999   21.295535   18.978696
  N     18.557548   18.716708   18.420066
  C     17.989038   17.499860   17.808633
  C     17.378127   16.546181   18.827041
  C     17.804558   15.208019   18.902887
  C     17.239009   14.329810   19.842499
  C     16.239369   14.794289   20.714474
  C     15.811172   16.126912   20.639546
  O     14.843015   16.576759   21.477196
  C     16.375675   16.998430   19.702705
  H     14.676145   14.786521   16.069018
  H     13.619011   14.333195   14.717125
  H     13.459108   15.937688   15.465702
  H     15.935490   14.957419   13.883232
  H     14.677186   16.045237   13.258088
  H     16.596186   19.278135   14.149707
  H     16.115965   20.740460   15.010406
  H     15.065939   19.320673   15.049251
  H     17.027886   21.106967   16.893008
  H     19.193246   18.627620   19.202683
  H     18.894144   17.062833   17.362217
  H     18.566350   14.844413   18.217263
  H     17.572312   13.294576   19.887282
  H     15.798843   14.119045   21.440342
  H     14.600524   15.842059   22.060422
  H     16.033499   18.027058   19.660861

 Total Charge           Charge          ....    0
 Multiplicity           Mult            ....    1
 Number of Electrons    NEL             ....  154
 Basis Dimension        Dim             ....  828

ORBITAL ENERGIES
----------------

  NO   OCC          E(Eh)            E(eV)
   0   2.0000     -91.887970     -2500.3988
   1   2.0000     -20.602227      -560.6151
   2   2.0000     -20.591924      -560.3347
   3   2.0000     -20.545650      -559.0756
   4   2.0000     -15.628468      -425.2722
   5   2.0000     -15.605701      -424.6527
   6   2.0000     -11.396197      -310.1063
   7   2.0000     -11.382542      -309.7347
   8   2.0000     -11.338026      -308.5234
   9   2.0000     -11.307977      -307.7057
  10   2.0000     -11.304268      -307.6048
  11   2.0000     -11.299756      -307.4820
  12   2.0000     -11.260845      -306.4232
  13   2.0000     -11.258766      -306.3666
  14   2.0000     -11.255186      -306.2692
  15   2.0000     -11.248097      -306.0763
  16   2.0000     -11.238289      -305.8094
  17   2.0000     -11.234355      -305.7023
  18   2.0000     -11.231139      -305.6148
  19   2.0000     -11.228134      -305.5331
  20   2.0000      -8.893053      -241.9923
  21   2.0000      -6.574630      -178.9048
  22   2.0000      -6.572627      -178.8503
  23   2.0000      -6.572040      -178.8343
  24   2.0000      -1.453936       -39.5636
  25   2.0000      -1.411676       -38.4137
  26   2.0000      -1.357114       -36.9290
  27   2.0000      -1.339791       -36.4576
  28   2.0000      -1.236989       -33.6602
  29   2.0000      -1.152615       -31.3643
  30   2.0000      -1.120810       -30.4988
  31   2.0000      -1.042763       -28.3750
  32   2.0000      -1.034195       -28.1419
  33   2.0000      -1.010088       -27.4859
  34   2.0000      -0.998707       -27.1762
  35   2.0000      -0.983674       -26.7671
  36   2.0000      -0.920957       -25.0605
  37   2.0000      -0.894036       -24.3280
  38   2.0000      -0.847479       -23.0611
  39   2.0000      -0.834994       -22.7213
  40   2.0000      -0.828260       -22.5381
  41   2.0000      -0.815205       -22.1828
  42   2.0000      -0.755057       -20.5461
  43   2.0000      -0.736267       -20.0348
  44   2.0000      -0.726206       -19.7611
  45   2.0000      -0.690996       -18.8030
  46   2.0000      -0.685840       -18.6627
  47   2.0000      -0.679455       -18.4889
  48   2.0000      -0.669419       -18.2158
  49   2.0000      -0.656267       -17.8579
  50   2.0000      -0.651149       -17.7187
  51   2.0000      -0.644703       -17.5433
  52   2.0000      -0.631678       -17.1888
  53   2.0000      -0.609478       -16.5848
  54   2.0000      -0.602415       -16.3925
  55   2.0000      -0.598239       -16.2789
  56   2.0000      -0.595165       -16.1953
  57   2.0000      -0.580297       -15.7907
  58   2.0000      -0.573735       -15.6121
  59   2.0000      -0.562944       -15.3185
  60   2.0000      -0.557565       -15.1721
  61   2.0000      -0.550531       -14.9807
  62   2.0000      -0.534493       -14.5443
  63   2.0000      -0.534142       -14.5348
  64   2.0000      -0.515902       -14.0384
  65   2.0000      -0.508666       -13.8415
  66   2.0000      -0.497202       -13.5295
  67   2.0000      -0.493809       -13.4372
  68   2.0000      -0.481790       -13.1102
  69   2.0000      -0.463876       -12.6227
  70   2.0000      -0.459704       -12.5092
  71   2.0000      -0.450996       -12.2722
  72   2.0000      -0.353117        -9.6088
  73   2.0000      -0.344775        -9.3818
  74   2.0000      -0.327051        -8.8995
  75   2.0000      -0.317166        -8.6305
  76   2.0000      -0.314638        -8.5617
  77   0.0000       0.077360         2.1051
  78   0.0000       0.111166         3.0250
  79   0.0000       0.120571         3.2809
  80   0.0000       0.135749         3.6939
  81   0.0000       0.141382         3.8472

MULLIKEN ATOMIC CHARGES
-----------------------
   0 C :   -0.288144
   1 C :    0.024078
   2 O :   -0.352993
   3 C :    0.424131
   4 O :   -0.423008
   5 C :   -0.165320
   6 C :    0.155644
   7 C :   -0.280226
   8 N :   -0.128860
   9 C :    0.207553
  10 S :   -0.442445
  11 N :   -0.211191
  12 C :    0.043165
  13 C :    0.031724
  14 C :   -0.169959
  15 C :   -0.134556
  16 C :   -0.277388
  17 C :    0.314299
  18 O :   -0.358914
  19 C :   -0.250984
  20 H :    0.114088
  21 H :    0.095294
  22 H :    0.093860
  23 H :    0.113346
  24 H :    0.105783
  25 H :    0.125461
  26 H :    0.101123
  27 H :    0.128683
  28 H :    0.198856
  29 H :    0.199896
  30 H :    0.155534
  31 H :    0.159463
  32 H :    0.160209
  33 H :    0.128451
  34 H :    0.239925
  35 H :    0.163421
Sum of atomic charges:   -0.0000000

LOEWDIN ATOMIC CHARGES
----------------------
   0 C :    0.105800
   1 C :   -0.018185
   2 O :    0.304954
   3 C :   -0.415098
   4 O :    0.103841
   5 C :   -0.091512
   6 C :   -0.064293
   7 C :    0.125351
   8 N :    0.405452
   9 C :   -0.458481
  10 S :   -0.037699
  11 N :    0.396473
  12 C :   -0.048214
  13 C :   -0.040733
  14 C :    0.024605
  15 C :    0.040529
  16 C :   -0.001224
  17 C :   -0.192516
  18 O :    0.393159
  19 C :    0.029795
  20 H :   -0.023152
  21 H :   -0.025988
  22 H :   -0.028783
  23 H :   -0.027729
  24 H :   -0.026510
  25 H :   -0.009167
  26 H :   -0.021274
  27 H :   -0.009597
  28 H :   -0.058729
  29 H :   -0.063159
  30 H :   -0.008210
  31 H :   -0.023912
  32 H :   -0.021026
  33 H :   -0.036125
  34 H :   -0.154862
  35 H :   -0.023780

  Mayer bond orders larger than 0.100000
B(  0-C ,  1-C ) :   0.9634 B(  0-C , 20-H ) :   0.9751 B(  0-C , 21-H ) :   0.9759
B(  0-C , 22-H ) :   0.9771 B(  1-C ,  2-O ) :   0.8944 B(  1-C , 23-H ) :   0.9766
B(  1-C , 24-H ) :   0.9843 B(  2-O ,  3-C ) :   1.1342 B(  3-C ,  4-O ) :   1.9842
B(  3-C ,  5-C ) :   1.0388 B(  5-C ,  6-C ) :   1.6548 B(  5-C , 12-C ) :   0.9512
B(  6-C ,  7-C ) :   0.9556 B(  6-C ,  8-N ) :   1.1356 B(  7-C , 25-H ) :   0.9652
B(  7-C , 26-H ) :   0.9907 B(  7-C , 27-H ) :   0.9634 B(  8-N ,  9-C ) :   1.1855
B(  8-N , 28-H ) :   0.9469 B(  9-C , 10-S ) :   1.6083 B(  9-C , 11-N ) :   1.3061
B( 11-N , 12-C ) :   0.9769 B( 11-N , 29-H ) :   0.9485 B( 12-C , 13-C ) :   0.9729
B( 12-C , 30-H ) :   0.9969 B( 13-C , 14-C ) :   1.3758 B( 13-C , 19-C ) :   1.3660
B( 14-C , 15-C ) :   1.3973 B( 14-C , 31-H ) :   0.9636 B( 15-C , 16-C ) :   1.3586
B( 15-C , 32-H ) :   0.9711 B( 16-C , 17-C ) :   1.3333 B( 16-C , 33-H ) :   0.9859
B( 17-C , 18-O ) :   1.1036 B( 17-C , 19-C ) :   1.3673 B( 18-O , 34-H ) :   0.9806
B( 19-C , 35-H ) :   0.9602

MP2 TOTAL ENERGY:    -1274.341358374 Eh
FINAL SINGLE POINT ENERGY     -1274.341358373597

DIPOLE MOMENT
-------------
                                X             Y             Z
Electronic contribution:     10.15116       9.65305       9.74448
Nuclear contribution   :    -11.56083     -10.92892     -10.86903
                        -----------------------------------------
Total Dipole Moment    :     -1.40967      -1.27587      -1.12456
                        -----------------------------------------
Magnitude (a.u.)       :      2.20899
Magnitude (Debye)      :      5.61482

Rotational constants in cm-1:     0.010131     0.009272     0.005766
Rotational constants in MHz :   303.712457   277.963638   172.872905

                             ****ORCA TERMINATED NORMALLY****
TOTAL RUN TIME: 0 days 1 hours 36 minutes 36 seconds 959 msec
