                         Program Version 4.2.0 -  RELEASE  -
|  1> ! ri-mp2 cc-pvtz cc-pvtz/c TightSCF NoKeepInts
|  2>
|  3> %scf
|  4>   MaxCore 4096
|  5> end
|  6> *xyz  0  1
|  7>     C       14.1727956   15.3041052   15.3598723
|  8>     C       15.1973632   15.6866185   14.2745195
|  9>     O       15.9260211   16.8423930   14.7258253
| 10>     C       16.9308205   16.6801341   15.6354995
| 11>     O       17.5576494   15.6379622   15.7338857
| 12>     C       17.0934875   17.8185730   16.6017231
| 13>     C       16.8385950   19.1106997   16.2657376
| 14>     C       16.1578069   19.6308228   15.0149717
| 15>     N       17.2559464   20.1573732   17.0919642
| 16>     C       18.1139948   20.0154150   18.1489849
| 17>     S       18.6507540   21.3162251   19.0180901
| 18>     N       18.5229275   18.7376714   18.4354097
| 19>     C       18.0016420   17.5124462   17.7989400
| 20>     C       17.3828148   16.5360017   18.7905206
| 21>     C       17.8353493   15.2064263   18.8655699
| 22>     C       17.2606900   14.3063402   19.7785612
| 23>     C       16.2252624   14.7400313   20.6242372
| 24>     C       15.7708420   16.0639585   20.5497392
| 25>     O       14.7678207   16.4839168   21.3614538
| 26>     C       16.3444964   16.9572961   19.6393976
| 27>     H       14.6794500   14.9973973   16.2842139
| 28>     H       13.5505288   14.4668879   15.0212993
| 29>     H       13.5142737   16.1509311   15.5894483
| 30>     H       15.8708370   14.8454227   14.0594320
| 31>     H       14.6601504   15.9358781   13.3505146
| 32>     H       16.6645061   19.2639412   14.1135442
| 33>     H       16.1532940   20.7260503   14.9562735
| 34>     H       15.1130772   19.2978427   14.9756914
| 35>     H       16.9817458   21.1034928   16.8809565
| 36>     H       19.1382411   18.6576398   19.2351162
| 37>     H       18.9289381   17.1000262   17.3751781
| 38>     H       18.6250259   14.8664340   18.1996148
| 39>     H       17.6148078   13.2780085   19.8230424
| 40>     H       15.7776310   14.0477745   21.3294566
| 41>     H       14.5260630   15.7391546   21.9321217
| 42>     H       15.9813506   17.9787079   19.5971933
| 43> *
| 44>
| 45>                          ****END OF INPUT****

CARTESIAN COORDINATES (ANGSTROEM)
---------------------------------
  C     14.172796   15.304105   15.359872
  C     15.197363   15.686618   14.274520
  O     15.926021   16.842393   14.725825
  C     16.930820   16.680134   15.635499
  O     17.557649   15.637962   15.733886
  C     17.093487   17.818573   16.601723
  C     16.838595   19.110700   16.265738
  C     16.157807   19.630823   15.014972
  N     17.255946   20.157373   17.091964
  C     18.113995   20.015415   18.148985
  S     18.650754   21.316225   19.018090
  N     18.522928   18.737671   18.435410
  C     18.001642   17.512446   17.798940
  C     17.382815   16.536002   18.790521
  C     17.835349   15.206426   18.865570
  C     17.260690   14.306340   19.778561
  C     16.225262   14.740031   20.624237
  C     15.770842   16.063958   20.549739
  O     14.767821   16.483917   21.361454
  C     16.344496   16.957296   19.639398
  H     14.679450   14.997397   16.284214
  H     13.550529   14.466888   15.021299
  H     13.514274   16.150931   15.589448
  H     15.870837   14.845423   14.059432
  H     14.660150   15.935878   13.350515
  H     16.664506   19.263941   14.113544
  H     16.153294   20.726050   14.956273
  H     15.113077   19.297843   14.975691
  H     16.981746   21.103493   16.880956
  H     19.138241   18.657640   19.235116
  H     18.928938   17.100026   17.375178
  H     18.625026   14.866434   18.199615
  H     17.614808   13.278009   19.823042
  H     15.777631   14.047774   21.329457
  H     14.526063   15.739155   21.932122
  H     15.981351   17.978708   19.597193

 Total Charge           Charge          ....    0
 Multiplicity           Mult            ....    1
 Number of Electrons    NEL             ....  154
 Basis Dimension        Dim             ....  828

ORBITAL ENERGIES
----------------

  NO   OCC          E(Eh)            E(eV)
   0   2.0000     -91.888143     -2500.4035
   1   2.0000     -20.599929      -560.5526
   2   2.0000     -20.592495      -560.3503
   3   2.0000     -20.546549      -559.1000
   4   2.0000     -15.628613      -425.2762
   5   2.0000     -15.605909      -424.6584
   6   2.0000     -11.395748      -310.0941
   7   2.0000     -11.382779      -309.7412
   8   2.0000     -11.337885      -308.5195
   9   2.0000     -11.308602      -307.7227
  10   2.0000     -11.304497      -307.6110
  11   2.0000     -11.299692      -307.4803
  12   2.0000     -11.260432      -306.4119
  13   2.0000     -11.258895      -306.3701
  14   2.0000     -11.255730      -306.2840
  15   2.0000     -11.248698      -306.0926
  16   2.0000     -11.238893      -305.8258
  17   2.0000     -11.234930      -305.7180
  18   2.0000     -11.231697      -305.6300
  19   2.0000     -11.228800      -305.5512
  20   2.0000      -8.893225      -241.9969
  21   2.0000      -6.574801      -178.9094
  22   2.0000      -6.572799      -178.8549
  23   2.0000      -6.572211      -178.8389
  24   2.0000      -1.453687       -39.5568
  25   2.0000      -1.412251       -38.4293
  26   2.0000      -1.357185       -36.9309
  27   2.0000      -1.339880       -36.4600
  28   2.0000      -1.237111       -33.6635
  29   2.0000      -1.153177       -31.3795
  30   2.0000      -1.121095       -30.5066
  31   2.0000      -1.043016       -28.3819
  32   2.0000      -1.034131       -28.1401
  33   2.0000      -1.010639       -27.5009
  34   2.0000      -0.999087       -27.1865
  35   2.0000      -0.984124       -26.7794
  36   2.0000      -0.921256       -25.0686
  37   2.0000      -0.894056       -24.3285
  38   2.0000      -0.847554       -23.0631
  39   2.0000      -0.835417       -22.7328
  40   2.0000      -0.828837       -22.5538
  41   2.0000      -0.815282       -22.1850
  42   2.0000      -0.755071       -20.5465
  43   2.0000      -0.736341       -20.0369
  44   2.0000      -0.726611       -19.7721
  45   2.0000      -0.691356       -18.8128
  46   2.0000      -0.685830       -18.6624
  47   2.0000      -0.679356       -18.4862
  48   2.0000      -0.669793       -18.2260
  49   2.0000      -0.657868       -17.9015
  50   2.0000      -0.651410       -17.7258
  51   2.0000      -0.644953       -17.5501
  52   2.0000      -0.632460       -17.2101
  53   2.0000      -0.608503       -16.5582
  54   2.0000      -0.602463       -16.3938
  55   2.0000      -0.598617       -16.2892
  56   2.0000      -0.595747       -16.2111
  57   2.0000      -0.580310       -15.7910
  58   2.0000      -0.573985       -15.6189
  59   2.0000      -0.562544       -15.3076
  60   2.0000      -0.556681       -15.1480
  61   2.0000      -0.552361       -15.0305
  62   2.0000      -0.536652       -14.6030
  63   2.0000      -0.532879       -14.5004
  64   2.0000      -0.516549       -14.0560
  65   2.0000      -0.509144       -13.8545
  66   2.0000      -0.497226       -13.5302
  67   2.0000      -0.493972       -13.4417
  68   2.0000      -0.481817       -13.1109
  69   2.0000      -0.463740       -12.6190
  70   2.0000      -0.459935       -12.5155
  71   2.0000      -0.450718       -12.2646
  72   2.0000      -0.353196        -9.6109
  73   2.0000      -0.345307        -9.3963
  74   2.0000      -0.327226        -8.9043
  75   2.0000      -0.317340        -8.6352
  76   2.0000      -0.315291        -8.5795
  77   0.0000       0.076779         2.0893
  78   0.0000       0.110354         3.0029
  79   0.0000       0.120045         3.2666
  80   0.0000       0.135219         3.6795
  81   0.0000       0.141332         3.8458

MULLIKEN ATOMIC CHARGES
-----------------------
   0 C :   -0.288543
   1 C :    0.022481
   2 O :   -0.356483
   3 C :    0.421764
   4 O :   -0.417817
   5 C :   -0.161496
   6 C :    0.151466
   7 C :   -0.280807
   8 N :   -0.128671
   9 C :    0.207718
  10 S :   -0.442145
  11 N :   -0.211276
  12 C :    0.044892
  13 C :    0.030863
  14 C :   -0.171348
  15 C :   -0.134293
  16 C :   -0.277951
  17 C :    0.314617
  18 O :   -0.358765
  19 C :   -0.251811
  20 H :    0.113760
  21 H :    0.096688
  22 H :    0.093382
  23 H :    0.115251
  24 H :    0.105799
  25 H :    0.126048
  26 H :    0.101181
  27 H :    0.128025
  28 H :    0.198773
  29 H :    0.199789
  30 H :    0.155841
  31 H :    0.160103
  32 H :    0.160440
  33 H :    0.128801
  34 H :    0.240003
  35 H :    0.163721
Sum of atomic charges:    0.0000000

LOEWDIN ATOMIC CHARGES
----------------------
   0 C :    0.105604
   1 C :   -0.018659
   2 O :    0.303677
   3 C :   -0.415907
   4 O :    0.106248
   5 C :   -0.092341
   6 C :   -0.064884
   7 C :    0.125634
   8 N :    0.405463
   9 C :   -0.458252
  10 S :   -0.037541
  11 N :    0.396371
  12 C :   -0.048172
  13 C :   -0.041007
  14 C :    0.024453
  15 C :    0.040598
  16 C :   -0.001298
  17 C :   -0.192684
  18 O :    0.393234
  19 C :    0.029643
  20 H :   -0.023158
  21 H :   -0.025713
  22 H :   -0.028741
  23 H :   -0.027405
  24 H :   -0.026225
  25 H :   -0.008832
  26 H :   -0.021138
  27 H :   -0.009822
  28 H :   -0.058665
  29 H :   -0.063260
  30 H :   -0.008000
  31 H :   -0.023775
  32 H :   -0.020910
  33 H :   -0.036041
  34 H :   -0.154777
  35 H :   -0.023718

  Mayer bond orders larger than 0.100000
B(  0-C ,  1-C ) :   0.9624 B(  0-C , 20-H ) :   0.9746 B(  0-C , 21-H ) :   0.9760
B(  0-C , 22-H ) :   0.9772 B(  1-C ,  2-O ) :   0.8955 B(  1-C , 23-H ) :   0.9767
B(  1-C , 24-H ) :   0.9844 B(  2-O ,  3-C ) :   1.1218 B(  3-C ,  4-O ) :   1.9946
B(  3-C ,  5-C ) :   1.0315 B(  5-C ,  6-C ) :   1.6578 B(  5-C , 12-C ) :   0.9503
B(  6-C ,  7-C ) :   0.9562 B(  6-C ,  8-N ) :   1.1354 B(  7-C , 25-H ) :   0.9653
B(  7-C , 26-H ) :   0.9904 B(  7-C , 27-H ) :   0.9635 B(  8-N ,  9-C ) :   1.1855
B(  8-N , 28-H ) :   0.9470 B(  9-C , 10-S ) :   1.6089 B(  9-C , 11-N ) :   1.3054
B( 11-N , 12-C ) :   0.9774 B( 11-N , 29-H ) :   0.9486 B( 12-C , 13-C ) :   0.9717
B( 12-C , 30-H ) :   0.9963 B( 13-C , 14-C ) :   1.3770 B( 13-C , 19-C ) :   1.3656
B( 14-C , 15-C ) :   1.3973 B( 14-C , 31-H ) :   0.9633 B( 15-C , 16-C ) :   1.3588
B( 15-C , 32-H ) :   0.9711 B( 16-C , 17-C ) :   1.3330 B( 16-C , 33-H ) :   0.9857
B( 17-C , 18-O ) :   1.1039 B( 17-C , 19-C ) :   1.3672 B( 18-O , 34-H ) :   0.9806
B( 19-C , 35-H ) :   0.9602

MP2 TOTAL ENERGY:    -1274.339528089 Eh
FINAL SINGLE POINT ENERGY     -1274.339528089255

DIPOLE MOMENT
-------------
                                X             Y             Z
Electronic contribution:     10.12921       9.43833       9.20706
Nuclear contribution   :    -11.53668     -10.73664     -10.27624
                        -----------------------------------------
Total Dipole Moment    :     -1.40747      -1.29831      -1.06918
                        -----------------------------------------
Magnitude (a.u.)       :      2.19311
Magnitude (Debye)      :      5.57443

Rotational constants in cm-1:     0.010334     0.009265     0.005874
Rotational constants in MHz :   309.811644   277.771043   176.110725

                             ****ORCA TERMINATED NORMALLY****
TOTAL RUN TIME: 0 days 1 hours 35 minutes 58 seconds 558 msec
