                         Program Version 4.2.0 -  RELEASE  -
|  1> ! ri-mp2 cc-pvtz cc-pvtz/c TightSCF NoKeepInts
|  2>
|  3> %scf
|  4>   MaxCore 4096
|  5> end
|  6> *xyz  0  1
|  7>     C       14.0354817   15.2446552   14.7675979
|  8>     C       14.9632000   16.1835000   15.5555172
|  9>     O       16.2597942   16.1247066   14.9330488
| 10>     C       17.3647984   16.4015552   15.6870770
| 11>     O       18.3305360   15.6609738   15.7013490
| 12>     C       17.2663155   17.6213201   16.5476477
| 13>     C       16.9445025   18.8258396   16.0136065
| 14>     C       16.4661603   19.1064846   14.6021267
| 15>     N       17.1313976   20.0013259   16.7437975
| 16>     C       17.8529313   20.0786662   17.9058009
| 17>     S       18.1315001   21.5215947   18.6637619
| 18>     N       18.3526744   18.8971531   18.3958381
| 19>     C       18.0409014   17.5554127   17.8640544
| 20>     C       17.4031642   16.6089712   18.8703206
| 21>     C       17.8684972   15.2877907   18.9947754
| 22>     C       17.2692100   14.4025165   19.9061893
| 23>     C       16.1936601   14.8417063   20.6972024
| 24>     C       15.7237591   16.1560982   20.5700736
| 25>     O       14.6788212   16.5798394   21.3245161
| 26>     C       16.3212142   17.0348641   19.6606292
| 27>     H       14.4288340   14.2201052   14.7734163
| 28>     H       13.9462829   15.5738122   13.7248166
| 29>     H       13.0326829   15.2298951   15.2115912
| 30>     H       14.5631779   17.2042437   15.5588196
| 31>     H       15.0228524   15.8275714   16.5939954
| 32>     H       16.8818876   18.3919014   13.8805964
| 33>     H       16.7779400   20.1008669   14.2581220
| 34>     H       15.3733763   19.0607082   14.5336836
| 35>     H       16.8005432   20.8803354   16.3780912
| 36>     H       18.8757448   18.9808695   19.2586747
| 37>     H       19.0512952   17.2080639   17.6008630
| 38>     H       18.6917315   14.9431673   18.3719825
| 39>     H       17.6366194   13.3812314   19.9925865
| 40>     H       15.7272666   14.1604083   21.4012300
| 41>     H       14.4362909   15.8538921   21.9191477
| 42>     H       15.9419553   18.0479540   19.5754533
| 43> *
| 44>
| 45>                          ****END OF INPUT****

CARTESIAN COORDINATES (ANGSTROEM)
---------------------------------
  C     14.035482   15.244655   14.767598
  C     14.963200   16.183500   15.555517
  O     16.259794   16.124707   14.933049
  C     17.364798   16.401555   15.687077
  O     18.330536   15.660974   15.701349
  C     17.266316   17.621320   16.547648
  C     16.944502   18.825840   16.013607
  C     16.466160   19.106485   14.602127
  N     17.131398   20.001326   16.743797
  C     17.852931   20.078666   17.905801
  S     18.131500   21.521595   18.663762
  N     18.352674   18.897153   18.395838
  C     18.040901   17.555413   17.864054
  C     17.403164   16.608971   18.870321
  C     17.868497   15.287791   18.994775
  C     17.269210   14.402517   19.906189
  C     16.193660   14.841706   20.697202
  C     15.723759   16.156098   20.570074
  O     14.678821   16.579839   21.324516
  C     16.321214   17.034864   19.660629
  H     14.428834   14.220105   14.773416
  H     13.946283   15.573812   13.724817
  H     13.032683   15.229895   15.211591
  H     14.563178   17.204244   15.558820
  H     15.022852   15.827571   16.593995
  H     16.881888   18.391901   13.880596
  H     16.777940   20.100867   14.258122
  H     15.373376   19.060708   14.533684
  H     16.800543   20.880335   16.378091
  H     18.875745   18.980870   19.258675
  H     19.051295   17.208064   17.600863
  H     18.691731   14.943167   18.371983
  H     17.636619   13.381231   19.992587
  H     15.727267   14.160408   21.401230
  H     14.436291   15.853892   21.919148
  H     15.941955   18.047954   19.575453

 Total Charge           Charge          ....    0
 Multiplicity           Mult            ....    1
 Number of Electrons    NEL             ....  154
 Basis Dimension        Dim             ....  828

ORBITAL ENERGIES
----------------

  NO   OCC          E(Eh)            E(eV)
   0   2.0000     -91.890062     -2500.4557
   1   2.0000     -20.598289      -560.5079
   2   2.0000     -20.598277      -560.5076
   3   2.0000     -20.553257      -559.2826
   4   2.0000     -15.629171      -425.2914
   5   2.0000     -15.608955      -424.7413
   6   2.0000     -11.396606      -310.1174
   7   2.0000     -11.385638      -309.8190
   8   2.0000     -11.336664      -308.4863
   9   2.0000     -11.315259      -307.9038
  10   2.0000     -11.308318      -307.7150
  11   2.0000     -11.306904      -307.6765
  12   2.0000     -11.265489      -306.5496
  13   2.0000     -11.262656      -306.4724
  14   2.0000     -11.262287      -306.4624
  15   2.0000     -11.255359      -306.2739
  16   2.0000     -11.244678      -305.9832
  17   2.0000     -11.240794      -305.8776
  18   2.0000     -11.237632      -305.7915
  19   2.0000     -11.234793      -305.7143
  20   2.0000      -8.895160      -242.0496
  21   2.0000      -6.576739      -178.9622
  22   2.0000      -6.574730      -178.9075
  23   2.0000      -6.574144      -178.8916
  24   2.0000      -1.451996       -39.5108
  25   2.0000      -1.418008       -38.5860
  26   2.0000      -1.363589       -37.1051
  27   2.0000      -1.341400       -36.5014
  28   2.0000      -1.239253       -33.7218
  29   2.0000      -1.159599       -31.5543
  30   2.0000      -1.125182       -30.6178
  31   2.0000      -1.047372       -28.5004
  32   2.0000      -1.040430       -28.3116
  33   2.0000      -1.017320       -27.6827
  34   2.0000      -1.004630       -27.3374
  35   2.0000      -0.988789       -26.9063
  36   2.0000      -0.925513       -25.1845
  37   2.0000      -0.879914       -23.9437
  38   2.0000      -0.855532       -23.2802
  39   2.0000      -0.842780       -22.9332
  40   2.0000      -0.836761       -22.7694
  41   2.0000      -0.834644       -22.7118
  42   2.0000      -0.758777       -20.6474
  43   2.0000      -0.738884       -20.1060
  44   2.0000      -0.731614       -19.9082
  45   2.0000      -0.695758       -18.9325
  46   2.0000      -0.688427       -18.7331
  47   2.0000      -0.683394       -18.5961
  48   2.0000      -0.674611       -18.3571
  49   2.0000      -0.663677       -18.0596
  50   2.0000      -0.656107       -17.8536
  51   2.0000      -0.647849       -17.6289
  52   2.0000      -0.639581       -17.4039
  53   2.0000      -0.611691       -16.6450
  54   2.0000      -0.605472       -16.4757
  55   2.0000      -0.602147       -16.3852
  56   2.0000      -0.599828       -16.3221
  57   2.0000      -0.582988       -15.8639
  58   2.0000      -0.576701       -15.6928
  59   2.0000      -0.565687       -15.3931
  60   2.0000      -0.562339       -15.3020
  61   2.0000      -0.559960       -15.2373
  62   2.0000      -0.548577       -14.9275
  63   2.0000      -0.524551       -14.2738
  64   2.0000      -0.519725       -14.1424
  65   2.0000      -0.514288       -13.9945
  66   2.0000      -0.502682       -13.6787
  67   2.0000      -0.500336       -13.6148
  68   2.0000      -0.489831       -13.3290
  69   2.0000      -0.470347       -12.7988
  70   2.0000      -0.460063       -12.5190
  71   2.0000      -0.452427       -12.3112
  72   2.0000      -0.356557        -9.7024
  73   2.0000      -0.350634        -9.5412
  74   2.0000      -0.329397        -8.9633
  75   2.0000      -0.322762        -8.7828
  76   2.0000      -0.319788        -8.7019
  77   0.0000       0.079085         2.1520
  78   0.0000       0.104897         2.8544
  79   0.0000       0.116442         3.1685
  80   0.0000       0.130991         3.5645
  81   0.0000       0.132214         3.5977

MULLIKEN ATOMIC CHARGES
-----------------------
   0 C :   -0.255404
   1 C :    0.022620
   2 O :   -0.328340
   3 C :    0.424761
   4 O :   -0.376043
   5 C :   -0.215287
   6 C :    0.142965
   7 C :   -0.314098
   8 N :   -0.135591
   9 C :    0.207260
  10 S :   -0.441335
  11 N :   -0.218708
  12 C :    0.061456
  13 C :    0.021865
  14 C :   -0.208180
  15 C :   -0.129105
  16 C :   -0.277696
  17 C :    0.313420
  18 O :   -0.356720
  19 C :   -0.249343
  20 H :    0.107352
  21 H :    0.096033
  22 H :    0.089700
  23 H :    0.085868
  24 H :    0.107972
  25 H :    0.139605
  26 H :    0.119854
  27 H :    0.121033
  28 H :    0.197916
  29 H :    0.201384
  30 H :    0.163390
  31 H :    0.174217
  32 H :    0.163908
  33 H :    0.131399
  34 H :    0.241092
  35 H :    0.170781
Sum of atomic charges:   -0.0000000

LOEWDIN ATOMIC CHARGES
----------------------
   0 C :    0.111837
   1 C :   -0.025958
   2 O :    0.302613
   3 C :   -0.419887
   4 O :    0.125412
   5 C :   -0.090195
   6 C :   -0.080359
   7 C :    0.127812
   8 N :    0.403636
   9 C :   -0.457191
  10 S :   -0.037050
  11 N :    0.395898
  12 C :   -0.049396
  13 C :   -0.044039
  14 C :    0.020771
  15 C :    0.043465
  16 C :   -0.000534
  17 C :   -0.192507
  18 O :    0.394403
  19 C :    0.027201
  20 H :   -0.021320
  21 H :   -0.026760
  22 H :   -0.024905
  23 H :   -0.038846
  24 H :   -0.026645
  25 H :   -0.006757
  26 H :   -0.014411
  27 H :   -0.017419
  28 H :   -0.057625
  29 H :   -0.063588
  30 H :   -0.005162
  31 H :   -0.021577
  32 H :   -0.019055
  33 H :   -0.035052
  34 H :   -0.153422
  35 H :   -0.023388

  Mayer bond orders larger than 0.100000
B(  0-C ,  1-C ) :   0.9809 B(  0-C , 20-H ) :   0.9770 B(  0-C , 21-H ) :   0.9782
B(  0-C , 22-H ) :   0.9762 B(  1-C ,  2-O ) :   0.9016 B(  1-C , 23-H ) :   0.9704
B(  1-C , 24-H ) :   0.9725 B(  2-O ,  3-C ) :   1.1499 B(  3-C ,  4-O ) :   2.0954
B(  3-C ,  5-C ) :   0.9425 B(  5-C ,  6-C ) :   1.7053 B(  5-C , 12-C ) :   0.9423
B(  6-C ,  7-C ) :   0.9374 B(  6-C ,  8-N ) :   1.1193 B(  7-C , 25-H ) :   0.9694
B(  7-C , 26-H ) :   0.9834 B(  7-C , 27-H ) :   0.9667 B(  8-N ,  9-C ) :   1.1918
B(  8-N , 28-H ) :   0.9497 B(  9-C , 10-S ) :   1.6114 B(  9-C , 11-N ) :   1.2946
B( 11-N , 12-C ) :   0.9839 B( 11-N , 29-H ) :   0.9482 B( 12-C , 13-C ) :   0.9687
B( 12-C , 30-H ) :   0.9910 B( 13-C , 14-C ) :   1.3841 B( 13-C , 19-C ) :   1.3562
B( 14-C , 15-C ) :   1.3941 B( 14-C , 31-H ) :   0.9593 B( 15-C , 16-C ) :   1.3613
B( 15-C , 32-H ) :   0.9701 B( 16-C , 17-C ) :   1.3312 B( 16-C , 33-H ) :   0.9849
B( 17-C , 18-O ) :   1.1080 B( 17-C , 19-C ) :   1.3667 B( 18-O , 34-H ) :   0.9795
B( 19-C , 35-H ) :   0.9575

MP2 TOTAL ENERGY:    -1274.330730514 Eh
FINAL SINGLE POINT ENERGY     -1274.330730514369

DIPOLE MOMENT
-------------
                                X             Y             Z
Electronic contribution:     10.44396       8.78201       9.04590
Nuclear contribution   :    -12.04083      -9.92407      -9.42290
                        -----------------------------------------
Total Dipole Moment    :     -1.59687      -1.14206      -0.37700
                        -----------------------------------------
Magnitude (a.u.)       :      1.99910
Magnitude (Debye)      :      5.08131

Rotational constants in cm-1:     0.010398     0.009215     0.006125
Rotational constants in MHz :   311.730664   276.258279   183.620325

                             ****ORCA TERMINATED NORMALLY****
TOTAL RUN TIME: 0 days 1 hours 47 minutes 2 seconds 366 msec
