                         Program Version 4.2.0 -  RELEASE  -
|  1> ! ri-mp2 cc-pvtz cc-pvtz/c TightSCF NoKeepInts
|  2>
|  3> %scf
|  4>   MaxCore 4096
|  5> end
|  6> *xyz  0  1
|  7>     C       13.7942866   16.3827972   14.4865057
|  8>     C       14.8144874   16.1607242   15.6172175
|  9>     O       16.1209919   16.0645515   15.0122514
| 10>     C       17.2686995   16.5412749   15.5947592
| 11>     O       18.3485621   16.0369055   15.3484010
| 12>     C       17.1252016   17.6338459   16.6050268
| 13>     C       16.6437824   18.8481441   16.2432240
| 14>     C       15.9971252   19.2225403   14.9259861
| 15>     N       16.7913296   19.9548523   17.0813268
| 16>     C       17.6199692   19.9873140   18.1717993
| 17>     S       17.8398439   21.3657467   19.0582156
| 18>     N       18.2776608   18.8204844   18.4748717
| 19>     C       18.0368844   17.5157572   17.8265432
| 20>     C       17.6111947   16.4017017   18.7707656
| 21>     C       18.1909291   15.1249472   18.6637755
| 22>     C       17.7891201   14.0846293   19.5180775
| 23>     C       16.7968528   14.3228299   20.4845897
| 24>     C       16.2124396   15.5926800   20.5880665
| 25>     O       15.2471152   15.8227175   21.5132367
| 26>     C       16.6133554   16.6263565   19.7353412
| 27>     H       12.7811853   16.4796778   14.8955807
| 28>     H       13.8017218   15.5314943   13.7940298
| 29>     H       14.0225738   17.2885334   13.9136300
| 30>     H       14.7339901   16.9927454   16.3258567
| 31>     H       14.5863960   15.2337739   16.1600312
| 32>     H       14.9054656   19.2563118   15.0205572
| 33>     H       16.2498607   18.5206420   14.1219504
| 34>     H       16.3335830   20.2100489   14.5848332
| 35>     H       16.3450490   20.8279017   16.8476574
| 36>     H       18.8804490   18.8688489   19.2869035
| 37>     H       19.0420459   17.3091617   17.4291553
| 38>     H       18.9497379   14.9369842   17.9065367
| 39>     H       18.2439212   13.0996963   19.4256026
| 40>     H       16.4829084   13.5214845   21.1453591
| 41>     H       15.1409495   15.0101590   22.0307668
| 42>     H       16.1473315   17.6017361   19.8295684
| 43> *
| 44>
| 45>                          ****END OF INPUT****

CARTESIAN COORDINATES (ANGSTROEM)
---------------------------------
  C     13.794287   16.382797   14.486506
  C     14.814487   16.160724   15.617217
  O     16.120992   16.064552   15.012251
  C     17.268699   16.541275   15.594759
  O     18.348562   16.036905   15.348401
  C     17.125202   17.633846   16.605027
  C     16.643782   18.848144   16.243224
  C     15.997125   19.222540   14.925986
  N     16.791330   19.954852   17.081327
  C     17.619969   19.987314   18.171799
  S     17.839844   21.365747   19.058216
  N     18.277661   18.820484   18.474872
  C     18.036884   17.515757   17.826543
  C     17.611195   16.401702   18.770766
  C     18.190929   15.124947   18.663775
  C     17.789120   14.084629   19.518078
  C     16.796853   14.322830   20.484590
  C     16.212440   15.592680   20.588066
  O     15.247115   15.822717   21.513237
  C     16.613355   16.626356   19.735341
  H     12.781185   16.479678   14.895581
  H     13.801722   15.531494   13.794030
  H     14.022574   17.288533   13.913630
  H     14.733990   16.992745   16.325857
  H     14.586396   15.233774   16.160031
  H     14.905466   19.256312   15.020557
  H     16.249861   18.520642   14.121950
  H     16.333583   20.210049   14.584833
  H     16.345049   20.827902   16.847657
  H     18.880449   18.868849   19.286904
  H     19.042046   17.309162   17.429155
  H     18.949738   14.936984   17.906537
  H     18.243921   13.099696   19.425603
  H     16.482908   13.521484   21.145359
  H     15.140949   15.010159   22.030767
  H     16.147331   17.601736   19.829568

 Total Charge           Charge          ....    0
 Multiplicity           Mult            ....    1
 Number of Electrons    NEL             ....  154
 Basis Dimension        Dim             ....  828

ORBITAL ENERGIES
----------------

  NO   OCC          E(Eh)            E(eV)
   0   2.0000     -91.889840     -2500.4497
   1   2.0000     -20.603858      -560.6595
   2   2.0000     -20.598537      -560.5147
   3   2.0000     -20.550388      -559.2045
   4   2.0000     -15.628259      -425.2666
   5   2.0000     -15.609356      -424.7522
   6   2.0000     -11.399489      -310.1959
   7   2.0000     -11.385667      -309.8197
   8   2.0000     -11.334422      -308.4253
   9   2.0000     -11.315652      -307.9146
  10   2.0000     -11.309495      -307.7470
  11   2.0000     -11.307129      -307.6826
  12   2.0000     -11.267564      -306.6060
  13   2.0000     -11.264474      -306.5219
  14   2.0000     -11.263444      -306.4939
  15   2.0000     -11.255872      -306.2878
  16   2.0000     -11.244845      -305.9878
  17   2.0000     -11.241091      -305.8856
  18   2.0000     -11.238445      -305.8136
  19   2.0000     -11.238188      -305.8066
  20   2.0000      -8.894947      -242.0438
  21   2.0000      -6.576528      -178.9564
  22   2.0000      -6.574515      -178.9017
  23   2.0000      -6.573933      -178.8858
  24   2.0000      -1.449185       -39.4343
  25   2.0000      -1.418236       -38.5922
  26   2.0000      -1.362170       -37.0665
  27   2.0000      -1.341282       -36.4981
  28   2.0000      -1.239391       -33.7256
  29   2.0000      -1.160173       -31.5699
  30   2.0000      -1.126264       -30.6472
  31   2.0000      -1.047850       -28.5134
  32   2.0000      -1.044114       -28.4118
  33   2.0000      -1.017973       -27.7004
  34   2.0000      -1.005707       -27.3667
  35   2.0000      -0.989702       -26.9312
  36   2.0000      -0.926036       -25.1987
  37   2.0000      -0.886571       -24.1248
  38   2.0000      -0.854735       -23.2585
  39   2.0000      -0.842728       -22.9318
  40   2.0000      -0.836889       -22.7729
  41   2.0000      -0.834936       -22.7198
  42   2.0000      -0.759396       -20.6642
  43   2.0000      -0.739565       -20.1246
  44   2.0000      -0.732019       -19.9193
  45   2.0000      -0.696010       -18.9394
  46   2.0000      -0.688880       -18.7454
  47   2.0000      -0.683461       -18.5979
  48   2.0000      -0.673891       -18.3375
  49   2.0000      -0.664991       -18.0953
  50   2.0000      -0.652824       -17.7642
  51   2.0000      -0.645481       -17.5644
  52   2.0000      -0.639416       -17.3994
  53   2.0000      -0.615589       -16.7510
  54   2.0000      -0.606699       -16.5091
  55   2.0000      -0.605000       -16.4629
  56   2.0000      -0.601587       -16.3700
  57   2.0000      -0.586019       -15.9464
  58   2.0000      -0.577399       -15.7118
  59   2.0000      -0.570164       -15.5150
  60   2.0000      -0.561861       -15.2890
  61   2.0000      -0.559992       -15.2382
  62   2.0000      -0.543983       -14.8025
  63   2.0000      -0.537243       -14.6191
  64   2.0000      -0.522320       -14.2130
  65   2.0000      -0.515069       -14.0157
  66   2.0000      -0.503535       -13.7019
  67   2.0000      -0.500649       -13.6234
  68   2.0000      -0.487904       -13.2766
  69   2.0000      -0.468964       -12.7612
  70   2.0000      -0.459710       -12.5093
  71   2.0000      -0.450796       -12.2668
  72   2.0000      -0.356276        -9.6948
  73   2.0000      -0.350762        -9.5447
  74   2.0000      -0.329284        -8.9603
  75   2.0000      -0.323272        -8.7967
  76   2.0000      -0.319621        -8.6973
  77   0.0000       0.083456         2.2710
  78   0.0000       0.104822         2.8524
  79   0.0000       0.116390         3.1671
  80   0.0000       0.130272         3.5449
  81   0.0000       0.131030         3.5655

MULLIKEN ATOMIC CHARGES
-----------------------
   0 C :   -0.271289
   1 C :    0.019686
   2 O :   -0.323265
   3 C :    0.420745
   4 O :   -0.381391
   5 C :   -0.224567
   6 C :    0.159031
   7 C :   -0.342086
   8 N :   -0.138798
   9 C :    0.207869
  10 S :   -0.442635
  11 N :   -0.220519
  12 C :    0.054927
  13 C :    0.029132
  14 C :   -0.218885
  15 C :   -0.127694
  16 C :   -0.277213
  17 C :    0.313985
  18 O :   -0.356506
  19 C :   -0.250689
  20 H :    0.094672
  21 H :    0.110505
  22 H :    0.093081
  23 H :    0.098497
  24 H :    0.123509
  25 H :    0.125371
  26 H :    0.136997
  27 H :    0.136396
  28 H :    0.198410
  29 H :    0.202387
  30 H :    0.167247
  31 H :    0.175076
  32 H :    0.164246
  33 H :    0.130969
  34 H :    0.241194
  35 H :    0.171605
Sum of atomic charges:   -0.0000000

LOEWDIN ATOMIC CHARGES
----------------------
   0 C :    0.106737
   1 C :   -0.016747
   2 O :    0.305397
   3 C :   -0.414918
   4 O :    0.121131
   5 C :   -0.086496
   6 C :   -0.089622
   7 C :    0.126414
   8 N :    0.403025
   9 C :   -0.457116
  10 S :   -0.038043
  11 N :    0.396246
  12 C :   -0.049543
  13 C :   -0.043832
  14 C :    0.020328
  15 C :    0.044434
  16 C :   -0.000165
  17 C :   -0.191319
  18 O :    0.394562
  19 C :    0.026941
  20 H :   -0.024236
  21 H :   -0.023169
  22 H :   -0.031630
  23 H :   -0.039332
  24 H :   -0.026023
  25 H :   -0.016560
  26 H :   -0.008332
  27 H :   -0.010802
  28 H :   -0.057264
  29 H :   -0.063409
  30 H :   -0.004461
  31 H :   -0.021416
  32 H :   -0.018826
  33 H :   -0.035008
  34 H :   -0.153354
  35 H :   -0.023590

  Mayer bond orders larger than 0.100000
B(  0-C ,  1-C ) :   0.9707 B(  0-C , 20-H ) :   0.9749 B(  0-C , 21-H ) :   0.9779
B(  0-C , 22-H ) :   0.9785 B(  1-C ,  2-O ) :   0.9014 B(  1-C , 23-H ) :   0.9628
B(  1-C , 24-H ) :   0.9801 B(  2-O ,  3-C ) :   1.1745 B(  3-C ,  4-O ) :   2.0965
B(  3-C ,  5-C ) :   0.9346 B(  5-C ,  6-C ) :   1.7136 B(  5-C , 12-C ) :   0.9427
B(  6-C ,  7-C ) :   0.9320 B(  6-C ,  8-N ) :   1.1090 B(  7-C , 25-H ) :   0.9650
B(  7-C , 26-H ) :   0.9745 B(  7-C , 27-H ) :   0.9797 B(  8-N ,  9-C ) :   1.1949
B(  8-N , 28-H ) :   0.9506 B(  9-C , 10-S ) :   1.6104 B(  9-C , 11-N ) :   1.2929
B( 11-N , 12-C ) :   0.9843 B( 11-N , 29-H ) :   0.9476 B( 12-C , 13-C ) :   0.9706
B( 12-C , 30-H ) :   0.9896 B( 13-C , 14-C ) :   1.3837 B( 13-C , 19-C ) :   1.3548
B( 14-C , 15-C ) :   1.3939 B( 14-C , 31-H ) :   0.9598 B( 15-C , 16-C ) :   1.3616
B( 15-C , 32-H ) :   0.9697 B( 16-C , 17-C ) :   1.3310 B( 16-C , 33-H ) :   0.9852
B( 17-C , 18-O ) :   1.1078 B( 17-C , 19-C ) :   1.3675 B( 18-O , 34-H ) :   0.9795
B( 19-C , 35-H ) :   0.9566

MP2 TOTAL ENERGY:    -1274.330086561 Eh
FINAL SINGLE POINT ENERGY     -1274.330086560583

DIPOLE MOMENT
-------------
                                X             Y             Z
Electronic contribution:     10.96222       6.02993       9.98605
Nuclear contribution   :    -12.59067      -7.21993     -10.33925
                        -----------------------------------------
Total Dipole Moment    :     -1.62845      -1.19000      -0.35320
                        -----------------------------------------
Magnitude (a.u.)       :      2.04761
Magnitude (Debye)      :      5.20460

Rotational constants in cm-1:     0.010267     0.009183     0.006160
Rotational constants in MHz :   307.800256   275.297925   184.669064

                             ****ORCA TERMINATED NORMALLY****
TOTAL RUN TIME: 0 days 1 hours 45 minutes 12 seconds 410 msec
