                         Program Version 4.2.0 -  RELEASE  -
|  1> ! ri-mp2 cc-pvtz cc-pvtz/c TightSCF NoKeepInts
|  2>
|  3> %scf
|  4>   MaxCore 4096
|  5> end
|  6> *xyz  0  1
|  7>     C       15.3834905   14.7783324   13.7289951
|  8>     C       14.5381204   15.9317369   14.3132754
|  9>     O       15.2654066   16.8544273   15.1646793
| 10>     C       16.3318251   16.5586742   15.9743412
| 11>     O       16.8055415   15.4430214   16.1016253
| 12>     C       16.8213183   17.7213418   16.7945290
| 13>     C       16.7391930   19.0117441   16.3716529
| 14>     C       15.9772233   19.5608680   15.1809349
| 15>     N       17.4451654   20.0238613   17.0275071
| 16>     C       18.4217495   19.8088923   17.9616622
| 17>     S       19.2960062   21.0528906   18.6127085
| 18>     N       18.6529507   18.5031989   18.3111114
| 19>     C       17.8401296   17.3491273   17.8810534
| 20>     C       17.2352444   16.5765589   19.0461045
| 21>     C       17.4703870   15.1975064   19.1919060
| 22>     C       16.9146714   14.4876291   20.2695288
| 23>     C       16.1183502   15.1631020   21.2102625
| 24>     C       15.8810102   16.5370796   21.0662832
| 25>     O       15.1094889   17.1908907   21.9711216
| 26>     C       16.4352334   17.2407691   19.9922343
| 27>     H       16.3403152   15.1482085   13.3400014
| 28>     H       14.8458221   14.2964123   12.9036749
| 29>     H       15.5816165   14.0058515   14.4823195
| 30>     H       14.0883450   16.4998966   13.4890035
| 31>     H       13.7145051   15.4904752   14.8896779
| 32>     H       14.8979802   19.4102163   15.3089985
| 33>     H       16.2842793   19.0577651   14.2556166
| 34>     H       16.1391000   20.6350933   15.0295770
| 35>     H       17.3015293   20.9860299   16.7661430
| 36>     H       19.3628709   18.3722392   19.0205788
| 37>     H       18.6098298   16.7474689   17.3760699
| 38>     H       18.0734276   14.6718789   18.4552619
| 39>     H       17.0976256   13.4191704   20.3677904
| 40>     H       15.6858426   14.6183952   22.0427715
| 41>     H       14.8381581   16.5448777   22.6402394
| 42>     H       16.2432471   18.3043687   19.8987591
| 43> *
| 44>
| 45>                          ****END OF INPUT****

CARTESIAN COORDINATES (ANGSTROEM)
---------------------------------
  C     15.383491   14.778332   13.728995
  C     14.538120   15.931737   14.313275
  O     15.265407   16.854427   15.164679
  C     16.331825   16.558674   15.974341
  O     16.805542   15.443021   16.101625
  C     16.821318   17.721342   16.794529
  C     16.739193   19.011744   16.371653
  C     15.977223   19.560868   15.180935
  N     17.445165   20.023861   17.027507
  C     18.421750   19.808892   17.961662
  S     19.296006   21.052891   18.612709
  N     18.652951   18.503199   18.311111
  C     17.840130   17.349127   17.881053
  C     17.235244   16.576559   19.046104
  C     17.470387   15.197506   19.191906
  C     16.914671   14.487629   20.269529
  C     16.118350   15.163102   21.210262
  C     15.881010   16.537080   21.066283
  O     15.109489   17.190891   21.971122
  C     16.435233   17.240769   19.992234
  H     16.340315   15.148209   13.340001
  H     14.845822   14.296412   12.903675
  H     15.581617   14.005852   14.482319
  H     14.088345   16.499897   13.489004
  H     13.714505   15.490475   14.889678
  H     14.897980   19.410216   15.308998
  H     16.284279   19.057765   14.255617
  H     16.139100   20.635093   15.029577
  H     17.301529   20.986030   16.766143
  H     19.362871   18.372239   19.020579
  H     18.609830   16.747469   17.376070
  H     18.073428   14.671879   18.455262
  H     17.097626   13.419170   20.367790
  H     15.685843   14.618395   22.042771
  H     14.838158   16.544878   22.640239
  H     16.243247   18.304369   19.898759

 Total Charge           Charge          ....    0
 Multiplicity           Mult            ....    1
 Number of Electrons    NEL             ....  154
 Basis Dimension        Dim             ....  828

ORBITAL ENERGIES
----------------

  NO   OCC          E(Eh)            E(eV)
   0   2.0000     -91.886934     -2500.3706
   1   2.0000     -20.602296      -560.6170
   2   2.0000     -20.590538      -560.2970
   3   2.0000     -20.543680      -559.0219
   4   2.0000     -15.627061      -425.2339
   5   2.0000     -15.604638      -424.6238
   6   2.0000     -11.398691      -310.1741
   7   2.0000     -11.381370      -309.7028
   8   2.0000     -11.336431      -308.4800
   9   2.0000     -11.306885      -307.6760
  10   2.0000     -11.306487      -307.6652
  11   2.0000     -11.303057      -307.5718
  12   2.0000     -11.260181      -306.4051
  13   2.0000     -11.258361      -306.3556
  14   2.0000     -11.253747      -306.2300
  15   2.0000     -11.246645      -306.0368
  16   2.0000     -11.236805      -305.7690
  17   2.0000     -11.232829      -305.6608
  18   2.0000     -11.229688      -305.5753
  19   2.0000     -11.225883      -305.4718
  20   2.0000      -8.892031      -241.9645
  21   2.0000      -6.573612      -178.8771
  22   2.0000      -6.571606      -178.8225
  23   2.0000      -6.571021      -178.8066
  24   2.0000      -1.446838       -39.3705
  25   2.0000      -1.410279       -38.3756
  26   2.0000      -1.357227       -36.9320
  27   2.0000      -1.338695       -36.4278
  28   2.0000      -1.235917       -33.6310
  29   2.0000      -1.151016       -31.3207
  30   2.0000      -1.119121       -30.4528
  31   2.0000      -1.041976       -28.3536
  32   2.0000      -1.034569       -28.1521
  33   2.0000      -1.008613       -27.4458
  34   2.0000      -0.997240       -27.1363
  35   2.0000      -0.982184       -26.7266
  36   2.0000      -0.920112       -25.0375
  37   2.0000      -0.897281       -24.4163
  38   2.0000      -0.847182       -23.0530
  39   2.0000      -0.834178       -22.6991
  40   2.0000      -0.826821       -22.4989
  41   2.0000      -0.817328       -22.2406
  42   2.0000      -0.744765       -20.2661
  43   2.0000      -0.728147       -19.8139
  44   2.0000      -0.724444       -19.7131
  45   2.0000      -0.689643       -18.7661
  46   2.0000      -0.684143       -18.6165
  47   2.0000      -0.677914       -18.4470
  48   2.0000      -0.668662       -18.1952
  49   2.0000      -0.667315       -18.1586
  50   2.0000      -0.643812       -17.5190
  51   2.0000      -0.642973       -17.4962
  52   2.0000      -0.632341       -17.2069
  53   2.0000      -0.605379       -16.4732
  54   2.0000      -0.599793       -16.3212
  55   2.0000      -0.597012       -16.2455
  56   2.0000      -0.593523       -16.1506
  57   2.0000      -0.586936       -15.9714
  58   2.0000      -0.571371       -15.5478
  59   2.0000      -0.567660       -15.4468
  60   2.0000      -0.559350       -15.2207
  61   2.0000      -0.544196       -14.8083
  62   2.0000      -0.538204       -14.6453
  63   2.0000      -0.523871       -14.2553
  64   2.0000      -0.514590       -14.0027
  65   2.0000      -0.510379       -13.8881
  66   2.0000      -0.499574       -13.5941
  67   2.0000      -0.493027       -13.4159
  68   2.0000      -0.480227       -13.0676
  69   2.0000      -0.462366       -12.5816
  70   2.0000      -0.454461       -12.3665
  71   2.0000      -0.446293       -12.1443
  72   2.0000      -0.351861        -9.5746
  73   2.0000      -0.343256        -9.3405
  74   2.0000      -0.326083        -8.8732
  75   2.0000      -0.316081        -8.6010
  76   2.0000      -0.313140        -8.5210
  77   0.0000       0.079288         2.1575
  78   0.0000       0.113047         3.0762
  79   0.0000       0.119932         3.2635
  80   0.0000       0.136663         3.7188
  81   0.0000       0.139764         3.8032

MULLIKEN ATOMIC CHARGES
-----------------------
   0 C :   -0.294427
   1 C :    0.048239
   2 O :   -0.354290
   3 C :    0.415675
   4 O :   -0.425615
   5 C :   -0.155689
   6 C :    0.161649
   7 C :   -0.283559
   8 N :   -0.129024
   9 C :    0.207762
  10 S :   -0.444366
  11 N :   -0.210393
  12 C :    0.038177
  13 C :    0.033516
  14 C :   -0.167165
  15 C :   -0.134512
  16 C :   -0.276907
  17 C :    0.314285
  18 O :   -0.359089
  19 C :   -0.249876
  20 H :    0.096858
  21 H :    0.096479
  22 H :    0.124077
  23 H :    0.096907
  24 H :    0.093362
  25 H :    0.131592
  26 H :    0.120896
  27 H :    0.103283
  28 H :    0.198494
  29 H :    0.199734
  30 H :    0.155225
  31 H :    0.158719
  32 H :    0.159314
  33 H :    0.127769
  34 H :    0.239705
  35 H :    0.163194
Sum of atomic charges:    0.0000000

LOEWDIN ATOMIC CHARGES
----------------------
   0 C :    0.102447
   1 C :   -0.009148
   2 O :    0.295684
   3 C :   -0.413878
   4 O :    0.111825
   5 C :   -0.089389
   6 C :   -0.064837
   7 C :    0.124174
   8 N :    0.405004
   9 C :   -0.459020
  10 S :   -0.039157
  11 N :    0.396556
  12 C :   -0.048178
  13 C :   -0.040210
  14 C :    0.024538
  15 C :    0.040713
  16 C :   -0.001219
  17 C :   -0.192263
  18 O :    0.393081
  19 C :    0.030141
  20 H :   -0.027111
  21 H :   -0.028357
  22 H :   -0.024304
  23 H :   -0.026260
  24 H :   -0.027702
  25 H :   -0.009086
  26 H :   -0.010711
  27 H :   -0.021428
  28 H :   -0.059114
  29 H :   -0.063118
  30 H :   -0.008874
  31 H :   -0.024294
  32 H :   -0.021310
  33 H :   -0.036322
  34 H :   -0.155052
  35 H :   -0.023823

  Mayer bond orders larger than 0.100000
B(  0-C ,  1-C ) :   0.9714 B(  0-C , 20-H ) :   0.9759 B(  0-C , 21-H ) :   0.9751
B(  0-C , 22-H ) :   0.9715 B(  1-C ,  2-O ) :   0.9021 B(  1-C , 23-H ) :   0.9825
B(  1-C , 24-H ) :   0.9805 B(  2-O ,  3-C ) :   1.1472 B(  3-C ,  4-O ) :   1.9741
B(  3-C ,  5-C ) :   1.0558 B(  5-C ,  6-C ) :   1.6528 B(  5-C , 12-C ) :   0.9495
B(  6-C ,  7-C ) :   0.9523 B(  6-C ,  8-N ) :   1.1334 B(  7-C , 25-H ) :   0.9627
B(  7-C , 26-H ) :   0.9667 B(  7-C , 27-H ) :   0.9926 B(  8-N ,  9-C ) :   1.1867
B(  8-N , 28-H ) :   0.9472 B(  9-C , 10-S ) :   1.6061 B(  9-C , 11-N ) :   1.3065
B( 11-N , 12-C ) :   0.9774 B( 11-N , 29-H ) :   0.9486 B( 12-C , 13-C ) :   0.9754
B( 12-C , 30-H ) :   0.9974 B( 13-C , 14-C ) :   1.3754 B( 13-C , 19-C ) :   1.3678
B( 14-C , 15-C ) :   1.3973 B( 14-C , 31-H ) :   0.9639 B( 15-C , 16-C ) :   1.3589
B( 15-C , 32-H ) :   0.9714 B( 16-C , 17-C ) :   1.3333 B( 16-C , 33-H ) :   0.9861
B( 17-C , 18-O ) :   1.1030 B( 17-C , 19-C ) :   1.3675 B( 18-O , 34-H ) :   0.9808
B( 19-C , 35-H ) :   0.9600

MP2 TOTAL ENERGY:    -1274.332462925 Eh
FINAL SINGLE POINT ENERGY     -1274.332462925339

DIPOLE MOMENT
-------------
                                X             Y             Z
Electronic contribution:      8.45330       9.72996      12.65325
Nuclear contribution   :    -10.05560     -10.89333     -13.79272
                        -----------------------------------------
Total Dipole Moment    :     -1.60231      -1.16337      -1.13947
                        -----------------------------------------
Magnitude (a.u.)       :      2.28456
Magnitude (Debye)      :      5.80689

Rotational constants in cm-1:     0.009952     0.008859     0.005467
Rotational constants in MHz :   298.352091   265.575785   163.888173

                             ****ORCA TERMINATED NORMALLY****
TOTAL RUN TIME: 0 days 1 hours 54 minutes 22 seconds 42 msec
