                         Program Version 4.2.0 -  RELEASE  -
|  1> ! ri-mp2 cc-pvtz cc-pvtz/c TightSCF NoKeepInts
|  2>
|  3> %scf
|  4>   MaxCore 4096
|  5> end
|  6> *xyz  0  1
|  7>     C       14.6114111   15.2203847   16.0818900
|  8>     C       14.8737776   16.4415822   15.1790640
|  9>     O       16.2181759   16.3580579   14.6614685
| 10>     C       17.2940206   16.5202631   15.4912053
| 11>     O       18.2169623   15.7264742   15.4944414
| 12>     C       17.2281068   17.6833578   16.4316740
| 13>     C       16.9567343   18.9332612   15.9795401
| 14>     C       16.5034987   19.3255724   14.5865939
| 15>     N       17.1756447   20.0482220   16.7914033
| 16>     C       17.8828311   20.0193321   17.9642242
| 17>     S       18.2017412   21.3959244   18.8230346
| 18>     N       18.3331346   18.7896405   18.3770829
| 19>     C       17.9817838   17.5000119   17.7499751
| 20>     C       17.2989030   16.5117623   18.6833715
| 21>     C       17.7351165   15.1763034   18.7454765
| 22>     C       17.0896247   14.2527102   19.5843876
| 23>     C       15.9973514   14.6680225   20.3653076
| 24>     C       15.5575438   15.9973312   20.3009764
| 25>     O       14.4963406   16.3983646   21.0450362
| 26>     C       16.2013014   16.9144642   19.4640235
| 27>     H       15.2448491   15.2430066   16.9770694
| 28>     H       14.8158270   14.2881986   15.5400745
| 29>     H       13.5651445   15.2028113   16.4101615
| 30>     H       14.1656523   16.4220869   14.3404965
| 31>     H       14.7037157   17.3668693   15.7430210
| 32>     H       16.9718095   18.6962256   13.8190098
| 33>     H       16.7769462   20.3598159   14.3421110
| 34>     H       15.4162344   19.2373868   14.4808425
| 35>     H       16.8812188   20.9618221   16.4842019
| 36>     H       18.8453905   18.7944605   19.2503462
| 37>     H       18.9828021   17.1354266   17.4748420
| 38>     H       18.5695643   14.8505557   18.1275922
| 39>     H       17.4337771   13.2204405   19.6217344
| 40>     H       15.4948115   13.9570064   21.0127673
| 41>     H       14.2208855   15.6444756   21.5882982
| 42>     H       15.8443671   17.9383689   19.4252551
| 43> *
| 44>
| 45>                          ****END OF INPUT****

CARTESIAN COORDINATES (ANGSTROEM)
---------------------------------
  C     14.611411   15.220385   16.081890
  C     14.873778   16.441582   15.179064
  O     16.218176   16.358058   14.661468
  C     17.294021   16.520263   15.491205
  O     18.216962   15.726474   15.494441
  C     17.228107   17.683358   16.431674
  C     16.956734   18.933261   15.979540
  C     16.503499   19.325572   14.586594
  N     17.175645   20.048222   16.791403
  C     17.882831   20.019332   17.964224
  S     18.201741   21.395924   18.823035
  N     18.333135   18.789641   18.377083
  C     17.981784   17.500012   17.749975
  C     17.298903   16.511762   18.683371
  C     17.735117   15.176303   18.745476
  C     17.089625   14.252710   19.584388
  C     15.997351   14.668022   20.365308
  C     15.557544   15.997331   20.300976
  O     14.496341   16.398365   21.045036
  C     16.201301   16.914464   19.464023
  H     15.244849   15.243007   16.977069
  H     14.815827   14.288199   15.540074
  H     13.565144   15.202811   16.410162
  H     14.165652   16.422087   14.340497
  H     14.703716   17.366869   15.743021
  H     16.971809   18.696226   13.819010
  H     16.776946   20.359816   14.342111
  H     15.416234   19.237387   14.480842
  H     16.881219   20.961822   16.484202
  H     18.845391   18.794460   19.250346
  H     18.982802   17.135427   17.474842
  H     18.569564   14.850556   18.127592
  H     17.433777   13.220441   19.621734
  H     15.494812   13.957006   21.012767
  H     14.220885   15.644476   21.588298
  H     15.844367   17.938369   19.425255

 Total Charge           Charge          ....    0
 Multiplicity           Mult            ....    1
 Number of Electrons    NEL             ....  154
 Basis Dimension        Dim             ....  828

ORBITAL ENERGIES
----------------

  NO   OCC          E(Eh)            E(eV)
   0   2.0000     -91.890448     -2500.4662
   1   2.0000     -20.598758      -560.5207
   2   2.0000     -20.597145      -560.4768
   3   2.0000     -20.551832      -559.2438
   4   2.0000     -15.629897      -425.3111
   5   2.0000     -15.609234      -424.7489
   6   2.0000     -11.396967      -310.1272
   7   2.0000     -11.385897      -309.8260
   8   2.0000     -11.337417      -308.5068
   9   2.0000     -11.315869      -307.9204
  10   2.0000     -11.308403      -307.7173
  11   2.0000     -11.307107      -307.6820
  12   2.0000     -11.265268      -306.5435
  13   2.0000     -11.262730      -306.4745
  14   2.0000     -11.262539      -306.4693
  15   2.0000     -11.255877      -306.2880
  16   2.0000     -11.245425      -306.0036
  17   2.0000     -11.241359      -305.8929
  18   2.0000     -11.238015      -305.8019
  19   2.0000     -11.228711      -305.5488
  20   2.0000      -8.895540      -242.0599
  21   2.0000      -6.577116      -178.9724
  22   2.0000      -6.575110      -178.9178
  23   2.0000      -6.574522      -178.9018
  24   2.0000      -1.449418       -39.4407
  25   2.0000      -1.418513       -38.5997
  26   2.0000      -1.361436       -37.0465
  27   2.0000      -1.341928       -36.5157
  28   2.0000      -1.239664       -33.7330
  29   2.0000      -1.160172       -31.5699
  30   2.0000      -1.125405       -30.6238
  31   2.0000      -1.047533       -28.5048
  32   2.0000      -1.035199       -28.1692
  33   2.0000      -1.017793       -27.6955
  34   2.0000      -1.005088       -27.3498
  35   2.0000      -0.989425       -26.9236
  36   2.0000      -0.926045       -25.1990
  37   2.0000      -0.891583       -24.2612
  38   2.0000      -0.853911       -23.2361
  39   2.0000      -0.841715       -22.9042
  40   2.0000      -0.835699       -22.7405
  41   2.0000      -0.832573       -22.6555
  42   2.0000      -0.747490       -20.3402
  43   2.0000      -0.737647       -20.0724
  44   2.0000      -0.731449       -19.9037
  45   2.0000      -0.696346       -18.9485
  46   2.0000      -0.687577       -18.7099
  47   2.0000      -0.682207       -18.5638
  48   2.0000      -0.677161       -18.4265
  49   2.0000      -0.661890       -18.0109
  50   2.0000      -0.656409       -17.8618
  51   2.0000      -0.646435       -17.5904
  52   2.0000      -0.637706       -17.3529
  53   2.0000      -0.618041       -16.8178
  54   2.0000      -0.609098       -16.5744
  55   2.0000      -0.605400       -16.4738
  56   2.0000      -0.601892       -16.3783
  57   2.0000      -0.582978       -15.8636
  58   2.0000      -0.576494       -15.6872
  59   2.0000      -0.566951       -15.4275
  60   2.0000      -0.560885       -15.2624
  61   2.0000      -0.550269       -14.9736
  62   2.0000      -0.547307       -14.8930
  63   2.0000      -0.532446       -14.4886
  64   2.0000      -0.520491       -14.1633
  65   2.0000      -0.512492       -13.9456
  66   2.0000      -0.500814       -13.6278
  67   2.0000      -0.498821       -13.5736
  68   2.0000      -0.486515       -13.2387
  69   2.0000      -0.469420       -12.7736
  70   2.0000      -0.459590       -12.5061
  71   2.0000      -0.449225       -12.2240
  72   2.0000      -0.356709        -9.7066
  73   2.0000      -0.351436        -9.5631
  74   2.0000      -0.329745        -8.9728
  75   2.0000      -0.323317        -8.7979
  76   2.0000      -0.320120        -8.7109
  77   0.0000       0.077588         2.1113
  78   0.0000       0.103695         2.8217
  79   0.0000       0.117902         3.2083
  80   0.0000       0.130168         3.5421
  81   0.0000       0.133419         3.6305

MULLIKEN ATOMIC CHARGES
-----------------------
   0 C :   -0.284488
   1 C :    0.016503
   2 O :   -0.345503
   3 C :    0.435473
   4 O :   -0.380642
   5 C :   -0.239841
   6 C :    0.158562
   7 C :   -0.307175
   8 N :   -0.133339
   9 C :    0.207107
  10 S :   -0.440643
  11 N :   -0.217422
  12 C :    0.065410
  13 C :   -0.014197
  14 C :   -0.189589
  15 C :   -0.131760
  16 C :   -0.272903
  17 C :    0.304453
  18 O :   -0.357419
  19 C :   -0.223159
  20 H :    0.112714
  21 H :    0.110844
  22 H :    0.095464
  23 H :    0.120232
  24 H :    0.089993
  25 H :    0.140456
  26 H :    0.117056
  27 H :    0.120757
  28 H :    0.198153
  29 H :    0.201049
  30 H :    0.163514
  31 H :    0.172890
  32 H :    0.163350
  33 H :    0.132207
  34 H :    0.241175
  35 H :    0.170719
Sum of atomic charges:   -0.0000000

LOEWDIN ATOMIC CHARGES
----------------------
   0 C :    0.109651
   1 C :   -0.025583
   2 O :    0.299706
   3 C :   -0.419404
   4 O :    0.124187
   5 C :   -0.092219
   6 C :   -0.079199
   7 C :    0.128414
   8 N :    0.403933
   9 C :   -0.457494
  10 S :   -0.036524
  11 N :    0.396095
  12 C :   -0.049404
  13 C :   -0.045645
  14 C :    0.021607
  15 C :    0.043476
  16 C :   -0.000112
  17 C :   -0.192170
  18 O :    0.394824
  19 C :    0.027335
  20 H :   -0.025483
  21 H :   -0.021936
  22 H :   -0.025669
  23 H :   -0.022880
  24 H :   -0.040000
  25 H :   -0.005900
  26 H :   -0.015347
  27 H :   -0.015620
  28 H :   -0.057888
  29 H :   -0.063424
  30 H :   -0.005307
  31 H :   -0.021513
  32 H :   -0.018915
  33 H :   -0.034780
  34 H :   -0.153351
  35 H :   -0.023459

  Mayer bond orders larger than 0.100000
B(  0-C ,  1-C ) :   0.9790 B(  0-C , 20-H ) :   0.9663 B(  0-C , 21-H ) :   0.9770
B(  0-C , 22-H ) :   0.9765 B(  1-C ,  2-O ) :   0.8964 B(  1-C , 23-H ) :   0.9790
B(  1-C , 24-H ) :   0.9659 B(  2-O ,  3-C ) :   1.1297 B(  3-C ,  4-O ) :   2.0858
B(  3-C ,  5-C ) :   0.9472 B(  5-C ,  6-C ) :   1.7030 B(  5-C , 12-C ) :   0.9385
B(  6-C ,  7-C ) :   0.9385 B(  6-C ,  8-N ) :   1.1238 B(  7-C , 25-H ) :   0.9680
B(  7-C , 26-H ) :   0.9856 B(  7-C , 27-H ) :   0.9660 B(  8-N ,  9-C ) :   1.1899
B(  8-N , 28-H ) :   0.9488 B(  9-C , 10-S ) :   1.6120 B(  9-C , 11-N ) :   1.2954
B( 11-N , 12-C ) :   0.9858 B( 11-N , 29-H ) :   0.9484 B( 12-C , 13-C ) :   0.9673
B( 12-C , 30-H ) :   0.9922 B( 13-C , 14-C ) :   1.3895 B( 13-C , 19-C ) :   1.3607
B( 14-C , 15-C ) :   1.3923 B( 14-C , 31-H ) :   0.9593 B( 15-C , 16-C ) :   1.3608
B( 15-C , 32-H ) :   0.9708 B( 16-C , 17-C ) :   1.3322 B( 16-C , 33-H ) :   0.9845
B( 17-C , 18-O ) :   1.1089 B( 17-C , 19-C ) :   1.3668 B( 18-O , 34-H ) :   0.9795
B( 19-C , 35-H ) :   0.9572

MP2 TOTAL ENERGY:    -1274.332539607 Eh
FINAL SINGLE POINT ENERGY     -1274.332539607059

DIPOLE MOMENT
-------------
                                X             Y             Z
Electronic contribution:      9.30870       8.39953       6.61150
Nuclear contribution   :    -10.93359      -9.42535      -7.03655
                        -----------------------------------------
Total Dipole Moment    :     -1.62489      -1.02582      -0.42505
                        -----------------------------------------
Magnitude (a.u.)       :      1.96806
Magnitude (Debye)      :      5.00240

Rotational constants in cm-1:     0.011604     0.009187     0.006379
Rotational constants in MHz :   347.874634   275.425696   191.251193

                             ****ORCA TERMINATED NORMALLY****
TOTAL RUN TIME: 0 days 1 hours 44 minutes 47 seconds 445 msec
