                         Program Version 4.2.0 -  RELEASE  -
|  1> ! ri-mp2 cc-pvtz cc-pvtz/c TightSCF NoKeepInts
|  2>
|  3> %scf
|  4>   MaxCore 4096
|  5> end
|  6> *xyz  0  1
|  7>     C       14.2708837   14.9446230   15.0699665
|  8>     C       14.8568600   16.3372222   15.3546573
|  9>     O       16.1793954   16.3674641   14.7868476
| 10>     C       17.2463097   16.4806709   15.6298370
| 11>     O       18.1042048   15.6188723   15.6860575
| 12>     C       17.2401577   17.6830764   16.5242055
| 13>     C       16.9617992   18.9225336   16.0471832
| 14>     C       16.4440864   19.2839210   14.6690573
| 15>     N       17.2259702   20.0575353   16.8170526
| 16>     C       17.9757988   20.0543210   17.9631924
| 17>     S       18.3419849   21.4513140   18.7685696
| 18>     N       18.4254977   18.8317070   18.3963889
| 19>     C       18.0378584   17.5286283   17.8207374
| 20>     C       17.3712208   16.5843974   18.8109695
| 21>     C       17.8019756   15.2504689   18.9235663
| 22>     C       17.1765887   14.3713825   19.8234058
| 23>     C       16.1100684   14.8299128   20.6156404
| 24>     C       15.6752341   16.1574525   20.5011729
| 25>     O       14.6396000   16.6005237   21.2574309
| 26>     C       16.2988251   17.0300220   19.6034369
| 27>     H       14.8830762   14.1655369   15.5422671
| 28>     H       14.2395282   14.7505879   13.9904632
| 29>     H       13.2505819   14.8658033   15.4644331
| 30>     H       14.2256460   17.0989919   14.8802077
| 31>     H       14.8697935   16.5177854   16.4386682
| 32>     H       16.9111007   18.6659807   13.8914647
| 33>     H       16.6626465   20.3262819   14.4050120
| 34>     H       15.3586789   19.1483200   14.6058216
| 35>     H       16.9293157   20.9652911   16.4951864
| 36>     H       18.9676946   18.8556652   19.2510686
| 37>     H       19.0240347   17.1413884   17.5239433
| 38>     H       18.6172729   14.8908781   18.2990993
| 39>     H       17.5165818   13.3398932   19.8993172
| 40>     H       15.6234282   14.1534571   21.3105004
| 41>     H       14.3754381   15.8740730   21.8420887
| 42>     H       15.9478626   18.0540170   19.5290830
| 43> *
| 44>
| 45>                          ****END OF INPUT****

CARTESIAN COORDINATES (ANGSTROEM)
---------------------------------
  C     14.270884   14.944623   15.069966
  C     14.856860   16.337222   15.354657
  O     16.179395   16.367464   14.786848
  C     17.246310   16.480671   15.629837
  O     18.104205   15.618872   15.686058
  C     17.240158   17.683076   16.524206
  C     16.961799   18.922534   16.047183
  C     16.444086   19.283921   14.669057
  N     17.225970   20.057535   16.817053
  C     17.975799   20.054321   17.963192
  S     18.341985   21.451314   18.768570
  N     18.425498   18.831707   18.396389
  C     18.037858   17.528628   17.820737
  C     17.371221   16.584397   18.810969
  C     17.801976   15.250469   18.923566
  C     17.176589   14.371382   19.823406
  C     16.110068   14.829913   20.615640
  C     15.675234   16.157453   20.501173
  O     14.639600   16.600524   21.257431
  C     16.298825   17.030022   19.603437
  H     14.883076   14.165537   15.542267
  H     14.239528   14.750588   13.990463
  H     13.250582   14.865803   15.464433
  H     14.225646   17.098992   14.880208
  H     14.869793   16.517785   16.438668
  H     16.911101   18.665981   13.891465
  H     16.662647   20.326282   14.405012
  H     15.358679   19.148320   14.605822
  H     16.929316   20.965291   16.495186
  H     18.967695   18.855665   19.251069
  H     19.024035   17.141388   17.523943
  H     18.617273   14.890878   18.299099
  H     17.516582   13.339893   19.899317
  H     15.623428   14.153457   21.310500
  H     14.375438   15.874073   21.842089
  H     15.947863   18.054017   19.529083

 Total Charge           Charge          ....    0
 Multiplicity           Mult            ....    1
 Number of Electrons    NEL             ....  154
 Basis Dimension        Dim             ....  828

ORBITAL ENERGIES
----------------

  NO   OCC          E(Eh)            E(eV)
   0   2.0000     -91.890264     -2500.4612
   1   2.0000     -20.597455      -560.4853
   2   2.0000     -20.595264      -560.4256
   3   2.0000     -20.552649      -559.2660
   4   2.0000     -15.630134      -425.3176
   5   2.0000     -15.608644      -424.7328
   6   2.0000     -11.396009      -310.1012
   7   2.0000     -11.385518      -309.8157
   8   2.0000     -11.338382      -308.5330
   9   2.0000     -11.314211      -307.8753
  10   2.0000     -11.307350      -307.6886
  11   2.0000     -11.307115      -307.6822
  12   2.0000     -11.264498      -306.5226
  13   2.0000     -11.261866      -306.4510
  14   2.0000     -11.261414      -306.4387
  15   2.0000     -11.254092      -306.2394
  16   2.0000     -11.243733      -305.9575
  17   2.0000     -11.240110      -305.8589
  18   2.0000     -11.236478      -305.7601
  19   2.0000     -11.230365      -305.5938
  20   2.0000      -8.895353      -242.0549
  21   2.0000      -6.576929      -178.9673
  22   2.0000      -6.574923      -178.9128
  23   2.0000      -6.574335      -178.8967
  24   2.0000      -1.451987       -39.5106
  25   2.0000      -1.417205       -38.5641
  26   2.0000      -1.362379       -37.0722
  27   2.0000      -1.341858       -36.5138
  28   2.0000      -1.239364       -33.7248
  29   2.0000      -1.158492       -31.5242
  30   2.0000      -1.124452       -30.5979
  31   2.0000      -1.046499       -28.4767
  32   2.0000      -1.037829       -28.2408
  33   2.0000      -1.016223       -27.6528
  34   2.0000      -1.003979       -27.3197
  35   2.0000      -0.988232       -26.8912
  36   2.0000      -0.924967       -25.1696
  37   2.0000      -0.882487       -24.0137
  38   2.0000      -0.854800       -23.2603
  39   2.0000      -0.842155       -22.9162
  40   2.0000      -0.835266       -22.7287
  41   2.0000      -0.833620       -22.6839
  42   2.0000      -0.755332       -20.5536
  43   2.0000      -0.737883       -20.0788
  44   2.0000      -0.730744       -19.8846
  45   2.0000      -0.695354       -18.9215
  46   2.0000      -0.687668       -18.7124
  47   2.0000      -0.680577       -18.5194
  48   2.0000      -0.676724       -18.4146
  49   2.0000      -0.664271       -18.0757
  50   2.0000      -0.655142       -17.8273
  51   2.0000      -0.646529       -17.5929
  52   2.0000      -0.638906       -17.3855
  53   2.0000      -0.610075       -16.6010
  54   2.0000      -0.604422       -16.4472
  55   2.0000      -0.600975       -16.3534
  56   2.0000      -0.595480       -16.2038
  57   2.0000      -0.581050       -15.8112
  58   2.0000      -0.578670       -15.7464
  59   2.0000      -0.572115       -15.5680
  60   2.0000      -0.562771       -15.3138
  61   2.0000      -0.558253       -15.1908
  62   2.0000      -0.546206       -14.8630
  63   2.0000      -0.523692       -14.2504
  64   2.0000      -0.516886       -14.0652
  65   2.0000      -0.513781       -13.9807
  66   2.0000      -0.501366       -13.6429
  67   2.0000      -0.499173       -13.5832
  68   2.0000      -0.488236       -13.2856
  69   2.0000      -0.470364       -12.7992
  70   2.0000      -0.458612       -12.4795
  71   2.0000      -0.451053       -12.2738
  72   2.0000      -0.356199        -9.6927
  73   2.0000      -0.349995        -9.5239
  74   2.0000      -0.329488        -8.9658
  75   2.0000      -0.321467        -8.7476
  76   2.0000      -0.319706        -8.6997
  77   0.0000       0.076000         2.0681
  78   0.0000       0.104719         2.8496
  79   0.0000       0.119036         3.2391
  80   0.0000       0.131775         3.5858
  81   0.0000       0.135536         3.6881

MULLIKEN ATOMIC CHARGES
-----------------------
   0 C :   -0.250493
   1 C :    0.015170
   2 O :   -0.345969
   3 C :    0.449809
   4 O :   -0.380649
   5 C :   -0.253597
   6 C :    0.173508
   7 C :   -0.308646
   8 N :   -0.132136
   9 C :    0.206210
  10 S :   -0.440498
  11 N :   -0.215638
  12 C :    0.059943
  13 C :    0.026262
  14 C :   -0.199329
  15 C :   -0.129820
  16 C :   -0.277183
  17 C :    0.314357
  18 O :   -0.357405
  19 C :   -0.257322
  20 H :    0.105875
  21 H :    0.098693
  22 H :    0.088626
  23 H :    0.093330
  24 H :    0.105307
  25 H :    0.139074
  26 H :    0.114818
  27 H :    0.120886
  28 H :    0.198285
  29 H :    0.200667
  30 H :    0.161305
  31 H :    0.171332
  32 H :    0.163337
  33 H :    0.130750
  34 H :    0.241037
  35 H :    0.170105
Sum of atomic charges:   -0.0000000

LOEWDIN ATOMIC CHARGES
----------------------
   0 C :    0.109150
   1 C :   -0.022843
   2 O :    0.303394
   3 C :   -0.422185
   4 O :    0.125479
   5 C :   -0.095027
   6 C :   -0.074687
   7 C :    0.128305
   8 N :    0.404433
   9 C :   -0.457799
  10 S :   -0.036338
  11 N :    0.396013
  12 C :   -0.049578
  13 C :   -0.043641
  14 C :    0.022559
  15 C :    0.043220
  16 C :   -0.000436
  17 C :   -0.192989
  18 O :    0.393920
  19 C :    0.026706
  20 H :   -0.021841
  21 H :   -0.024946
  22 H :   -0.027225
  23 H :   -0.034045
  24 H :   -0.030590
  25 H :   -0.006126
  26 H :   -0.016470
  27 H :   -0.015517
  28 H :   -0.057945
  29 H :   -0.063409
  30 H :   -0.005823
  31 H :   -0.021803
  32 H :   -0.019380
  33 H :   -0.035217
  34 H :   -0.153601
  35 H :   -0.023720

  Mayer bond orders larger than 0.100000
B(  0-C ,  1-C ) :   0.9871 B(  0-C , 20-H ) :   0.9768 B(  0-C , 21-H ) :   0.9780
B(  0-C , 22-H ) :   0.9760 B(  1-C ,  2-O ) :   0.8927 B(  1-C , 23-H ) :   0.9779
B(  1-C , 24-H ) :   0.9614 B(  2-O ,  3-C ) :   1.1304 B(  3-C ,  4-O ) :   2.0754
B(  3-C ,  5-C ) :   0.9630 B(  5-C ,  6-C ) :   1.6895 B(  5-C , 12-C ) :   0.9464
B(  6-C ,  7-C ) :   0.9409 B(  6-C ,  8-N ) :   1.1265 B(  7-C , 25-H ) :   0.9663
B(  7-C , 26-H ) :   0.9865 B(  7-C , 27-H ) :   0.9682 B(  8-N ,  9-C ) :   1.1890
B(  8-N , 28-H ) :   0.9484 B(  9-C , 10-S ) :   1.6122 B(  9-C , 11-N ) :   1.2975
B( 11-N , 12-C ) :   0.9854 B( 11-N , 29-H ) :   0.9485 B( 12-C , 13-C ) :   0.9685
B( 12-C , 30-H ) :   0.9924 B( 13-C , 14-C ) :   1.3853 B( 13-C , 19-C ) :   1.3565
B( 14-C , 15-C ) :   1.3943 B( 14-C , 31-H ) :   0.9597 B( 15-C , 16-C ) :   1.3608
B( 15-C , 32-H ) :   0.9703 B( 16-C , 17-C ) :   1.3319 B( 16-C , 33-H ) :   0.9851
B( 17-C , 18-O ) :   1.1073 B( 17-C , 19-C ) :   1.3648 B( 18-O , 34-H ) :   0.9797
B( 19-C , 35-H ) :   0.9580

MP2 TOTAL ENERGY:    -1274.329331237 Eh
FINAL SINGLE POINT ENERGY     -1274.329331237165

DIPOLE MOMENT
-------------
                                X             Y             Z
Electronic contribution:     10.29137       9.22728       8.54346
Nuclear contribution   :    -11.89222     -10.26844      -8.99296
                        -----------------------------------------
Total Dipole Moment    :     -1.60085      -1.04116      -0.44950
                        -----------------------------------------
Magnitude (a.u.)       :      1.96183
Magnitude (Debye)      :      4.98657

Rotational constants in cm-1:     0.010689     0.009189     0.006102
Rotational constants in MHz :   320.457388   275.481473   182.927643

                             ****ORCA TERMINATED NORMALLY****
TOTAL RUN TIME: 0 days 1 hours 38 minutes 25 seconds 507 msec
