                         Program Version 4.2.0 -  RELEASE  -
|  1> ! ri-mp2 cc-pvtz cc-pvtz/c TightSCF NoKeepInts
|  2>
|  3> %scf
|  4>   MaxCore 4096
|  5> end
|  6> *xyz  0  1
|  7>     C       15.4513442   13.9662245   16.2543854
|  8>     C       15.3543311   15.2062672   15.3511158
|  9>     O       16.5463063   15.9896219   15.5287852
| 10>     C       16.4507437   17.3238659   15.2648495
| 11>     O       15.8905096   17.7246517   14.2593450
| 12>     C       16.9461185   18.1945269   16.3886832
| 13>     C       17.0590445   19.5380969   16.2202347
| 14>     C       16.4795284   20.3753475   15.0983419
| 15>     N       17.7783004   20.3205690   17.1262487
| 16>     C       18.5856456   19.8189488   18.1102237
| 17>     S       19.4967243   20.7993589   19.0821466
| 18>     N       18.6212115   18.4534032   18.2317872
| 19>     C       17.7618897   17.5058187   17.4975484
| 20>     C       16.9679152   16.6076210   18.4373994
| 21>     C       17.5275399   15.4017787   18.8991133
| 22>     C       16.8199938   14.5824405   19.7950695
| 23>     C       15.5422283   14.9722375   20.2318427
| 24>     C       14.9847577   16.1753672   19.7771811
| 25>     O       13.7528505   16.5556996   20.1995473
| 26>     C       15.6931300   16.9913264   18.8894472
| 27>     H       16.3792543   13.4145876   16.0594965
| 28>     H       14.6053166   13.2926353   16.0726800
| 29>     H       15.4322317   14.2554291   17.3104841
| 30>     H       15.2523023   14.9113355   14.2982465
| 31>     H       14.4648987   15.7849705   15.6367157
| 32>     H       15.4070581   20.1745976   14.9796808
| 33>     H       16.9658652   20.1337279   14.1445279
| 34>     H       16.5916900   21.4533786   15.2636291
| 35>     H       17.7809956   21.3234359   17.0300896
| 36>     H       19.2008125   18.1150297   18.9892382
| 37>     H       18.5288396   16.9203709   16.9704193
| 38>     H       18.5156204   15.0995333   18.5622988
| 39>     H       17.2612633   13.6514380   20.1470236
| 40>     H       14.9914804   14.3426310   20.9230210
| 41>     H       13.4485921   15.8968699   20.8419131
| 42>     H       15.2506661   17.9268572   18.5652401
| 43> *
| 44>
| 45>                          ****END OF INPUT****

CARTESIAN COORDINATES (ANGSTROEM)
---------------------------------
  C     15.451344   13.966224   16.254385
  C     15.354331   15.206267   15.351116
  O     16.546306   15.989622   15.528785
  C     16.450744   17.323866   15.264849
  O     15.890510   17.724652   14.259345
  C     16.946119   18.194527   16.388683
  C     17.059044   19.538097   16.220235
  C     16.479528   20.375347   15.098342
  N     17.778300   20.320569   17.126249
  C     18.585646   19.818949   18.110224
  S     19.496724   20.799359   19.082147
  N     18.621212   18.453403   18.231787
  C     17.761890   17.505819   17.497548
  C     16.967915   16.607621   18.437399
  C     17.527540   15.401779   18.899113
  C     16.819994   14.582440   19.795069
  C     15.542228   14.972237   20.231843
  C     14.984758   16.175367   19.777181
  O     13.752850   16.555700   20.199547
  C     15.693130   16.991326   18.889447
  H     16.379254   13.414588   16.059497
  H     14.605317   13.292635   16.072680
  H     15.432232   14.255429   17.310484
  H     15.252302   14.911335   14.298246
  H     14.464899   15.784970   15.636716
  H     15.407058   20.174598   14.979681
  H     16.965865   20.133728   14.144528
  H     16.591690   21.453379   15.263629
  H     17.780996   21.323436   17.030090
  H     19.200813   18.115030   18.989238
  H     18.528840   16.920371   16.970419
  H     18.515620   15.099533   18.562299
  H     17.261263   13.651438   20.147024
  H     14.991480   14.342631   20.923021
  H     13.448592   15.896870   20.841913
  H     15.250666   17.926857   18.565240

 Total Charge           Charge          ....    0
 Multiplicity           Mult            ....    1
 Number of Electrons    NEL             ....  154
 Basis Dimension        Dim             ....  828

ORBITAL ENERGIES
----------------

  NO   OCC          E(Eh)            E(eV)
   0   2.0000     -91.890127     -2500.4575
   1   2.0000     -20.601294      -560.5897
   2   2.0000     -20.589950      -560.2810
   3   2.0000     -20.542642      -558.9937
   4   2.0000     -15.630759      -425.3346
   5   2.0000     -15.608112      -424.7183
   6   2.0000     -11.391813      -309.9870
   7   2.0000     -11.384668      -309.7926
   8   2.0000     -11.339570      -308.5654
   9   2.0000     -11.318900      -308.0029
  10   2.0000     -11.309661      -307.7515
  11   2.0000     -11.294232      -307.3317
  12   2.0000     -11.265690      -306.5550
  13   2.0000     -11.259841      -306.3958
  14   2.0000     -11.259322      -306.3817
  15   2.0000     -11.252749      -306.2029
  16   2.0000     -11.247680      -306.0649
  17   2.0000     -11.242603      -305.9268
  18   2.0000     -11.242418      -305.9218
  19   2.0000     -11.222945      -305.3919
  20   2.0000      -8.895183      -242.0502
  21   2.0000      -6.576752      -178.9625
  22   2.0000      -6.574756      -178.9082
  23   2.0000      -6.574163      -178.8921
  24   2.0000      -1.449778       -39.4505
  25   2.0000      -1.420953       -38.6661
  26   2.0000      -1.352141       -36.7936
  27   2.0000      -1.342018       -36.5182
  28   2.0000      -1.240013       -33.7425
  29   2.0000      -1.161497       -31.6059
  30   2.0000      -1.122544       -30.5460
  31   2.0000      -1.045766       -28.4567
  32   2.0000      -1.035004       -28.1639
  33   2.0000      -1.019581       -27.7442
  34   2.0000      -0.998296       -27.1650
  35   2.0000      -0.986035       -26.8314
  36   2.0000      -0.924159       -25.1477
  37   2.0000      -0.882259       -24.0075
  38   2.0000      -0.848589       -23.0913
  39   2.0000      -0.841487       -22.8980
  40   2.0000      -0.837272       -22.7833
  41   2.0000      -0.820447       -22.3255
  42   2.0000      -0.763580       -20.7781
  43   2.0000      -0.736817       -20.0498
  44   2.0000      -0.721742       -19.6396
  45   2.0000      -0.699155       -19.0250
  46   2.0000      -0.686950       -18.6929
  47   2.0000      -0.678569       -18.4648
  48   2.0000      -0.674678       -18.3589
  49   2.0000      -0.665673       -18.1139
  50   2.0000      -0.648059       -17.6346
  51   2.0000      -0.641683       -17.4611
  52   2.0000      -0.637289       -17.3415
  53   2.0000      -0.611693       -16.6450
  54   2.0000      -0.604966       -16.4620
  55   2.0000      -0.602779       -16.4024
  56   2.0000      -0.597015       -16.2456
  57   2.0000      -0.580832       -15.8052
  58   2.0000      -0.571376       -15.5479
  59   2.0000      -0.567017       -15.4293
  60   2.0000      -0.550966       -14.9925
  61   2.0000      -0.550105       -14.9691
  62   2.0000      -0.540416       -14.7055
  63   2.0000      -0.528579       -14.3834
  64   2.0000      -0.516709       -14.0604
  65   2.0000      -0.512091       -13.9347
  66   2.0000      -0.505367       -13.7517
  67   2.0000      -0.499364       -13.5884
  68   2.0000      -0.485338       -13.2067
  69   2.0000      -0.464193       -12.6313
  70   2.0000      -0.454003       -12.3540
  71   2.0000      -0.445319       -12.1177
  72   2.0000      -0.355376        -9.6703
  73   2.0000      -0.353178        -9.6105
  74   2.0000      -0.330062        -8.9814
  75   2.0000      -0.325686        -8.8624
  76   2.0000      -0.320169        -8.7122
  77   0.0000       0.073848         2.0095
  78   0.0000       0.101495         2.7618
  79   0.0000       0.121633         3.3098
  80   0.0000       0.128998         3.5102
  81   0.0000       0.130461         3.5500

MULLIKEN ATOMIC CHARGES
-----------------------
   0 C :   -0.279988
   1 C :    0.039249
   2 O :   -0.359787
   3 C :    0.452612
   4 O :   -0.419957
   5 C :   -0.278973
   6 C :    0.183558
   7 C :   -0.265154
   8 N :   -0.127956
   9 C :    0.218038
  10 S :   -0.441791
  11 N :   -0.225131
  12 C :    0.081817
  13 C :    0.049650
  14 C :   -0.198964
  15 C :   -0.131003
  16 C :   -0.275045
  17 C :    0.309652
  18 O :   -0.357363
  19 C :   -0.239117
  20 H :    0.095066
  21 H :    0.100833
  22 H :    0.106493
  23 H :    0.113678
  24 H :    0.083783
  25 H :    0.132083
  26 H :    0.131415
  27 H :    0.094840
  28 H :    0.199313
  29 H :    0.201311
  30 H :    0.148325
  31 H :    0.153057
  32 H :    0.161486
  33 H :    0.132458
  34 H :    0.241955
  35 H :    0.169556
Sum of atomic charges:   -0.0000000

LOEWDIN ATOMIC CHARGES
----------------------
   0 C :    0.108669
   1 C :   -0.019206
   2 O :    0.299462
   3 C :   -0.421071
   4 O :    0.105616
   5 C :   -0.099423
   6 C :   -0.053395
   7 C :    0.131517
   8 N :    0.408126
   9 C :   -0.455019
  10 S :   -0.035566
  11 N :    0.394001
  12 C :   -0.053771
  13 C :   -0.035153
  14 C :    0.014765
  15 C :    0.043261
  16 C :   -0.001640
  17 C :   -0.190556
  18 O :    0.396147
  19 C :    0.031340
  20 H :   -0.027617
  21 H :   -0.025860
  22 H :   -0.026417
  23 H :   -0.028998
  24 H :   -0.030136
  25 H :   -0.004575
  26 H :   -0.004157
  27 H :   -0.023489
  28 H :   -0.056801
  29 H :   -0.065573
  30 H :   -0.012574
  31 H :   -0.029455
  32 H :   -0.019926
  33 H :   -0.034811
  34 H :   -0.152814
  35 H :   -0.024904

  Mayer bond orders larger than 0.100000
B(  0-C ,  1-C ) :   0.9742 B(  0-C , 20-H ) :   0.9762 B(  0-C , 21-H ) :   0.9799
B(  0-C , 22-H ) :   0.9735 B(  1-C ,  2-O ) :   0.8958 B(  1-C , 23-H ) :   0.9859
B(  1-C , 24-H ) :   0.9706 B(  2-O ,  3-C ) :   1.1321 B(  3-C ,  4-O ) :   1.9978
B(  3-C ,  5-C ) :   1.0668 B(  5-C ,  6-C ) :   1.6219 B(  5-C , 12-C ) :   0.9543
B(  6-C ,  7-C ) :   0.9659 B(  6-C ,  8-N ) :   1.1621 B(  7-C , 25-H ) :   0.9619
B(  7-C , 26-H ) :   0.9573 B(  7-C , 27-H ) :   0.9899 B(  8-N ,  9-C ) :   1.1857
B(  8-N , 28-H ) :   0.9465 B(  9-C , 10-S ) :   1.5995 B(  9-C , 11-N ) :   1.3135
B( 11-N , 12-C ) :   0.9516 B( 11-N , 29-H ) :   0.9474 B( 12-C , 13-C ) :   0.9682
B( 12-C , 30-H ) :   1.0017 B( 13-C , 14-C ) :   1.3552 B( 13-C , 19-C ) :   1.3683
B( 14-C , 15-C ) :   1.3956 B( 14-C , 31-H ) :   0.9724 B( 15-C , 16-C ) :   1.3578
B( 15-C , 32-H ) :   0.9715 B( 16-C , 17-C ) :   1.3334 B( 16-C , 33-H ) :   0.9854
B( 17-C , 18-O ) :   1.1080 B( 17-C , 19-C ) :   1.3614 B( 18-O , 34-H ) :   0.9787
B( 19-C , 35-H ) :   0.9570

MP2 TOTAL ENERGY:    -1274.336266982 Eh
FINAL SINGLE POINT ENERGY     -1274.336266981650

DIPOLE MOMENT
-------------
                                X             Y             Z
Electronic contribution:      7.61205      11.52902       5.43761
Nuclear contribution   :     -8.64651     -13.07081      -5.35866
                        -----------------------------------------
Total Dipole Moment    :     -1.03446      -1.54179       0.07896
                        -----------------------------------------
Magnitude (a.u.)       :      1.85835
Magnitude (Debye)      :      4.72354

Rotational constants in cm-1:     0.012668     0.008313     0.006084
Rotational constants in MHz :   379.772888   249.203584   182.392444

                             ****ORCA TERMINATED NORMALLY****
TOTAL RUN TIME: 0 days 1 hours 43 minutes 26 seconds 40 msec
