                         Program Version 4.2.0 -  RELEASE  -
|  1> ! ri-mp2 cc-pvtz cc-pvtz/c TightSCF NoKeepInts
|  2>
|  3> %scf
|  4>   MaxCore 4096
|  5> end
|  6> *xyz  0  1
|  7>     C       14.5900290   14.7124204   14.9514550
|  8>     C       15.4008405   15.3686223   16.0819974
|  9>     O       16.5178232   16.0489844   15.4831591
| 10>     C       16.4172706   17.3991534   15.3308914
| 11>     O       15.9070565   17.8620620   14.3273970
| 12>     C       16.8886902   18.1980555   16.5203708
| 13>     C       16.8657267   19.5566452   16.4798444
| 14>     C       16.1186811   20.4352470   15.4971326
| 15>     N       17.5734561   20.3200894   17.4107973
| 16>     C       18.5056820   19.8153055   18.2751112
| 17>     S       19.3954834   20.7884835   19.2732663
| 18>     N       18.6830617   18.4558842   18.2517504
| 19>     C       17.8531589   17.4982590   17.4973698
| 20>     C       17.2288321   16.4492254   18.4055865
| 21>     C       17.7969605   15.1660743   18.5088726
| 22>     C       17.2219725   14.1977995   19.3491385
| 23>     C       16.0750794   14.5181395   20.0958835
| 24>     C       15.5158732   15.8001975   20.0044545
| 25>     O       14.4094132   16.1129011   20.7240656
| 26>     C       16.0891884   16.7615649   19.1662815
| 27>     H       14.2003352   15.4734971   14.2632318
| 28>     H       13.7408258   14.1518464   15.3602923
| 29>     H       15.2174522   14.0188669   14.3779143
| 30>     H       14.7701918   16.0567709   16.6615363
| 31>     H       15.7632156   14.5813706   16.7547838
| 32>     H       15.0848581   20.0885535   15.3728652
| 33>     H       16.5961931   20.4015774   14.5092685
| 34>     H       16.0719107   21.4853233   15.8089328
| 35>     H       17.4748629   21.3228373   17.4141921
| 36>     H       19.3604101   18.1099227   18.9197334
| 37>     H       18.6263901   17.0449161   16.8604828
| 38>     H       18.6824034   14.9164083   17.9296420
| 39>     H       17.6655666   13.2058571   19.4208271
| 40>     H       15.6281288   13.7734177   20.7466584
| 41>     H       14.2008569   15.3516586   21.2868552
| 42>     H       15.6491195   17.7520623   19.1159586
| 43> *
| 44>
| 45>                          ****END OF INPUT****

CARTESIAN COORDINATES (ANGSTROEM)
---------------------------------
  C     14.590029   14.712420   14.951455
  C     15.400840   15.368622   16.081997
  O     16.517823   16.048984   15.483159
  C     16.417271   17.399153   15.330891
  O     15.907056   17.862062   14.327397
  C     16.888690   18.198055   16.520371
  C     16.865727   19.556645   16.479844
  C     16.118681   20.435247   15.497133
  N     17.573456   20.320089   17.410797
  C     18.505682   19.815306   18.275111
  S     19.395483   20.788484   19.273266
  N     18.683062   18.455884   18.251750
  C     17.853159   17.498259   17.497370
  C     17.228832   16.449225   18.405586
  C     17.796960   15.166074   18.508873
  C     17.221972   14.197799   19.349138
  C     16.075079   14.518140   20.095883
  C     15.515873   15.800197   20.004455
  O     14.409413   16.112901   20.724066
  C     16.089188   16.761565   19.166282
  H     14.200335   15.473497   14.263232
  H     13.740826   14.151846   15.360292
  H     15.217452   14.018867   14.377914
  H     14.770192   16.056771   16.661536
  H     15.763216   14.581371   16.754784
  H     15.084858   20.088553   15.372865
  H     16.596193   20.401577   14.509268
  H     16.071911   21.485323   15.808933
  H     17.474863   21.322837   17.414192
  H     19.360410   18.109923   18.919733
  H     18.626390   17.044916   16.860483
  H     18.682403   14.916408   17.929642
  H     17.665567   13.205857   19.420827
  H     15.628129   13.773418   20.746658
  H     14.200857   15.351659   21.286855
  H     15.649119   17.752062   19.115959

 Total Charge           Charge          ....    0
 Multiplicity           Mult            ....    1
 Number of Electrons    NEL             ....  154
 Basis Dimension        Dim             ....  828

ORBITAL ENERGIES
----------------

  NO   OCC          E(Eh)            E(eV)
   0   2.0000     -91.891375     -2500.4914
   1   2.0000     -20.603531      -560.6506
   2   2.0000     -20.580702      -560.0294
   3   2.0000     -20.546839      -559.1079
   4   2.0000     -15.631787      -425.3625
   5   2.0000     -15.609574      -424.7581
   6   2.0000     -11.392266      -309.9993
   7   2.0000     -11.385692      -309.8204
   8   2.0000     -11.340397      -308.5879
   9   2.0000     -11.321317      -308.0687
  10   2.0000     -11.311864      -307.8115
  11   2.0000     -11.295030      -307.3534
  12   2.0000     -11.267062      -306.5924
  13   2.0000     -11.262485      -306.4678
  14   2.0000     -11.259951      -306.3988
  15   2.0000     -11.253705      -306.2289
  16   2.0000     -11.251190      -306.1604
  17   2.0000     -11.245591      -306.0081
  18   2.0000     -11.245542      -306.0067
  19   2.0000     -11.218438      -305.2692
  20   2.0000      -8.896425      -242.0840
  21   2.0000      -6.577991      -178.9962
  22   2.0000      -6.575998      -178.9420
  23   2.0000      -6.575402      -178.9258
  24   2.0000      -1.447090       -39.3773
  25   2.0000      -1.423243       -38.7284
  26   2.0000      -1.353496       -36.8305
  27   2.0000      -1.343483       -36.5580
  28   2.0000      -1.241582       -33.7852
  29   2.0000      -1.164263       -31.6812
  30   2.0000      -1.123220       -30.5644
  31   2.0000      -1.048184       -28.5225
  32   2.0000      -1.030373       -28.0379
  33   2.0000      -1.022357       -27.8197
  34   2.0000      -0.999429       -27.1958
  35   2.0000      -0.987422       -26.8691
  36   2.0000      -0.925945       -25.1962
  37   2.0000      -0.878576       -23.9073
  38   2.0000      -0.850959       -23.1558
  39   2.0000      -0.843981       -22.9659
  40   2.0000      -0.840771       -22.8786
  41   2.0000      -0.831275       -22.6201
  42   2.0000      -0.758214       -20.6320
  43   2.0000      -0.738487       -20.0953
  44   2.0000      -0.721421       -19.6309
  45   2.0000      -0.702198       -19.1078
  46   2.0000      -0.691301       -18.8113
  47   2.0000      -0.677833       -18.4448
  48   2.0000      -0.671913       -18.2837
  49   2.0000      -0.661117       -17.9899
  50   2.0000      -0.648615       -17.6497
  51   2.0000      -0.647231       -17.6120
  52   2.0000      -0.639228       -17.3943
  53   2.0000      -0.613679       -16.6991
  54   2.0000      -0.607709       -16.5366
  55   2.0000      -0.603961       -16.4346
  56   2.0000      -0.584712       -15.9108
  57   2.0000      -0.582496       -15.8505
  58   2.0000      -0.579556       -15.7705
  59   2.0000      -0.571800       -15.5595
  60   2.0000      -0.566345       -15.4110
  61   2.0000      -0.543130       -14.7793
  62   2.0000      -0.537915       -14.6374
  63   2.0000      -0.530092       -14.4246
  64   2.0000      -0.517692       -14.0871
  65   2.0000      -0.510980       -13.9045
  66   2.0000      -0.504141       -13.7184
  67   2.0000      -0.495328       -13.4786
  68   2.0000      -0.487942       -13.2776
  69   2.0000      -0.465401       -12.6642
  70   2.0000      -0.455092       -12.3837
  71   2.0000      -0.442787       -12.0488
  72   2.0000      -0.357069        -9.7163
  73   2.0000      -0.355153        -9.6642
  74   2.0000      -0.331619        -9.0238
  75   2.0000      -0.328042        -8.9265
  76   2.0000      -0.321214        -8.7407
  77   0.0000       0.071534         1.9465
  78   0.0000       0.096677         2.6307
  79   0.0000       0.121333         3.3016
  80   0.0000       0.128445         3.4952
  81   0.0000       0.129493         3.5237

MULLIKEN ATOMIC CHARGES
-----------------------
   0 C :   -0.257678
   1 C :    0.012527
   2 O :   -0.376654
   3 C :    0.477418
   4 O :   -0.400574
   5 C :   -0.295989
   6 C :    0.189368
   7 C :   -0.266015
   8 N :   -0.127341
   9 C :    0.211814
  10 S :   -0.439046
  11 N :   -0.216405
  12 C :    0.064640
  13 C :    0.023229
  14 C :   -0.177632
  15 C :   -0.137021
  16 C :   -0.270397
  17 C :    0.313319
  18 O :   -0.356178
  19 C :   -0.243664
  20 H :    0.107153
  21 H :    0.085095
  22 H :    0.094681
  23 H :    0.093669
  24 H :    0.117418
  25 H :    0.128698
  26 H :    0.134299
  27 H :    0.094270
  28 H :    0.199492
  29 H :    0.201363
  30 H :    0.152086
  31 H :    0.152634
  32 H :    0.165955
  33 H :    0.134510
  34 H :    0.242249
  35 H :    0.168708
Sum of atomic charges:   -0.0000000

LOEWDIN ATOMIC CHARGES
----------------------
   0 C :    0.106282
   1 C :   -0.024672
   2 O :    0.293783
   3 C :   -0.425556
   4 O :    0.119088
   5 C :   -0.103750
   6 C :   -0.053473
   7 C :    0.130930
   8 N :    0.408021
   9 C :   -0.457018
  10 S :   -0.033742
  11 N :    0.394612
  12 C :   -0.054463
  13 C :   -0.038992
  14 C :    0.017642
  15 C :    0.041341
  16 C :    0.000318
  17 C :   -0.190992
  18 O :    0.396302
  19 C :    0.034814
  20 H :   -0.024639
  21 H :   -0.030447
  22 H :   -0.026352
  23 H :   -0.032835
  24 H :   -0.025231
  25 H :   -0.005145
  26 H :   -0.003790
  27 H :   -0.023327
  28 H :   -0.056418
  29 H :   -0.064239
  30 H :   -0.011696
  31 H :   -0.027498
  32 H :   -0.019437
  33 H :   -0.033806
  34 H :   -0.152216
  35 H :   -0.023398

  Mayer bond orders larger than 0.100000
B(  0-C ,  1-C ) :   0.9862 B(  0-C , 20-H ) :   0.9756 B(  0-C , 21-H ) :   0.9776
B(  0-C , 22-H ) :   0.9795 B(  1-C ,  2-O ) :   0.8765 B(  1-C , 23-H ) :   0.9678
B(  1-C , 24-H ) :   0.9738 B(  2-O ,  3-C ) :   1.0919 B(  3-C ,  4-O ) :   2.0312
B(  3-C ,  5-C ) :   1.0681 B(  5-C ,  6-C ) :   1.6271 B(  5-C , 12-C ) :   0.9530
B(  6-C ,  7-C ) :   0.9671 B(  6-C ,  8-N ) :   1.1601 B(  7-C , 25-H ) :   0.9639
B(  7-C , 26-H ) :   0.9554 B(  7-C , 27-H ) :   0.9890 B(  8-N ,  9-C ) :   1.1853
B(  8-N , 28-H ) :   0.9464 B(  9-C , 10-S ) :   1.6070 B(  9-C , 11-N ) :   1.3104
B( 11-N , 12-C ) :   0.9586 B( 11-N , 29-H ) :   0.9482 B( 12-C , 13-C ) :   0.9719
B( 12-C , 30-H ) :   1.0025 B( 13-C , 14-C ) :   1.3518 B( 13-C , 19-C ) :   1.3591
B( 14-C , 15-C ) :   1.3932 B( 14-C , 31-H ) :   0.9746 B( 15-C , 16-C ) :   1.3585
B( 15-C , 32-H ) :   0.9691 B( 16-C , 17-C ) :   1.3328 B( 16-C , 33-H ) :   0.9835
B( 17-C , 18-O ) :   1.1074 B( 17-C , 19-C ) :   1.3605 B( 18-O , 34-H ) :   0.9785
B( 19-C , 35-H ) :   0.9610

MP2 TOTAL ENERGY:    -1274.325854495 Eh
FINAL SINGLE POINT ENERGY     -1274.325854494552

DIPOLE MOMENT
-------------
                                X             Y             Z
Electronic contribution:      9.64554       9.92445       7.51071
Nuclear contribution   :    -10.66976     -11.45129      -7.18634
                        -----------------------------------------
Total Dipole Moment    :     -1.02422      -1.52684       0.32437
                        -----------------------------------------
Magnitude (a.u.)       :      1.86694
Magnitude (Debye)      :      4.74540

Rotational constants in cm-1:     0.012104     0.008635     0.006009
Rotational constants in MHz :   362.871958   258.858023   180.149338

                             ****ORCA TERMINATED NORMALLY****
TOTAL RUN TIME: 0 days 2 hours 0 minutes 26 seconds 930 msec
