                         Program Version 4.2.0 -  RELEASE  -
|  1> ! ri-mp2 cc-pvtz cc-pvtz/c TightSCF NoKeepInts
|  2>
|  3> %scf
|  4>   MaxCore 4096
|  5> end
|  6> *xyz  0  1
|  7>     C       14.5974516   15.8486210   16.4020049
|  8>     C       15.1332177   16.1614932   14.9901755
|  9>     O       16.5387429   15.8419799   14.9009237
| 10>     C       17.5755315   16.5182722   15.4978499
| 11>     O       18.7232384   16.1319232   15.3791511
| 12>     C       17.2248003   17.6342959   16.4225905
| 13>     C       16.8854756   18.8426122   15.9120475
| 14>     C       16.5925391   19.1755705   14.4625806
| 15>     N       16.8921820   19.9866187   16.7119378
| 16>     C       17.4813994   20.0551102   17.9468990
| 17>     S       17.5709494   21.4732231   18.7925642
| 18>     N       18.0235209   18.8898079   18.4306021
| 19>     C       17.8619852   17.5584330   17.8122941
| 20>     C       17.2422007   16.4959767   18.7086626
| 21>     C       17.7033560   15.1687167   18.6443941
| 22>     C       17.1251043   14.1715364   19.4471336
| 23>     C       16.0755345   14.5042028   20.3204608
| 24>     C       15.6120660   15.8253811   20.3847543
| 25>     O       14.5924412   16.1472623   21.2197707
| 26>     C       16.1893792   16.8165804   19.5844791
| 27>     H       15.0180693   14.9087669   16.7826482
| 28>     H       13.5057417   15.7463062   16.3796089
| 29>     H       14.8347584   16.6497610   17.1094812
| 30>     H       14.5975949   15.5239657   14.2746751
| 31>     H       14.9209672   17.2002517   14.7199078
| 32>     H       16.8262654   18.3495733   13.7800296
| 33>     H       17.1991892   20.0281425   14.1303120
| 34>     H       15.5377356   19.4418005   14.3230096
| 35>     H       16.5414695   20.8587877   16.3482419
| 36>     H       18.4576786   18.9661886   19.3420381
| 37>     H       18.9186572   17.3091981   17.6321538
| 38>     H       18.5092828   14.9083019   17.9607704
| 39>     H       17.4893476   13.1472063   19.3874672
| 40>     H       15.6249901   13.7365075   20.9409115
| 41>     H       14.3547575   15.3463933   21.7110481
| 42>     H       15.8093792   17.8312314   19.6444207
| 43> *
| 44>
| 45>                          ****END OF INPUT****

CARTESIAN COORDINATES (ANGSTROEM)
---------------------------------
  C     14.597452   15.848621   16.402005
  C     15.133218   16.161493   14.990175
  O     16.538743   15.841980   14.900924
  C     17.575531   16.518272   15.497850
  O     18.723238   16.131923   15.379151
  C     17.224800   17.634296   16.422590
  C     16.885476   18.842612   15.912047
  C     16.592539   19.175570   14.462581
  N     16.892182   19.986619   16.711938
  C     17.481399   20.055110   17.946899
  S     17.570949   21.473223   18.792564
  N     18.023521   18.889808   18.430602
  C     17.861985   17.558433   17.812294
  C     17.242201   16.495977   18.708663
  C     17.703356   15.168717   18.644394
  C     17.125104   14.171536   19.447134
  C     16.075534   14.504203   20.320461
  C     15.612066   15.825381   20.384754
  O     14.592441   16.147262   21.219771
  C     16.189379   16.816580   19.584479
  H     15.018069   14.908767   16.782648
  H     13.505742   15.746306   16.379609
  H     14.834758   16.649761   17.109481
  H     14.597595   15.523966   14.274675
  H     14.920967   17.200252   14.719908
  H     16.826265   18.349573   13.780030
  H     17.199189   20.028142   14.130312
  H     15.537736   19.441800   14.323010
  H     16.541470   20.858788   16.348242
  H     18.457679   18.966189   19.342038
  H     18.918657   17.309198   17.632154
  H     18.509283   14.908302   17.960770
  H     17.489348   13.147206   19.387467
  H     15.624990   13.736508   20.940911
  H     14.354757   15.346393   21.711048
  H     15.809379   17.831231   19.644421

 Total Charge           Charge          ....    0
 Multiplicity           Mult            ....    1
 Number of Electrons    NEL             ....  154
 Basis Dimension        Dim             ....  828

ORBITAL ENERGIES
----------------

  NO   OCC          E(Eh)            E(eV)
   0   2.0000     -91.889678     -2500.4453
   1   2.0000     -20.603217      -560.6420
   2   2.0000     -20.599738      -560.5474
   3   2.0000     -20.551494      -559.2346
   4   2.0000     -15.626735      -425.2251
   5   2.0000     -15.610061      -424.7714
   6   2.0000     -11.401557      -310.2521
   7   2.0000     -11.385737      -309.8217
   8   2.0000     -11.331876      -308.3560
   9   2.0000     -11.317313      -307.9597
  10   2.0000     -11.312136      -307.8189
  11   2.0000     -11.308946      -307.7321
  12   2.0000     -11.269182      -306.6500
  13   2.0000     -11.265567      -306.5517
  14   2.0000     -11.265281      -306.5439
  15   2.0000     -11.257983      -306.3453
  16   2.0000     -11.246137      -306.0229
  17   2.0000     -11.241782      -305.9044
  18   2.0000     -11.239637      -305.8461
  19   2.0000     -11.228705      -305.5486
  20   2.0000      -8.894788      -242.0395
  21   2.0000      -6.576372      -178.9522
  22   2.0000      -6.574356      -178.8973
  23   2.0000      -6.573776      -178.8815
  24   2.0000      -1.447835       -39.3976
  25   2.0000      -1.419452       -38.6253
  26   2.0000      -1.362192       -37.0671
  27   2.0000      -1.340781       -36.4845
  28   2.0000      -1.239537       -33.7295
  29   2.0000      -1.161621       -31.6093
  30   2.0000      -1.126998       -30.6672
  31   2.0000      -1.049025       -28.5454
  32   2.0000      -1.037968       -28.2445
  33   2.0000      -1.019936       -27.7539
  34   2.0000      -1.007148       -27.4059
  35   2.0000      -0.990570       -26.9548
  36   2.0000      -0.927295       -25.2330
  37   2.0000      -0.895909       -24.3789
  38   2.0000      -0.854277       -23.2461
  39   2.0000      -0.842039       -22.9130
  40   2.0000      -0.836895       -22.7731
  41   2.0000      -0.832046       -22.6411
  42   2.0000      -0.750046       -20.4098
  43   2.0000      -0.740455       -20.1488
  44   2.0000      -0.732402       -19.9297
  45   2.0000      -0.697178       -18.9712
  46   2.0000      -0.690203       -18.7814
  47   2.0000      -0.681438       -18.5429
  48   2.0000      -0.674513       -18.3544
  49   2.0000      -0.664774       -18.0894
  50   2.0000      -0.652468       -17.7546
  51   2.0000      -0.644896       -17.5485
  52   2.0000      -0.638419       -17.3723
  53   2.0000      -0.618702       -16.8357
  54   2.0000      -0.613050       -16.6819
  55   2.0000      -0.607834       -16.5400
  56   2.0000      -0.603099       -16.4112
  57   2.0000      -0.589065       -16.0293
  58   2.0000      -0.578328       -15.7371
  59   2.0000      -0.571911       -15.5625
  60   2.0000      -0.564087       -15.3496
  61   2.0000      -0.556945       -15.1552
  62   2.0000      -0.538928       -14.6650
  63   2.0000      -0.534498       -14.5444
  64   2.0000      -0.520454       -14.1623
  65   2.0000      -0.512362       -13.9421
  66   2.0000      -0.506501       -13.7826
  67   2.0000      -0.502306       -13.6684
  68   2.0000      -0.486543       -13.2395
  69   2.0000      -0.465020       -12.6538
  70   2.0000      -0.454885       -12.3780
  71   2.0000      -0.452984       -12.3263
  72   2.0000      -0.357545        -9.7293
  73   2.0000      -0.350014        -9.5244
  74   2.0000      -0.329307        -8.9609
  75   2.0000      -0.325237        -8.8502
  76   2.0000      -0.320032        -8.7085
  77   0.0000       0.089313         2.4303
  78   0.0000       0.104954         2.8560
  79   0.0000       0.113678         3.0933
  80   0.0000       0.125566         3.4168
  81   0.0000       0.129687         3.5290

MULLIKEN ATOMIC CHARGES
-----------------------
   0 C :   -0.312867
   1 C :    0.026492
   2 O :   -0.319378
   3 C :    0.428304
   4 O :   -0.382752
   5 C :   -0.227575
   6 C :    0.149828
   7 C :   -0.335802
   8 N :   -0.141400
   9 C :    0.211163
  10 S :   -0.443669
  11 N :   -0.234605
  12 C :    0.086042
  13 C :    0.021086
  14 C :   -0.232161
  15 C :   -0.132473
  16 C :   -0.275834
  17 C :    0.323167
  18 O :   -0.355412
  19 C :   -0.259901
  20 H :    0.119736
  21 H :    0.109410
  22 H :    0.106887
  23 H :    0.127742
  24 H :    0.085656
  25 H :    0.127791
  26 H :    0.138482
  27 H :    0.123025
  28 H :    0.196578
  29 H :    0.205771
  30 H :    0.170517
  31 H :    0.177247
  32 H :    0.165553
  33 H :    0.132326
  34 H :    0.241278
  35 H :    0.179747
Sum of atomic charges:   -0.0000000

LOEWDIN ATOMIC CHARGES
----------------------
   0 C :    0.105055
   1 C :   -0.020211
   2 O :    0.303672
   3 C :   -0.415505
   4 O :    0.120704
   5 C :   -0.078652
   6 C :   -0.097156
   7 C :    0.122067
   8 N :    0.402226
   9 C :   -0.456790
  10 S :   -0.038830
  11 N :    0.396761
  12 C :   -0.048025
  13 C :   -0.042233
  14 C :    0.018971
  15 C :    0.044989
  16 C :   -0.000541
  17 C :   -0.190367
  18 O :    0.396132
  19 C :    0.028228
  20 H :   -0.020622
  21 H :   -0.026174
  22 H :   -0.034707
  23 H :   -0.019675
  24 H :   -0.037967
  25 H :   -0.008483
  26 H :   -0.008687
  27 H :   -0.018310
  28 H :   -0.057261
  29 H :   -0.063629
  30 H :   -0.002930
  31 H :   -0.021693
  32 H :   -0.018326
  33 H :   -0.034772
  34 H :   -0.153095
  35 H :   -0.024165

  Mayer bond orders larger than 0.100000
B(  0-C ,  1-C ) :   0.9560 B(  0-C , 20-H ) :   0.9702 B(  0-C , 21-H ) :   0.9773
B(  0-C , 22-H ) :   0.9712 B(  1-C ,  2-O ) :   0.9024 B(  1-C , 23-H ) :   0.9844
B(  1-C , 24-H ) :   0.9718 B(  2-O ,  3-C ) :   1.1774 B(  3-C ,  4-O ) :   2.0931
B(  3-C ,  5-C ) :   0.9146 B(  5-C ,  6-C ) :   1.7207 B(  5-C , 12-C ) :   0.9287
B(  6-C ,  7-C ) :   0.9355 B(  6-C ,  8-N ) :   1.1043 B(  7-C , 25-H ) :   0.9783
B(  7-C , 26-H ) :   0.9709 B(  7-C , 27-H ) :   0.9673 B(  8-N ,  9-C ) :   1.2012
B(  8-N , 28-H ) :   0.9519 B(  9-C , 10-S ) :   1.6073 B(  9-C , 11-N ) :   1.2897
B( 11-N , 12-C ) :   0.9747 B( 11-N , 29-H ) :   0.9460 B( 12-C , 13-C ) :   0.9714
B( 12-C , 30-H ) :   0.9881 B( 13-C , 14-C ) :   1.3846 B( 13-C , 19-C ) :   1.3409
B( 14-C , 15-C ) :   1.4001 B( 14-C , 31-H ) :   0.9593 B( 15-C , 16-C ) :   1.3585
B( 15-C , 32-H ) :   0.9692 B( 16-C , 17-C ) :   1.3320 B( 16-C , 33-H ) :   0.9846
B( 17-C , 18-O ) :   1.1099 B( 17-C , 19-C ) :   1.3608 B( 18-O , 34-H ) :   0.9793
B( 19-C , 35-H ) :   0.9558

MP2 TOTAL ENERGY:    -1274.326703266 Eh
FINAL SINGLE POINT ENERGY     -1274.326703266269

DIPOLE MOMENT
-------------
                                X             Y             Z
Electronic contribution:      8.44461       7.24155       6.75401
Nuclear contribution   :    -10.06267      -8.48945      -7.31597
                        -----------------------------------------
Total Dipole Moment    :     -1.61806      -1.24790      -0.56196
                        -----------------------------------------
Magnitude (a.u.)       :      2.11924
Magnitude (Debye)      :      5.38667

Rotational constants in cm-1:     0.011720     0.009237     0.006427
Rotational constants in MHz :   351.355504   276.904069   192.684586

                             ****ORCA TERMINATED NORMALLY****
TOTAL RUN TIME: 0 days 1 hours 46 minutes 39 seconds 381 msec
