                         Program Version 4.2.0 -  RELEASE  -
|  1> ! ri-mp2 cc-pvtz cc-pvtz/c TightSCF NoKeepInts
|  2>
|  3> %scf
|  4>   MaxCore 4096
|  5> end
|  6> *xyz  0  1
|  7>     C       13.7224663   15.8462258   13.9763018
|  8>     C       15.0646396   15.4368275   14.6055861
|  9>     O       15.7564337   16.6421109   14.9671656
| 10>     C       16.8151924   16.5441269   15.8202198
| 11>     O       17.4754455   15.5222778   15.9119194
| 12>     C       17.0055279   17.7213431   16.7350653
| 13>     C       16.6565887   18.9886828   16.3870114
| 14>     C       15.8335594   19.4367254   15.1949010
| 15>     N       17.0971806   20.0811789   17.1385671
| 16>     C       18.0590905   20.0166141   18.1100513
| 17>     S       18.6115619   21.3705572   18.8827950
| 18>     N       18.5572899   18.7703026   18.3925998
| 19>     C       18.0372979   17.5007093   17.8489955
| 20>     C       17.5704415   16.5334681   18.9289425
| 21>     C       18.1019100   15.2335389   19.0065955
| 22>     C       17.6717287   14.3440218   20.0054578
| 23>     C       16.7028965   14.7586886   20.9354085
| 24>     C       16.1703506   16.0530686   20.8590793
| 25>     O       15.2319404   16.4546789   21.7531951
| 26>     C       16.6001569   16.9359174   19.8632020
| 27>     H       13.1211456   16.4244974   14.6887792
| 28>     H       13.1486881   14.9582976   13.6840155
| 29>     H       13.8861675   16.4592553   13.0813068
| 30>     H       14.8757865   14.8222226   15.4967052
| 31>     H       15.6628494   14.8492571   13.8961778
| 32>     H       16.2808310   19.0838358   14.2571346
| 33>     H       15.7505033   20.5277676   15.1195291
| 34>     H       14.8137353   19.0364701   15.2553410
| 35>     H       16.7570939   21.0055863   16.9272462
| 36>     H       19.2498403   18.7468954   19.1304438
| 37>     H       18.9393579   17.1178598   17.3497705
| 38>     H       18.8400502   14.9075057   18.2775828
| 39>     H       18.0853344   13.3382224   20.0515377
| 40>     H       16.3668592   14.0744643   21.7073110
| 41>     H       15.0877221   15.7218265   22.3703595
| 42>     H       16.1793363   17.9349713   19.8216995
| 43> *
| 44>
| 45>                          ****END OF INPUT****

CARTESIAN COORDINATES (ANGSTROEM)
---------------------------------
  C     13.722466   15.846226   13.976302
  C     15.064640   15.436827   14.605586
  O     15.756434   16.642111   14.967166
  C     16.815192   16.544127   15.820220
  O     17.475445   15.522278   15.911919
  C     17.005528   17.721343   16.735065
  C     16.656589   18.988683   16.387011
  C     15.833559   19.436725   15.194901
  N     17.097181   20.081179   17.138567
  C     18.059090   20.016614   18.110051
  S     18.611562   21.370557   18.882795
  N     18.557290   18.770303   18.392600
  C     18.037298   17.500709   17.848995
  C     17.570442   16.533468   18.928943
  C     18.101910   15.233539   19.006595
  C     17.671729   14.344022   20.005458
  C     16.702897   14.758689   20.935409
  C     16.170351   16.053069   20.859079
  O     15.231940   16.454679   21.753195
  C     16.600157   16.935917   19.863202
  H     13.121146   16.424497   14.688779
  H     13.148688   14.958298   13.684015
  H     13.886168   16.459255   13.081307
  H     14.875787   14.822223   15.496705
  H     15.662849   14.849257   13.896178
  H     16.280831   19.083836   14.257135
  H     15.750503   20.527768   15.119529
  H     14.813735   19.036470   15.255341
  H     16.757094   21.005586   16.927246
  H     19.249840   18.746895   19.130444
  H     18.939358   17.117860   17.349771
  H     18.840050   14.907506   18.277583
  H     18.085334   13.338222   20.051538
  H     16.366859   14.074464   21.707311
  H     15.087722   15.721826   22.370359
  H     16.179336   17.934971   19.821700

 Total Charge           Charge          ....    0
 Multiplicity           Mult            ....    1
 Number of Electrons    NEL             ....  154
 Basis Dimension        Dim             ....  828

ORBITAL ENERGIES
----------------

  NO   OCC          E(Eh)            E(eV)
   0   2.0000     -91.888083     -2500.4019
   1   2.0000     -20.601172      -560.5864
   2   2.0000     -20.591742      -560.3298
   3   2.0000     -20.546125      -559.0885
   4   2.0000     -15.628732      -425.2794
   5   2.0000     -15.605686      -424.6523
   6   2.0000     -11.394450      -310.0587
   7   2.0000     -11.382617      -309.7368
   8   2.0000     -11.338368      -308.5327
   9   2.0000     -11.307680      -307.6976
  10   2.0000     -11.304198      -307.6029
  11   2.0000     -11.300197      -307.4940
  12   2.0000     -11.260789      -306.4216
  13   2.0000     -11.259203      -306.3785
  14   2.0000     -11.254914      -306.2618
  15   2.0000     -11.247698      -306.0654
  16   2.0000     -11.237950      -305.8002
  17   2.0000     -11.235599      -305.7362
  18   2.0000     -11.234096      -305.6953
  19   2.0000     -11.230786      -305.6052
  20   2.0000      -8.893166      -241.9954
  21   2.0000      -6.574743      -178.9079
  22   2.0000      -6.572740      -178.8534
  23   2.0000      -6.572152      -178.8374
  24   2.0000      -1.455535       -39.6071
  25   2.0000      -1.411489       -38.4086
  26   2.0000      -1.357221       -36.9319
  27   2.0000      -1.339974       -36.4625
  28   2.0000      -1.237085       -33.6628
  29   2.0000      -1.152317       -31.3561
  30   2.0000      -1.120852       -30.4999
  31   2.0000      -1.045066       -28.4377
  32   2.0000      -1.036987       -28.2178
  33   2.0000      -1.009852       -27.4795
  34   2.0000      -0.998904       -27.1816
  35   2.0000      -0.984049       -26.7773
  36   2.0000      -0.920631       -25.0516
  37   2.0000      -0.887773       -24.1575
  38   2.0000      -0.847076       -23.0501
  39   2.0000      -0.834851       -22.7174
  40   2.0000      -0.827943       -22.5295
  41   2.0000      -0.819377       -22.2964
  42   2.0000      -0.762215       -20.7409
  43   2.0000      -0.736133       -20.0312
  44   2.0000      -0.726086       -19.7578
  45   2.0000      -0.690238       -18.7823
  46   2.0000      -0.683660       -18.6033
  47   2.0000      -0.682264       -18.5653
  48   2.0000      -0.676167       -18.3994
  49   2.0000      -0.659142       -17.9362
  50   2.0000      -0.650162       -17.6918
  51   2.0000      -0.641519       -17.4566
  52   2.0000      -0.633403       -17.2358
  53   2.0000      -0.603413       -16.4197
  54   2.0000      -0.600787       -16.3483
  55   2.0000      -0.598161       -16.2768
  56   2.0000      -0.595081       -16.1930
  57   2.0000      -0.577227       -15.7071
  58   2.0000      -0.572995       -15.5920
  59   2.0000      -0.564633       -15.3644
  60   2.0000      -0.561512       -15.2795
  61   2.0000      -0.554135       -15.0788
  62   2.0000      -0.543170       -14.7804
  63   2.0000      -0.518424       -14.1070
  64   2.0000      -0.515898       -14.0383
  65   2.0000      -0.511816       -13.9272
  66   2.0000      -0.505659       -13.7597
  67   2.0000      -0.494207       -13.4481
  68   2.0000      -0.480838       -13.0843
  69   2.0000      -0.464263       -12.6333
  70   2.0000      -0.460534       -12.5318
  71   2.0000      -0.453455       -12.3391
  72   2.0000      -0.353159        -9.6100
  73   2.0000      -0.344480        -9.3738
  74   2.0000      -0.327144        -8.9020
  75   2.0000      -0.317229        -8.6322
  76   2.0000      -0.314283        -8.5521
  77   0.0000       0.076501         2.0817
  78   0.0000       0.111528         3.0348
  79   0.0000       0.120433         3.2771
  80   0.0000       0.135611         3.6902
  81   0.0000       0.138260         3.7622

MULLIKEN ATOMIC CHARGES
-----------------------
   0 C :   -0.276114
   1 C :    0.048198
   2 O :   -0.339442
   3 C :    0.411788
   4 O :   -0.415622
   5 C :   -0.170740
   6 C :    0.157768
   7 C :   -0.283373
   8 N :   -0.128769
   9 C :    0.207381
  10 S :   -0.442286
  11 N :   -0.210736
  12 C :    0.042514
  13 C :    0.031964
  14 C :   -0.166564
  15 C :   -0.134557
  16 C :   -0.277282
  17 C :    0.313843
  18 O :   -0.359195
  19 C :   -0.251689
  20 H :    0.094978
  21 H :    0.101616
  22 H :    0.095963
  23 H :    0.088233
  24 H :    0.099420
  25 H :    0.126370
  26 H :    0.103699
  27 H :    0.128485
  28 H :    0.198868
  29 H :    0.199979
  30 H :    0.155236
  31 H :    0.158650
  32 H :    0.160015
  33 H :    0.128210
  34 H :    0.239934
  35 H :    0.163257
Sum of atomic charges:   -0.0000000

LOEWDIN ATOMIC CHARGES
----------------------
   0 C :    0.107154
   1 C :   -0.018316
   2 O :    0.305066
   3 C :   -0.416827
   4 O :    0.107282
   5 C :   -0.092649
   6 C :   -0.064354
   7 C :    0.125285
   8 N :    0.405500
   9 C :   -0.458591
  10 S :   -0.037534
  11 N :    0.396438
  12 C :   -0.048248
  13 C :   -0.040571
  14 C :    0.025208
  15 C :    0.040987
  16 C :   -0.001266
  17 C :   -0.192698
  18 O :    0.392966
  19 C :    0.029428
  20 H :   -0.027909
  21 H :   -0.022768
  22 H :   -0.027669
  23 H :   -0.027162
  24 H :   -0.028564
  25 H :   -0.009213
  26 H :   -0.021133
  27 H :   -0.009855
  28 H :   -0.058719
  29 H :   -0.063108
  30 H :   -0.008164
  31 H :   -0.023917
  32 H :   -0.021029
  33 H :   -0.036196
  34 H :   -0.154891
  35 H :   -0.023963

  Mayer bond orders larger than 0.100000
B(  0-C ,  1-C ) :   0.9706 B(  0-C , 20-H ) :   0.9773 B(  0-C , 21-H ) :   0.9787
B(  0-C , 22-H ) :   0.9773 B(  1-C ,  2-O ) :   0.9102 B(  1-C , 23-H ) :   0.9739
B(  1-C , 24-H ) :   0.9802 B(  2-O ,  3-C ) :   1.1376 B(  3-C ,  4-O ) :   1.9992
B(  3-C ,  5-C ) :   1.0381 B(  5-C ,  6-C ) :   1.6556 B(  5-C , 12-C ) :   0.9501
B(  6-C ,  7-C ) :   0.9540 B(  6-C ,  8-N ) :   1.1344 B(  7-C , 25-H ) :   0.9650
B(  7-C , 26-H ) :   0.9915 B(  7-C , 27-H ) :   0.9633 B(  8-N ,  9-C ) :   1.1852
B(  8-N , 28-H ) :   0.9468 B(  9-C , 10-S ) :   1.6083 B(  9-C , 11-N ) :   1.3066
B( 11-N , 12-C ) :   0.9762 B( 11-N , 29-H ) :   0.9485 B( 12-C , 13-C ) :   0.9734
B( 12-C , 30-H ) :   0.9970 B( 13-C , 14-C ) :   1.3763 B( 13-C , 19-C ) :   1.3653
B( 14-C , 15-C ) :   1.3975 B( 14-C , 31-H ) :   0.9638 B( 15-C , 16-C ) :   1.3585
B( 15-C , 32-H ) :   0.9712 B( 16-C , 17-C ) :   1.3334 B( 16-C , 33-H ) :   0.9860
B( 17-C , 18-O ) :   1.1034 B( 17-C , 19-C ) :   1.3677 B( 18-O , 34-H ) :   0.9806
B( 19-C , 35-H ) :   0.9603

MP2 TOTAL ENERGY:    -1274.339438189 Eh
FINAL SINGLE POINT ENERGY     -1274.339438189485

DIPOLE MOMENT
-------------
                                X             Y             Z
Electronic contribution:     11.18610       8.54555      11.72029
Nuclear contribution   :    -12.62841      -9.89201     -12.70641
                        -----------------------------------------
Total Dipole Moment    :     -1.44231      -1.34645      -0.98612
                        -----------------------------------------
Magnitude (a.u.)       :      2.20582
Magnitude (Debye)      :      5.60674

Rotational constants in cm-1:     0.009694     0.008987     0.005575
Rotational constants in MHz :   290.631162   269.432511   167.147080

                             ****ORCA TERMINATED NORMALLY****
TOTAL RUN TIME: 0 days 1 hours 34 minutes 19 seconds 920 msec
