                         Program Version 4.2.0 -  RELEASE  -
|  1> ! ri-mp2 cc-pvtz cc-pvtz/c TightSCF NoKeepInts
|  2>
|  3> %scf
|  4>   MaxCore 4096
|  5> end
|  6> *xyz  0  1
|  7>     C       13.7381558   16.4536020   14.5821347
|  8>     C       14.8106632   16.1169982   15.6338272
|  9>     O       16.0913709   16.0975048   14.9700535
| 10>     C       17.2471555   16.4984333   15.5895390
| 11>     O       18.2983221   15.9210291   15.3820380
| 12>     C       17.1419857   17.6140138   16.5806639
| 13>     C       16.6818280   18.8350045   16.2129998
| 14>     C       16.0337937   19.2201661   14.9001838
| 15>     N       16.8595537   19.9446836   17.0414252
| 16>     C       17.6948715   19.9684778   18.1267997
| 17>     S       17.9491511   21.3490121   19.0006730
| 18>     N       18.3289169   18.7904620   18.4358109
| 19>     C       18.0577112   17.4863102   17.7988110
| 20>     C       17.6087676   16.3931961   18.7569473
| 21>     C       18.1719146   15.1070750   18.6771583
| 22>     C       17.7478865   14.0869206   19.5449391
| 23>     C       16.7500568   14.3548846   20.4978259
| 24>     C       16.1823363   15.6341582   20.5744199
| 25>     O       15.2116914   15.8930005   21.4863100
| 26>     C       16.6053357   16.6476320   19.7082425
| 27>     H       12.7467886   16.5082984   15.0483228
| 28>     H       13.7071755   15.6756071   13.8088420
| 29>     H       13.9400476   17.4109932   14.0907087
| 30>     H       14.7639373   16.8700623   16.4296630
| 31>     H       14.6089553   15.1366358   16.0856318
| 32>     H       16.2356204   18.4955843   14.1023946
| 33>     H       16.4155652   20.1835450   14.5383743
| 34>     H       14.9476490   19.3141030   15.0134994
| 35>     H       16.4301953   20.8250475   16.8035792
| 36>     H       18.9363662   18.8322727   19.2447154
| 37>     H       19.0562836   17.2533653   17.3994682
| 38>     H       18.9347597   14.8958623   17.9302205
| 39>     H       18.1898962   13.0944673   19.4732259
| 40>     H       16.4189779   13.5691689   21.1689222
| 41>     H       15.0908789   15.0914946   22.0176943
| 42>     H       16.1524351   17.6309278   19.7819349
| 43> *
| 44>
| 45>                          ****END OF INPUT****

CARTESIAN COORDINATES (ANGSTROEM)
---------------------------------
  C     13.738156   16.453602   14.582135
  C     14.810663   16.116998   15.633827
  O     16.091371   16.097505   14.970054
  C     17.247156   16.498433   15.589539
  O     18.298322   15.921029   15.382038
  C     17.141986   17.614014   16.580664
  C     16.681828   18.835004   16.213000
  C     16.033794   19.220166   14.900184
  N     16.859554   19.944684   17.041425
  C     17.694872   19.968478   18.126800
  S     17.949151   21.349012   19.000673
  N     18.328917   18.790462   18.435811
  C     18.057711   17.486310   17.798811
  C     17.608768   16.393196   18.756947
  C     18.171915   15.107075   18.677158
  C     17.747886   14.086921   19.544939
  C     16.750057   14.354885   20.497826
  C     16.182336   15.634158   20.574420
  O     15.211691   15.893000   21.486310
  C     16.605336   16.647632   19.708243
  H     12.746789   16.508298   15.048323
  H     13.707175   15.675607   13.808842
  H     13.940048   17.410993   14.090709
  H     14.763937   16.870062   16.429663
  H     14.608955   15.136636   16.085632
  H     16.235620   18.495584   14.102395
  H     16.415565   20.183545   14.538374
  H     14.947649   19.314103   15.013499
  H     16.430195   20.825048   16.803579
  H     18.936366   18.832273   19.244715
  H     19.056284   17.253365   17.399468
  H     18.934760   14.895862   17.930221
  H     18.189896   13.094467   19.473226
  H     16.418978   13.569169   21.168922
  H     15.090879   15.091495   22.017694
  H     16.152435   17.630928   19.781935

 Total Charge           Charge          ....    0
 Multiplicity           Mult            ....    1
 Number of Electrons    NEL             ....  154
 Basis Dimension        Dim             ....  828

ORBITAL ENERGIES
----------------

  NO   OCC          E(Eh)            E(eV)
   0   2.0000     -91.889821     -2500.4492
   1   2.0000     -20.602051      -560.6103
   2   2.0000     -20.598430      -560.5118
   3   2.0000     -20.551078      -559.2233
   4   2.0000     -15.628339      -425.2687
   5   2.0000     -15.609164      -424.7469
   6   2.0000     -11.398776      -310.1765
   7   2.0000     -11.385571      -309.8171
   8   2.0000     -11.335111      -308.4441
   9   2.0000     -11.315473      -307.9097
  10   2.0000     -11.309079      -307.7357
  11   2.0000     -11.306861      -307.6753
  12   2.0000     -11.266372      -306.5736
  13   2.0000     -11.264591      -306.5251
  14   2.0000     -11.263112      -306.4849
  15   2.0000     -11.255604      -306.2806
  16   2.0000     -11.244748      -305.9852
  17   2.0000     -11.241030      -305.8840
  18   2.0000     -11.238316      -305.8101
  19   2.0000     -11.237922      -305.7994
  20   2.0000      -8.894927      -242.0433
  21   2.0000      -6.576509      -178.9559
  22   2.0000      -6.574496      -178.9011
  23   2.0000      -6.573913      -178.8853
  24   2.0000      -1.449620       -39.4462
  25   2.0000      -1.418140       -38.5896
  26   2.0000      -1.362141       -37.0657
  27   2.0000      -1.341417       -36.5018
  28   2.0000      -1.239435       -33.7267
  29   2.0000      -1.159935       -31.5634
  30   2.0000      -1.125827       -30.6353
  31   2.0000      -1.047483       -28.5035
  32   2.0000      -1.043342       -28.3908
  33   2.0000      -1.017735       -27.6940
  34   2.0000      -1.005608       -27.3640
  35   2.0000      -0.989368       -26.9221
  36   2.0000      -0.925822       -25.1929
  37   2.0000      -0.886041       -24.1104
  38   2.0000      -0.854320       -23.2472
  39   2.0000      -0.842742       -22.9322
  40   2.0000      -0.836685       -22.7674
  41   2.0000      -0.834783       -22.7156
  42   2.0000      -0.759531       -20.6679
  43   2.0000      -0.739188       -20.1143
  44   2.0000      -0.731847       -19.9146
  45   2.0000      -0.695880       -18.9358
  46   2.0000      -0.688484       -18.7346
  47   2.0000      -0.684101       -18.6153
  48   2.0000      -0.674095       -18.3431
  49   2.0000      -0.663842       -18.0641
  50   2.0000      -0.652099       -17.7445
  51   2.0000      -0.643420       -17.5083
  52   2.0000      -0.639801       -17.4099
  53   2.0000      -0.616960       -16.7883
  54   2.0000      -0.607946       -16.5431
  55   2.0000      -0.605969       -16.4893
  56   2.0000      -0.601656       -16.3719
  57   2.0000      -0.585243       -15.9253
  58   2.0000      -0.577055       -15.7025
  59   2.0000      -0.570309       -15.5189
  60   2.0000      -0.561588       -15.2816
  61   2.0000      -0.558674       -15.2023
  62   2.0000      -0.543075       -14.7778
  63   2.0000      -0.536529       -14.5997
  64   2.0000      -0.522236       -14.2108
  65   2.0000      -0.514780       -14.0079
  66   2.0000      -0.501839       -13.6557
  67   2.0000      -0.500496       -13.6192
  68   2.0000      -0.488041       -13.2803
  69   2.0000      -0.468728       -12.7547
  70   2.0000      -0.461229       -12.5507
  71   2.0000      -0.450644       -12.2626
  72   2.0000      -0.356432        -9.6990
  73   2.0000      -0.350718        -9.5435
  74   2.0000      -0.329250        -8.9594
  75   2.0000      -0.323015        -8.7897
  76   2.0000      -0.319700        -8.6995
  77   0.0000       0.082271         2.2387
  78   0.0000       0.104498         2.8435
  79   0.0000       0.116882         3.1805
  80   0.0000       0.131124         3.5681
  81   0.0000       0.131254         3.5716

MULLIKEN ATOMIC CHARGES
-----------------------
   0 C :   -0.272940
   1 C :    0.018753
   2 O :   -0.329699
   3 C :    0.427467
   4 O :   -0.378982
   5 C :   -0.236847
   6 C :    0.169797
   7 C :   -0.344458
   8 N :   -0.138233
   9 C :    0.206398
  10 S :   -0.442627
  11 N :   -0.219141
  12 C :    0.056914
  13 C :    0.026778
  14 C :   -0.214267
  15 C :   -0.128063
  16 C :   -0.277089
  17 C :    0.313613
  18 O :   -0.356687
  19 C :   -0.251505
  20 H :    0.095862
  21 H :    0.109207
  22 H :    0.093514
  23 H :    0.100773
  24 H :    0.122102
  25 H :    0.139000
  26 H :    0.136270
  27 H :    0.124902
  28 H :    0.198523
  29 H :    0.201921
  30 H :    0.166364
  31 H :    0.174739
  32 H :    0.164143
  33 H :    0.130943
  34 H :    0.241193
  35 H :    0.171362
Sum of atomic charges:   -0.0000000

LOEWDIN ATOMIC CHARGES
----------------------
   0 C :    0.107459
   1 C :   -0.016859
   2 O :    0.303262
   3 C :   -0.415079
   4 O :    0.123058
   5 C :   -0.087392
   6 C :   -0.087132
   7 C :    0.126045
   8 N :    0.403429
   9 C :   -0.457470
  10 S :   -0.037978
  11 N :    0.396189
  12 C :   -0.049461
  13 C :   -0.043911
  14 C :    0.020813
  15 C :    0.044181
  16 C :   -0.000176
  17 C :   -0.191653
  18 O :    0.394415
  19 C :    0.026900
  20 H :   -0.023895
  21 H :   -0.023515
  22 H :   -0.032172
  23 H :   -0.038667
  24 H :   -0.026073
  25 H :   -0.009043
  26 H :   -0.010943
  27 H :   -0.016959
  28 H :   -0.056926
  29 H :   -0.063379
  30 H :   -0.004685
  31 H :   -0.021413
  32 H :   -0.018917
  33 H :   -0.035028
  34 H :   -0.153376
  35 H :   -0.023649

  Mayer bond orders larger than 0.100000
B(  0-C ,  1-C ) :   0.9715 B(  0-C , 20-H ) :   0.9752 B(  0-C , 21-H ) :   0.9781
B(  0-C , 22-H ) :   0.9786 B(  1-C ,  2-O ) :   0.9014 B(  1-C , 23-H ) :   0.9620
B(  1-C , 24-H ) :   0.9809 B(  2-O ,  3-C ) :   1.1622 B(  3-C ,  4-O ) :   2.0962
B(  3-C ,  5-C ) :   0.9374 B(  5-C ,  6-C ) :   1.7112 B(  5-C , 12-C ) :   0.9436
B(  6-C ,  7-C ) :   0.9318 B(  6-C ,  8-N ) :   1.1111 B(  7-C , 25-H ) :   0.9742
B(  7-C , 26-H ) :   0.9789 B(  7-C , 27-H ) :   0.9650 B(  8-N ,  9-C ) :   1.1945
B(  8-N , 28-H ) :   0.9506 B(  9-C , 10-S ) :   1.6106 B(  9-C , 11-N ) :   1.2937
B( 11-N , 12-C ) :   0.9855 B( 11-N , 29-H ) :   0.9479 B( 12-C , 13-C ) :   0.9705
B( 12-C , 30-H ) :   0.9905 B( 13-C , 14-C ) :   1.3836 B( 13-C , 19-C ) :   1.3552
B( 14-C , 15-C ) :   1.3937 B( 14-C , 31-H ) :   0.9597 B( 15-C , 16-C ) :   1.3616
B( 15-C , 32-H ) :   0.9698 B( 16-C , 17-C ) :   1.3310 B( 16-C , 33-H ) :   0.9852
B( 17-C , 18-O ) :   1.1077 B( 17-C , 19-C ) :   1.3674 B( 18-O , 34-H ) :   0.9795
B( 19-C , 35-H ) :   0.9569

MP2 TOTAL ENERGY:    -1274.330287421 Eh
FINAL SINGLE POINT ENERGY     -1274.330287420573

DIPOLE MOMENT
-------------
                                X             Y             Z
Electronic contribution:     11.17735       5.87958       9.60277
Nuclear contribution   :    -12.80397      -7.04812      -9.93415
                        -----------------------------------------
Total Dipole Moment    :     -1.62662      -1.16854      -0.33138
                        -----------------------------------------
Magnitude (a.u.)       :      2.03007
Magnitude (Debye)      :      5.16003

Rotational constants in cm-1:     0.010301     0.009186     0.006193
Rotational constants in MHz :   308.831190   275.383576   185.666307

                             ****ORCA TERMINATED NORMALLY****
TOTAL RUN TIME: 0 days 1 hours 42 minutes 13 seconds 251 msec
