                         Program Version 4.2.0 -  RELEASE  -
|  1> ! ri-mp2 cc-pvtz cc-pvtz/c TightSCF NoKeepInts
|  2>
|  3> %scf
|  4>   MaxCore 4096
|  5> end
|  6> *xyz  0  1
|  7>     C       15.0162640   14.5009194   16.5177669
|  8>     C       15.5191315   15.2191893   15.2566380
|  9>     O       16.8179661   15.7937663   15.5024432
| 10>     C       16.9711166   17.1002875   15.1491653
| 11>     O       16.8768487   17.4303459   13.9803092
| 12>     C       17.0534153   18.0533095   16.3116622
| 13>     C       16.9827516   19.3925600   16.0901669
| 14>     C       16.4482708   20.0928215   14.8573002
| 15>     N       17.4092659   20.3095102   17.0529460
| 16>     C       18.1468419   19.9798667   18.1564717
| 17>     S       18.7365668   21.1260462   19.1927015
| 18>     N       18.3959283   18.6443975   18.3428247
| 19>     C       17.7955693   17.5455212   17.5620632
| 20>     C       17.0477763   16.5667186   18.4539496
| 21>     C       17.5536490   15.2737145   18.6817126
| 22>     C       16.8972688   14.3963066   19.5616905
| 23>     C       15.7307128   14.8182435   20.2228399
| 24>     C       15.2316953   16.1101900   20.0054674
| 25>     O       14.1080449   16.5212960   20.6448230
| 26>     C       15.8870810   16.9814142   19.1293091
| 27>     H       15.7681547   13.7947852   16.8900456
| 28>     H       14.1004289   13.9395293   16.2975537
| 29>     H       14.7839519   15.2217414   17.3075904
| 30>     H       15.5930048   14.5038467   14.4271338
| 31>     H       14.7906145   15.9906897   14.9699507
| 32>     H       15.5374088   19.6014835   14.4927446
| 33>     H       17.1862103   20.0597633   14.0452518
| 34>     H       16.1960700   21.1442306   15.0391702
| 35>     H       17.2630010   21.2954049   16.9054785
| 36>     H       18.9223156   18.4282703   19.1800922
| 37>     H       18.7153841   17.0832509   17.1763356
| 38>     H       18.4577420   14.9479398   18.1739337
| 39>     H       17.2935298   13.3962880   19.7296510
| 40>     H       15.2209223   14.1440244   20.9032434
| 41>     H       13.8338278   15.8081129   21.2409557
| 42>     H       15.4982686   17.9842144   18.9866179
| 43> *
| 44>
| 45>                          ****END OF INPUT****

CARTESIAN COORDINATES (ANGSTROEM)
---------------------------------
  C     15.016264   14.500919   16.517767
  C     15.519132   15.219189   15.256638
  O     16.817966   15.793766   15.502443
  C     16.971117   17.100288   15.149165
  O     16.876849   17.430346   13.980309
  C     17.053415   18.053310   16.311662
  C     16.982752   19.392560   16.090167
  C     16.448271   20.092821   14.857300
  N     17.409266   20.309510   17.052946
  C     18.146842   19.979867   18.156472
  S     18.736567   21.126046   19.192701
  N     18.395928   18.644398   18.342825
  C     17.795569   17.545521   17.562063
  C     17.047776   16.566719   18.453950
  C     17.553649   15.273714   18.681713
  C     16.897269   14.396307   19.561691
  C     15.730713   14.818243   20.222840
  C     15.231695   16.110190   20.005467
  O     14.108045   16.521296   20.644823
  C     15.887081   16.981414   19.129309
  H     15.768155   13.794785   16.890046
  H     14.100429   13.939529   16.297554
  H     14.783952   15.221741   17.307590
  H     15.593005   14.503847   14.427134
  H     14.790615   15.990690   14.969951
  H     15.537409   19.601484   14.492745
  H     17.186210   20.059763   14.045252
  H     16.196070   21.144231   15.039170
  H     17.263001   21.295405   16.905479
  H     18.922316   18.428270   19.180092
  H     18.715384   17.083251   17.176336
  H     18.457742   14.947940   18.173934
  H     17.293530   13.396288   19.729651
  H     15.220922   14.144024   20.903243
  H     13.833828   15.808113   21.240956
  H     15.498269   17.984214   18.986618

 Total Charge           Charge          ....    0
 Multiplicity           Mult            ....    1
 Number of Electrons    NEL             ....  154
 Basis Dimension        Dim             ....  828

ORBITAL ENERGIES
----------------

  NO   OCC          E(Eh)            E(eV)
   0   2.0000     -91.890914     -2500.4789
   1   2.0000     -20.600095      -560.5571
   2   2.0000     -20.583692      -560.1107
   3   2.0000     -20.547378      -559.1226
   4   2.0000     -15.631016      -425.3416
   5   2.0000     -15.608837      -424.7380
   6   2.0000     -11.392394      -310.0028
   7   2.0000     -11.385037      -309.8026
   8   2.0000     -11.339289      -308.5577
   9   2.0000     -11.317409      -307.9624
  10   2.0000     -11.311512      -307.8019
  11   2.0000     -11.296929      -307.4051
  12   2.0000     -11.264098      -306.5117
  13   2.0000     -11.259755      -306.3935
  14   2.0000     -11.258181      -306.3507
  15   2.0000     -11.253738      -306.2298
  16   2.0000     -11.247226      -306.0526
  17   2.0000     -11.242153      -305.9145
  18   2.0000     -11.241465      -305.8958
  19   2.0000     -11.220872      -305.3355
  20   2.0000      -8.895955      -242.0712
  21   2.0000      -6.577520      -178.9834
  22   2.0000      -6.575530      -178.9293
  23   2.0000      -6.574931      -178.9130
  24   2.0000      -1.449114       -39.4324
  25   2.0000      -1.419842       -38.6359
  26   2.0000      -1.352651       -36.8075
  27   2.0000      -1.342910       -36.5424
  28   2.0000      -1.240905       -33.7667
  29   2.0000      -1.160628       -31.5823
  30   2.0000      -1.122715       -30.5506
  31   2.0000      -1.045557       -28.4510
  32   2.0000      -1.033375       -28.1196
  33   2.0000      -1.018676       -27.7196
  34   2.0000      -0.999701       -27.2033
  35   2.0000      -0.986982       -26.8571
  36   2.0000      -0.924541       -25.1580
  37   2.0000      -0.882111       -24.0035
  38   2.0000      -0.848486       -23.0885
  39   2.0000      -0.841350       -22.8943
  40   2.0000      -0.837536       -22.7905
  41   2.0000      -0.823079       -22.3971
  42   2.0000      -0.762491       -20.7484
  43   2.0000      -0.736263       -20.0347
  44   2.0000      -0.722473       -19.6595
  45   2.0000      -0.698384       -19.0040
  46   2.0000      -0.688579       -18.7372
  47   2.0000      -0.678288       -18.4572
  48   2.0000      -0.674015       -18.3409
  49   2.0000      -0.666010       -18.1231
  50   2.0000      -0.647748       -17.6261
  51   2.0000      -0.643690       -17.5157
  52   2.0000      -0.635370       -17.2893
  53   2.0000      -0.610029       -16.5997
  54   2.0000      -0.604224       -16.4418
  55   2.0000      -0.601972       -16.3805
  56   2.0000      -0.595150       -16.1949
  57   2.0000      -0.579694       -15.7743
  58   2.0000      -0.572807       -15.5869
  59   2.0000      -0.567191       -15.4341
  60   2.0000      -0.561916       -15.2905
  61   2.0000      -0.547353       -14.8942
  62   2.0000      -0.541546       -14.7362
  63   2.0000      -0.526329       -14.3222
  64   2.0000      -0.515208       -14.0195
  65   2.0000      -0.512519       -13.9464
  66   2.0000      -0.504318       -13.7232
  67   2.0000      -0.501329       -13.6419
  68   2.0000      -0.481913       -13.1135
  69   2.0000      -0.463803       -12.6207
  70   2.0000      -0.452447       -12.3117
  71   2.0000      -0.447557       -12.1786
  72   2.0000      -0.355288        -9.6679
  73   2.0000      -0.352408        -9.5895
  74   2.0000      -0.329952        -8.9784
  75   2.0000      -0.324763        -8.8373
  76   2.0000      -0.320518        -8.7217
  77   0.0000       0.071094         1.9346
  78   0.0000       0.100283         2.7288
  79   0.0000       0.121956         3.3186
  80   0.0000       0.129494         3.5237
  81   0.0000       0.132201         3.5974

MULLIKEN ATOMIC CHARGES
-----------------------
   0 C :   -0.303492
   1 C :    0.052254
   2 O :   -0.370190
   3 C :    0.440804
   4 O :   -0.395642
   5 C :   -0.242007
   6 C :    0.175451
   7 C :   -0.266269
   8 N :   -0.127087
   9 C :    0.207878
  10 S :   -0.438035
  11 N :   -0.210902
  12 C :    0.041203
  13 C :    0.020465
  14 C :   -0.159178
  15 C :   -0.147109
  16 C :   -0.262732
  17 C :    0.301162
  18 O :   -0.359817
  19 C :   -0.234984
  20 H :    0.102607
  21 H :    0.112225
  22 H :    0.106040
  23 H :    0.108277
  24 H :    0.083296
  25 H :    0.125266
  26 H :    0.136118
  27 H :    0.094252
  28 H :    0.200353
  29 H :    0.200757
  30 H :    0.151977
  31 H :    0.151787
  32 H :    0.165648
  33 H :    0.133322
  34 H :    0.241148
  35 H :    0.165155
Sum of atomic charges:   -0.0000000

LOEWDIN ATOMIC CHARGES
----------------------
   0 C :    0.106286
   1 C :   -0.015045
   2 O :    0.290385
   3 C :   -0.426521
   4 O :    0.117609
   5 C :   -0.103147
   6 C :   -0.054413
   7 C :    0.129968
   8 N :    0.408033
   9 C :   -0.458280
  10 S :   -0.033259
  11 N :    0.395839
  12 C :   -0.054134
  13 C :   -0.040870
  14 C :    0.021372
  15 C :    0.044633
  16 C :    0.000691
  17 C :   -0.191877
  18 O :    0.396150
  19 C :    0.031352
  20 H :   -0.027529
  21 H :   -0.026508
  22 H :   -0.027999
  23 H :   -0.027539
  24 H :   -0.029844
  25 H :   -0.006374
  26 H :   -0.004204
  27 H :   -0.023068
  28 H :   -0.056455
  29 H :   -0.063465
  30 H :   -0.012120
  31 H :   -0.028175
  32 H :   -0.020549
  33 H :   -0.034755
  34 H :   -0.153119
  35 H :   -0.023066

  Mayer bond orders larger than 0.100000
B(  0-C ,  1-C ) :   0.9725 B(  0-C , 20-H ) :   0.9719 B(  0-C , 21-H ) :   0.9794
B(  0-C , 22-H ) :   0.9737 B(  1-C ,  2-O ) :   0.8923 B(  1-C , 23-H ) :   0.9880
B(  1-C , 24-H ) :   0.9730 B(  2-O ,  3-C ) :   1.1059 B(  3-C ,  4-O ) :   2.0459
B(  3-C ,  5-C ) :   1.0523 B(  5-C ,  6-C ) :   1.6176 B(  5-C , 12-C ) :   0.9670
B(  6-C ,  7-C ) :   0.9648 B(  6-C ,  8-N ) :   1.1500 B(  7-C , 25-H ) :   0.9675
B(  7-C , 26-H ) :   0.9547 B(  7-C , 27-H ) :   0.9880 B(  8-N ,  9-C ) :   1.1862
B(  8-N , 28-H ) :   0.9472 B(  9-C , 10-S ) :   1.6116 B(  9-C , 11-N ) :   1.3055
B( 11-N , 12-C ) :   0.9691 B( 11-N , 29-H ) :   0.9485 B( 12-C , 13-C ) :   0.9577
B( 12-C , 30-H ) :   1.0053 B( 13-C , 14-C ) :   1.3570 B( 13-C , 19-C ) :   1.3710
B( 14-C , 15-C ) :   1.3876 B( 14-C , 31-H ) :   0.9722 B( 15-C , 16-C ) :   1.3566
B( 15-C , 32-H ) :   0.9705 B( 16-C , 17-C ) :   1.3342 B( 16-C , 33-H ) :   0.9840
B( 17-C , 18-O ) :   1.1054 B( 17-C , 19-C ) :   1.3644 B( 18-O , 34-H ) :   0.9792
B( 19-C , 35-H ) :   0.9610

MP2 TOTAL ENERGY:    -1274.324013094 Eh
FINAL SINGLE POINT ENERGY     -1274.324013094054

DIPOLE MOMENT
-------------
                                X             Y             Z
Electronic contribution:      8.31897      10.78733       5.55674
Nuclear contribution   :     -9.46776     -12.36201      -5.54971
                        -----------------------------------------
Total Dipole Moment    :     -1.14879      -1.57468       0.00703
                        -----------------------------------------
Magnitude (a.u.)       :      1.94920
Magnitude (Debye)      :      4.95448

Rotational constants in cm-1:     0.012241     0.008874     0.006055
Rotational constants in MHz :   366.988613   266.028278   181.537203

                             ****ORCA TERMINATED NORMALLY****
TOTAL RUN TIME: 0 days 1 hours 42 minutes 56 seconds 554 msec
