                         Program Version 4.2.0 -  RELEASE  -
|  1> ! ri-mp2 cc-pvtz cc-pvtz/c TightSCF NoKeepInts
|  2>
|  3> %scf
|  4>   MaxCore 4096
|  5> end
|  6> *xyz  0  1
|  7>     C       14.7993948   14.6029040   14.6090632
|  8>     C       15.2731742   15.2621056   15.9162140
|  9>     O       16.3870400   16.1161043   15.6061436
| 10>     C       16.1487673   17.4560129   15.5270262
| 11>     O       15.3666623   17.9103342   14.7110505
| 12>     C       16.8218251   18.2427343   16.6198549
| 13>     C       16.8563560   19.5996318   16.5771783
| 14>     C       16.0613040   20.5076008   15.6617334
| 15>     N       17.6961976   20.3255457   17.4248407
| 16>     C       18.6703774   19.7709233   18.2098691
| 17>     S       19.6957889   20.6965964   19.1193577
| 18>     N       18.7679338   18.4027852   18.1865661
| 19>     C       17.8362264   17.4900364   17.4981204
| 20>     C       17.2168125   16.4678978   18.4420556
| 21>     C       17.6983205   15.1462539   18.4767150
| 22>     C       17.1216278   14.1993984   19.3398401
| 23>     C       16.0583222   14.5789598   20.1769351
| 24>     C       15.5824742   15.8972109   20.1495677
| 25>     O       14.5564544   16.2666304   20.9565425
| 26>     C       16.1573568   16.8369754   19.2883033
| 27>     H       14.4512751   15.3624317   13.8973187
| 28>     H       13.9708175   13.9116061   14.8041284
| 29>     H       15.6160975   14.0396598   14.1409848
| 30>     H       14.4546910   15.8254323   16.3857331
| 31>     H       15.5946688   14.4792252   16.6150714
| 32>     H       14.9893733   20.2814027   15.7287377
| 33>     H       16.3617239   20.3617117   14.6161985
| 34>     H       16.1853163   21.5713414   15.8964100
| 35>     H       17.6511303   21.3320430   17.4326382
| 36>     H       19.4768593   18.0214922   18.8001714
| 37>     H       18.5245817   16.9980429   16.7960105
| 38>     H       18.5174519   14.8507501   17.8261155
| 39>     H       17.4993540   13.1783461   19.3592940
| 40>     H       15.6104981   13.8514902   20.8462019
| 41>     H       14.3302758   15.5040381   21.5102646
| 42>     H       15.7804694   17.8543449   19.2857440
| 43> *
| 44>
| 45>                          ****END OF INPUT****

CARTESIAN COORDINATES (ANGSTROEM)
---------------------------------
  C     14.799395   14.602904   14.609063
  C     15.273174   15.262106   15.916214
  O     16.387040   16.116104   15.606144
  C     16.148767   17.456013   15.527026
  O     15.366662   17.910334   14.711051
  C     16.821825   18.242734   16.619855
  C     16.856356   19.599632   16.577178
  C     16.061304   20.507601   15.661733
  N     17.696198   20.325546   17.424841
  C     18.670377   19.770923   18.209869
  S     19.695789   20.696596   19.119358
  N     18.767934   18.402785   18.186566
  C     17.836226   17.490036   17.498120
  C     17.216812   16.467898   18.442056
  C     17.698320   15.146254   18.476715
  C     17.121628   14.199398   19.339840
  C     16.058322   14.578960   20.176935
  C     15.582474   15.897211   20.149568
  O     14.556454   16.266630   20.956542
  C     16.157357   16.836975   19.288303
  H     14.451275   15.362432   13.897319
  H     13.970818   13.911606   14.804128
  H     15.616098   14.039660   14.140985
  H     14.454691   15.825432   16.385733
  H     15.594669   14.479225   16.615071
  H     14.989373   20.281403   15.728738
  H     16.361724   20.361712   14.616198
  H     16.185316   21.571341   15.896410
  H     17.651130   21.332043   17.432638
  H     19.476859   18.021492   18.800171
  H     18.524582   16.998043   16.796011
  H     18.517452   14.850750   17.826116
  H     17.499354   13.178346   19.359294
  H     15.610498   13.851490   20.846202
  H     14.330276   15.504038   21.510265
  H     15.780469   17.854345   19.285744

 Total Charge           Charge          ....    0
 Multiplicity           Mult            ....    1
 Number of Electrons    NEL             ....  154
 Basis Dimension        Dim             ....  828

ORBITAL ENERGIES
----------------

  NO   OCC          E(Eh)            E(eV)
   0   2.0000     -91.890473     -2500.4669
   1   2.0000     -20.601076      -560.5838
   2   2.0000     -20.584851      -560.1423
   3   2.0000     -20.545628      -559.0750
   4   2.0000     -15.631074      -425.3432
   5   2.0000     -15.608576      -424.7310
   6   2.0000     -11.393017      -310.0198
   7   2.0000     -11.385116      -309.8048
   8   2.0000     -11.339231      -308.5562
   9   2.0000     -11.318778      -307.9996
  10   2.0000     -11.309509      -307.7474
  11   2.0000     -11.295500      -307.3662
  12   2.0000     -11.265079      -306.5384
  13   2.0000     -11.260007      -306.4004
  14   2.0000     -11.258675      -306.3641
  15   2.0000     -11.253221      -306.2157
  16   2.0000     -11.248320      -306.0824
  17   2.0000     -11.243351      -305.9471
  18   2.0000     -11.242990      -305.9373
  19   2.0000     -11.218210      -305.2630
  20   2.0000      -8.895531      -242.0597
  21   2.0000      -6.577099      -178.9720
  22   2.0000      -6.575104      -178.9177
  23   2.0000      -6.574510      -178.9015
  24   2.0000      -1.448777       -39.4232
  25   2.0000      -1.420749       -38.6605
  26   2.0000      -1.353751       -36.8374
  27   2.0000      -1.342105       -36.5205
  28   2.0000      -1.240068       -33.7440
  29   2.0000      -1.161898       -31.6169
  30   2.0000      -1.122637       -30.5485
  31   2.0000      -1.046194       -28.4684
  32   2.0000      -1.032159       -28.0865
  33   2.0000      -1.019789       -27.7499
  34   2.0000      -0.997601       -27.1461
  35   2.0000      -0.986064       -26.8322
  36   2.0000      -0.924329       -25.1523
  37   2.0000      -0.881857       -23.9966
  38   2.0000      -0.849102       -23.1052
  39   2.0000      -0.841779       -22.9060
  40   2.0000      -0.838398       -22.8140
  41   2.0000      -0.826475       -22.4895
  42   2.0000      -0.758847       -20.6493
  43   2.0000      -0.736618       -20.0444
  44   2.0000      -0.722970       -19.6730
  45   2.0000      -0.699716       -19.0402
  46   2.0000      -0.690387       -18.7864
  47   2.0000      -0.678368       -18.4593
  48   2.0000      -0.672013       -18.2864
  49   2.0000      -0.654463       -17.8088
  50   2.0000      -0.648458       -17.6454
  51   2.0000      -0.644753       -17.5446
  52   2.0000      -0.636136       -17.3102
  53   2.0000      -0.611392       -16.6368
  54   2.0000      -0.605924       -16.4880
  55   2.0000      -0.602449       -16.3935
  56   2.0000      -0.595137       -16.1945
  57   2.0000      -0.582125       -15.8404
  58   2.0000      -0.575484       -15.6597
  59   2.0000      -0.570324       -15.5193
  60   2.0000      -0.566055       -15.4031
  61   2.0000      -0.541669       -14.7396
  62   2.0000      -0.535004       -14.5582
  63   2.0000      -0.528046       -14.3689
  64   2.0000      -0.516175       -14.0458
  65   2.0000      -0.510736       -13.8978
  66   2.0000      -0.502421       -13.6716
  67   2.0000      -0.496623       -13.5138
  68   2.0000      -0.489049       -13.3077
  69   2.0000      -0.464386       -12.6366
  70   2.0000      -0.454508       -12.3678
  71   2.0000      -0.444035       -12.0828
  72   2.0000      -0.355680        -9.6785
  73   2.0000      -0.353242        -9.6122
  74   2.0000      -0.330091        -8.9822
  75   2.0000      -0.325861        -8.8671
  76   2.0000      -0.319980        -8.7071
  77   0.0000       0.072178         1.9641
  78   0.0000       0.099938         2.7195
  79   0.0000       0.123360         3.3568
  80   0.0000       0.130374         3.5477
  81   0.0000       0.132358         3.6016

MULLIKEN ATOMIC CHARGES
-----------------------
   0 C :   -0.265191
   1 C :    0.029197
   2 O :   -0.373492
   3 C :    0.458407
   4 O :   -0.417099
   5 C :   -0.269101
   6 C :    0.186504
   7 C :   -0.266290
   8 N :   -0.126600
   9 C :    0.213128
  10 S :   -0.440137
  11 N :   -0.218436
  12 C :    0.077692
  13 C :    0.025829
  14 C :   -0.189167
  15 C :   -0.132492
  16 C :   -0.273798
  17 C :    0.310577
  18 O :   -0.355592
  19 C :   -0.238349
  20 H :    0.113294
  21 H :    0.086128
  22 H :    0.090620
  23 H :    0.089295
  24 H :    0.114525
  25 H :    0.132538
  26 H :    0.130733
  27 H :    0.094925
  28 H :    0.199362
  29 H :    0.201224
  30 H :    0.151991
  31 H :    0.154116
  32 H :    0.165130
  33 H :    0.133247
  34 H :    0.241571
  35 H :    0.165711
Sum of atomic charges:   -0.0000000

LOEWDIN ATOMIC CHARGES
----------------------
   0 C :    0.105302
   1 C :   -0.019490
   2 O :    0.298157
   3 C :   -0.421538
   4 O :    0.110761
   5 C :   -0.100227
   6 C :   -0.054437
   7 C :    0.131778
   8 N :    0.407704
   9 C :   -0.455786
  10 S :   -0.034888
  11 N :    0.394147
  12 C :   -0.054621
  13 C :   -0.038100
  14 C :    0.017246
  15 C :    0.039996
  16 C :   -0.000823
  17 C :   -0.190067
  18 O :    0.395927
  19 C :    0.032931
  20 H :   -0.023833
  21 H :   -0.030426
  22 H :   -0.028397
  23 H :   -0.030134
  24 H :   -0.026657
  25 H :   -0.004442
  26 H :   -0.004182
  27 H :   -0.023386
  28 H :   -0.056838
  29 H :   -0.064662
  30 H :   -0.012308
  31 H :   -0.028066
  32 H :   -0.020202
  33 H :   -0.034553
  34 H :   -0.152909
  35 H :   -0.022979

  Mayer bond orders larger than 0.100000
B(  0-C ,  1-C ) :   0.9862 B(  0-C , 20-H ) :   0.9751 B(  0-C , 21-H ) :   0.9777
B(  0-C , 22-H ) :   0.9779 B(  1-C ,  2-O ) :   0.8800 B(  1-C , 23-H ) :   0.9702
B(  1-C , 24-H ) :   0.9742 B(  2-O ,  3-C ) :   1.0951 B(  3-C ,  4-O ) :   1.9940
B(  3-C ,  5-C ) :   1.0823 B(  5-C ,  6-C ) :   1.6247 B(  5-C , 12-C ) :   0.9503
B(  6-C ,  7-C ) :   0.9661 B(  6-C ,  8-N ) :   1.1599 B(  7-C , 25-H ) :   0.9611
B(  7-C , 26-H ) :   0.9580 B(  7-C , 27-H ) :   0.9901 B(  8-N ,  9-C ) :   1.1850
B(  8-N , 28-H ) :   0.9461 B(  9-C , 10-S ) :   1.6057 B(  9-C , 11-N ) :   1.3111
B( 11-N , 12-C ) :   0.9619 B( 11-N , 29-H ) :   0.9482 B( 12-C , 13-C ) :   0.9647
B( 12-C , 30-H ) :   1.0012 B( 13-C , 14-C ) :   1.3486 B( 13-C , 19-C ) :   1.3720
B( 14-C , 15-C ) :   1.3926 B( 14-C , 31-H ) :   0.9734 B( 15-C , 16-C ) :   1.3571
B( 15-C , 32-H ) :   0.9695 B( 16-C , 17-C ) :   1.3333 B( 16-C , 33-H ) :   0.9840
B( 17-C , 18-O ) :   1.1070 B( 17-C , 19-C ) :   1.3666 B( 18-O , 34-H ) :   0.9789
B( 19-C , 35-H ) :   0.9597

MP2 TOTAL ENERGY:    -1274.331351842 Eh
FINAL SINGLE POINT ENERGY     -1274.331351842487

DIPOLE MOMENT
-------------
                                X             Y             Z
Electronic contribution:      9.49289      10.30167       8.52594
Nuclear contribution   :    -10.48459     -11.86904      -8.45566
                        -----------------------------------------
Total Dipole Moment    :     -0.99171      -1.56737       0.07028
                        -----------------------------------------
Magnitude (a.u.)       :      1.85609
Magnitude (Debye)      :      4.71780

Rotational constants in cm-1:     0.011925     0.008472     0.005951
Rotational constants in MHz :   357.512749   253.990963   178.393573

                             ****ORCA TERMINATED NORMALLY****
TOTAL RUN TIME: 0 days 2 hours 2 minutes 50 seconds 869 msec
