                         Program Version 4.2.0 -  RELEASE  -
|  1> ! ri-mp2 cc-pvtz cc-pvtz/c TightSCF NoKeepInts
|  2>
|  3> %scf
|  4>   MaxCore 4096
|  5> end
|  6> *xyz  0  1
|  7>     C       14.0036324   15.2739700   14.9016471
|  8>     C       14.9868995   16.2341603   15.5901595
|  9>     O       16.2943711   15.9636570   15.0498389
| 10>     C       17.4309492   16.4153745   15.6673581
| 11>     O       18.4870050   15.8184143   15.5717040
| 12>     C       17.2727770   17.6185688   16.5383537
| 13>     C       16.9449578   18.8166724   15.9957284
| 14>     C       16.4951423   19.0898347   14.5738280
| 15>     N       17.0971943   19.9965257   16.7261067
| 16>     C       17.7955673   20.0873099   17.9015114
| 17>     S       18.0374521   21.5358560   18.6612727
| 18>     N       18.3060944   18.9147243   18.4025681
| 19>     C       18.0259432   17.5675529   17.8665513
| 20>     C       17.3960666   16.6003158   18.8570318
| 21>     C       17.8600050   15.2755346   18.9422065
| 22>     C       17.2675653   14.3679121   19.8359104
| 23>     C       16.1999526   14.7881704   20.6477287
| 24>     C       15.7309268   16.1060522   20.5588741
| 25>     O       14.6931850   16.5113986   21.3330539
| 26>     C       16.3215637   17.0073207   19.6671341
| 27>     H       14.2937980   14.2309491   15.0813173
| 28>     H       13.9889454   15.4459004   13.8181314
| 29>     H       12.9872874   15.4188687   15.2876478
| 30>     H       14.6805428   17.2710592   15.4125677
| 31>     H       14.9748414   16.0417245   16.6722652
| 32>     H       16.6964106   18.2505459   13.8972005
| 33>     H       17.0258797   19.9537884   14.1533076
| 34>     H       15.4209127   19.3060684   14.5321675
| 35>     H       16.7634782   20.8698803   16.3492796
| 36>     H       18.8147872   19.0083112   19.2729809
| 37>     H       19.0469533   17.2410722   17.6175226
| 38>     H       18.6775234   14.9462526   18.3035880
| 39>     H       17.6340683   13.3442057   19.8929373
| 40>     H       15.7387948   14.0895824   21.3381601
| 41>     H       14.4535091   15.7701194   21.9096767
| 42>     H       15.9420171   18.0223465   19.6106824
| 43> *
| 44>
| 45>                          ****END OF INPUT****

CARTESIAN COORDINATES (ANGSTROEM)
---------------------------------
  C     14.003632   15.273970   14.901647
  C     14.986899   16.234160   15.590159
  O     16.294371   15.963657   15.049839
  C     17.430949   16.415374   15.667358
  O     18.487005   15.818414   15.571704
  C     17.272777   17.618569   16.538354
  C     16.944958   18.816672   15.995728
  C     16.495142   19.089835   14.573828
  N     17.097194   19.996526   16.726107
  C     17.795567   20.087310   17.901511
  S     18.037452   21.535856   18.661273
  N     18.306094   18.914724   18.402568
  C     18.025943   17.567553   17.866551
  C     17.396067   16.600316   18.857032
  C     17.860005   15.275535   18.942207
  C     17.267565   14.367912   19.835910
  C     16.199953   14.788170   20.647729
  C     15.730927   16.106052   20.558874
  O     14.693185   16.511399   21.333054
  C     16.321564   17.007321   19.667134
  H     14.293798   14.230949   15.081317
  H     13.988945   15.445900   13.818131
  H     12.987287   15.418869   15.287648
  H     14.680543   17.271059   15.412568
  H     14.974841   16.041725   16.672265
  H     16.696411   18.250546   13.897201
  H     17.025880   19.953788   14.153308
  H     15.420913   19.306068   14.532167
  H     16.763478   20.869880   16.349280
  H     18.814787   19.008311   19.272981
  H     19.046953   17.241072   17.617523
  H     18.677523   14.946253   18.303588
  H     17.634068   13.344206   19.892937
  H     15.738795   14.089582   21.338160
  H     14.453509   15.770119   21.909677
  H     15.942017   18.022347   19.610682

 Total Charge           Charge          ....    0
 Multiplicity           Mult            ....    1
 Number of Electrons    NEL             ....  154
 Basis Dimension        Dim             ....  828

ORBITAL ENERGIES
----------------

  NO   OCC          E(Eh)            E(eV)
   0   2.0000     -91.889727     -2500.4466
   1   2.0000     -20.603381      -560.6465
   2   2.0000     -20.599589      -560.5433
   3   2.0000     -20.551660      -559.2391
   4   2.0000     -15.627735      -425.2523
   5   2.0000     -15.609469      -424.7552
   6   2.0000     -11.398453      -310.1677
   7   2.0000     -11.385699      -309.8206
   8   2.0000     -11.334089      -308.4162
   9   2.0000     -11.316933      -307.9494
  10   2.0000     -11.309963      -307.7597
  11   2.0000     -11.306440      -307.6639
  12   2.0000     -11.267091      -306.5931
  13   2.0000     -11.264609      -306.5256
  14   2.0000     -11.263524      -306.4961
  15   2.0000     -11.257218      -306.3245
  16   2.0000     -11.246038      -306.0203
  17   2.0000     -11.242119      -305.9136
  18   2.0000     -11.239504      -305.8425
  19   2.0000     -11.235196      -305.7252
  20   2.0000      -8.894836      -242.0408
  21   2.0000      -6.576418      -178.9534
  22   2.0000      -6.574405      -178.8987
  23   2.0000      -6.573823      -178.8828
  24   2.0000      -1.450840       -39.4794
  25   2.0000      -1.419302       -38.6212
  26   2.0000      -1.363722       -37.1088
  27   2.0000      -1.340869       -36.4869
  28   2.0000      -1.239266       -33.7221
  29   2.0000      -1.161269       -31.5997
  30   2.0000      -1.126179       -30.6449
  31   2.0000      -1.048511       -28.5314
  32   2.0000      -1.041730       -28.3469
  33   2.0000      -1.019053       -27.7298
  34   2.0000      -1.005937       -27.3729
  35   2.0000      -0.989399       -26.9229
  36   2.0000      -0.926433       -25.2095
  37   2.0000      -0.880896       -23.9704
  38   2.0000      -0.856186       -23.2980
  39   2.0000      -0.842750       -22.9324
  40   2.0000      -0.838056       -22.8047
  41   2.0000      -0.836164       -22.7532
  42   2.0000      -0.758493       -20.6396
  43   2.0000      -0.739903       -20.1338
  44   2.0000      -0.732524       -19.9330
  45   2.0000      -0.697060       -18.9680
  46   2.0000      -0.689244       -18.7553
  47   2.0000      -0.683225       -18.5915
  48   2.0000      -0.674747       -18.3608
  49   2.0000      -0.664181       -18.0733
  50   2.0000      -0.658633       -17.9223
  51   2.0000      -0.648676       -17.6514
  52   2.0000      -0.639129       -17.3916
  53   2.0000      -0.612852       -16.6766
  54   2.0000      -0.607153       -16.5215
  55   2.0000      -0.603102       -16.4113
  56   2.0000      -0.596504       -16.2317
  57   2.0000      -0.583658       -15.8821
  58   2.0000      -0.577447       -15.7131
  59   2.0000      -0.569123       -15.4866
  60   2.0000      -0.562368       -15.3028
  61   2.0000      -0.559694       -15.2300
  62   2.0000      -0.552146       -15.0246
  63   2.0000      -0.526816       -14.3354
  64   2.0000      -0.520523       -14.1642
  65   2.0000      -0.515368       -14.0239
  66   2.0000      -0.506310       -13.7774
  67   2.0000      -0.501521       -13.6471
  68   2.0000      -0.489290       -13.3143
  69   2.0000      -0.469937       -12.7876
  70   2.0000      -0.458425       -12.4744
  71   2.0000      -0.452189       -12.3047
  72   2.0000      -0.356683        -9.7058
  73   2.0000      -0.351787        -9.5726
  74   2.0000      -0.329233        -8.9589
  75   2.0000      -0.324572        -8.8320
  76   2.0000      -0.319794        -8.7020
  77   0.0000       0.084439         2.2977
  78   0.0000       0.104132         2.8336
  79   0.0000       0.115274         3.1368
  80   0.0000       0.128871         3.5067
  81   0.0000       0.130224         3.5436

MULLIKEN ATOMIC CHARGES
-----------------------
   0 C :   -0.257172
   1 C :    0.026813
   2 O :   -0.311343
   3 C :    0.416240
   4 O :   -0.380082
   5 C :   -0.205789
   6 C :    0.138508
   7 C :   -0.332268
   8 N :   -0.138611
   9 C :    0.208622
  10 S :   -0.442715
  11 N :   -0.221441
  12 C :    0.060754
  13 C :    0.024088
  14 C :   -0.218705
  15 C :   -0.127844
  16 C :   -0.277172
  17 C :    0.314938
  18 O :   -0.355970
  19 C :   -0.251395
  20 H :    0.106674
  21 H :    0.097618
  22 H :    0.089952
  23 H :    0.082613
  24 H :    0.109739
  25 H :    0.136537
  26 H :    0.132120
  27 H :    0.122770
  28 H :    0.197362
  29 H :    0.202136
  30 H :    0.166488
  31 H :    0.175916
  32 H :    0.164544
  33 H :    0.131886
  34 H :    0.241314
  35 H :    0.172877
Sum of atomic charges:   -0.0000000

LOEWDIN ATOMIC CHARGES
----------------------
   0 C :    0.111972
   1 C :   -0.026346
   2 O :    0.305294
   3 C :   -0.415699
   4 O :    0.121480
   5 C :   -0.085319
   6 C :   -0.089495
   7 C :    0.124960
   8 N :    0.402827
   9 C :   -0.456468
  10 S :   -0.038107
  11 N :    0.395948
  12 C :   -0.049588
  13 C :   -0.044361
  14 C :    0.019421
  15 C :    0.044643
  16 C :   -0.000071
  17 C :   -0.191797
  18 O :    0.394998
  19 C :    0.027152
  20 H :   -0.022074
  21 H :   -0.026291
  22 H :   -0.024688
  23 H :   -0.037597
  24 H :   -0.027936
  25 H :   -0.007873
  26 H :   -0.010800
  27 H :   -0.018334
  28 H :   -0.056903
  29 H :   -0.063689
  30 H :   -0.004227
  31 H :   -0.021351
  32 H :   -0.018598
  33 H :   -0.034795
  34 H :   -0.153133
  35 H :   -0.023156

  Mayer bond orders larger than 0.100000
B(  0-C ,  1-C ) :   0.9811 B(  0-C , 20-H ) :   0.9775 B(  0-C , 21-H ) :   0.9780
B(  0-C , 22-H ) :   0.9768 B(  1-C ,  2-O ) :   0.9076 B(  1-C , 23-H ) :   0.9681
B(  1-C , 24-H ) :   0.9702 B(  2-O ,  3-C ) :   1.1796 B(  3-C ,  4-O ) :   2.0989
B(  3-C ,  5-C ) :   0.9221 B(  5-C ,  6-C ) :   1.7172 B(  5-C , 12-C ) :   0.9416
B(  6-C ,  7-C ) :   0.9348 B(  6-C ,  8-N ) :   1.1109 B(  7-C , 25-H ) :   0.9745
B(  7-C , 26-H ) :   0.9751 B(  7-C , 27-H ) :   0.9664 B(  8-N ,  9-C ) :   1.1963
B(  8-N , 28-H ) :   0.9512 B(  9-C , 10-S ) :   1.6104 B(  9-C , 11-N ) :   1.2916
B( 11-N , 12-C ) :   0.9838 B( 11-N , 29-H ) :   0.9476 B( 12-C , 13-C ) :   0.9676
B( 12-C , 30-H ) :   0.9899 B( 13-C , 14-C ) :   1.3842 B( 13-C , 19-C ) :   1.3539
B( 14-C , 15-C ) :   1.3939 B( 14-C , 31-H ) :   0.9593 B( 15-C , 16-C ) :   1.3620
B( 15-C , 32-H ) :   0.9698 B( 16-C , 17-C ) :   1.3311 B( 16-C , 33-H ) :   0.9848
B( 17-C , 18-O ) :   1.1090 B( 17-C , 19-C ) :   1.3653 B( 18-O , 34-H ) :   0.9793
B( 19-C , 35-H ) :   0.9568

MP2 TOTAL ENERGY:    -1274.332436222 Eh
FINAL SINGLE POINT ENERGY     -1274.332436221663

DIPOLE MOMENT
-------------
                                X             Y             Z
Electronic contribution:     10.39326       8.53776       8.91741
Nuclear contribution   :    -12.04567      -9.70765      -9.24335
                        -----------------------------------------
Total Dipole Moment    :     -1.65241      -1.16989      -0.32594
                        -----------------------------------------
Magnitude (a.u.)       :      2.05069
Magnitude (Debye)      :      5.21245

Rotational constants in cm-1:     0.010540     0.009137     0.006174
Rotational constants in MHz :   315.981469   273.910040   185.094794

                             ****ORCA TERMINATED NORMALLY****
TOTAL RUN TIME: 0 days 1 hours 41 minutes 38 seconds 289 msec
