                         Program Version 4.2.0 -  RELEASE  -
|  1> ! ri-mp2 cc-pvtz cc-pvtz/c TightSCF NoKeepInts
|  2>
|  3> %scf
|  4>   MaxCore 4096
|  5> end
|  6> *xyz  0  1
|  7>     C       13.7182291   16.3368874   14.9978915
|  8>     C       15.0696110   15.6844381   15.3346546
|  9>     O       16.1152367   16.5024508   14.7843673
| 10>     C       17.2363491   16.6226441   15.5456430
| 11>     O       18.1144121   15.7789398   15.5311171
| 12>     C       17.1741148   17.7261402   16.5544683
| 13>     C       16.7425347   18.9672003   16.2173686
| 14>     C       16.1022320   19.3908569   14.9106642
| 15>     N       16.9458023   20.0495823   17.0764222
| 16>     C       17.7641264   20.0193397   18.1743536
| 17>     S       18.0453422   21.3677605   19.0895099
| 18>     N       18.3573503   18.8151375   18.4624844
| 19>     C       18.0644994   17.5367305   17.7845263
| 20>     C       17.5589858   16.4439440   18.7158167
| 21>     C       18.1540523   15.1697551   18.7107114
| 22>     C       17.6784383   14.1558016   19.5588962
| 23>     C       16.5976033   14.4182395   20.4181574
| 24>     C       15.9995834   15.6859268   20.4214781
| 25>     O       14.9503797   15.9396735   21.2434384
| 26>     C       16.4742889   16.6928068   19.5747798
| 27>     H       13.6079522   17.2960792   15.5170322
| 28>     H       12.8922249   15.6865170   15.3108439
| 29>     H       13.6283950   16.5084941   13.9178500
| 30>     H       15.1643507   15.6005794   16.4269464
| 31>     H       15.1255200   14.6743053   14.9076133
| 32>     H       16.6475292   18.9776308   14.0525450
| 33>     H       16.0911428   20.4801243   14.7814525
| 34>     H       15.0662128   19.0403151   14.8491245
| 35>     H       16.5398826   20.9464249   16.8613965
| 36>     H       18.9452572   18.8170216   19.2866209
| 37>     H       19.0627315   17.2833226   17.3978152
| 38>     H       18.9805474   14.9618318   18.0344580
| 39>     H       18.1449526   13.1722319   19.5438013
| 40>     H       16.2266116   13.6374504   21.0738744
| 41>     H       14.8018535   15.1454919   21.7786160
| 42>     H       15.9986644   17.6679242   19.5912611
| 43> *
| 44>
| 45>                          ****END OF INPUT****

CARTESIAN COORDINATES (ANGSTROEM)
---------------------------------
  C     13.718229   16.336887   14.997891
  C     15.069611   15.684438   15.334655
  O     16.115237   16.502451   14.784367
  C     17.236349   16.622644   15.545643
  O     18.114412   15.778940   15.531117
  C     17.174115   17.726140   16.554468
  C     16.742535   18.967200   16.217369
  C     16.102232   19.390857   14.910664
  N     16.945802   20.049582   17.076422
  C     17.764126   20.019340   18.174354
  S     18.045342   21.367760   19.089510
  N     18.357350   18.815137   18.462484
  C     18.064499   17.536731   17.784526
  C     17.558986   16.443944   18.715817
  C     18.154052   15.169755   18.710711
  C     17.678438   14.155802   19.558896
  C     16.597603   14.418239   20.418157
  C     15.999583   15.685927   20.421478
  O     14.950380   15.939673   21.243438
  C     16.474289   16.692807   19.574780
  H     13.607952   17.296079   15.517032
  H     12.892225   15.686517   15.310844
  H     13.628395   16.508494   13.917850
  H     15.164351   15.600579   16.426946
  H     15.125520   14.674305   14.907613
  H     16.647529   18.977631   14.052545
  H     16.091143   20.480124   14.781453
  H     15.066213   19.040315   14.849125
  H     16.539883   20.946425   16.861397
  H     18.945257   18.817022   19.286621
  H     19.062731   17.283323   17.397815
  H     18.980547   14.961832   18.034458
  H     18.144953   13.172232   19.543801
  H     16.226612   13.637450   21.073874
  H     14.801853   15.145492   21.778616
  H     15.998664   17.667924   19.591261

 Total Charge           Charge          ....    0
 Multiplicity           Mult            ....    1
 Number of Electrons    NEL             ....  154
 Basis Dimension        Dim             ....  828

ORBITAL ENERGIES
----------------

  NO   OCC          E(Eh)            E(eV)
   0   2.0000     -91.889949     -2500.4526
   1   2.0000     -20.596549      -560.4606
   2   2.0000     -20.586700      -560.1926
   3   2.0000     -20.554617      -559.3196
   4   2.0000     -15.630103      -425.3167
   5   2.0000     -15.608030      -424.7161
   6   2.0000     -11.393702      -310.0384
   7   2.0000     -11.385071      -309.8035
   8   2.0000     -11.338114      -308.5258
   9   2.0000     -11.313129      -307.8459
  10   2.0000     -11.306600      -307.6682
  11   2.0000     -11.304694      -307.6164
  12   2.0000     -11.261466      -306.4401
  13   2.0000     -11.260154      -306.4044
  14   2.0000     -11.259504      -306.3867
  15   2.0000     -11.253040      -306.2108
  16   2.0000     -11.242926      -305.9356
  17   2.0000     -11.239085      -305.8310
  18   2.0000     -11.236866      -305.7707
  19   2.0000     -11.235626      -305.7369
  20   2.0000      -8.895027      -242.0460
  21   2.0000      -6.576601      -178.9584
  22   2.0000      -6.574599      -178.9039
  23   2.0000      -6.574009      -178.8879
  24   2.0000      -1.452710       -39.5302
  25   2.0000      -1.416308       -38.5397
  26   2.0000      -1.360413       -37.0187
  27   2.0000      -1.341350       -36.5000
  28   2.0000      -1.238743       -33.7079
  29   2.0000      -1.157404       -31.4946
  30   2.0000      -1.123765       -30.5792
  31   2.0000      -1.046038       -28.4641
  32   2.0000      -1.038670       -28.2636
  33   2.0000      -1.014925       -27.6175
  34   2.0000      -1.002127       -27.2693
  35   2.0000      -0.987689       -26.8764
  36   2.0000      -0.923768       -25.1370
  37   2.0000      -0.884213       -24.0607
  38   2.0000      -0.850162       -23.1341
  39   2.0000      -0.840381       -22.8679
  40   2.0000      -0.833180       -22.6720
  41   2.0000      -0.831092       -22.6152
  42   2.0000      -0.760300       -20.6888
  43   2.0000      -0.736963       -20.0538
  44   2.0000      -0.729676       -19.8555
  45   2.0000      -0.694172       -18.8894
  46   2.0000      -0.686854       -18.6903
  47   2.0000      -0.684119       -18.6158
  48   2.0000      -0.675357       -18.3774
  49   2.0000      -0.656930       -17.8760
  50   2.0000      -0.653553       -17.7841
  51   2.0000      -0.641407       -17.4536
  52   2.0000      -0.633323       -17.2336
  53   2.0000      -0.617715       -16.8089
  54   2.0000      -0.606917       -16.5151
  55   2.0000      -0.602947       -16.4070
  56   2.0000      -0.599955       -16.3256
  57   2.0000      -0.578598       -15.7444
  58   2.0000      -0.575290       -15.6544
  59   2.0000      -0.570861       -15.5339
  60   2.0000      -0.560875       -15.2622
  61   2.0000      -0.552000       -15.0207
  62   2.0000      -0.549491       -14.9524
  63   2.0000      -0.521689       -14.1959
  64   2.0000      -0.518811       -14.1176
  65   2.0000      -0.512324       -13.9410
  66   2.0000      -0.504078       -13.7167
  67   2.0000      -0.497686       -13.5427
  68   2.0000      -0.484142       -13.1742
  69   2.0000      -0.465959       -12.6794
  70   2.0000      -0.460917       -12.5422
  71   2.0000      -0.453018       -12.3272
  72   2.0000      -0.355314        -9.6686
  73   2.0000      -0.349145        -9.5007
  74   2.0000      -0.329074        -8.9546
  75   2.0000      -0.320271        -8.7150
  76   2.0000      -0.319227        -8.6866
  77   0.0000       0.073994         2.0135
  78   0.0000       0.105457         2.8696
  79   0.0000       0.119869         3.2618
  80   0.0000       0.132311         3.6004
  81   0.0000       0.136595         3.7169

MULLIKEN ATOMIC CHARGES
-----------------------
   0 C :   -0.293692
   1 C :    0.041679
   2 O :   -0.369379
   3 C :    0.457789
   4 O :   -0.383285
   5 C :   -0.220747
   6 C :    0.144702
   7 C :   -0.289751
   8 N :   -0.129519
   9 C :    0.206467
  10 S :   -0.440093
  11 N :   -0.214243
  12 C :    0.056770
  13 C :    0.024829
  14 C :   -0.189097
  15 C :   -0.131293
  16 C :   -0.277893
  17 C :    0.313856
  18 O :   -0.357701
  19 C :   -0.253010
  20 H :    0.091370
  21 H :    0.110208
  22 H :    0.104950
  23 H :    0.093909
  24 H :    0.112706
  25 H :    0.130237
  26 H :    0.108862
  27 H :    0.123435
  28 H :    0.198645
  29 H :    0.200141
  30 H :    0.159212
  31 H :    0.167925
  32 H :    0.162526
  33 H :    0.130697
  34 H :    0.240763
  35 H :    0.168025
Sum of atomic charges:   -0.0000000

LOEWDIN ATOMIC CHARGES
----------------------
   0 C :    0.107170
   1 C :   -0.016683
   2 O :    0.293762
   3 C :   -0.425049
   4 O :    0.128040
   5 C :   -0.097172
   6 C :   -0.070429
   7 C :    0.127688
   8 N :    0.405252
   9 C :   -0.457331
  10 S :   -0.036152
  11 N :    0.395804
  12 C :   -0.048876
  13 C :   -0.043077
  14 C :    0.022917
  15 C :    0.042451
  16 C :   -0.000860
  17 C :   -0.193340
  18 O :    0.393780
  19 C :    0.027347
  20 H :   -0.031581
  21 H :   -0.022357
  22 H :   -0.025038
  23 H :   -0.027937
  24 H :   -0.026086
  25 H :   -0.006674
  26 H :   -0.018894
  27 H :   -0.013331
  28 H :   -0.058124
  29 H :   -0.063628
  30 H :   -0.006546
  31 H :   -0.022417
  32 H :   -0.019753
  33 H :   -0.035394
  34 H :   -0.153912
  35 H :   -0.023571

  Mayer bond orders larger than 0.100000
B(  0-C ,  1-C ) :   0.9732 B(  0-C , 20-H ) :   0.9780 B(  0-C , 21-H ) :   0.9778
B(  0-C , 22-H ) :   0.9747 B(  1-C ,  2-O ) :   0.8979 B(  1-C , 23-H ) :   0.9653
B(  1-C , 24-H ) :   0.9829 B(  2-O ,  3-C ) :   1.0773 B(  3-C ,  4-O ) :   2.0687
B(  3-C ,  5-C ) :   0.9906 B(  5-C ,  6-C ) :   1.6840 B(  5-C , 12-C ) :   0.9438
B(  6-C ,  7-C ) :   0.9490 B(  6-C ,  8-N ) :   1.1326 B(  7-C , 25-H ) :   0.9672
B(  7-C , 26-H ) :   0.9889 B(  7-C , 27-H ) :   0.9657 B(  8-N ,  9-C ) :   1.1870
B(  8-N , 28-H ) :   0.9479 B(  9-C , 10-S ) :   1.6123 B(  9-C , 11-N ) :   1.2996
B( 11-N , 12-C ) :   0.9815 B( 11-N , 29-H ) :   0.9485 B( 12-C , 13-C ) :   0.9694
B( 12-C , 30-H ) :   0.9934 B( 13-C , 14-C ) :   1.3836 B( 13-C , 19-C ) :   1.3586
B( 14-C , 15-C ) :   1.3957 B( 14-C , 31-H ) :   0.9606 B( 15-C , 16-C ) :   1.3607
B( 15-C , 32-H ) :   0.9705 B( 16-C , 17-C ) :   1.3317 B( 16-C , 33-H ) :   0.9850
B( 17-C , 18-O ) :   1.1067 B( 17-C , 19-C ) :   1.3660 B( 18-O , 34-H ) :   0.9799
B( 19-C , 35-H ) :   0.9588

MP2 TOTAL ENERGY:    -1274.325164977 Eh
FINAL SINGLE POINT ENERGY     -1274.325164976555

DIPOLE MOMENT
-------------
                                X             Y             Z
Electronic contribution:     10.90690       7.18498       8.83585
Nuclear contribution   :    -12.31301      -8.48071      -9.38842
                        -----------------------------------------
Total Dipole Moment    :     -1.40612      -1.29572      -0.55257
                        -----------------------------------------
Magnitude (a.u.)       :      1.99033
Magnitude (Debye)      :      5.05901

Rotational constants in cm-1:     0.010451     0.009218     0.006236
Rotational constants in MHz :   313.312677   276.352636   186.940582

                             ****ORCA TERMINATED NORMALLY****
TOTAL RUN TIME: 0 days 1 hours 42 minutes 11 seconds 700 msec
