                         Program Version 4.2.0 -  RELEASE  -
|  1> ! ri-mp2 cc-pvtz cc-pvtz/c TightSCF NoKeepInts
|  2>
|  3> %scf
|  4>   MaxCore 4096
|  5> end
|  6> *xyz  0  1
|  7>     C       14.1613467   15.4526060   15.2515776
|  8>     C       15.3526105   15.6163882   16.2101106
|  9>     O       16.5233801   15.8439369   15.4001733
| 10>     C       17.0754039   17.0856017   15.2386603
| 11>     O       17.5422910   17.4212387   14.1660142
| 12>     C       17.0650956   17.9848114   16.4382623
| 13>     C       16.8717437   19.3114119   16.2445837
| 14>     C       16.2645606   19.9518570   15.0145405
| 15>     N       17.2335298   20.2479416   17.2140197
| 16>     C       18.0223449   19.9626605   18.2961584
| 17>     S       18.5209359   21.1347819   19.3506700
| 18>     N       18.3991481   18.6511122   18.4485422
| 19>     C       17.8937527   17.5184857   17.6477382
| 20>     C       17.3004048   16.4039188   18.4955744
| 21>     C       17.8047757   15.0934199   18.4070724
| 22>     C       17.2527987   14.0633945   19.1869822
| 23>     C       16.1926879   14.3477006   20.0649788
| 24>     C       15.6951189   15.6544767   20.1614855
| 25>     O       14.6697074   15.9315196   21.0049395
| 26>     C       16.2450037   16.6776750   19.3826763
| 27>     H       14.0034118   16.3680327   14.6678238
| 28>     H       13.2428281   15.2384098   15.8113880
| 29>     H       14.3391228   14.6248869   14.5533527
| 30>     H       15.1463516   16.4365135   16.9072811
| 31>     H       15.4769668   14.6912946   16.7879317
| 32>     H       15.5001018   19.3050378   14.5663542
| 33>     H       17.0364439   20.1194103   14.2516569
| 34>     H       15.7884710   20.9148606   15.2342670
| 35>     H       17.0019377   21.2202825   17.0854409
| 36>     H       18.9722723   18.4692947   19.2632554
| 37>     H       18.8431879   17.1749543   17.2115080
| 38>     H       18.6202915   14.8698920   17.7232798
| 39>     H       17.6465208   13.0509884   19.1092297
| 40>     H       15.7636400   13.5546317   20.6690518
| 41>     H       14.4686198   15.1217781   21.4985545
| 42>     H       15.8501914   17.6847928   19.4728647
| 43> *
| 44>
| 45>                          ****END OF INPUT****

CARTESIAN COORDINATES (ANGSTROEM)
---------------------------------
  C     14.161347   15.452606   15.251578
  C     15.352611   15.616388   16.210111
  O     16.523380   15.843937   15.400173
  C     17.075404   17.085602   15.238660
  O     17.542291   17.421239   14.166014
  C     17.065096   17.984811   16.438262
  C     16.871744   19.311412   16.244584
  C     16.264561   19.951857   15.014541
  N     17.233530   20.247942   17.214020
  C     18.022345   19.962660   18.296158
  S     18.520936   21.134782   19.350670
  N     18.399148   18.651112   18.448542
  C     17.893753   17.518486   17.647738
  C     17.300405   16.403919   18.495574
  C     17.804776   15.093420   18.407072
  C     17.252799   14.063394   19.186982
  C     16.192688   14.347701   20.064979
  C     15.695119   15.654477   20.161485
  O     14.669707   15.931520   21.004939
  C     16.245004   16.677675   19.382676
  H     14.003412   16.368033   14.667824
  H     13.242828   15.238410   15.811388
  H     14.339123   14.624887   14.553353
  H     15.146352   16.436514   16.907281
  H     15.476967   14.691295   16.787932
  H     15.500102   19.305038   14.566354
  H     17.036444   20.119410   14.251657
  H     15.788471   20.914861   15.234267
  H     17.001938   21.220282   17.085441
  H     18.972272   18.469295   19.263255
  H     18.843188   17.174954   17.211508
  H     18.620292   14.869892   17.723280
  H     17.646521   13.050988   19.109230
  H     15.763640   13.554632   20.669052
  H     14.468620   15.121778   21.498555
  H     15.850191   17.684793   19.472865

 Total Charge           Charge          ....    0
 Multiplicity           Mult            ....    1
 Number of Electrons    NEL             ....  154
 Basis Dimension        Dim             ....  828

ORBITAL ENERGIES
----------------

  NO   OCC          E(Eh)            E(eV)
   0   2.0000     -91.890989     -2500.4809
   1   2.0000     -20.604952      -560.6893
   2   2.0000     -20.595475      -560.4314
   3   2.0000     -20.548810      -559.1615
   4   2.0000     -15.628539      -425.2742
   5   2.0000     -15.611272      -424.8043
   6   2.0000     -11.394782      -310.0678
   7   2.0000     -11.386122      -309.8321
   8   2.0000     -11.332191      -308.3646
   9   2.0000     -11.323283      -308.1222
  10   2.0000     -11.316964      -307.9503
  11   2.0000     -11.297316      -307.4156
  12   2.0000     -11.269713      -306.6645
  13   2.0000     -11.264141      -306.5128
  14   2.0000     -11.258117      -306.3489
  15   2.0000     -11.256022      -306.2919
  16   2.0000     -11.253396      -306.2205
  17   2.0000     -11.247823      -306.0688
  18   2.0000     -11.247727      -306.0662
  19   2.0000     -11.228021      -305.5300
  20   2.0000      -8.896053      -242.0739
  21   2.0000      -6.577622      -178.9862
  22   2.0000      -6.575625      -178.9318
  23   2.0000      -6.575032      -178.9157
  24   2.0000      -1.446070       -39.3496
  25   2.0000      -1.424736       -38.7690
  26   2.0000      -1.358293       -36.9610
  27   2.0000      -1.341429       -36.5021
  28   2.0000      -1.241001       -33.7694
  29   2.0000      -1.166457       -31.7409
  30   2.0000      -1.124914       -30.6105
  31   2.0000      -1.050948       -28.5978
  32   2.0000      -1.034778       -28.1577
  33   2.0000      -1.024594       -27.8806
  34   2.0000      -1.002992       -27.2928
  35   2.0000      -0.989429       -26.9237
  36   2.0000      -0.927372       -25.2351
  37   2.0000      -0.883434       -24.0395
  38   2.0000      -0.852516       -23.1981
  39   2.0000      -0.844777       -22.9875
  40   2.0000      -0.843529       -22.9536
  41   2.0000      -0.836207       -22.7544
  42   2.0000      -0.758687       -20.6449
  43   2.0000      -0.739723       -20.1289
  44   2.0000      -0.721772       -19.6404
  45   2.0000      -0.703552       -19.1446
  46   2.0000      -0.693088       -18.8599
  47   2.0000      -0.677431       -18.4338
  48   2.0000      -0.675503       -18.3814
  49   2.0000      -0.670781       -18.2529
  50   2.0000      -0.650299       -17.6955
  51   2.0000      -0.647866       -17.6293
  52   2.0000      -0.635980       -17.3059
  53   2.0000      -0.614552       -16.7228
  54   2.0000      -0.609110       -16.5747
  55   2.0000      -0.603952       -16.4344
  56   2.0000      -0.598434       -16.2842
  57   2.0000      -0.584001       -15.8915
  58   2.0000      -0.577453       -15.7133
  59   2.0000      -0.569424       -15.4948
  60   2.0000      -0.559862       -15.2346
  61   2.0000      -0.553698       -15.0669
  62   2.0000      -0.546718       -14.8769
  63   2.0000      -0.530398       -14.4329
  64   2.0000      -0.524364       -14.2687
  65   2.0000      -0.517550       -14.0832
  66   2.0000      -0.505824       -13.7642
  67   2.0000      -0.501905       -13.6575
  68   2.0000      -0.488117       -13.2823
  69   2.0000      -0.467882       -12.7317
  70   2.0000      -0.453634       -12.3440
  71   2.0000      -0.447516       -12.1775
  72   2.0000      -0.359066        -9.7707
  73   2.0000      -0.352109        -9.5814
  74   2.0000      -0.332190        -9.0394
  75   2.0000      -0.329323        -8.9613
  76   2.0000      -0.320973        -8.7341
  77   0.0000       0.080591         2.1930
  78   0.0000       0.093857         2.5540
  79   0.0000       0.119265         3.2454
  80   0.0000       0.126192         3.4338
  81   0.0000       0.128268         3.4904

MULLIKEN ATOMIC CHARGES
-----------------------
   0 C :   -0.257874
   1 C :    0.013586
   2 O :   -0.325153
   3 C :    0.404762
   4 O :   -0.373812
   5 C :   -0.236969
   6 C :    0.157038
   7 C :   -0.276145
   8 N :   -0.131897
   9 C :    0.210396
  10 S :   -0.438783
  11 N :   -0.210630
  12 C :    0.034535
  13 C :   -0.000353
  14 C :   -0.174952
  15 C :   -0.148456
  16 C :   -0.267746
  17 C :    0.305397
  18 O :   -0.354131
  19 C :   -0.221628
  20 H :    0.088465
  21 H :    0.091096
  22 H :    0.105424
  23 H :    0.101194
  24 H :    0.117799
  25 H :    0.116795
  26 H :    0.142576
  27 H :    0.097525
  28 H :    0.198923
  29 H :    0.200198
  30 H :    0.159034
  31 H :    0.153659
  32 H :    0.166754
  33 H :    0.135874
  34 H :    0.241938
  35 H :    0.175559
Sum of atomic charges:   -0.0000000

LOEWDIN ATOMIC CHARGES
----------------------
   0 C :    0.105705
   1 C :   -0.024911
   2 O :    0.308111
   3 C :   -0.423937
   4 O :    0.124181
   5 C :   -0.101127
   6 C :   -0.074658
   7 C :    0.129390
   8 N :    0.405788
   9 C :   -0.455751
  10 S :   -0.034396
  11 N :    0.395337
  12 C :   -0.054098
  13 C :   -0.043981
  14 C :    0.020861
  15 C :    0.043022
  16 C :    0.001504
  17 C :   -0.191804
  18 O :    0.396949
  19 C :    0.033750
  20 H :   -0.030048
  21 H :   -0.026971
  22 H :   -0.023859
  23 H :   -0.038699
  24 H :   -0.023938
  25 H :   -0.009367
  26 H :   -0.003650
  27 H :   -0.021282
  28 H :   -0.056913
  29 H :   -0.063597
  30 H :   -0.010225
  31 H :   -0.025979
  32 H :   -0.018589
  33 H :   -0.033328
  34 H :   -0.152099
  35 H :   -0.021393

  Mayer bond orders larger than 0.100000
B(  0-C ,  1-C ) :   0.9814 B(  0-C , 20-H ) :   0.9776 B(  0-C , 21-H ) :   0.9774
B(  0-C , 22-H ) :   0.9800 B(  1-C ,  2-O ) :   0.8809 B(  1-C , 23-H ) :   0.9565
B(  1-C , 24-H ) :   0.9761 B(  2-O ,  3-C ) :   1.1783 B(  3-C ,  4-O ) :   2.1162
B(  3-C ,  5-C ) :   0.9443 B(  5-C ,  6-C ) :   1.6803 B(  5-C , 12-C ) :   0.9579
B(  6-C ,  7-C ) :   0.9507 B(  6-C ,  8-N ) :   1.1356 B(  7-C , 25-H ) :   0.9750
B(  7-C , 26-H ) :   0.9554 B(  7-C , 27-H ) :   0.9846 B(  8-N ,  9-C ) :   1.1947
B(  8-N , 28-H ) :   0.9488 B(  9-C , 10-S ) :   1.6142 B(  9-C , 11-N ) :   1.2909
B( 11-N , 12-C ) :   0.9808 B( 11-N , 29-H ) :   0.9472 B( 12-C , 13-C ) :   0.9620
B( 12-C , 30-H ) :   1.0071 B( 13-C , 14-C ) :   1.3626 B( 13-C , 19-C ) :   1.3500
B( 14-C , 15-C ) :   1.3980 B( 14-C , 31-H ) :   0.9733 B( 15-C , 16-C ) :   1.3613
B( 15-C , 32-H ) :   0.9696 B( 16-C , 17-C ) :   1.3279 B( 16-C , 33-H ) :   0.9829
B( 17-C , 18-O ) :   1.1113 B( 17-C , 19-C ) :   1.3669 B( 18-O , 34-H ) :   0.9785
B( 19-C , 35-H ) :   0.9573

MP2 TOTAL ENERGY:    -1274.325560823 Eh
FINAL SINGLE POINT ENERGY     -1274.325560822675

DIPOLE MOMENT
-------------
                                X             Y             Z
Electronic contribution:     10.18580       8.36551       7.57870
Nuclear contribution   :    -11.59662     -10.00309      -7.26021
                        -----------------------------------------
Total Dipole Moment    :     -1.41082      -1.63758       0.31849
                        -----------------------------------------
Magnitude (a.u.)       :      2.18484
Magnitude (Debye)      :      5.55341

Rotational constants in cm-1:     0.011798     0.008980     0.006102
Rotational constants in MHz :   353.701705   269.202384   182.932846

                             ****ORCA TERMINATED NORMALLY****
TOTAL RUN TIME: 0 days 2 hours 11 minutes 40 seconds 195 msec
