                         Program Version 4.2.0 -  RELEASE  -
|  1> ! ri-mp2 cc-pvtz cc-pvtz/c TightSCF NoKeepInts
|  2>
|  3> %scf
|  4>   MaxCore 4096
|  5> end
|  6> *xyz  0  1
|  7>     C       14.1631743   16.3929722   15.3468937
|  8>     C       15.2805892   15.5878621   16.0355527
|  9>     O       16.5001507   15.7300008   15.2779049
| 10>     C       17.3368766   16.8149086   15.3371163
| 11>     O       18.2172278   16.9822557   14.5144604
| 12>     C       17.1117711   17.7781046   16.4525415
| 13>     C       16.8258949   19.0596961   16.1271829
| 14>     C       16.3640398   19.5500744   14.7712719
| 15>     N       17.0092505   20.0987944   17.0405288
| 16>     C       17.7188889   19.9743502   18.2057201
| 17>     S       18.0111359   21.2668952   19.1948480
| 18>     N       18.2015453   18.7216586   18.4969248
| 19>     C       17.8747281   17.4894133   17.7515444
| 20>     C       17.3172948   16.3626892   18.6067795
| 21>     C       17.7964817   15.0496764   18.4474116
| 22>     C       17.2695468   14.0000008   19.2181042
| 23>     C       16.2566056   14.2660822   20.1554017
| 24>     C       15.7778812   15.5735797   20.3162287
| 25>     O       14.7944201   15.8318733   21.2139872
| 26>     C       16.3019307   16.6165442   19.5456611
| 27>     H       14.3181528   17.4703866   15.4689508
| 28>     H       13.1897032   16.1437236   15.7867440
| 29>     H       14.1219668   16.1621817   14.2747561
| 30>     H       15.3844204   15.8979773   17.0783438
| 31>     H       14.9940007   14.5282028   16.0352933
| 32>     H       15.8885395   18.7551968   14.1842818
| 33>     H       17.2212126   19.9098771   14.1871198
| 34>     H       15.6399374   20.3692696   14.8564314
| 35>     H       16.7082170   21.0323687   16.8091334
| 36>     H       18.7218035   18.6584234   19.3632692
| 37>     H       18.8857029   17.2125698   17.4167185
| 38>     H       18.5746041   14.8403936   17.7166650
| 39>     H       17.6460951   12.9865669   19.0872170
| 40>     H       15.8472183   13.4578483   20.7528834
| 41>     H       14.6014641   15.0060214   21.6833707
| 42>     H       15.9145274   17.6215605   19.6807574
| 43> *
| 44>
| 45>                          ****END OF INPUT****

CARTESIAN COORDINATES (ANGSTROEM)
---------------------------------
  C     14.163174   16.392972   15.346894
  C     15.280589   15.587862   16.035553
  O     16.500151   15.730001   15.277905
  C     17.336877   16.814909   15.337116
  O     18.217228   16.982256   14.514460
  C     17.111771   17.778105   16.452541
  C     16.825895   19.059696   16.127183
  C     16.364040   19.550074   14.771272
  N     17.009251   20.098794   17.040529
  C     17.718889   19.974350   18.205720
  S     18.011136   21.266895   19.194848
  N     18.201545   18.721659   18.496925
  C     17.874728   17.489413   17.751544
  C     17.317295   16.362689   18.606779
  C     17.796482   15.049676   18.447412
  C     17.269547   14.000001   19.218104
  C     16.256606   14.266082   20.155402
  C     15.777881   15.573580   20.316229
  O     14.794420   15.831873   21.213987
  C     16.301931   16.616544   19.545661
  H     14.318153   17.470387   15.468951
  H     13.189703   16.143724   15.786744
  H     14.121967   16.162182   14.274756
  H     15.384420   15.897977   17.078344
  H     14.994001   14.528203   16.035293
  H     15.888540   18.755197   14.184282
  H     17.221213   19.909877   14.187120
  H     15.639937   20.369270   14.856431
  H     16.708217   21.032369   16.809133
  H     18.721803   18.658423   19.363269
  H     18.885703   17.212570   17.416719
  H     18.574604   14.840394   17.716665
  H     17.646095   12.986567   19.087217
  H     15.847218   13.457848   20.752883
  H     14.601464   15.006021   21.683371
  H     15.914527   17.621561   19.680757

 Total Charge           Charge          ....    0
 Multiplicity           Mult            ....    1
 Number of Electrons    NEL             ....  154
 Basis Dimension        Dim             ....  828

ORBITAL ENERGIES
----------------

  NO   OCC          E(Eh)            E(eV)
   0   2.0000     -91.889798     -2500.4485
   1   2.0000     -20.605054      -560.6920
   2   2.0000     -20.600356      -560.5642
   3   2.0000     -20.551766      -559.2420
   4   2.0000     -15.625790      -425.1994
   5   2.0000     -15.611144      -424.8008
   6   2.0000     -11.397956      -310.1542
   7   2.0000     -11.385543      -309.8164
   8   2.0000     -11.327800      -308.2451
   9   2.0000     -11.323798      -308.1362
  10   2.0000     -11.317237      -307.9577
  11   2.0000     -11.301165      -307.5203
  12   2.0000     -11.271221      -306.7055
  13   2.0000     -11.264942      -306.5347
  14   2.0000     -11.259372      -306.3831
  15   2.0000     -11.258644      -306.3633
  16   2.0000     -11.252926      -306.2077
  17   2.0000     -11.247986      -306.0733
  18   2.0000     -11.247936      -306.0719
  19   2.0000     -11.233071      -305.6674
  20   2.0000      -8.894881      -242.0420
  21   2.0000      -6.576459      -178.9545
  22   2.0000      -6.574452      -178.8999
  23   2.0000      -6.573867      -178.8840
  24   2.0000      -1.446846       -39.3707
  25   2.0000      -1.424778       -38.7702
  26   2.0000      -1.361330       -37.0437
  27   2.0000      -1.339728       -36.4559
  28   2.0000      -1.239780       -33.7361
  29   2.0000      -1.167189       -31.7608
  30   2.0000      -1.126384       -30.6505
  31   2.0000      -1.051917       -28.6241
  32   2.0000      -1.037434       -28.2300
  33   2.0000      -1.025256       -27.8986
  34   2.0000      -1.004855       -27.3435
  35   2.0000      -0.990192       -26.9445
  36   2.0000      -0.927823       -25.2473
  37   2.0000      -0.893334       -24.3089
  38   2.0000      -0.852402       -23.1950
  39   2.0000      -0.844886       -22.9905
  40   2.0000      -0.843092       -22.9417
  41   2.0000      -0.834793       -22.7159
  42   2.0000      -0.756757       -20.5924
  43   2.0000      -0.739580       -20.1250
  44   2.0000      -0.723977       -19.7004
  45   2.0000      -0.703323       -19.1384
  46   2.0000      -0.694090       -18.8871
  47   2.0000      -0.680193       -18.5090
  48   2.0000      -0.677822       -18.4445
  49   2.0000      -0.667126       -18.1534
  50   2.0000      -0.651990       -17.7416
  51   2.0000      -0.644854       -17.5474
  52   2.0000      -0.632430       -17.2093
  53   2.0000      -0.621584       -16.9142
  54   2.0000      -0.613960       -16.7067
  55   2.0000      -0.608434       -16.5563
  56   2.0000      -0.605669       -16.4811
  57   2.0000      -0.585069       -15.9205
  58   2.0000      -0.579566       -15.7708
  59   2.0000      -0.566930       -15.4270
  60   2.0000      -0.564976       -15.3738
  61   2.0000      -0.553142       -15.0518
  62   2.0000      -0.544337       -14.8122
  63   2.0000      -0.534993       -14.5579
  64   2.0000      -0.528309       -14.3760
  65   2.0000      -0.518373       -14.1057
  66   2.0000      -0.505939       -13.7673
  67   2.0000      -0.504960       -13.7407
  68   2.0000      -0.488240       -13.2857
  69   2.0000      -0.465862       -12.6768
  70   2.0000      -0.455040       -12.3823
  71   2.0000      -0.449885       -12.2420
  72   2.0000      -0.358427        -9.7533
  73   2.0000      -0.352849        -9.6015
  74   2.0000      -0.332039        -9.0352
  75   2.0000      -0.328848        -8.9484
  76   2.0000      -0.319937        -8.7059
  77   0.0000       0.088500         2.4082
  78   0.0000       0.097361         2.6493
  79   0.0000       0.120891         3.2896
  80   0.0000       0.126394         3.4394
  81   0.0000       0.128411         3.4942

MULLIKEN ATOMIC CHARGES
-----------------------
   0 C :   -0.308150
   1 C :    0.037993
   2 O :   -0.317512
   3 C :    0.414536
   4 O :   -0.378285
   5 C :   -0.200615
   6 C :    0.135186
   7 C :   -0.305516
   8 N :   -0.136965
   9 C :    0.213564
  10 S :   -0.441997
  11 N :   -0.224464
  12 C :    0.027410
  13 C :    0.018109
  14 C :   -0.209498
  15 C :   -0.132576
  16 C :   -0.271734
  17 C :    0.310184
  18 O :   -0.353089
  19 C :   -0.236122
  20 H :    0.094332
  21 H :    0.106485
  22 H :    0.111941
  23 H :    0.104380
  24 H :    0.120910
  25 H :    0.116369
  26 H :    0.149890
  27 H :    0.106787
  28 H :    0.197426
  29 H :    0.202987
  30 H :    0.165658
  31 H :    0.162115
  32 H :    0.166042
  33 H :    0.135357
  34 H :    0.241814
  35 H :    0.177046
Sum of atomic charges:    0.0000000

LOEWDIN ATOMIC CHARGES
----------------------
   0 C :    0.103060
   1 C :   -0.018811
   2 O :    0.306695
   3 C :   -0.419516
   4 O :    0.124969
   5 C :   -0.091423
   6 C :   -0.089389
   7 C :    0.127593
   8 N :    0.404668
   9 C :   -0.454820
  10 S :   -0.037047
  11 N :    0.395794
  12 C :   -0.054166
  13 C :   -0.046654
  14 C :    0.018583
  15 C :    0.046012
  16 C :    0.001732
  17 C :   -0.190690
  18 O :    0.397547
  19 C :    0.028928
  20 H :   -0.034643
  21 H :   -0.024021
  22 H :   -0.024467
  23 H :   -0.036925
  24 H :   -0.020708
  25 H :   -0.011440
  26 H :   -0.004215
  27 H :   -0.018660
  28 H :   -0.057409
  29 H :   -0.064113
  30 H :   -0.007244
  31 H :   -0.024778
  32 H :   -0.017650
  33 H :   -0.033427
  34 H :   -0.152077
  35 H :   -0.021287

  Mayer bond orders larger than 0.100000
B(  0-C ,  1-C ) :   0.9674 B(  0-C , 20-H ) :   0.9768 B(  0-C , 21-H ) :   0.9774
B(  0-C , 22-H ) :   0.9754 B(  1-C ,  2-O ) :   0.8907 B(  1-C , 23-H ) :   0.9576
B(  1-C , 24-H ) :   0.9830 B(  2-O ,  3-C ) :   1.1846 B(  3-C ,  4-O ) :   2.1229
B(  3-C ,  5-C ) :   0.8988 B(  5-C ,  6-C ) :   1.7166 B(  5-C , 12-C ) :   0.9566
B(  6-C ,  7-C ) :   0.9474 B(  6-C ,  8-N ) :   1.1175 B(  7-C , 25-H ) :   0.9794
B(  7-C , 26-H ) :   0.9588 B(  7-C , 27-H ) :   0.9786 B(  8-N ,  9-C ) :   1.2021
B(  8-N , 28-H ) :   0.9500 B(  9-C , 10-S ) :   1.6109 B(  9-C , 11-N ) :   1.2850
B( 11-N , 12-C ) :   0.9782 B( 11-N , 29-H ) :   0.9457 B( 12-C , 13-C ) :   0.9663
B( 12-C , 30-H ) :   0.9996 B( 13-C , 14-C ) :   1.3773 B( 13-C , 19-C ) :   1.3496
B( 14-C , 15-C ) :   1.3958 B( 14-C , 31-H ) :   0.9688 B( 15-C , 16-C ) :   1.3633
B( 15-C , 32-H ) :   0.9689 B( 16-C , 17-C ) :   1.3311 B( 16-C , 33-H ) :   0.9831
B( 17-C , 18-O ) :   1.1127 B( 17-C , 19-C ) :   1.3599 B( 18-O , 34-H ) :   0.9785
B( 19-C , 35-H ) :   0.9565

MP2 TOTAL ENERGY:    -1274.325212408 Eh
FINAL SINGLE POINT ENERGY     -1274.325212407602

DIPOLE MOMENT
-------------
                                X             Y             Z
Electronic contribution:      9.68878       6.48894       7.94204
Nuclear contribution   :    -11.22730      -8.19508      -7.81443
                        -----------------------------------------
Total Dipole Moment    :     -1.53852      -1.70614       0.12760
                        -----------------------------------------
Magnitude (a.u.)       :      2.30092
Magnitude (Debye)      :      5.84847

Rotational constants in cm-1:     0.011653     0.009094     0.006279
Rotational constants in MHz :   349.340294   272.618361   188.252755

                             ****ORCA TERMINATED NORMALLY****
TOTAL RUN TIME: 0 days 1 hours 39 minutes 43 seconds 561 msec
