                         Program Version 4.2.0 -  RELEASE  -
|  1> ! ri-mp2 cc-pvtz cc-pvtz/c TightSCF NoKeepInts
|  2>
|  3> %scf
|  4>   MaxCore 4096
|  5> end
|  6> *xyz  0  1
|  7>     C       14.3590314   14.8716729   15.2148073
|  8>     C       15.3212728   15.5829552   16.1801657
|  9>     O       16.4859003   15.9567892   15.4216619
| 10>     C       16.7471000   17.2789113   15.2092391
| 11>     O       16.7700828   17.7164984   14.0738409
| 12>     C       16.9715412   18.1121361   16.4437868
| 13>     C       16.8653426   19.4628896   16.3533275
| 14>     C       16.1584710   20.2479014   15.2676082
| 15>     N       17.4099969   20.3017461   17.3271274
| 16>     C       18.2878997   19.8899240   18.2920496
| 17>     S       18.9996944   20.9509263   19.3419803
| 18>     N       18.5676024   18.5474728   18.3263099
| 19>     C       17.8811139   17.5103063   17.5325734
| 20>     C       17.2761838   16.4290370   18.4130171
| 21>     C       17.8391854   15.1400634   18.4532592
| 22>     C       17.2831658   14.1460002   19.2760695
| 23>     C       16.1617608   14.4461870   20.0687138
| 24>     C       15.6084888   15.7337536   20.0399480
| 25>     O       14.5258609   16.0266625   20.8026860
| 26>     C       16.1626171   16.7210290   19.2190557
| 27>     H       14.0580091   15.5456780   14.4027497
| 28>     H       13.4557338   14.5425118   15.7424883
| 29>     H       14.8390314   13.9905369   14.7708020
| 30>     H       14.8278668   16.4534712   16.6331222
| 31>     H       15.5962943   14.8795759   16.9750932
| 32>     H       15.2609379   19.7208548   14.9203548
| 33>     H       16.8165469   20.3778891   14.3983904
| 34>     H       15.8398049   21.2420709   15.6027238
| 35>     H       17.2438022   21.2947019   17.2835568
| 36>     H       19.2052526   18.2704640   19.0623331
| 37>     H       18.7447201   17.1092245   16.9825781
| 38>     H       18.7046432   14.9053401   17.8384501
| 39>     H       17.7214044   13.1492932   19.2980416
| 40>     H       15.7295463   13.6809239   20.7055070
| 41>     H       14.3319491   15.2486936   21.3477073
| 42>     H       15.7291451   17.7159077   19.2168743
| 43> *
| 44>
| 45>                          ****END OF INPUT****

CARTESIAN COORDINATES (ANGSTROEM)
---------------------------------
  C     14.359031   14.871673   15.214807
  C     15.321273   15.582955   16.180166
  O     16.485900   15.956789   15.421662
  C     16.747100   17.278911   15.209239
  O     16.770083   17.716498   14.073841
  C     16.971541   18.112136   16.443787
  C     16.865343   19.462890   16.353327
  C     16.158471   20.247901   15.267608
  N     17.409997   20.301746   17.327127
  C     18.287900   19.889924   18.292050
  S     18.999694   20.950926   19.341980
  N     18.567602   18.547473   18.326310
  C     17.881114   17.510306   17.532573
  C     17.276184   16.429037   18.413017
  C     17.839185   15.140063   18.453259
  C     17.283166   14.146000   19.276069
  C     16.161761   14.446187   20.068714
  C     15.608489   15.733754   20.039948
  O     14.525861   16.026663   20.802686
  C     16.162617   16.721029   19.219056
  H     14.058009   15.545678   14.402750
  H     13.455734   14.542512   15.742488
  H     14.839031   13.990537   14.770802
  H     14.827867   16.453471   16.633122
  H     15.596294   14.879576   16.975093
  H     15.260938   19.720855   14.920355
  H     16.816547   20.377889   14.398390
  H     15.839805   21.242071   15.602724
  H     17.243802   21.294702   17.283557
  H     19.205253   18.270464   19.062333
  H     18.744720   17.109224   16.982578
  H     18.704643   14.905340   17.838450
  H     17.721404   13.149293   19.298042
  H     15.729546   13.680924   20.705507
  H     14.331949   15.248694   21.347707
  H     15.729145   17.715908   19.216874

 Total Charge           Charge          ....    0
 Multiplicity           Mult            ....    1
 Number of Electrons    NEL             ....  154
 Basis Dimension        Dim             ....  828

ORBITAL ENERGIES
----------------

  NO   OCC          E(Eh)            E(eV)
   0   2.0000     -91.891415     -2500.4925
   1   2.0000     -20.604672      -560.6816
   2   2.0000     -20.587120      -560.2040
   3   2.0000     -20.547913      -559.1371
   4   2.0000     -15.630507      -425.3277
   5   2.0000     -15.610498      -424.7832
   6   2.0000     -11.392692      -310.0109
   7   2.0000     -11.385927      -309.8268
   8   2.0000     -11.337090      -308.4979
   9   2.0000     -11.322697      -308.1062
  10   2.0000     -11.314959      -307.8957
  11   2.0000     -11.295531      -307.3670
  12   2.0000     -11.268246      -306.6246
  13   2.0000     -11.263819      -306.5041
  14   2.0000     -11.259324      -306.3818
  15   2.0000     -11.254437      -306.2488
  16   2.0000     -11.253071      -306.2116
  17   2.0000     -11.247230      -306.0527
  18   2.0000     -11.247021      -306.0470
  19   2.0000     -11.223579      -305.4091
  20   2.0000      -8.896467      -242.0852
  21   2.0000      -6.578034      -178.9974
  22   2.0000      -6.576040      -178.9431
  23   2.0000      -6.575444      -178.9269
  24   2.0000      -1.446530       -39.3621
  25   2.0000      -1.424435       -38.7608
  26   2.0000      -1.355796       -36.8931
  27   2.0000      -1.343029       -36.5457
  28   2.0000      -1.241815       -33.7915
  29   2.0000      -1.165747       -31.7216
  30   2.0000      -1.123831       -30.5810
  31   2.0000      -1.049787       -28.5662
  32   2.0000      -1.032376       -28.0924
  33   2.0000      -1.023755       -27.8578
  34   2.0000      -1.001533       -27.2531
  35   2.0000      -0.988488       -26.8981
  36   2.0000      -0.926944       -25.2234
  37   2.0000      -0.877934       -23.8898
  38   2.0000      -0.852087       -23.1865
  39   2.0000      -0.844926       -22.9916
  40   2.0000      -0.842505       -22.9257
  41   2.0000      -0.835321       -22.7303
  42   2.0000      -0.759278       -20.6610
  43   2.0000      -0.739620       -20.1261
  44   2.0000      -0.721871       -19.6431
  45   2.0000      -0.703496       -19.1431
  46   2.0000      -0.691964       -18.8293
  47   2.0000      -0.676939       -18.4204
  48   2.0000      -0.673012       -18.3136
  49   2.0000      -0.668702       -18.1963
  50   2.0000      -0.649089       -17.6626
  51   2.0000      -0.648566       -17.6484
  52   2.0000      -0.638867       -17.3845
  53   2.0000      -0.614517       -16.7219
  54   2.0000      -0.608719       -16.5641
  55   2.0000      -0.604106       -16.4385
  56   2.0000      -0.586664       -15.9639
  57   2.0000      -0.583239       -15.8707
  58   2.0000      -0.576499       -15.6873
  59   2.0000      -0.573162       -15.5965
  60   2.0000      -0.564754       -15.3677
  61   2.0000      -0.547764       -14.9054
  62   2.0000      -0.542837       -14.7713
  63   2.0000      -0.530941       -14.4476
  64   2.0000      -0.519588       -14.1387
  65   2.0000      -0.514033       -13.9875
  66   2.0000      -0.505090       -13.7442
  67   2.0000      -0.497874       -13.5478
  68   2.0000      -0.487425       -13.2635
  69   2.0000      -0.467998       -12.7349
  70   2.0000      -0.452276       -12.3071
  71   2.0000      -0.446785       -12.1576
  72   2.0000      -0.358353        -9.7513
  73   2.0000      -0.354375        -9.6430
  74   2.0000      -0.332529        -9.0486
  75   2.0000      -0.329084        -8.9548
  76   2.0000      -0.321365        -8.7448
  77   0.0000       0.074982         2.0404
  78   0.0000       0.095154         2.5893
  79   0.0000       0.119404         3.2492
  80   0.0000       0.127684         3.4745
  81   0.0000       0.128082         3.4853

MULLIKEN ATOMIC CHARGES
-----------------------
   0 C :   -0.252979
   1 C :    0.002993
   2 O :   -0.346998
   3 C :    0.437773
   4 O :   -0.378029
   5 C :   -0.273668
   6 C :    0.178206
   7 C :   -0.269182
   8 N :   -0.128864
   9 C :    0.209400
  10 S :   -0.438440
  11 N :   -0.209586
  12 C :    0.040047
  13 C :   -0.012221
  14 C :   -0.155106
  15 C :   -0.140062
  16 C :   -0.270180
  17 C :    0.299664
  18 O :   -0.356001
  19 C :   -0.211298
  20 H :    0.099228
  21 H :    0.086953
  22 H :    0.099211
  23 H :    0.099150
  24 H :    0.117536
  25 H :    0.120837
  26 H :    0.139535
  27 H :    0.094926
  28 H :    0.199633
  29 H :    0.200393
  30 H :    0.152448
  31 H :    0.152998
  32 H :    0.165125
  33 H :    0.135268
  34 H :    0.242275
  35 H :    0.169015
Sum of atomic charges:   -0.0000000

LOEWDIN ATOMIC CHARGES
----------------------
   0 C :    0.106948
   1 C :   -0.027368
   2 O :    0.301879
   3 C :   -0.427575
   4 O :    0.124403
   5 C :   -0.104717
   6 C :   -0.061875
   7 C :    0.129378
   8 N :    0.407230
   9 C :   -0.457096
  10 S :   -0.033481
  11 N :    0.395253
  12 C :   -0.054315
  13 C :   -0.042839
  14 C :    0.018606
  15 C :    0.041962
  16 C :    0.001273
  17 C :   -0.191888
  18 O :    0.396591
  19 C :    0.036287
  20 H :   -0.025935
  21 H :   -0.028587
  22 H :   -0.024921
  23 H :   -0.034756
  24 H :   -0.026471
  25 H :   -0.007327
  26 H :   -0.003924
  27 H :   -0.022485
  28 H :   -0.056165
  29 H :   -0.063590
  30 H :   -0.011275
  31 H :   -0.026771
  32 H :   -0.018846
  33 H :   -0.033300
  34 H :   -0.152026
  35 H :   -0.022277

  Mayer bond orders larger than 0.100000
B(  0-C ,  1-C ) :   0.9830 B(  0-C , 20-H ) :   0.9784 B(  0-C , 21-H ) :   0.9776
B(  0-C , 22-H ) :   0.9800 B(  1-C ,  2-O ) :   0.8809 B(  1-C , 23-H ) :   0.9656
B(  1-C , 24-H ) :   0.9740 B(  2-O ,  3-C ) :   1.1424 B(  3-C ,  4-O ) :   2.0861
B(  3-C ,  5-C ) :   1.0033 B(  5-C ,  6-C ) :   1.6449 B(  5-C , 12-C ) :   0.9636
B(  6-C ,  7-C ) :   0.9603 B(  6-C ,  8-N ) :   1.1511 B(  7-C , 25-H ) :   0.9711
B(  7-C , 26-H ) :   0.9541 B(  7-C , 27-H ) :   0.9861 B(  8-N ,  9-C ) :   1.1891
B(  8-N , 28-H ) :   0.9478 B(  9-C , 10-S ) :   1.6116 B(  9-C , 11-N ) :   1.3021
B( 11-N , 12-C ) :   0.9675 B( 11-N , 29-H ) :   0.9482 B( 12-C , 13-C ) :   0.9693
B( 12-C , 30-H ) :   1.0063 B( 13-C , 14-C ) :   1.3558 B( 13-C , 19-C ) :   1.3625
B( 14-C , 15-C ) :   1.3947 B( 14-C , 31-H ) :   0.9727 B( 15-C , 16-C ) :   1.3614
B( 15-C , 32-H ) :   0.9699 B( 16-C , 17-C ) :   1.3293 B( 16-C , 33-H ) :   0.9833
B( 17-C , 18-O ) :   1.1090 B( 17-C , 19-C ) :   1.3669 B( 18-O , 34-H ) :   0.9784
B( 19-C , 35-H ) :   0.9602

MP2 TOTAL ENERGY:    -1274.324721209 Eh
FINAL SINGLE POINT ENERGY     -1274.324721208550

DIPOLE MOMENT
-------------
                                X             Y             Z
Electronic contribution:     10.09677       9.42925       7.07334
Nuclear contribution   :    -11.34805     -10.97896      -6.64535
                        -----------------------------------------
Total Dipole Moment    :     -1.25128      -1.54972       0.42799
                        -----------------------------------------
Magnitude (a.u.)       :      2.03727
Magnitude (Debye)      :      5.17834

Rotational constants in cm-1:     0.011997     0.008812     0.006028
Rotational constants in MHz :   359.651681   264.190357   180.728515

                             ****ORCA TERMINATED NORMALLY****
TOTAL RUN TIME: 0 days 2 hours 3 minutes 14 seconds 614 msec
