                         Program Version 4.2.0 -  RELEASE  -
|  1> ! ri-mp2 cc-pvtz cc-pvtz/c TightSCF NoKeepInts
|  2>
|  3> %scf
|  4>   MaxCore 4096
|  5> end
|  6> *xyz  0  1
|  7>     C       14.1101943   15.5368327   13.6924147
|  8>     C       15.0200614   15.2601697   14.9009352
|  9>     O       15.9431678   16.3550565   15.0036532
| 10>     C       16.9155487   16.2819353   15.9556144
| 11>     O       17.4355144   15.2229851   16.2654679
| 12>     C       17.1531521   17.5570109   16.7139243
| 13>     C       17.0026357   18.7845774   16.1493532
| 14>     C       16.3752493   19.1246751   14.8115275
| 15>     N       17.4932516   19.9272406   16.7865081
| 16>     C       18.3329209   19.9115793   17.8673223
| 17>     S       18.9643004   21.3021176   18.5023207
| 18>     N       18.6413106   18.6780068   18.3819522
| 19>     C       18.0277447   17.4023109   17.9647116
| 20>     C       17.3340957   16.6686233   19.1049889
| 21>     C       17.6854258   15.3449321   19.4254124
| 22>     C       17.0456136   14.6707386   20.4790287
| 23>     C       16.0469153   15.3264987   21.2192803
| 24>     C       15.6935543   16.6450093   20.9006910
| 25>     O       14.7266853   17.2790506   21.6109477
| 26>     C       16.3317517   17.3131095   19.8507888
| 27>     H       13.5559798   16.4733554   13.8309370
| 28>     H       13.3850305   14.7240886   13.5634514
| 29>     H       14.7032654   15.6166343   12.7727904
| 30>     H       14.4218400   15.1753120   15.8180633
| 31>     H       15.5591693   14.3153926   14.7452031
| 32>     H       16.8619357   18.5695624   13.9996770
| 33>     H       16.4534875   20.1899323   14.5623494
| 34>     H       15.3089889   18.8661378   14.8062460
| 35>     H       17.2941693   20.8386505   16.4062584
| 36>     H       19.2453666   18.6953815   19.1940018
| 37>     H       18.9225472   16.8525773   17.6380724
| 38>     H       18.4472265   14.8322807   18.8427122
| 39>     H       17.3214846   13.6442278   20.7136243
| 40>     H       15.5494128   14.8090246   22.0327029
| 41>     H       14.4304637   16.6704583   22.3042543
| 42>     H       16.0475382   18.3345240   19.6208128
| 43> *
| 44>
| 45>                          ****END OF INPUT****

CARTESIAN COORDINATES (ANGSTROEM)
---------------------------------
  C     14.110194   15.536833   13.692415
  C     15.020061   15.260170   14.900935
  O     15.943168   16.355056   15.003653
  C     16.915549   16.281935   15.955614
  O     17.435514   15.222985   16.265468
  C     17.153152   17.557011   16.713924
  C     17.002636   18.784577   16.149353
  C     16.375249   19.124675   14.811527
  N     17.493252   19.927241   16.786508
  C     18.332921   19.911579   17.867322
  S     18.964300   21.302118   18.502321
  N     18.641311   18.678007   18.381952
  C     18.027745   17.402311   17.964712
  C     17.334096   16.668623   19.104989
  C     17.685426   15.344932   19.425412
  C     17.045614   14.670739   20.479029
  C     16.046915   15.326499   21.219280
  C     15.693554   16.645009   20.900691
  O     14.726685   17.279051   21.610948
  C     16.331752   17.313109   19.850789
  H     13.555980   16.473355   13.830937
  H     13.385030   14.724089   13.563451
  H     14.703265   15.616634   12.772790
  H     14.421840   15.175312   15.818063
  H     15.559169   14.315393   14.745203
  H     16.861936   18.569562   13.999677
  H     16.453488   20.189932   14.562349
  H     15.308989   18.866138   14.806246
  H     17.294169   20.838650   16.406258
  H     19.245367   18.695381   19.194002
  H     18.922547   16.852577   17.638072
  H     18.447226   14.832281   18.842712
  H     17.321485   13.644228   20.713624
  H     15.549413   14.809025   22.032703
  H     14.430464   16.670458   22.304254
  H     16.047538   18.334524   19.620813

 Total Charge           Charge          ....    0
 Multiplicity           Mult            ....    1
 Number of Electrons    NEL             ....  154
 Basis Dimension        Dim             ....  828

ORBITAL ENERGIES
----------------

  NO   OCC          E(Eh)            E(eV)
   0   2.0000     -91.888331     -2500.4086
   1   2.0000     -20.598213      -560.5059
   2   2.0000     -20.592099      -560.3395
   3   2.0000     -20.547242      -559.1189
   4   2.0000     -15.629054      -425.2882
   5   2.0000     -15.605890      -424.6579
   6   2.0000     -11.394335      -310.0556
   7   2.0000     -11.382894      -309.7443
   8   2.0000     -11.338592      -308.5388
   9   2.0000     -11.308064      -307.7081
  10   2.0000     -11.304324      -307.6063
  11   2.0000     -11.299979      -307.4881
  12   2.0000     -11.260461      -306.4127
  13   2.0000     -11.259477      -306.3859
  14   2.0000     -11.255285      -306.2719
  15   2.0000     -11.248062      -306.0753
  16   2.0000     -11.238300      -305.8097
  17   2.0000     -11.235068      -305.7217
  18   2.0000     -11.234459      -305.7052
  19   2.0000     -11.231122      -305.6144
  20   2.0000      -8.893411      -242.0020
  21   2.0000      -6.574987      -178.9145
  22   2.0000      -6.572985      -178.8600
  23   2.0000      -6.572396      -178.8440
  24   2.0000      -1.454884       -39.5894
  25   2.0000      -1.411845       -38.4183
  26   2.0000      -1.357515       -36.9399
  27   2.0000      -1.340202       -36.4688
  28   2.0000      -1.237275       -33.6680
  29   2.0000      -1.152661       -31.3655
  30   2.0000      -1.121085       -30.5063
  31   2.0000      -1.044830       -28.4313
  32   2.0000      -1.036975       -28.2175
  33   2.0000      -1.010199       -27.4889
  34   2.0000      -0.999073       -27.1862
  35   2.0000      -0.984252       -26.7829
  36   2.0000      -0.920861       -25.0579
  37   2.0000      -0.886278       -24.1169
  38   2.0000      -0.847406       -23.0591
  39   2.0000      -0.835366       -22.7315
  40   2.0000      -0.828304       -22.5393
  41   2.0000      -0.821299       -22.3487
  42   2.0000      -0.761645       -20.7254
  43   2.0000      -0.736272       -20.0350
  44   2.0000      -0.726422       -19.7670
  45   2.0000      -0.690084       -18.7781
  46   2.0000      -0.685230       -18.6461
  47   2.0000      -0.680925       -18.5289
  48   2.0000      -0.675639       -18.3851
  49   2.0000      -0.655713       -17.8429
  50   2.0000      -0.651449       -17.7268
  51   2.0000      -0.640579       -17.4310
  52   2.0000      -0.632710       -17.2169
  53   2.0000      -0.609895       -16.5961
  54   2.0000      -0.603476       -16.4214
  55   2.0000      -0.598835       -16.2951
  56   2.0000      -0.595417       -16.2021
  57   2.0000      -0.576772       -15.6948
  58   2.0000      -0.573391       -15.6028
  59   2.0000      -0.563246       -15.3267
  60   2.0000      -0.561164       -15.2701
  61   2.0000      -0.547815       -14.9068
  62   2.0000      -0.543525       -14.7901
  63   2.0000      -0.523915       -14.2565
  64   2.0000      -0.516265       -14.0483
  65   2.0000      -0.509913       -13.8754
  66   2.0000      -0.505250       -13.7485
  67   2.0000      -0.494375       -13.4526
  68   2.0000      -0.480955       -13.0875
  69   2.0000      -0.462931       -12.5970
  70   2.0000      -0.462259       -12.5787
  71   2.0000      -0.451401       -12.2833
  72   2.0000      -0.353396        -9.6164
  73   2.0000      -0.344804        -9.3826
  74   2.0000      -0.327376        -8.9084
  75   2.0000      -0.317494        -8.6394
  76   2.0000      -0.314695        -8.5633
  77   0.0000       0.075094         2.0434
  78   0.0000       0.111004         3.0206
  79   0.0000       0.120714         3.2848
  80   0.0000       0.135323         3.6823
  81   0.0000       0.138011         3.7555

MULLIKEN ATOMIC CHARGES
-----------------------
   0 C :   -0.272962
   1 C :    0.041725
   2 O :   -0.347446
   3 C :    0.428643
   4 O :   -0.411786
   5 C :   -0.178659
   6 C :    0.153600
   7 C :   -0.283730
   8 N :   -0.128357
   9 C :    0.207581
  10 S :   -0.441816
  11 N :   -0.210526
  12 C :    0.041169
  13 C :    0.032640
  14 C :   -0.167905
  15 C :   -0.134250
  16 C :   -0.277364
  17 C :    0.313659
  18 O :   -0.359133
  19 C :   -0.252316
  20 H :    0.091659
  21 H :    0.097893
  22 H :    0.099064
  23 H :    0.085911
  24 H :    0.109421
  25 H :    0.126749
  26 H :    0.103362
  27 H :    0.127532
  28 H :    0.198883
  29 H :    0.199918
  30 H :    0.155612
  31 H :    0.159182
  32 H :    0.160154
  33 H :    0.128330
  34 H :    0.240001
  35 H :    0.163562
Sum of atomic charges:   -0.0000000

LOEWDIN ATOMIC CHARGES
----------------------
   0 C :    0.107756
   1 C :   -0.018315
   2 O :    0.302847
   3 C :   -0.416660
   4 O :    0.110619
   5 C :   -0.093500
   6 C :   -0.064336
   7 C :    0.125523
   8 N :    0.405614
   9 C :   -0.458495
  10 S :   -0.037219
  11 N :    0.396354
  12 C :   -0.048293
  13 C :   -0.040703
  14 C :    0.025087
  15 C :    0.041106
  16 C :   -0.001263
  17 C :   -0.192776
  18 O :    0.392981
  19 C :    0.029211
  20 H :   -0.029668
  21 H :   -0.023221
  22 H :   -0.025697
  23 H :   -0.030376
  24 H :   -0.027059
  25 H :   -0.008755
  26 H :   -0.021015
  27 H :   -0.010228
  28 H :   -0.058613
  29 H :   -0.063157
  30 H :   -0.008022
  31 H :   -0.023849
  32 H :   -0.020953
  33 H :   -0.036149
  34 H :   -0.154822
  35 H :   -0.023952

  Mayer bond orders larger than 0.100000
B(  0-C ,  1-C ) :   0.9731 B(  0-C , 20-H ) :   0.9787 B(  0-C , 21-H ) :   0.9775
B(  0-C , 22-H ) :   0.9771 B(  1-C ,  2-O ) :   0.9071 B(  1-C , 23-H ) :   0.9733
B(  1-C , 24-H ) :   0.9780 B(  2-O ,  3-C ) :   1.1166 B(  3-C ,  4-O ) :   2.0075
B(  3-C ,  5-C ) :   1.0360 B(  5-C ,  6-C ) :   1.6554 B(  5-C , 12-C ) :   0.9491
B(  6-C ,  7-C ) :   0.9548 B(  6-C ,  8-N ) :   1.1357 B(  7-C , 25-H ) :   0.9649
B(  7-C , 26-H ) :   0.9915 B(  7-C , 27-H ) :   0.9632 B(  8-N ,  9-C ) :   1.1848
B(  8-N , 28-H ) :   0.9469 B(  9-C , 10-S ) :   1.6089 B(  9-C , 11-N ) :   1.3061
B( 11-N , 12-C ) :   0.9766 B( 11-N , 29-H ) :   0.9485 B( 12-C , 13-C ) :   0.9727
B( 12-C , 30-H ) :   0.9968 B( 13-C , 14-C ) :   1.3773 B( 13-C , 19-C ) :   1.3647
B( 14-C , 15-C ) :   1.3976 B( 14-C , 31-H ) :   0.9636 B( 15-C , 16-C ) :   1.3587
B( 15-C , 32-H ) :   0.9711 B( 16-C , 17-C ) :   1.3333 B( 16-C , 33-H ) :   0.9860
B( 17-C , 18-O ) :   1.1036 B( 17-C , 19-C ) :   1.3677 B( 18-O , 34-H ) :   0.9806
B( 19-C , 35-H ) :   0.9602

MP2 TOTAL ENERGY:    -1274.336417655 Eh
FINAL SINGLE POINT ENERGY     -1274.336417655429

DIPOLE MOMENT
-------------
                                X             Y             Z
Electronic contribution:     10.76942       9.14790      11.83008
Nuclear contribution   :    -12.28498     -10.44457     -12.71172
                        -----------------------------------------
Total Dipole Moment    :     -1.51556      -1.29667      -0.88164
                        -----------------------------------------
Magnitude (a.u.)       :      2.18073
Magnitude (Debye)      :      5.54297

Rotational constants in cm-1:     0.009720     0.008994     0.005562
Rotational constants in MHz :   291.392511   269.618983   166.740579

                             ****ORCA TERMINATED NORMALLY****
TOTAL RUN TIME: 0 days 1 hours 37 minutes 41 seconds 257 msec
