                         Program Version 4.2.0 -  RELEASE  -
|  1> ! ri-mp2 cc-pvtz cc-pvtz/c TightSCF NoKeepInts
|  2>
|  3> %scf
|  4>   MaxCore 4096
|  5> end
|  6> *xyz  0  1
|  7>     C       14.6996427   15.3440435   16.0394562
|  8>     C       15.0350768   15.8380874   14.6116133
|  9>     O       16.1416740   16.7678910   14.5877658
| 10>     C       17.1356238   16.6899314   15.5171315
| 11>     O       17.8344102   15.6966520   15.6240138
| 12>     C       17.1660828   17.8237428   16.4984335
| 13>     C       16.8737138   19.1019746   16.1459148
| 14>     C       16.2807063   19.5878753   14.8385198
| 15>     N       17.1639315   20.1620737   17.0082736
| 16>     C       17.9294735   20.0528208   18.1382929
| 17>     S       18.3165473   21.3703619   19.0599993
| 18>     N       18.3756509   18.7942835   18.4553253
| 19>     C       17.9814958   17.5501858   17.7657738
| 20>     C       17.3206441   16.5301840   18.6830761
| 21>     C       17.8179775   15.2176906   18.7715929
| 22>     C       17.1953975   14.2722950   19.6036589
| 23>     C       16.0655486   14.6427647   20.3529879
| 24>     C       15.5661762   15.9494238   20.2640707
| 25>     O       14.4703437   16.3075687   20.9795206
| 26>     C       16.1879436   16.8881286   19.4346807
| 27>     H       15.5036508   14.7204174   16.4515031
| 28>     H       13.7882479   14.7343748   16.0235139
| 29>     H       14.5277099   16.1880466   16.7192847
| 30>     H       15.2904348   14.9648363   13.9967320
| 31>     H       14.1522041   16.3127603   14.1646642
| 32>     H       15.2468900   19.2381729   14.7277424
| 33>     H       16.8579970   19.2119840   13.9842468
| 34>     H       16.2679187   20.6817205   14.7583852
| 35>     H       16.8633396   21.0953786   16.7767393
| 36>     H       18.9215815   18.7385265   19.3058994
| 37>     H       18.9622890   17.1891229   17.4230367
| 38>     H       18.6803384   14.9256513   18.1765852
| 39>     H       17.5857017   13.2576098   19.6592147
| 40>     H       15.5803302   13.9149536   20.9947723
| 41>     H       14.2129618   15.5436944   21.5173586
| 42>     H       15.7873440   17.8947708   19.3782203
| 43> *
| 44>
| 45>                          ****END OF INPUT****

CARTESIAN COORDINATES (ANGSTROEM)
---------------------------------
  C     14.699643   15.344043   16.039456
  C     15.035077   15.838087   14.611613
  O     16.141674   16.767891   14.587766
  C     17.135624   16.689931   15.517131
  O     17.834410   15.696652   15.624014
  C     17.166083   17.823743   16.498434
  C     16.873714   19.101975   16.145915
  C     16.280706   19.587875   14.838520
  N     17.163932   20.162074   17.008274
  C     17.929474   20.052821   18.138293
  S     18.316547   21.370362   19.059999
  N     18.375651   18.794283   18.455325
  C     17.981496   17.550186   17.765774
  C     17.320644   16.530184   18.683076
  C     17.817978   15.217691   18.771593
  C     17.195397   14.272295   19.603659
  C     16.065549   14.642765   20.352988
  C     15.566176   15.949424   20.264071
  O     14.470344   16.307569   20.979521
  C     16.187944   16.888129   19.434681
  H     15.503651   14.720417   16.451503
  H     13.788248   14.734375   16.023514
  H     14.527710   16.188047   16.719285
  H     15.290435   14.964836   13.996732
  H     14.152204   16.312760   14.164664
  H     15.246890   19.238173   14.727742
  H     16.857997   19.211984   13.984247
  H     16.267919   20.681721   14.758385
  H     16.863340   21.095379   16.776739
  H     18.921581   18.738526   19.305899
  H     18.962289   17.189123   17.423037
  H     18.680338   14.925651   18.176585
  H     17.585702   13.257610   19.659215
  H     15.580330   13.914954   20.994772
  H     14.212962   15.543694   21.517359
  H     15.787344   17.894771   19.378220

 Total Charge           Charge          ....    0
 Multiplicity           Mult            ....    1
 Number of Electrons    NEL             ....  154
 Basis Dimension        Dim             ....  828

ORBITAL ENERGIES
----------------

  NO   OCC          E(Eh)            E(eV)
   0   2.0000     -91.889117     -2500.4300
   1   2.0000     -20.595148      -560.4225
   2   2.0000     -20.586395      -560.1843
   3   2.0000     -20.549935      -559.1922
   4   2.0000     -15.629592      -425.3028
   5   2.0000     -15.606963      -424.6871
   6   2.0000     -11.394271      -310.0539
   7   2.0000     -11.383961      -309.7733
   8   2.0000     -11.338084      -308.5250
   9   2.0000     -11.311377      -307.7982
  10   2.0000     -11.305369      -307.6347
  11   2.0000     -11.304924      -307.6226
  12   2.0000     -11.259826      -306.3955
  13   2.0000     -11.259302      -306.3812
  14   2.0000     -11.258018      -306.3463
  15   2.0000     -11.251420      -306.1667
  16   2.0000     -11.241525      -305.8974
  17   2.0000     -11.237322      -305.7831
  18   2.0000     -11.234067      -305.6945
  19   2.0000     -11.228247      -305.5361
  20   2.0000      -8.894194      -242.0233
  21   2.0000      -6.575769      -178.9358
  22   2.0000      -6.573768      -178.8813
  23   2.0000      -6.573178      -178.8653
  24   2.0000      -1.448099       -39.4048
  25   2.0000      -1.414924       -38.5020
  26   2.0000      -1.355124       -36.8748
  27   2.0000      -1.340629       -36.4804
  28   2.0000      -1.237946       -33.6862
  29   2.0000      -1.155673       -31.4474
  30   2.0000      -1.122026       -30.5319
  31   2.0000      -1.043947       -28.4072
  32   2.0000      -1.031512       -28.0689
  33   2.0000      -1.013181       -27.5701
  34   2.0000      -1.000925       -27.2366
  35   2.0000      -0.986117       -26.8336
  36   2.0000      -0.923004       -25.1162
  37   2.0000      -0.897125       -24.4120
  38   2.0000      -0.848898       -23.0997
  39   2.0000      -0.837722       -22.7956
  40   2.0000      -0.831488       -22.6259
  41   2.0000      -0.818148       -22.2629
  42   2.0000      -0.745348       -20.2820
  43   2.0000      -0.732596       -19.9350
  44   2.0000      -0.727860       -19.8061
  45   2.0000      -0.692662       -18.8483
  46   2.0000      -0.686508       -18.6808
  47   2.0000      -0.677242       -18.4287
  48   2.0000      -0.671184       -18.2639
  49   2.0000      -0.662094       -18.0165
  50   2.0000      -0.652061       -17.7435
  51   2.0000      -0.646657       -17.5964
  52   2.0000      -0.634032       -17.2529
  53   2.0000      -0.620868       -16.8947
  54   2.0000      -0.605138       -16.4667
  55   2.0000      -0.601093       -16.3566
  56   2.0000      -0.598587       -16.2884
  57   2.0000      -0.578756       -15.7488
  58   2.0000      -0.575163       -15.6510
  59   2.0000      -0.563632       -15.3372
  60   2.0000      -0.552632       -15.0379
  61   2.0000      -0.546905       -14.8820
  62   2.0000      -0.536469       -14.5981
  63   2.0000      -0.532783       -14.4978
  64   2.0000      -0.519146       -14.1267
  65   2.0000      -0.510586       -13.8938
  66   2.0000      -0.498528       -13.5656
  67   2.0000      -0.493868       -13.4388
  68   2.0000      -0.481146       -13.0927
  69   2.0000      -0.464738       -12.6462
  70   2.0000      -0.456481       -12.4215
  71   2.0000      -0.449450       -12.2302
  72   2.0000      -0.353694        -9.6245
  73   2.0000      -0.347525        -9.4566
  74   2.0000      -0.328206        -8.9309
  75   2.0000      -0.318591        -8.6693
  76   2.0000      -0.317909        -8.6507
  77   0.0000       0.073557         2.0016
  78   0.0000       0.106292         2.8923
  79   0.0000       0.119492         3.2516
  80   0.0000       0.132861         3.6153
  81   0.0000       0.139280         3.7900

MULLIKEN ATOMIC CHARGES
-----------------------
   0 C :   -0.335791
   1 C :    0.055208
   2 O :   -0.384151
   3 C :    0.467075
   4 O :   -0.405025
   5 C :   -0.211226
   6 C :    0.157353
   7 C :   -0.280304
   8 N :   -0.127623
   9 C :    0.207785
  10 S :   -0.440871
  11 N :   -0.212365
  12 C :    0.051287
  13 C :    0.033842
  14 C :   -0.182790
  15 C :   -0.132349
  16 C :   -0.278060
  17 C :    0.319699
  18 O :   -0.359065
  19 C :   -0.264705
  20 H :    0.128234
  21 H :    0.111508
  22 H :    0.102229
  23 H :    0.104761
  24 H :    0.100768
  25 H :    0.123403
  26 H :    0.129457
  27 H :    0.103032
  28 H :    0.198640
  29 H :    0.199353
  30 H :    0.156375
  31 H :    0.163833
  32 H :    0.162229
  33 H :    0.130165
  34 H :    0.240504
  35 H :    0.167585
Sum of atomic charges:   -0.0000000

LOEWDIN ATOMIC CHARGES
----------------------
   0 C :    0.105621
   1 C :   -0.013269
   2 O :    0.288423
   3 C :   -0.421413
   4 O :    0.118758
   5 C :   -0.095805
   6 C :   -0.066928
   7 C :    0.126395
   8 N :    0.405541
   9 C :   -0.457577
  10 S :   -0.036700
  11 N :    0.396116
  12 C :   -0.048291
  13 C :   -0.041374
  14 C :    0.024278
  15 C :    0.041095
  16 C :   -0.001118
  17 C :   -0.193123
  18 O :    0.393650
  19 C :    0.030241
  20 H :   -0.021865
  21 H :   -0.023854
  22 H :   -0.029503
  23 H :   -0.027533
  24 H :   -0.026884
  25 H :   -0.010134
  26 H :   -0.007147
  27 H :   -0.020713
  28 H :   -0.058443
  29 H :   -0.063571
  30 H :   -0.007309
  31 H :   -0.023295
  32 H :   -0.020370
  33 H :   -0.035637
  34 H :   -0.154258
  35 H :   -0.024004

  Mayer bond orders larger than 0.100000
B(  0-C ,  1-C ) :   0.9572 B(  0-C , 20-H ) :   0.9675 B(  0-C , 21-H ) :   0.9756
B(  0-C , 22-H ) :   0.9713 B(  1-C ,  2-O ) :   0.9031 B(  1-C , 23-H ) :   0.9853
B(  1-C , 24-H ) :   0.9810 B(  2-O ,  3-C ) :   1.0703 B(  3-C ,  4-O ) :   2.0263
B(  3-C ,  5-C ) :   1.0237 B(  5-C ,  6-C ) :   1.6645 B(  5-C , 12-C ) :   0.9484
B(  6-C ,  7-C ) :   0.9537 B(  6-C ,  8-N ) :   1.1402 B(  7-C , 25-H ) :   0.9650
B(  7-C , 26-H ) :   0.9651 B(  7-C , 27-H ) :   0.9901 B(  8-N ,  9-C ) :   1.1849
B(  8-N , 28-H ) :   0.9470 B(  9-C , 10-S ) :   1.6109 B(  9-C , 11-N ) :   1.3034
B( 11-N , 12-C ) :   0.9797 B( 11-N , 29-H ) :   0.9487 B( 12-C , 13-C ) :   0.9658
B( 12-C , 30-H ) :   0.9958 B( 13-C , 14-C ) :   1.3797 B( 13-C , 19-C ) :   1.3579
B( 14-C , 15-C ) :   1.3943 B( 14-C , 31-H ) :   0.9621 B( 15-C , 16-C ) :   1.3598
B( 15-C , 32-H ) :   0.9705 B( 16-C , 17-C ) :   1.3325 B( 16-C , 33-H ) :   0.9852
B( 17-C , 18-O ) :   1.1053 B( 17-C , 19-C ) :   1.3611 B( 18-O , 34-H ) :   0.9802
B( 19-C , 35-H ) :   0.9602

MP2 TOTAL ENERGY:    -1274.328144607 Eh
FINAL SINGLE POINT ENERGY     -1274.328144606593

DIPOLE MOMENT
-------------
                                X             Y             Z
Electronic contribution:      9.06768       9.25532       7.39767
Nuclear contribution   :    -10.52084     -10.52812      -8.18688
                        -----------------------------------------
Total Dipole Moment    :     -1.45316      -1.27280      -0.78922
                        -----------------------------------------
Magnitude (a.u.)       :      2.08676
Magnitude (Debye)      :      5.30411

Rotational constants in cm-1:     0.011329     0.009242     0.006220
Rotational constants in MHz :   339.643155   277.076660   186.471358

                             ****ORCA TERMINATED NORMALLY****
TOTAL RUN TIME: 0 days 1 hours 47 minutes 4 seconds 904 msec
