                         Program Version 4.2.0 -  RELEASE  -
|  1> ! ri-mp2 cc-pvtz cc-pvtz/c TightSCF NoKeepInts
|  2>
|  3> %scf
|  4>   MaxCore 4096
|  5> end
|  6> *xyz  0  1
|  7>     C       15.1220030   14.2421244   14.6940364
|  8>     C       15.0257465   15.3271979   15.7790889
|  9>     O       16.1827376   16.1700906   15.6482669
| 10>     C       15.9954688   17.5189856   15.5785936
| 11>     O       15.1866003   18.0102324   14.8107612
| 12>     C       16.7759016   18.2730809   16.6213546
| 13>     C       16.8898432   19.6247338   16.5611767
| 14>     C       16.1027608   20.5710007   15.6782882
| 15>     N       17.8173798   20.3047736   17.3537126
| 16>     C       18.7963385   19.6977801   18.0928959
| 17>     S       19.9233183   20.5665465   18.9359482
| 18>     N       18.8083441   18.3259619   18.0814977
| 19>     C       17.7877995   17.4663415   17.4528532
| 20>     C       17.1525149   16.4943117   18.4385357
| 21>     C       17.4770496   15.1256105   18.4026266
| 22>     C       16.8840952   14.2279121   19.3062803
| 23>     C       15.9630251   14.7040307   20.2551886
| 24>     C       15.6433052   16.0683056   20.2967263
| 25>     O       14.7549336   16.5307134   21.2119426
| 26>     C       16.2337198   16.9589733   19.3947210
| 27>     H       14.2649356   13.5605400   14.7537436
| 28>     H       16.0400005   13.6538849   14.8147714
| 29>     H       15.1298731   14.6974016   13.6955502
| 30>     H       14.0949899   15.8954583   15.6431865
| 31>     H       15.0061569   14.8676468   16.7760339
| 32>     H       15.0243139   20.4159851   15.8110653
| 33>     H       16.3311994   20.3926354   14.6197053
| 34>     H       16.3087801   21.6272105   15.8879655
| 35>     H       17.8341006   21.3121494   17.3523157
| 36>     H       19.5239351   17.9066248   18.6616373
| 37>     H       18.4071980   16.9261062   16.7226397
| 38>     H       18.1847407   14.7560046   17.6650426
| 39>     H       17.1394534   13.1701330   19.2703006
| 40>     H       15.5034491   14.0148829   20.9561920
| 41>     H       14.4922182   15.7822622   21.7686222
| 42>     H       15.9787700   18.0123668   19.4447328
| 43> *
| 44>
| 45>                          ****END OF INPUT****

CARTESIAN COORDINATES (ANGSTROEM)
---------------------------------
  C     15.122003   14.242124   14.694036
  C     15.025747   15.327198   15.779089
  O     16.182738   16.170091   15.648267
  C     15.995469   17.518986   15.578594
  O     15.186600   18.010232   14.810761
  C     16.775902   18.273081   16.621355
  C     16.889843   19.624734   16.561177
  C     16.102761   20.571001   15.678288
  N     17.817380   20.304774   17.353713
  C     18.796338   19.697780   18.092896
  S     19.923318   20.566547   18.935948
  N     18.808344   18.325962   18.081498
  C     17.787799   17.466341   17.452853
  C     17.152515   16.494312   18.438536
  C     17.477050   15.125610   18.402627
  C     16.884095   14.227912   19.306280
  C     15.963025   14.704031   20.255189
  C     15.643305   16.068306   20.296726
  O     14.754934   16.530713   21.211943
  C     16.233720   16.958973   19.394721
  H     14.264936   13.560540   14.753744
  H     16.040001   13.653885   14.814771
  H     15.129873   14.697402   13.695550
  H     14.094990   15.895458   15.643187
  H     15.006157   14.867647   16.776034
  H     15.024314   20.415985   15.811065
  H     16.331199   20.392635   14.619705
  H     16.308780   21.627211   15.887965
  H     17.834101   21.312149   17.352316
  H     19.523935   17.906625   18.661637
  H     18.407198   16.926106   16.722640
  H     18.184741   14.756005   17.665043
  H     17.139453   13.170133   19.270301
  H     15.503449   14.014883   20.956192
  H     14.492218   15.782262   21.768622
  H     15.978770   18.012367   19.444733

 Total Charge           Charge          ....    0
 Multiplicity           Mult            ....    1
 Number of Electrons    NEL             ....  154
 Basis Dimension        Dim             ....  828

ORBITAL ENERGIES
----------------

  NO   OCC          E(Eh)            E(eV)
   0   2.0000     -91.890034     -2500.4549
   1   2.0000     -20.599645      -560.5448
   2   2.0000     -20.589679      -560.2737
   3   2.0000     -20.543804      -559.0253
   4   2.0000     -15.630504      -425.3276
   5   2.0000     -15.608162      -424.7197
   6   2.0000     -11.393101      -310.0220
   7   2.0000     -11.384698      -309.7934
   8   2.0000     -11.338454      -308.5350
   9   2.0000     -11.317334      -307.9603
  10   2.0000     -11.308900      -307.7308
  11   2.0000     -11.294292      -307.3333
  12   2.0000     -11.263795      -306.5034
  13   2.0000     -11.258599      -306.3620
  14   2.0000     -11.258405      -306.3568
  15   2.0000     -11.252616      -306.1992
  16   2.0000     -11.247004      -306.0465
  17   2.0000     -11.242183      -305.9154
  18   2.0000     -11.241705      -305.9024
  19   2.0000     -11.224488      -305.4338
  20   2.0000      -8.895094      -242.0478
  21   2.0000      -6.576663      -178.9601
  22   2.0000      -6.574668      -178.9058
  23   2.0000      -6.574074      -178.8896
  24   2.0000      -1.449531       -39.4438
  25   2.0000      -1.419318       -38.6216
  26   2.0000      -1.353562       -36.8323
  27   2.0000      -1.341510       -36.5043
  28   2.0000      -1.239471       -33.7277
  29   2.0000      -1.160653       -31.5830
  30   2.0000      -1.122199       -30.5366
  31   2.0000      -1.045193       -28.4412
  32   2.0000      -1.035950       -28.1896
  33   2.0000      -1.018391       -27.7118
  34   2.0000      -0.997279       -27.1373
  35   2.0000      -0.985714       -26.8226
  36   2.0000      -0.923543       -25.1309
  37   2.0000      -0.883129       -24.0312
  38   2.0000      -0.847981       -23.0747
  39   2.0000      -0.840569       -22.8730
  40   2.0000      -0.837237       -22.7824
  41   2.0000      -0.823716       -22.4145
  42   2.0000      -0.762480       -20.7481
  43   2.0000      -0.736093       -20.0301
  44   2.0000      -0.723826       -19.6963
  45   2.0000      -0.698266       -19.0008
  46   2.0000      -0.689489       -18.7619
  47   2.0000      -0.678407       -18.4604
  48   2.0000      -0.673103       -18.3161
  49   2.0000      -0.652315       -17.7504
  50   2.0000      -0.649181       -17.6651
  51   2.0000      -0.640799       -17.4370
  52   2.0000      -0.628573       -17.1043
  53   2.0000      -0.617852       -16.8126
  54   2.0000      -0.609837       -16.5945
  55   2.0000      -0.602421       -16.3927
  56   2.0000      -0.601190       -16.3592
  57   2.0000      -0.580048       -15.7839
  58   2.0000      -0.571339       -15.5469
  59   2.0000      -0.566308       -15.4100
  60   2.0000      -0.563897       -15.3444
  61   2.0000      -0.542039       -14.7496
  62   2.0000      -0.534210       -14.5366
  63   2.0000      -0.526843       -14.3361
  64   2.0000      -0.518140       -14.0993
  65   2.0000      -0.514798       -14.0084
  66   2.0000      -0.502170       -13.6647
  67   2.0000      -0.496825       -13.5193
  68   2.0000      -0.488178       -13.2840
  69   2.0000      -0.464387       -12.6366
  70   2.0000      -0.454850       -12.3771
  71   2.0000      -0.447276       -12.1710
  72   2.0000      -0.354494        -9.6463
  73   2.0000      -0.352524        -9.5927
  74   2.0000      -0.329400        -8.9634
  75   2.0000      -0.324645        -8.8341
  76   2.0000      -0.319372        -8.6906
  77   0.0000       0.073092         1.9889
  78   0.0000       0.101836         2.7711
  79   0.0000       0.123914         3.3719
  80   0.0000       0.130828         3.5600
  81   0.0000       0.133649         3.6368

MULLIKEN ATOMIC CHARGES
-----------------------
   0 C :   -0.262401
   1 C :    0.021340
   2 O :   -0.370520
   3 C :    0.463047
   4 O :   -0.421041
   5 C :   -0.266191
   6 C :    0.181262
   7 C :   -0.266231
   8 N :   -0.126844
   9 C :    0.211190
  10 S :   -0.440246
  11 N :   -0.216938
  12 C :    0.074249
  13 C :    0.026187
  14 C :   -0.188620
  15 C :   -0.131422
  16 C :   -0.276563
  17 C :    0.313956
  18 O :   -0.355692
  19 C :   -0.241345
  20 H :    0.086840
  21 H :    0.090104
  22 H :    0.104132
  23 H :    0.106243
  24 H :    0.117283
  25 H :    0.133233
  26 H :    0.130230
  27 H :    0.094744
  28 H :    0.199776
  29 H :    0.200927
  30 H :    0.152314
  31 H :    0.155557
  32 H :    0.163188
  33 H :    0.132479
  34 H :    0.241105
  35 H :    0.164670
Sum of atomic charges:   -0.0000000

LOEWDIN ATOMIC CHARGES
----------------------
   0 C :    0.106343
   1 C :   -0.017386
   2 O :    0.304537
   3 C :   -0.419730
   4 O :    0.103918
   5 C :   -0.099406
   6 C :   -0.055077
   7 C :    0.131805
   8 N :    0.407532
   9 C :   -0.456086
  10 S :   -0.035177
  11 N :    0.394351
  12 C :   -0.054677
  13 C :   -0.039317
  14 C :    0.017090
  15 C :    0.038802
  16 C :   -0.001338
  17 C :   -0.189835
  18 O :    0.395786
  19 C :    0.032714
  20 H :   -0.027693
  21 H :   -0.029733
  22 H :   -0.023404
  23 H :   -0.028158
  24 H :   -0.030211
  25 H :   -0.004270
  26 H :   -0.004404
  27 H :   -0.023480
  28 H :   -0.056950
  29 H :   -0.064469
  30 H :   -0.012665
  31 H :   -0.028305
  32 H :   -0.020576
  33 H :   -0.034823
  34 H :   -0.153308
  35 H :   -0.022400

  Mayer bond orders larger than 0.100000
B(  0-C ,  1-C ) :   0.9816 B(  0-C , 20-H ) :   0.9765 B(  0-C , 21-H ) :   0.9795
B(  0-C , 22-H ) :   0.9783 B(  1-C ,  2-O ) :   0.8766 B(  1-C , 23-H ) :   0.9728
B(  1-C , 24-H ) :   0.9704 B(  2-O ,  3-C ) :   1.1187 B(  3-C ,  4-O ) :   1.9952
B(  3-C ,  5-C ) :   1.0737 B(  5-C ,  6-C ) :   1.6287 B(  5-C , 12-C ) :   0.9524
B(  6-C ,  7-C ) :   0.9657 B(  6-C ,  8-N ) :   1.1559 B(  7-C , 25-H ) :   0.9609
B(  7-C , 26-H ) :   0.9585 B(  7-C , 27-H ) :   0.9903 B(  8-N ,  9-C ) :   1.1860
B(  8-N , 28-H ) :   0.9462 B(  9-C , 10-S ) :   1.6070 B(  9-C , 11-N ) :   1.3098
B( 11-N , 12-C ) :   0.9668 B( 11-N , 29-H ) :   0.9484 B( 12-C , 13-C ) :   0.9616
B( 12-C , 30-H ) :   1.0012 B( 13-C , 14-C ) :   1.3521 B( 13-C , 19-C ) :   1.3791
B( 14-C , 15-C ) :   1.3924 B( 14-C , 31-H ) :   0.9723 B( 15-C , 16-C ) :   1.3566
B( 15-C , 32-H ) :   0.9705 B( 16-C , 17-C ) :   1.3329 B( 16-C , 33-H ) :   0.9845
B( 17-C , 18-O ) :   1.1066 B( 17-C , 19-C ) :   1.3655 B( 18-O , 34-H ) :   0.9793
B( 19-C , 35-H ) :   0.9589

MP2 TOTAL ENERGY:    -1274.335134265 Eh
FINAL SINGLE POINT ENERGY     -1274.335134264813

DIPOLE MOMENT
-------------
                                X             Y             Z
Electronic contribution:      9.22092      10.87855       8.43863
Nuclear contribution   :    -10.33081     -12.45111      -8.46638
                        -----------------------------------------
Total Dipole Moment    :     -1.10989      -1.57257      -0.02775
                        -----------------------------------------
Magnitude (a.u.)       :      1.92500
Magnitude (Debye)      :      4.89295

Rotational constants in cm-1:     0.011769     0.008387     0.005927
Rotational constants in MHz :   352.832534   251.424295   177.681503

                             ****ORCA TERMINATED NORMALLY****
TOTAL RUN TIME: 0 days 1 hours 46 minutes 41 seconds 462 msec
