                         Program Version 4.2.0 -  RELEASE  -
|  1> ! ri-mp2 cc-pvtz cc-pvtz/c TightSCF NoKeepInts
|  2>
|  3> %scf
|  4>   MaxCore 4096
|  5> end
|  6> *xyz  0  1
|  7>     C       14.7642979   15.3425406   16.1235328
|  8>     C       14.9411682   16.2947769   14.9208656
|  9>     O       16.3320144   16.4250163   14.5478410
| 10>     C       17.3171684   16.5263838   15.4899770
| 11>     O       18.1976215   15.6897808   15.5756992
| 12>     C       17.1986803   17.6835101   16.4368133
| 13>     C       16.9096052   18.9335246   15.9914482
| 14>     C       16.4904736   19.3455405   14.5929688
| 15>     N       17.0845491   20.0440209   16.8205462
| 16>     C       17.7789182   20.0239585   18.0004258
| 17>     S       18.0552403   21.4011014   18.8730808
| 18>     N       18.2563482   18.8031457   18.4062795
| 19>     C       17.9334428   17.5102885   17.7711094
| 20>     C       17.2664040   16.5103385   18.7050609
| 21>     C       17.7098797   15.1765940   18.7541201
| 22>     C       17.0832246   14.2456840   19.5991533
| 23>     C       16.0036502   14.6519786   20.4019867
| 24>     C       15.5581190   15.9799615   20.3536206
| 25>     O       14.5101130   16.3728735   21.1203947
| 26>     C       16.1829221   16.9043445   19.5102751
| 27>     H       15.3077711   14.4026514   15.9610192
| 28>     H       13.7039290   15.0999756   16.2632832
| 29>     H       15.1226889   15.7957088   17.0538444
| 30>     H       14.3768176   15.9090082   14.0618928
| 31>     H       14.5202764   17.2723150   15.1848978
| 32>     H       17.0240164   18.7680227   13.8274435
| 33>     H       16.7158763   20.3999423   14.3890582
| 34>     H       15.4150252   19.2050203   14.4395063
| 35>     H       16.7696525   20.9524125   16.5185926
| 36>     H       18.7595158   18.8128932   19.2847470
| 37>     H       18.9459272   17.1678364   17.5101469
| 38>     H       18.5365295   14.8577849   18.1224692
| 39>     H       17.4329327   13.2149869   19.6250866
| 40>     H       15.5159423   13.9354281   21.0546085
| 41>     H       14.2453619   15.6137341   21.6615544
| 42>     H       15.8208963   17.9269163   19.4846505
| 43> *
| 44>
| 45>                          ****END OF INPUT****

CARTESIAN COORDINATES (ANGSTROEM)
---------------------------------
  C     14.764298   15.342541   16.123533
  C     14.941168   16.294777   14.920866
  O     16.332014   16.425016   14.547841
  C     17.317168   16.526384   15.489977
  O     18.197622   15.689781   15.575699
  C     17.198680   17.683510   16.436813
  C     16.909605   18.933525   15.991448
  C     16.490474   19.345540   14.592969
  N     17.084549   20.044021   16.820546
  C     17.778918   20.023958   18.000426
  S     18.055240   21.401101   18.873081
  N     18.256348   18.803146   18.406279
  C     17.933443   17.510289   17.771109
  C     17.266404   16.510338   18.705061
  C     17.709880   15.176594   18.754120
  C     17.083225   14.245684   19.599153
  C     16.003650   14.651979   20.401987
  C     15.558119   15.979961   20.353621
  O     14.510113   16.372874   21.120395
  C     16.182922   16.904345   19.510275
  H     15.307771   14.402651   15.961019
  H     13.703929   15.099976   16.263283
  H     15.122689   15.795709   17.053844
  H     14.376818   15.909008   14.061893
  H     14.520276   17.272315   15.184898
  H     17.024016   18.768023   13.827443
  H     16.715876   20.399942   14.389058
  H     15.415025   19.205020   14.439506
  H     16.769652   20.952413   16.518593
  H     18.759516   18.812893   19.284747
  H     18.945927   17.167836   17.510147
  H     18.536529   14.857785   18.122469
  H     17.432933   13.214987   19.625087
  H     15.515942   13.935428   21.054609
  H     14.245362   15.613734   21.661554
  H     15.820896   17.926916   19.484650

 Total Charge           Charge          ....    0
 Multiplicity           Mult            ....    1
 Number of Electrons    NEL             ....  154
 Basis Dimension        Dim             ....  828

ORBITAL ENERGIES
----------------

  NO   OCC          E(Eh)            E(eV)
   0   2.0000     -91.890349     -2500.4635
   1   2.0000     -20.597519      -560.4870
   2   2.0000     -20.591794      -560.3312
   3   2.0000     -20.552827      -559.2709
   4   2.0000     -15.630038      -425.3150
   5   2.0000     -15.608583      -424.7311
   6   2.0000     -11.396705      -310.1201
   7   2.0000     -11.385401      -309.8125
   8   2.0000     -11.339198      -308.5553
   9   2.0000     -11.314431      -307.8813
  10   2.0000     -11.309053      -307.7350
  11   2.0000     -11.307704      -307.6983
  12   2.0000     -11.263944      -306.5075
  13   2.0000     -11.262935      -306.4801
  14   2.0000     -11.261383      -306.4378
  15   2.0000     -11.254365      -306.2468
  16   2.0000     -11.244043      -305.9660
  17   2.0000     -11.239900      -305.8532
  18   2.0000     -11.236118      -305.7503
  19   2.0000     -11.229721      -305.5762
  20   2.0000      -8.895436      -242.0571
  21   2.0000      -6.577012      -178.9696
  22   2.0000      -6.575006      -178.9150
  23   2.0000      -6.574417      -178.8990
  24   2.0000      -1.447874       -39.3987
  25   2.0000      -1.417302       -38.5667
  26   2.0000      -1.359745       -37.0005
  27   2.0000      -1.342197       -36.5230
  28   2.0000      -1.239621       -33.7318
  29   2.0000      -1.158497       -31.5243
  30   2.0000      -1.124148       -30.5896
  31   2.0000      -1.046207       -28.4687
  32   2.0000      -1.034632       -28.1538
  33   2.0000      -1.016456       -27.6592
  34   2.0000      -1.004436       -27.3321
  35   2.0000      -0.988800       -26.9066
  36   2.0000      -0.925431       -25.1822
  37   2.0000      -0.896357       -24.3911
  38   2.0000      -0.852857       -23.2074
  39   2.0000      -0.840681       -22.8761
  40   2.0000      -0.834071       -22.6962
  41   2.0000      -0.828217       -22.5369
  42   2.0000      -0.744847       -20.2683
  43   2.0000      -0.733002       -19.9460
  44   2.0000      -0.730879       -19.8882
  45   2.0000      -0.694732       -18.9046
  46   2.0000      -0.685982       -18.6665
  47   2.0000      -0.682790       -18.5796
  48   2.0000      -0.676781       -18.4162
  49   2.0000      -0.663171       -18.0458
  50   2.0000      -0.655078       -17.8256
  51   2.0000      -0.647344       -17.6151
  52   2.0000      -0.637261       -17.3408
  53   2.0000      -0.623749       -16.9731
  54   2.0000      -0.608632       -16.5617
  55   2.0000      -0.603964       -16.4347
  56   2.0000      -0.601006       -16.3542
  57   2.0000      -0.582059       -15.8386
  58   2.0000      -0.575140       -15.6503
  59   2.0000      -0.565094       -15.3770
  60   2.0000      -0.559938       -15.2367
  61   2.0000      -0.546643       -14.8749
  62   2.0000      -0.543263       -14.7829
  63   2.0000      -0.535209       -14.5638
  64   2.0000      -0.520412       -14.1611
  65   2.0000      -0.511743       -13.9252
  66   2.0000      -0.499879       -13.6024
  67   2.0000      -0.493763       -13.4360
  68   2.0000      -0.486531       -13.2392
  69   2.0000      -0.469401       -12.7731
  70   2.0000      -0.458754       -12.4833
  71   2.0000      -0.449333       -12.2270
  72   2.0000      -0.357000        -9.7145
  73   2.0000      -0.349596        -9.5130
  74   2.0000      -0.329603        -8.9690
  75   2.0000      -0.321886        -8.7590
  76   2.0000      -0.320104        -8.7105
  77   0.0000       0.075985         2.0676
  78   0.0000       0.105017         2.8577
  79   0.0000       0.119174         3.2429
  80   0.0000       0.131207         3.5703
  81   0.0000       0.134215         3.6522

MULLIKEN ATOMIC CHARGES
-----------------------
   0 C :   -0.316546
   1 C :    0.036705
   2 O :   -0.362681
   3 C :    0.473037
   4 O :   -0.383108
   5 C :   -0.245543
   6 C :    0.149280
   7 C :   -0.308215
   8 N :   -0.132963
   9 C :    0.205215
  10 S :   -0.440466
  11 N :   -0.218670
  12 C :    0.066693
  13 C :   -0.012857
  14 C :   -0.183876
  15 C :   -0.139054
  16 C :   -0.269281
  17 C :    0.310241
  18 O :   -0.358013
  19 C :   -0.230976
  20 H :    0.116219
  21 H :    0.106119
  22 H :    0.119111
  23 H :    0.121040
  24 H :    0.077409
  25 H :    0.140237
  26 H :    0.114656
  27 H :    0.121986
  28 H :    0.198191
  29 H :    0.201793
  30 H :    0.162304
  31 H :    0.175080
  32 H :    0.163373
  33 H :    0.131881
  34 H :    0.240787
  35 H :    0.170895
Sum of atomic charges:   -0.0000000

LOEWDIN ATOMIC CHARGES
----------------------
   0 C :    0.109281
   1 C :   -0.019613
   2 O :    0.292233
   3 C :   -0.421133
   4 O :    0.126306
   5 C :   -0.093601
   6 C :   -0.073828
   7 C :    0.127914
   8 N :    0.404588
   9 C :   -0.458919
  10 S :   -0.036289
  11 N :    0.396294
  12 C :   -0.048509
  13 C :   -0.044792
  14 C :    0.023318
  15 C :    0.043524
  16 C :   -0.000366
  17 C :   -0.192972
  18 O :    0.394718
  19 C :    0.026647
  20 H :   -0.020672
  21 H :   -0.023918
  22 H :   -0.028704
  23 H :   -0.021139
  24 H :   -0.040558
  25 H :   -0.006413
  26 H :   -0.016342
  27 H :   -0.016798
  28 H :   -0.057832
  29 H :   -0.063189
  30 H :   -0.005649
  31 H :   -0.021931
  32 H :   -0.019213
  33 H :   -0.035060
  34 H :   -0.153629
  35 H :   -0.023755

  Mayer bond orders larger than 0.100000
B(  0-C ,  1-C ) :   0.9668 B(  0-C , 20-H ) :   0.9726 B(  0-C , 21-H ) :   0.9767
B(  0-C , 22-H ) :   0.9655 B(  1-C ,  2-O ) :   0.9018 B(  1-C , 23-H ) :   0.9794
B(  1-C , 24-H ) :   0.9732 B(  2-O ,  3-C ) :   1.1086 B(  3-C ,  4-O ) :   2.0690
B(  3-C ,  5-C ) :   0.9680 B(  5-C ,  6-C ) :   1.6988 B(  5-C , 12-C ) :   0.9388
B(  6-C ,  7-C ) :   0.9397 B(  6-C ,  8-N ) :   1.1268 B(  7-C , 25-H ) :   0.9661
B(  7-C , 26-H ) :   0.9869 B(  7-C , 27-H ) :   0.9670 B(  8-N ,  9-C ) :   1.1893
B(  8-N , 28-H ) :   0.9487 B(  9-C , 10-S ) :   1.6117 B(  9-C , 11-N ) :   1.2974
B( 11-N , 12-C ) :   0.9816 B( 11-N , 29-H ) :   0.9482 B( 12-C , 13-C ) :   0.9704
B( 12-C , 30-H ) :   0.9927 B( 13-C , 14-C ) :   1.3914 B( 13-C , 19-C ) :   1.3531
B( 14-C , 15-C ) :   1.3964 B( 14-C , 31-H ) :   0.9571 B( 15-C , 16-C ) :   1.3599
B( 15-C , 32-H ) :   0.9704 B( 16-C , 17-C ) :   1.3324 B( 16-C , 33-H ) :   0.9844
B( 17-C , 18-O ) :   1.1081 B( 17-C , 19-C ) :   1.3634 B( 18-O , 34-H ) :   0.9798
B( 19-C , 35-H ) :   0.9592

MP2 TOTAL ENERGY:    -1274.328111504 Eh
FINAL SINGLE POINT ENERGY     -1274.328111504132

DIPOLE MOMENT
-------------
                                X             Y             Z
Electronic contribution:      8.79320       8.30605       6.84412
Nuclear contribution   :    -10.36117      -9.40907      -7.39679
                        -----------------------------------------
Total Dipole Moment    :     -1.56797      -1.10301      -0.55268
                        -----------------------------------------
Magnitude (a.u.)       :      1.99515
Magnitude (Debye)      :      5.07127

Rotational constants in cm-1:     0.011414     0.009334     0.006326
Rotational constants in MHz :   342.169253   279.837237   189.655772

                             ****ORCA TERMINATED NORMALLY****
TOTAL RUN TIME: 0 days 2 hours 2 minutes 32 seconds 74 msec
