                         Program Version 4.2.0 -  RELEASE  -
|  1> ! ri-mp2 cc-pvtz cc-pvtz/c TightSCF NoKeepInts
|  2>
|  3> %scf
|  4>   MaxCore 4096
|  5> end
|  6> *xyz  0  1
|  7>     C       14.7888063   15.0158998   14.0279011
|  8>     C       15.4620290   14.7741809   15.3963290
|  9>     O       16.2109944   15.8970917   15.9284242
| 10>     C       15.9605372   17.2341070   15.7384149
| 11>     O       15.1651712   17.6722021   14.9270934
| 12>     C       16.7448881   18.0905171   16.6998530
| 13>     C       16.8528295   19.4317813   16.5104309
| 14>     C       16.0564233   20.2924325   15.5508761
| 15>     N       17.7822058   20.1886668   17.2278386
| 16>     C       18.7705549   19.6610275   18.0132502
| 17>     S       19.9001282   20.6123676   18.7581762
| 18>     N       18.7897299   18.2950119   18.1335026
| 19>     C       17.7677081   17.3746575   17.6005580
| 20>     C       17.1448879   16.5052626   18.6853945
| 21>     C       17.4480476   15.1335487   18.7665126
| 22>     C       16.8745757   14.3343024   19.7698594
| 23>     C       15.9941984   14.9126012   20.7005124
| 24>     C       15.6947654   16.2800244   20.6242010
| 25>     O       14.8469199   16.8411368   21.5227519
| 26>     C       16.2671216   17.0727878   19.6245164
| 27>     H       13.9092377   15.6643331   14.1250305
| 28>     H       14.4478627   14.0652577   13.6007895
| 29>     H       15.4905820   15.4733054   13.3192915
| 30>     H       14.6787201   14.5017514   16.1156842
| 31>     H       16.1379293   13.9133623   15.3155653
| 32>     H       14.9795625   20.1434622   15.7024039
| 33>     H       16.2815587   20.0228786   14.5111640
| 34>     H       16.2559643   21.3642936   15.6657917
| 35>     H       17.7922389   21.1913376   17.1306671
| 36>     H       19.5101642   17.9367361   18.7474525
| 37>     H       18.3866433   16.7678109   16.9246521
| 38>     H       18.1256271   14.6854140   18.0447932
| 39>     H       17.1128903   13.2735463   19.8245797
| 40>     H       15.5492458   14.2998410   21.4775649
| 41>     H       14.5767009   16.1464889   22.1417802
| 42>     H       16.0295499   18.1305735   19.5843934
| 43> *
| 44>
| 45>                          ****END OF INPUT****

CARTESIAN COORDINATES (ANGSTROEM)
---------------------------------
  C     14.788806   15.015900   14.027901
  C     15.462029   14.774181   15.396329
  O     16.210994   15.897092   15.928424
  C     15.960537   17.234107   15.738415
  O     15.165171   17.672202   14.927093
  C     16.744888   18.090517   16.699853
  C     16.852829   19.431781   16.510431
  C     16.056423   20.292433   15.550876
  N     17.782206   20.188667   17.227839
  C     18.770555   19.661027   18.013250
  S     19.900128   20.612368   18.758176
  N     18.789730   18.295012   18.133503
  C     17.767708   17.374658   17.600558
  C     17.144888   16.505263   18.685395
  C     17.448048   15.133549   18.766513
  C     16.874576   14.334302   19.769859
  C     15.994198   14.912601   20.700512
  C     15.694765   16.280024   20.624201
  O     14.846920   16.841137   21.522752
  C     16.267122   17.072788   19.624516
  H     13.909238   15.664333   14.125030
  H     14.447863   14.065258   13.600789
  H     15.490582   15.473305   13.319291
  H     14.678720   14.501751   16.115684
  H     16.137929   13.913362   15.315565
  H     14.979562   20.143462   15.702404
  H     16.281559   20.022879   14.511164
  H     16.255964   21.364294   15.665792
  H     17.792239   21.191338   17.130667
  H     19.510164   17.936736   18.747452
  H     18.386643   16.767811   16.924652
  H     18.125627   14.685414   18.044793
  H     17.112890   13.273546   19.824580
  H     15.549246   14.299841   21.477565
  H     14.576701   16.146489   22.141780
  H     16.029550   18.130574   19.584393

 Total Charge           Charge          ....    0
 Multiplicity           Mult            ....    1
 Number of Electrons    NEL             ....  154
 Basis Dimension        Dim             ....  828

ORBITAL ENERGIES
----------------

  NO   OCC          E(Eh)            E(eV)
   0   2.0000     -91.887824     -2500.3948
   1   2.0000     -20.597899      -560.4973
   2   2.0000     -20.595708      -560.4377
   3   2.0000     -20.539799      -558.9163
   4   2.0000     -15.628026      -425.2602
   5   2.0000     -15.605777      -424.6548
   6   2.0000     -11.397869      -310.1518
   7   2.0000     -11.382324      -309.7288
   8   2.0000     -11.336134      -308.4719
   9   2.0000     -11.312742      -307.8354
  10   2.0000     -11.306053      -307.6533
  11   2.0000     -11.303042      -307.5714
  12   2.0000     -11.259759      -306.3936
  13   2.0000     -11.258342      -306.3551
  14   2.0000     -11.254293      -306.2449
  15   2.0000     -11.250743      -306.1483
  16   2.0000     -11.242523      -305.9246
  17   2.0000     -11.237758      -305.7950
  18   2.0000     -11.237711      -305.7937
  19   2.0000     -11.222134      -305.3698
  20   2.0000      -8.892906      -241.9883
  21   2.0000      -6.574483      -178.9008
  22   2.0000      -6.572482      -178.8463
  23   2.0000      -6.571894      -178.8303
  24   2.0000      -1.442997       -39.2660
  25   2.0000      -1.415352       -38.5137
  26   2.0000      -1.354120       -36.8475
  27   2.0000      -1.339335       -36.4452
  28   2.0000      -1.237173       -33.6652
  29   2.0000      -1.156361       -31.4662
  30   2.0000      -1.119423       -30.4610
  31   2.0000      -1.041610       -28.3437
  32   2.0000      -1.036395       -28.2017
  33   2.0000      -1.013959       -27.5912
  34   2.0000      -0.994975       -27.0747
  35   2.0000      -0.982996       -26.7487
  36   2.0000      -0.920636       -25.0518
  37   2.0000      -0.896911       -24.4062
  38   2.0000      -0.845963       -23.0198
  39   2.0000      -0.837188       -22.7810
  40   2.0000      -0.833165       -22.6716
  41   2.0000      -0.818011       -22.2592
  42   2.0000      -0.746081       -20.3019
  43   2.0000      -0.731011       -19.8918
  44   2.0000      -0.717649       -19.5282
  45   2.0000      -0.694439       -18.8966
  46   2.0000      -0.687294       -18.7022
  47   2.0000      -0.676993       -18.4219
  48   2.0000      -0.667789       -18.1715
  49   2.0000      -0.659010       -17.9326
  50   2.0000      -0.648051       -17.6344
  51   2.0000      -0.643995       -17.5240
  52   2.0000      -0.633843       -17.2477
  53   2.0000      -0.606165       -16.4946
  54   2.0000      -0.601011       -16.3543
  55   2.0000      -0.598217       -16.2783
  56   2.0000      -0.596188       -16.2231
  57   2.0000      -0.582755       -15.8576
  58   2.0000      -0.574679       -15.6378
  59   2.0000      -0.568915       -15.4810
  60   2.0000      -0.561281       -15.2732
  61   2.0000      -0.539340       -14.6762
  62   2.0000      -0.535653       -14.5759
  63   2.0000      -0.523564       -14.2469
  64   2.0000      -0.521987       -14.2040
  65   2.0000      -0.511573       -13.9206
  66   2.0000      -0.502236       -13.6665
  67   2.0000      -0.496842       -13.5198
  68   2.0000      -0.482569       -13.1314
  69   2.0000      -0.462281       -12.5793
  70   2.0000      -0.452149       -12.3036
  71   2.0000      -0.439085       -11.9481
  72   2.0000      -0.351736        -9.5712
  73   2.0000      -0.348685        -9.4882
  74   2.0000      -0.327064        -8.8999
  75   2.0000      -0.320144        -8.7116
  76   2.0000      -0.317042        -8.6271
  77   0.0000       0.078506         2.1362
  78   0.0000       0.106654         2.9022
  79   0.0000       0.124432         3.3860
  80   0.0000       0.133607         3.6356
  81   0.0000       0.136899         3.7252

MULLIKEN ATOMIC CHARGES
-----------------------
   0 C :   -0.284926
   1 C :    0.050608
   2 O :   -0.359580
   3 C :    0.436440
   4 O :   -0.435405
   5 C :   -0.210902
   6 C :    0.172441
   7 C :   -0.267955
   8 N :   -0.125748
   9 C :    0.211230
  10 S :   -0.443870
  11 N :   -0.215443
  12 C :    0.058526
  13 C :    0.052970
  14 C :   -0.185051
  15 C :   -0.132526
  16 C :   -0.276904
  17 C :    0.317091
  18 O :   -0.357013
  19 C :   -0.250179
  20 H :    0.117653
  21 H :    0.094783
  22 H :    0.100196
  23 H :    0.089390
  24 H :    0.094637
  25 H :    0.133340
  26 H :    0.128031
  27 H :    0.094396
  28 H :    0.199505
  29 H :    0.200189
  30 H :    0.150645
  31 H :    0.151321
  32 H :    0.159832
  33 H :    0.129552
  34 H :    0.240419
  35 H :    0.162309
Sum of atomic charges:   -0.0000000

LOEWDIN ATOMIC CHARGES
----------------------
   0 C :    0.102178
   1 C :   -0.008686
   2 O :    0.296695
   3 C :   -0.412623
   4 O :    0.106190
   5 C :   -0.093673
   6 C :   -0.056774
   7 C :    0.130120
   8 N :    0.406919
   9 C :   -0.456934
  10 S :   -0.037990
  11 N :    0.394570
  12 C :   -0.055009
  13 C :   -0.038445
  14 C :    0.016395
  15 C :    0.038911
  16 C :   -0.001197
  17 C :   -0.189581
  18 O :    0.394930
  19 C :    0.033091
  20 H :   -0.025395
  21 H :   -0.028928
  22 H :   -0.025834
  23 H :   -0.028311
  24 H :   -0.025953
  25 H :   -0.004614
  26 H :   -0.005599
  27 H :   -0.023943
  28 H :   -0.057394
  29 H :   -0.064565
  30 H :   -0.014406
  31 H :   -0.029818
  32 H :   -0.021572
  33 H :   -0.035675
  34 H :   -0.154142
  35 H :   -0.022938

  Mayer bond orders larger than 0.100000
B(  0-C ,  1-C ) :   0.9800 B(  0-C , 20-H ) :   0.9725 B(  0-C , 21-H ) :   0.9752
B(  0-C , 22-H ) :   0.9750 B(  1-C ,  2-O ) :   0.9004 B(  1-C , 23-H ) :   0.9749
B(  1-C , 24-H ) :   0.9815 B(  2-O ,  3-C ) :   1.1454 B(  3-C ,  4-O ) :   1.9634
B(  3-C ,  5-C ) :   1.0799 B(  5-C ,  6-C ) :   1.6395 B(  5-C , 12-C ) :   0.9562
B(  6-C ,  7-C ) :   0.9658 B(  6-C ,  8-N ) :   1.1512 B(  7-C , 25-H ) :   0.9611
B(  7-C , 26-H ) :   0.9590 B(  7-C , 27-H ) :   0.9911 B(  8-N ,  9-C ) :   1.1883
B(  8-N , 28-H ) :   0.9465 B(  9-C , 10-S ) :   1.6037 B(  9-C , 11-N ) :   1.3105
B( 11-N , 12-C ) :   0.9650 B( 11-N , 29-H ) :   0.9484 B( 12-C , 13-C ) :   0.9650
B( 12-C , 30-H ) :   1.0010 B( 13-C , 14-C ) :   1.3508 B( 13-C , 19-C ) :   1.3818
B( 14-C , 15-C ) :   1.3947 B( 14-C , 31-H ) :   0.9722 B( 15-C , 16-C ) :   1.3599
B( 15-C , 32-H ) :   0.9709 B( 16-C , 17-C ) :   1.3341 B( 16-C , 33-H ) :   0.9853
B( 17-C , 18-O ) :   1.1041 B( 17-C , 19-C ) :   1.3648 B( 18-O , 34-H ) :   0.9800
B( 19-C , 35-H ) :   0.9598

MP2 TOTAL ENERGY:    -1274.332728176 Eh
FINAL SINGLE POINT ENERGY     -1274.332728176233

DIPOLE MOMENT
-------------
                                X             Y             Z
Electronic contribution:      9.25857       9.76310      10.46910
Nuclear contribution   :    -10.31926     -11.54211     -10.82985
                        -----------------------------------------
Total Dipole Moment    :     -1.06069      -1.77902      -0.36075
                        -----------------------------------------
Magnitude (a.u.)       :      2.10240
Magnitude (Debye)      :      5.34388

Rotational constants in cm-1:     0.010539     0.008819     0.005762
Rotational constants in MHz :   315.958663   264.379918   172.726689

                             ****ORCA TERMINATED NORMALLY****
TOTAL RUN TIME: 0 days 1 hours 37 minutes 43 seconds 607 msec
