                         Program Version 4.2.0 -  RELEASE  -
|  1> ! ri-mp2 cc-pvtz cc-pvtz/c TightSCF NoKeepInts
|  2>
|  3> %scf
|  4>   MaxCore 4096
|  5> end
|  6> *xyz  0  1
|  7>     C       14.4177222   15.6408465   15.4037244
|  8>     C       15.7239254   15.0157119   15.9424189
|  9>     O       16.9068909   15.7481414   15.5345785
| 10>     C       16.8573521   17.0814229   15.2429791
| 11>     O       16.6279913   17.4481868   14.1044981
| 12>     C       17.0465605   17.9944209   16.4278845
| 13>     C       16.9386392   19.3397636   16.2667077
| 14>     C       16.2970167   20.0778087   15.1093850
| 15>     N       17.4266982   20.2261024   17.2290878
| 16>     C       18.2411231   19.8657912   18.2671474
| 17>     S       18.8869641   20.9803433   19.3043890
| 18>     N       18.5162323   18.5278676   18.3870784
| 19>     C       17.8841535   17.4513773   17.6013320
| 20>     C       17.1988656   16.4283770   18.4928080
| 21>     C       17.7877065   15.1714372   18.7241897
| 22>     C       17.1544622   14.2305758   19.5537261
| 23>     C       15.9282252   14.5526796   20.1608630
| 24>     C       15.3467309   15.8091543   19.9411446
| 25>     O       14.1633789   16.1227984   20.5253883
| 26>     C       15.9778707   16.7430136   19.1134907
| 27>     H       14.2368074   16.6301073   15.8422681
| 28>     H       13.5615300   15.0035597   15.6558469
| 29>     H       14.4534267   15.7400762   14.3110162
| 30>     H       15.6564490   14.9681323   17.0336151
| 31>     H       15.8070651   13.9825649   15.5814500
| 32>     H       15.3552646   19.5979154   14.8143348
| 33>     H       16.9578031   20.0681881   14.2328120
| 34>     H       16.0662528   21.1236859   15.3437838
| 35>     H       17.2596599   21.2147353   17.1296090
| 36>     H       19.1012170   18.2892176   19.1779887
| 37>     H       18.7803233   17.0176848   17.1348112
| 38>     H       18.7348380   14.9207070   18.2531314
| 39>     H       17.6145933   13.2586687   19.7253701
| 40>     H       15.4364396   13.8292091   20.8031670
| 41>     H       13.9181985   15.3855675   21.1049891
| 42>     H       15.5186220   17.7141595   18.9609853
| 43> *
| 44>
| 45>                          ****END OF INPUT****

CARTESIAN COORDINATES (ANGSTROEM)
---------------------------------
  C     14.417722   15.640847   15.403724
  C     15.723925   15.015712   15.942419
  O     16.906891   15.748141   15.534578
  C     16.857352   17.081423   15.242979
  O     16.627991   17.448187   14.104498
  C     17.046560   17.994421   16.427885
  C     16.938639   19.339764   16.266708
  C     16.297017   20.077809   15.109385
  N     17.426698   20.226102   17.229088
  C     18.241123   19.865791   18.267147
  S     18.886964   20.980343   19.304389
  N     18.516232   18.527868   18.387078
  C     17.884154   17.451377   17.601332
  C     17.198866   16.428377   18.492808
  C     17.787706   15.171437   18.724190
  C     17.154462   14.230576   19.553726
  C     15.928225   14.552680   20.160863
  C     15.346731   15.809154   19.941145
  O     14.163379   16.122798   20.525388
  C     15.977871   16.743014   19.113491
  H     14.236807   16.630107   15.842268
  H     13.561530   15.003560   15.655847
  H     14.453427   15.740076   14.311016
  H     15.656449   14.968132   17.033615
  H     15.807065   13.982565   15.581450
  H     15.355265   19.597915   14.814335
  H     16.957803   20.068188   14.232812
  H     16.066253   21.123686   15.343784
  H     17.259660   21.214735   17.129609
  H     19.101217   18.289218   19.177989
  H     18.780323   17.017685   17.134811
  H     18.734838   14.920707   18.253131
  H     17.614593   13.258669   19.725370
  H     15.436440   13.829209   20.803167
  H     13.918198   15.385568   21.104989
  H     15.518622   17.714160   18.960985

 Total Charge           Charge          ....    0
 Multiplicity           Mult            ....    1
 Number of Electrons    NEL             ....  154
 Basis Dimension        Dim             ....  828

ORBITAL ENERGIES
----------------

  NO   OCC          E(Eh)            E(eV)
   0   2.0000     -91.890934     -2500.4794
   1   2.0000     -20.603291      -560.6440
   2   2.0000     -20.579195      -559.9884
   3   2.0000     -20.545971      -559.0843
   4   2.0000     -15.630964      -425.3402
   5   2.0000     -15.609182      -424.7474
   6   2.0000     -11.392213      -309.9979
   7   2.0000     -11.385179      -309.8065
   8   2.0000     -11.338926      -308.5479
   9   2.0000     -11.321315      -308.0686
  10   2.0000     -11.311706      -307.8072
  11   2.0000     -11.296789      -307.4013
  12   2.0000     -11.266653      -306.5812
  13   2.0000     -11.262320      -306.4633
  14   2.0000     -11.258912      -306.3706
  15   2.0000     -11.253303      -306.2179
  16   2.0000     -11.251035      -306.1562
  17   2.0000     -11.245514      -306.0060
  18   2.0000     -11.245001      -305.9920
  19   2.0000     -11.226895      -305.4994
  20   2.0000      -8.895985      -242.0721
  21   2.0000      -6.577552      -178.9843
  22   2.0000      -6.575559      -178.9301
  23   2.0000      -6.574963      -178.9138
  24   2.0000      -1.441320       -39.2203
  25   2.0000      -1.423017       -38.7223
  26   2.0000      -1.349715       -36.7276
  27   2.0000      -1.342861       -36.5411
  28   2.0000      -1.241123       -33.7727
  29   2.0000      -1.164048       -31.6754
  30   2.0000      -1.122631       -30.5483
  31   2.0000      -1.047909       -28.5150
  32   2.0000      -1.030347       -28.0372
  33   2.0000      -1.021978       -27.8094
  34   2.0000      -1.000472       -27.2242
  35   2.0000      -0.987492       -26.8710
  36   2.0000      -0.925557       -25.1857
  37   2.0000      -0.892794       -24.2941
  38   2.0000      -0.849909       -23.1272
  39   2.0000      -0.843850       -22.9623
  40   2.0000      -0.840586       -22.8735
  41   2.0000      -0.823977       -22.4215
  42   2.0000      -0.747324       -20.3357
  43   2.0000      -0.737643       -20.0723
  44   2.0000      -0.716120       -19.4866
  45   2.0000      -0.701270       -19.0825
  46   2.0000      -0.689284       -18.7564
  47   2.0000      -0.677392       -18.4328
  48   2.0000      -0.670297       -18.2397
  49   2.0000      -0.663089       -18.0436
  50   2.0000      -0.652102       -17.7446
  51   2.0000      -0.645012       -17.5517
  52   2.0000      -0.637220       -17.3396
  53   2.0000      -0.622670       -16.9437
  54   2.0000      -0.613098       -16.6832
  55   2.0000      -0.605247       -16.4696
  56   2.0000      -0.602968       -16.4076
  57   2.0000      -0.582089       -15.8394
  58   2.0000      -0.572031       -15.5657
  59   2.0000      -0.567609       -15.4454
  60   2.0000      -0.548358       -14.9216
  61   2.0000      -0.542495       -14.7620
  62   2.0000      -0.538216       -14.6456
  63   2.0000      -0.530073       -14.4240
  64   2.0000      -0.527871       -14.3641
  65   2.0000      -0.516340       -14.0503
  66   2.0000      -0.503820       -13.7096
  67   2.0000      -0.492809       -13.4100
  68   2.0000      -0.481537       -13.1033
  69   2.0000      -0.466169       -12.6851
  70   2.0000      -0.453836       -12.3495
  71   2.0000      -0.442458       -12.0399
  72   2.0000      -0.356965        -9.7135
  73   2.0000      -0.354566        -9.6482
  74   2.0000      -0.331338        -9.0162
  75   2.0000      -0.327956        -8.9241
  76   2.0000      -0.320571        -8.7232
  77   0.0000       0.071650         1.9497
  78   0.0000       0.098191         2.6719
  79   0.0000       0.121624         3.3095
  80   0.0000       0.127716         3.4753
  81   0.0000       0.130530         3.5519

MULLIKEN ATOMIC CHARGES
-----------------------
   0 C :   -0.305488
   1 C :    0.037669
   2 O :   -0.386161
   3 C :    0.476216
   4 O :   -0.395565
   5 C :   -0.284755
   6 C :    0.183381
   7 C :   -0.268483
   8 N :   -0.126555
   9 C :    0.210517
  10 S :   -0.439164
  11 N :   -0.212730
  12 C :    0.062328
  13 C :   -0.010627
  14 C :   -0.162592
  15 C :   -0.131699
  16 C :   -0.272294
  17 C :    0.305293
  18 O :   -0.357127
  19 C :   -0.223962
  20 H :    0.090890
  21 H :    0.107234
  22 H :    0.120943
  23 H :    0.099767
  24 H :    0.114040
  25 H :    0.126339
  26 H :    0.136360
  27 H :    0.094047
  28 H :    0.199710
  29 H :    0.200618
  30 H :    0.151696
  31 H :    0.154578
  32 H :    0.163912
  33 H :    0.134160
  34 H :    0.242030
  35 H :    0.165474
Sum of atomic charges:   -0.0000000

LOEWDIN ATOMIC CHARGES
----------------------
   0 C :    0.105195
   1 C :   -0.012200
   2 O :    0.282595
   3 C :   -0.424759
   4 O :    0.121384
   5 C :   -0.103884
   6 C :   -0.054965
   7 C :    0.130304
   8 N :    0.407915
   9 C :   -0.457466
  10 S :   -0.034038
  11 N :    0.395140
  12 C :   -0.054584
  13 C :   -0.041968
  14 C :    0.018703
  15 C :    0.042558
  16 C :   -0.000077
  17 C :   -0.191945
  18 O :    0.396594
  19 C :    0.032494
  20 H :   -0.031277
  21 H :   -0.023679
  22 H :   -0.022495
  23 H :   -0.034931
  24 H :   -0.024207
  25 H :   -0.006229
  26 H :   -0.003888
  27 H :   -0.023267
  28 H :   -0.056431
  29 H :   -0.064035
  30 H :   -0.011282
  31 H :   -0.026985
  32 H :   -0.019161
  33 H :   -0.033862
  34 H :   -0.152432
  35 H :   -0.022836

  Mayer bond orders larger than 0.100000
B(  0-C ,  1-C ) :   0.9716 B(  0-C , 20-H ) :   0.9745 B(  0-C , 21-H ) :   0.9753
B(  0-C , 22-H ) :   0.9725 B(  1-C ,  2-O ) :   0.8966 B(  1-C , 23-H ) :   0.9665
B(  1-C , 24-H ) :   0.9820 B(  2-O ,  3-C ) :   1.0910 B(  3-C ,  4-O ) :   2.0439
B(  3-C ,  5-C ) :   1.0541 B(  5-C ,  6-C ) :   1.6197 B(  5-C , 12-C ) :   0.9620
B(  6-C ,  7-C ) :   0.9677 B(  6-C ,  8-N ) :   1.1572 B(  7-C , 25-H ) :   0.9665
B(  7-C , 26-H ) :   0.9548 B(  7-C , 27-H ) :   0.9876 B(  8-N ,  9-C ) :   1.1860
B(  8-N , 28-H ) :   0.9470 B(  9-C , 10-S ) :   1.6090 B(  9-C , 11-N ) :   1.3076
B( 11-N , 12-C ) :   0.9645 B( 11-N , 29-H ) :   0.9487 B( 12-C , 13-C ) :   0.9632
B( 12-C , 30-H ) :   1.0031 B( 13-C , 14-C ) :   1.3555 B( 13-C , 19-C ) :   1.3730
B( 14-C , 15-C ) :   1.3949 B( 14-C , 31-H ) :   0.9714 B( 15-C , 16-C ) :   1.3592
B( 15-C , 32-H ) :   0.9701 B( 16-C , 17-C ) :   1.3303 B( 16-C , 33-H ) :   0.9840
B( 17-C , 18-O ) :   1.1075 B( 17-C , 19-C ) :   1.3668 B( 18-O , 34-H ) :   0.9785
B( 19-C , 35-H ) :   0.9603

MP2 TOTAL ENERGY:    -1274.323107145 Eh
FINAL SINGLE POINT ENERGY     -1274.323107145132

DIPOLE MOMENT
-------------
                                X             Y             Z
Electronic contribution:      9.53243       8.37726       6.95449
Nuclear contribution   :    -10.67709     -10.00031      -6.69013
                        -----------------------------------------
Total Dipole Moment    :     -1.14467      -1.62305       0.26436
                        -----------------------------------------
Magnitude (a.u.)       :      2.00361
Magnitude (Debye)      :      5.09276

Rotational constants in cm-1:     0.012074     0.008943     0.006230
Rotational constants in MHz :   361.972838   268.101088   186.763057

                             ****ORCA TERMINATED NORMALLY****
TOTAL RUN TIME: 0 days 1 hours 44 minutes 57 seconds 802 msec
