                         Program Version 4.2.0 -  RELEASE  -
|  1> ! ri-mp2 cc-pvtz cc-pvtz/c TightSCF NoKeepInts
|  2>
|  3> %scf
|  4>   MaxCore 4096
|  5> end
|  6> *xyz  0  1
|  7>     C       14.4875625   16.4076190   16.2792182
|  8>     C       15.1391218   15.9780863   14.9458412
|  9>     O       16.5562046   15.6995255   15.0493910
| 10>     C       17.5743310   16.5028719   15.5063490
| 11>     O       18.7353391   16.2212974   15.2760701
| 12>     C       17.2333235   17.5942828   16.4572583
| 13>     C       16.8754670   18.8017781   15.9611474
| 14>     C       16.4852204   19.1108570   14.5300914
| 15>     N       16.8916960   19.9416757   16.7666182
| 16>     C       17.5059579   20.0043152   17.9900148
| 17>     S       17.5995075   21.4156353   18.8467018
| 18>     N       18.0632092   18.8380186   18.4555998
| 19>     C       17.8996859   17.5099911   17.8297667
| 20>     C       17.2951005   16.4384918   18.7238666
| 21>     C       17.7929589   15.1239409   18.6802929
| 22>     C       17.2272480   14.1194783   19.4830440
| 23>     C       16.1528307   14.4321032   20.3334897
| 24>     C       15.6510921   15.7402757   20.3741189
| 25>     O       14.6066719   16.0420288   21.1857372
| 26>     C       16.2158150   16.7385896   19.5737861
| 27>     H       14.8939614   15.8262183   17.1163694
| 28>     H       13.4078848   16.2180580   16.2415890
| 29>     H       14.6130124   17.4744529   16.4873567
| 30>     H       14.6435575   15.0607794   14.6018485
| 31>     H       14.9571662   16.7450483   14.1831234
| 32>     H       16.8811744   18.3738941   13.8203979
| 33>     H       16.8804478   20.0844417   14.2126563
| 34>     H       15.3947803   19.1394553   14.4183311
| 35>     H       16.5228438   20.8126003   16.4184861
| 36>     H       18.5113932   18.9101648   19.3604968
| 37>     H       18.9537884   17.2682302   17.6260137
| 38>     H       18.6168728   14.8791543   18.0127740
| 39>     H       17.6195463   13.1047254   19.4404557
| 40>     H       15.7118596   13.6585635   20.9535416
| 41>     H       14.3826241   15.2401321   21.6816973
| 42>     H       15.8077434   17.7432192   19.6144591
| 43> *
| 44>
| 45>                          ****END OF INPUT****

CARTESIAN COORDINATES (ANGSTROEM)
---------------------------------
  C     14.487562   16.407619   16.279218
  C     15.139122   15.978086   14.945841
  O     16.556205   15.699526   15.049391
  C     17.574331   16.502872   15.506349
  O     18.735339   16.221297   15.276070
  C     17.233323   17.594283   16.457258
  C     16.875467   18.801778   15.961147
  C     16.485220   19.110857   14.530091
  N     16.891696   19.941676   16.766618
  C     17.505958   20.004315   17.990015
  S     17.599508   21.415635   18.846702
  N     18.063209   18.838019   18.455600
  C     17.899686   17.509991   17.829767
  C     17.295101   16.438492   18.723867
  C     17.792959   15.123941   18.680293
  C     17.227248   14.119478   19.483044
  C     16.152831   14.432103   20.333490
  C     15.651092   15.740276   20.374119
  O     14.606672   16.042029   21.185737
  C     16.215815   16.738590   19.573786
  H     14.893961   15.826218   17.116369
  H     13.407885   16.218058   16.241589
  H     14.613012   17.474453   16.487357
  H     14.643558   15.060779   14.601848
  H     14.957166   16.745048   14.183123
  H     16.881174   18.373894   13.820398
  H     16.880448   20.084442   14.212656
  H     15.394780   19.139455   14.418331
  H     16.522844   20.812600   16.418486
  H     18.511393   18.910165   19.360497
  H     18.953788   17.268230   17.626014
  H     18.616873   14.879154   18.012774
  H     17.619546   13.104725   19.440456
  H     15.711860   13.658563   20.953542
  H     14.382624   15.240132   21.681697
  H     15.807743   17.743219   19.614459

 Total Charge           Charge          ....    0
 Multiplicity           Mult            ....    1
 Number of Electrons    NEL             ....  154
 Basis Dimension        Dim             ....  828

ORBITAL ENERGIES
----------------

  NO   OCC          E(Eh)            E(eV)
   0   2.0000     -91.888754     -2500.4201
   1   2.0000     -20.600342      -560.5638
   2   2.0000     -20.599823      -560.5497
   3   2.0000     -20.552015      -559.2488
   4   2.0000     -15.625666      -425.1960
   5   2.0000     -15.609380      -424.7528
   6   2.0000     -11.401005      -310.2371
   7   2.0000     -11.384831      -309.7970
   8   2.0000     -11.327324      -308.2322
   9   2.0000     -11.317382      -307.9616
  10   2.0000     -11.312482      -307.8283
  11   2.0000     -11.311799      -307.8097
  12   2.0000     -11.268722      -306.6375
  13   2.0000     -11.265421      -306.5477
  14   2.0000     -11.261431      -306.4391
  15   2.0000     -11.258286      -306.3535
  16   2.0000     -11.246448      -306.0314
  17   2.0000     -11.241928      -305.9084
  18   2.0000     -11.240626      -305.8730
  19   2.0000     -11.232587      -305.6542
  20   2.0000      -8.893868      -242.0144
  21   2.0000      -6.575453      -178.9272
  22   2.0000      -6.573437      -178.8723
  23   2.0000      -6.572859      -178.8566
  24   2.0000      -1.445556       -39.3356
  25   2.0000      -1.419548       -38.6279
  26   2.0000      -1.360229       -37.0137
  27   2.0000      -1.339258       -36.4431
  28   2.0000      -1.238303       -33.6959
  29   2.0000      -1.161826       -31.6149
  30   2.0000      -1.126583       -30.6559
  31   2.0000      -1.049033       -28.5456
  32   2.0000      -1.039884       -28.2967
  33   2.0000      -1.019817       -27.7506
  34   2.0000      -1.006699       -27.3937
  35   2.0000      -0.990243       -26.9459
  36   2.0000      -0.926981       -25.2244
  37   2.0000      -0.899877       -24.4869
  38   2.0000      -0.852795       -23.2057
  39   2.0000      -0.841548       -22.8997
  40   2.0000      -0.837201       -22.7814
  41   2.0000      -0.829522       -22.5724
  42   2.0000      -0.748357       -20.3638
  43   2.0000      -0.738239       -20.0885
  44   2.0000      -0.732449       -19.9309
  45   2.0000      -0.697194       -18.9716
  46   2.0000      -0.689246       -18.7553
  47   2.0000      -0.678374       -18.4595
  48   2.0000      -0.674026       -18.3412
  49   2.0000      -0.665305       -18.1039
  50   2.0000      -0.653098       -17.7717
  51   2.0000      -0.651145       -17.7186
  52   2.0000      -0.639003       -17.3881
  53   2.0000      -0.615051       -16.7364
  54   2.0000      -0.609643       -16.5892
  55   2.0000      -0.605065       -16.4647
  56   2.0000      -0.602755       -16.4018
  57   2.0000      -0.590716       -16.0742
  58   2.0000      -0.580036       -15.7836
  59   2.0000      -0.576886       -15.6979
  60   2.0000      -0.563803       -15.3419
  61   2.0000      -0.558848       -15.2070
  62   2.0000      -0.542700       -14.7676
  63   2.0000      -0.530104       -14.4249
  64   2.0000      -0.518748       -14.1159
  65   2.0000      -0.513104       -13.9623
  66   2.0000      -0.505461       -13.7543
  67   2.0000      -0.501674       -13.6512
  68   2.0000      -0.488112       -13.2822
  69   2.0000      -0.462174       -12.5764
  70   2.0000      -0.455641       -12.3986
  71   2.0000      -0.453602       -12.3431
  72   2.0000      -0.354415        -9.6441
  73   2.0000      -0.350211        -9.5297
  74   2.0000      -0.328415        -8.9366
  75   2.0000      -0.325404        -8.8547
  76   2.0000      -0.318278        -8.6608
  77   0.0000       0.090825         2.4715
  78   0.0000       0.105958         2.8833
  79   0.0000       0.113308         3.0833
  80   0.0000       0.127317         3.4645
  81   0.0000       0.129762         3.5310

MULLIKEN ATOMIC CHARGES
-----------------------
   0 C :   -0.326666
   1 C :    0.032701
   2 O :   -0.325733
   3 C :    0.420273
   4 O :   -0.378432
   5 C :   -0.188038
   6 C :    0.140471
   7 C :   -0.337748
   8 N :   -0.143058
   9 C :    0.211888
  10 S :   -0.444904
  11 N :   -0.229568
  12 C :    0.060974
  13 C :    0.019114
  14 C :   -0.217871
  15 C :   -0.131631
  16 C :   -0.276821
  17 C :    0.320814
  18 O :   -0.356309
  19 C :   -0.258472
  20 H :    0.127172
  21 H :    0.114615
  22 H :    0.107291
  23 H :    0.130818
  24 H :    0.085551
  25 H :    0.129353
  26 H :    0.131510
  27 H :    0.123772
  28 H :    0.197628
  29 H :    0.204337
  30 H :    0.171140
  31 H :    0.171959
  32 H :    0.164308
  33 H :    0.132521
  34 H :    0.241293
  35 H :    0.175748
Sum of atomic charges:   -0.0000000

LOEWDIN ATOMIC CHARGES
----------------------
   0 C :    0.101511
   1 C :   -0.015781
   2 O :    0.298495
   3 C :   -0.417254
   4 O :    0.123956
   5 C :   -0.076846
   6 C :   -0.097782
   7 C :    0.125207
   8 N :    0.401875
   9 C :   -0.455690
  10 S :   -0.039882
  11 N :    0.396752
  12 C :   -0.048963
  13 C :   -0.043659
  14 C :    0.018670
  15 C :    0.045679
  16 C :   -0.000359
  17 C :   -0.191374
  18 O :    0.396004
  19 C :    0.029238
  20 H :   -0.020748
  21 H :   -0.024971
  22 H :   -0.036000
  23 H :   -0.017170
  24 H :   -0.037655
  25 H :   -0.008007
  26 H :   -0.010358
  27 H :   -0.018114
  28 H :   -0.058489
  29 H :   -0.063962
  30 H :   -0.003043
  31 H :   -0.021784
  32 H :   -0.018241
  33 H :   -0.034662
  34 H :   -0.153174
  35 H :   -0.023418

  Mayer bond orders larger than 0.100000
B(  0-C ,  1-C ) :   0.9493 B(  0-C , 20-H ) :   0.9674 B(  0-C , 21-H ) :   0.9788
B(  0-C , 22-H ) :   0.9751 B(  1-C ,  2-O ) :   0.9110 B(  1-C , 23-H ) :   0.9818
B(  1-C , 24-H ) :   0.9761 B(  2-O ,  3-C ) :   1.1606 B(  3-C ,  4-O ) :   2.1021
B(  3-C ,  5-C ) :   0.9132 B(  5-C ,  6-C ) :   1.7345 B(  5-C , 12-C ) :   0.9387
B(  6-C ,  7-C ) :   0.9346 B(  6-C ,  8-N ) :   1.0894 B(  7-C , 25-H ) :   0.9770
B(  7-C , 26-H ) :   0.9779 B(  7-C , 27-H ) :   0.9657 B(  8-N ,  9-C ) :   1.2025
B(  8-N , 28-H ) :   0.9511 B(  9-C , 10-S ) :   1.6067 B(  9-C , 11-N ) :   1.2883
B( 11-N , 12-C ) :   0.9752 B( 11-N , 29-H ) :   0.9465 B( 12-C , 13-C ) :   0.9652
B( 12-C , 30-H ) :   0.9886 B( 13-C , 14-C ) :   1.3841 B( 13-C , 19-C ) :   1.3507
B( 14-C , 15-C ) :   1.3992 B( 14-C , 31-H ) :   0.9619 B( 15-C , 16-C ) :   1.3612
B( 15-C , 32-H ) :   0.9696 B( 16-C , 17-C ) :   1.3307 B( 16-C , 33-H ) :   0.9846
B( 17-C , 18-O ) :   1.1101 B( 17-C , 19-C ) :   1.3631 B( 18-O , 34-H ) :   0.9793
B( 19-C , 35-H ) :   0.9565

MP2 TOTAL ENERGY:    -1274.319308068 Eh
FINAL SINGLE POINT ENERGY     -1274.319308067555

DIPOLE MOMENT
-------------
                                X             Y             Z
Electronic contribution:      8.94317       6.15920       7.22443
Nuclear contribution   :    -10.62737      -7.50631      -7.80010
                        -----------------------------------------
Total Dipole Moment    :     -1.68420      -1.34712      -0.57566
                        -----------------------------------------
Magnitude (a.u.)       :      2.23218
Magnitude (Debye)      :      5.67376

Rotational constants in cm-1:     0.011587     0.009234     0.006502
Rotational constants in MHz :   347.369276   276.821602   194.935224

                             ****ORCA TERMINATED NORMALLY****
TOTAL RUN TIME: 0 days 2 hours 9 minutes 35 seconds 93 msec
