                         Program Version 4.2.0 -  RELEASE  -
|  1> ! ri-mp2 cc-pvtz cc-pvtz/c TightSCF NoKeepInts
|  2>
|  3> %scf
|  4>   MaxCore 4096
|  5> end
|  6> *xyz  0  1
|  7>     C       13.7347246   16.1574860   14.4855992
|  8>     C       14.9062151   15.9325412   15.4573403
|  9>     O       16.1058975   16.4016175   14.8208971
| 10>     C       17.2029408   16.5525821   15.6146601
| 11>     O       18.1170981   15.7491370   15.5854555
| 12>     C       17.1422357   17.6848511   16.5952952
| 13>     C       16.6760424   18.9109398   16.2473221
| 14>     C       15.9774089   19.3019766   14.9613317
| 15>     N       16.8782740   20.0131199   17.0811542
| 16>     C       17.7289908   20.0233081   18.1541744
| 17>     S       18.0047107   21.3953584   19.0350683
| 18>     N       18.3571363   18.8385786   18.4469883
| 19>     C       18.0710199   17.5409217   17.8039735
| 20>     C       17.6157051   16.4596399   18.7739087
| 21>     C       18.2327449   15.1959442   18.7752556
| 22>     C       17.8046862   14.1928348   19.6608400
| 23>     C       16.7497332   14.4555788   20.5515842
| 24>     C       16.1299631   15.7127399   20.5488999
| 25>     O       15.1055132   15.9667231   21.4014479
| 26>     C       16.5572910   16.7089179   19.6650718
| 27>     H       12.7958888   15.8026779   14.9281283
| 28>     H       13.9009393   15.6060705   13.5515064
| 29>     H       13.6180131   17.2192375   14.2414868
| 30>     H       14.7131786   16.4844564   16.3872711
| 31>     H       15.0007631   14.8655357   15.7009388
| 32>     H       14.9226384   19.0085459   14.9871153
| 33>     H       16.4443917   18.8247614   14.0904293
| 34>     H       16.0155745   20.3831141   14.7785112
| 35>     H       16.4464155   20.8967081   16.8614668
| 36>     H       18.9699365   18.8693688   19.2522738
| 37>     H       19.0633151   17.2994371   17.3947660
| 38>     H       19.0391059   14.9872465   18.0752730
| 39>     H       18.2875061   13.2171021   19.6499690
| 40>     H       16.4153490   13.6829282   21.2359984
| 41>     H       14.9895618   15.1817406   21.9579111
| 42>     H       16.0660911   17.6762726   19.6786867
| 43> *
| 44>
| 45>                          ****END OF INPUT****

CARTESIAN COORDINATES (ANGSTROEM)
---------------------------------
  C     13.734725   16.157486   14.485599
  C     14.906215   15.932541   15.457340
  O     16.105898   16.401618   14.820897
  C     17.202941   16.552582   15.614660
  O     18.117098   15.749137   15.585455
  C     17.142236   17.684851   16.595295
  C     16.676042   18.910940   16.247322
  C     15.977409   19.301977   14.961332
  N     16.878274   20.013120   17.081154
  C     17.728991   20.023308   18.154174
  S     18.004711   21.395358   19.035068
  N     18.357136   18.838579   18.446988
  C     18.071020   17.540922   17.803974
  C     17.615705   16.459640   18.773909
  C     18.232745   15.195944   18.775256
  C     17.804686   14.192835   19.660840
  C     16.749733   14.455579   20.551584
  C     16.129963   15.712740   20.548900
  O     15.105513   15.966723   21.401448
  C     16.557291   16.708918   19.665072
  H     12.795889   15.802678   14.928128
  H     13.900939   15.606070   13.551506
  H     13.618013   17.219237   14.241487
  H     14.713179   16.484456   16.387271
  H     15.000763   14.865536   15.700939
  H     14.922638   19.008546   14.987115
  H     16.444392   18.824761   14.090429
  H     16.015574   20.383114   14.778511
  H     16.446416   20.896708   16.861467
  H     18.969936   18.869369   19.252274
  H     19.063315   17.299437   17.394766
  H     19.039106   14.987246   18.075273
  H     18.287506   13.217102   19.649969
  H     16.415349   13.682928   21.235998
  H     14.989562   15.181741   21.957911
  H     16.066091   17.676273   19.678687

 Total Charge           Charge          ....    0
 Multiplicity           Mult            ....    1
 Number of Electrons    NEL             ....  154
 Basis Dimension        Dim             ....  828

ORBITAL ENERGIES
----------------

  NO   OCC          E(Eh)            E(eV)
   0   2.0000     -91.890088     -2500.4564
   1   2.0000     -20.596197      -560.4510
   2   2.0000     -20.592051      -560.3382
   3   2.0000     -20.553554      -559.2906
   4   2.0000     -15.630343      -425.3233
   5   2.0000     -15.608126      -424.7187
   6   2.0000     -11.394346      -310.0559
   7   2.0000     -11.385172      -309.8063
   8   2.0000     -11.338936      -308.5481
   9   2.0000     -11.312645      -307.8327
  10   2.0000     -11.306584      -307.6678
  11   2.0000     -11.306374      -307.6621
  12   2.0000     -11.263755      -306.5024
  13   2.0000     -11.261592      -306.4435
  14   2.0000     -11.259820      -306.3953
  15   2.0000     -11.252501      -306.1961
  16   2.0000     -11.242370      -305.9205
  17   2.0000     -11.238736      -305.8215
  18   2.0000     -11.238408      -305.8126
  19   2.0000     -11.235063      -305.7216
  20   2.0000      -8.895173      -242.0500
  21   2.0000      -6.576749      -178.9624
  22   2.0000      -6.574744      -178.9079
  23   2.0000      -6.574155      -178.8919
  24   2.0000      -1.452898       -39.5354
  25   2.0000      -1.415939       -38.5297
  26   2.0000      -1.361721       -37.0543
  27   2.0000      -1.341907       -36.5151
  28   2.0000      -1.239159       -33.7192
  29   2.0000      -1.157046       -31.4848
  30   2.0000      -1.123841       -30.5813
  31   2.0000      -1.045843       -28.4588
  32   2.0000      -1.040646       -28.3174
  33   2.0000      -1.014760       -27.6130
  34   2.0000      -1.003210       -27.2987
  35   2.0000      -0.987879       -26.8815
  36   2.0000      -0.924050       -25.1447
  37   2.0000      -0.882290       -24.0083
  38   2.0000      -0.852609       -23.2007
  39   2.0000      -0.841868       -22.9084
  40   2.0000      -0.833959       -22.6932
  41   2.0000      -0.832284       -22.6476
  42   2.0000      -0.760543       -20.6954
  43   2.0000      -0.737787       -20.0762
  44   2.0000      -0.729997       -19.8642
  45   2.0000      -0.693690       -18.8763
  46   2.0000      -0.689024       -18.7493
  47   2.0000      -0.683833       -18.6081
  48   2.0000      -0.674439       -18.3524
  49   2.0000      -0.657864       -17.9014
  50   2.0000      -0.651038       -17.7156
  51   2.0000      -0.642325       -17.4785
  52   2.0000      -0.635966       -17.3055
  53   2.0000      -0.623557       -16.9679
  54   2.0000      -0.607085       -16.5196
  55   2.0000      -0.603542       -16.4232
  56   2.0000      -0.599547       -16.3145
  57   2.0000      -0.580226       -15.7887
  58   2.0000      -0.575734       -15.6665
  59   2.0000      -0.567336       -15.4380
  60   2.0000      -0.560259       -15.2454
  61   2.0000      -0.553141       -15.0517
  62   2.0000      -0.543832       -14.7984
  63   2.0000      -0.529133       -14.3985
  64   2.0000      -0.521090       -14.1796
  65   2.0000      -0.513014       -13.9598
  66   2.0000      -0.501906       -13.6576
  67   2.0000      -0.497672       -13.5423
  68   2.0000      -0.485333       -13.2066
  69   2.0000      -0.466408       -12.6916
  70   2.0000      -0.464982       -12.6528
  71   2.0000      -0.451903       -12.2969
  72   2.0000      -0.356013        -9.6876
  73   2.0000      -0.348716        -9.4891
  74   2.0000      -0.329243        -8.9592
  75   2.0000      -0.320095        -8.7102
  76   2.0000      -0.319144        -8.6843
  77   0.0000       0.074897         2.0381
  78   0.0000       0.105768         2.8781
  79   0.0000       0.119002         3.2382
  80   0.0000       0.132752         3.6124
  81   0.0000       0.137685         3.7466

MULLIKEN ATOMIC CHARGES
-----------------------
   0 C :   -0.268379
   1 C :    0.014956
   2 O :   -0.353298
   3 C :    0.466800
   4 O :   -0.378912
   5 C :   -0.266165
   6 C :    0.179570
   7 C :   -0.310009
   8 N :   -0.131238
   9 C :    0.205090
  10 S :   -0.440440
  11 N :   -0.214084
  12 C :    0.052955
  13 C :    0.026510
  14 C :   -0.189824
  15 C :   -0.130867
  16 C :   -0.277358
  17 C :    0.313397
  18 O :   -0.358127
  19 C :   -0.254562
  20 H :    0.096845
  21 H :    0.106622
  22 H :    0.091793
  23 H :    0.100758
  24 H :    0.113699
  25 H :    0.119124
  26 H :    0.140480
  27 H :    0.115875
  28 H :    0.198551
  29 H :    0.200419
  30 H :    0.160237
  31 H :    0.168343
  32 H :    0.162587
  33 H :    0.129991
  34 H :    0.240852
  35 H :    0.167806
Sum of atomic charges:   -0.0000000

LOEWDIN ATOMIC CHARGES
----------------------
   0 C :    0.110754
   1 C :   -0.023504
   2 O :    0.299375
   3 C :   -0.421020
   4 O :    0.128906
   5 C :   -0.095635
   6 C :   -0.072840
   7 C :    0.127624
   8 N :    0.405006
   9 C :   -0.458128
  10 S :   -0.036273
  11 N :    0.396116
  12 C :   -0.049291
  13 C :   -0.042809
  14 C :    0.023422
  15 C :    0.042775
  16 C :   -0.000685
  17 C :   -0.192976
  18 O :    0.393463
  19 C :    0.027232
  20 H :   -0.023027
  21 H :   -0.022940
  22 H :   -0.032293
  23 H :   -0.035774
  24 H :   -0.026172
  25 H :   -0.015077
  26 H :   -0.006240
  27 H :   -0.017150
  28 H :   -0.057948
  29 H :   -0.063290
  30 H :   -0.006279
  31 H :   -0.022262
  32 H :   -0.019735
  33 H :   -0.035460
  34 H :   -0.153863
  35 H :   -0.024001

  Mayer bond orders larger than 0.100000
B(  0-C ,  1-C ) :   0.9770 B(  0-C , 20-H ) :   0.9757 B(  0-C , 21-H ) :   0.9770
B(  0-C , 22-H ) :   0.9779 B(  1-C ,  2-O ) :   0.9018 B(  1-C , 23-H ) :   0.9637
B(  1-C , 24-H ) :   0.9801 B(  2-O ,  3-C ) :   1.1058 B(  3-C ,  4-O ) :   2.0823
B(  3-C ,  5-C ) :   0.9742 B(  5-C ,  6-C ) :   1.6792 B(  5-C , 12-C ) :   0.9521
B(  6-C ,  7-C ) :   0.9432 B(  6-C ,  8-N ) :   1.1289 B(  7-C , 25-H ) :   0.9666
B(  7-C , 26-H ) :   0.9658 B(  7-C , 27-H ) :   0.9886 B(  8-N ,  9-C ) :   1.1877
B(  8-N , 28-H ) :   0.9482 B(  9-C , 10-S ) :   1.6119 B(  9-C , 11-N ) :   1.2999
B( 11-N , 12-C ) :   0.9843 B( 11-N , 29-H ) :   0.9487 B( 12-C , 13-C ) :   0.9714
B( 12-C , 30-H ) :   0.9936 B( 13-C , 14-C ) :   1.3826 B( 13-C , 19-C ) :   1.3590
B( 14-C , 15-C ) :   1.3953 B( 14-C , 31-H ) :   0.9606 B( 15-C , 16-C ) :   1.3607
B( 15-C , 32-H ) :   0.9704 B( 16-C , 17-C ) :   1.3318 B( 16-C , 33-H ) :   0.9854
B( 17-C , 18-O ) :   1.1060 B( 17-C , 19-C ) :   1.3666 B( 18-O , 34-H ) :   0.9799
B( 19-C , 35-H ) :   0.9588

MP2 TOTAL ENERGY:    -1274.328599414 Eh
FINAL SINGLE POINT ENERGY     -1274.328599414334

DIPOLE MOMENT
-------------
                                X             Y             Z
Electronic contribution:     11.14588       7.12529       9.72078
Nuclear contribution   :    -12.64533      -8.32434     -10.21861
                        -----------------------------------------
Total Dipole Moment    :     -1.49944      -1.19905      -0.49784
                        -----------------------------------------
Magnitude (a.u.)       :      1.98341
Magnitude (Debye)      :      5.04142

Rotational constants in cm-1:     0.010038     0.009324     0.006099
Rotational constants in MHz :   300.941063   279.511805   182.846856

                             ****ORCA TERMINATED NORMALLY****
TOTAL RUN TIME: 0 days 1 hours 41 minutes 5 seconds 930 msec
