                         Program Version 4.2.0 -  RELEASE  -
|  1> ! ri-mp2 cc-pvtz cc-pvtz/c TightSCF NoKeepInts
|  2>
|  3> %scf
|  4>   MaxCore 4096
|  5> end
|  6> *xyz  0  1
|  7>     C       14.7566394   14.4334721   15.5169671
|  8>     C       16.0349176   14.9492169   14.8316151
|  9>     O       16.6027497   15.9681854   15.6727743
| 10>     C       16.2348323   17.2763927   15.5160665
| 11>     O       15.5041806   17.6440723   14.6113483
| 12>     C       16.8260277   18.1723233   16.5716070
| 13>     C       16.8401309   19.5208323   16.4132745
| 14>     C       16.0934259   20.3286613   15.3719093
| 15>     N       17.6083138   20.3355105   17.2482478
| 16>     C       18.5307198   19.8723422   18.1469790
| 17>     S       19.4741387   20.8961079   19.0400863
| 18>     N       18.6480141   18.5097305   18.2545466
| 19>     C       17.7846989   17.5202026   17.5823318
| 20>     C       17.0992642   16.5773452   18.5630716
| 21>     C       17.4616388   15.2191083   18.6250820
| 22>     C       16.8241911   14.3509295   19.5273768
| 23>     C       15.8192476   14.8462070   20.3760550
| 24>     C       15.4598633   16.2000186   20.3188270
| 25>     O       14.4905404   16.6808101   21.1375638
| 26>     C       16.0960200   17.0614913   19.4195975
| 27>     H       14.9765760   14.0813194   16.5328530
| 28>     H       14.3235051   13.6015494   14.9487812
| 29>     H       14.0050464   15.2304012   15.5824527
| 30>     H       16.7459735   14.1181328   14.7419722
| 31>     H       15.8193266   15.3231651   13.8212342
| 32>     H       15.0232460   20.0853037   15.3898009
| 33>     H       16.4648132   20.0998557   14.3649178
| 34>     H       16.1838294   21.4110931   15.5206584
| 35>     H       17.5467694   21.3376001   17.1646121
| 36>     H       19.3127198   18.1979494   18.9512310
| 37>     H       18.5324086   16.9813729   16.9833629
| 38>     H       18.2332579   14.8341209   17.9638624
| 39>     H       17.1082720   13.3008285   19.5662099
| 40>     H       15.3239488   14.1798076   21.0744806
| 41>     H       14.1891977   15.9473117   21.6942621
| 42>     H       15.8085546   18.1072286   19.3919815
| 43> *
| 44>
| 45>                          ****END OF INPUT****

CARTESIAN COORDINATES (ANGSTROEM)
---------------------------------
  C     14.756639   14.433472   15.516967
  C     16.034918   14.949217   14.831615
  O     16.602750   15.968185   15.672774
  C     16.234832   17.276393   15.516066
  O     15.504181   17.644072   14.611348
  C     16.826028   18.172323   16.571607
  C     16.840131   19.520832   16.413274
  C     16.093426   20.328661   15.371909
  N     17.608314   20.335511   17.248248
  C     18.530720   19.872342   18.146979
  S     19.474139   20.896108   19.040086
  N     18.648014   18.509730   18.254547
  C     17.784699   17.520203   17.582332
  C     17.099264   16.577345   18.563072
  C     17.461639   15.219108   18.625082
  C     16.824191   14.350929   19.527377
  C     15.819248   14.846207   20.376055
  C     15.459863   16.200019   20.318827
  O     14.490540   16.680810   21.137564
  C     16.096020   17.061491   19.419597
  H     14.976576   14.081319   16.532853
  H     14.323505   13.601549   14.948781
  H     14.005046   15.230401   15.582453
  H     16.745974   14.118133   14.741972
  H     15.819327   15.323165   13.821234
  H     15.023246   20.085304   15.389801
  H     16.464813   20.099856   14.364918
  H     16.183829   21.411093   15.520658
  H     17.546769   21.337600   17.164612
  H     19.312720   18.197949   18.951231
  H     18.532409   16.981373   16.983363
  H     18.233258   14.834121   17.963862
  H     17.108272   13.300828   19.566210
  H     15.323949   14.179808   21.074481
  H     14.189198   15.947312   21.694262
  H     15.808555   18.107229   19.391981

 Total Charge           Charge          ....    0
 Multiplicity           Mult            ....    1
 Number of Electrons    NEL             ....  154
 Basis Dimension        Dim             ....  828

ORBITAL ENERGIES
----------------

  NO   OCC          E(Eh)            E(eV)
   0   2.0000     -91.888677     -2500.4180
   1   2.0000     -20.601512      -560.5956
   2   2.0000     -20.596149      -560.4497
   3   2.0000     -20.541211      -558.9548
   4   2.0000     -15.629009      -425.2870
   5   2.0000     -15.606899      -424.6853
   6   2.0000     -11.395740      -310.0939
   7   2.0000     -11.383385      -309.7577
   8   2.0000     -11.337155      -308.4997
   9   2.0000     -11.313342      -307.8517
  10   2.0000     -11.307311      -307.6876
  11   2.0000     -11.296158      -307.3841
  12   2.0000     -11.260368      -306.4102
  13   2.0000     -11.259438      -306.3849
  14   2.0000     -11.254738      -306.2570
  15   2.0000     -11.251551      -306.1703
  16   2.0000     -11.243438      -305.9495
  17   2.0000     -11.238765      -305.8224
  18   2.0000     -11.238399      -305.8124
  19   2.0000     -11.223891      -305.4176
  20   2.0000      -8.893750      -242.0112
  21   2.0000      -6.575324      -178.9237
  22   2.0000      -6.573324      -178.8692
  23   2.0000      -6.572735      -178.8532
  24   2.0000      -1.451564       -39.4991
  25   2.0000      -1.415831       -38.5267
  26   2.0000      -1.354642       -36.8617
  27   2.0000      -1.340160       -36.4676
  28   2.0000      -1.238058       -33.6893
  29   2.0000      -1.157366       -31.4935
  30   2.0000      -1.121090       -30.5064
  31   2.0000      -1.042714       -28.3737
  32   2.0000      -1.037009       -28.2185
  33   2.0000      -1.014692       -27.6112
  34   2.0000      -0.995765       -27.0961
  35   2.0000      -0.984379       -26.7863
  36   2.0000      -0.921628       -25.0788
  37   2.0000      -0.892795       -24.2942
  38   2.0000      -0.846305       -23.0291
  39   2.0000      -0.837779       -22.7971
  40   2.0000      -0.833895       -22.6914
  41   2.0000      -0.815572       -22.1929
  42   2.0000      -0.759396       -20.6642
  43   2.0000      -0.733365       -19.9559
  44   2.0000      -0.722260       -19.6537
  45   2.0000      -0.695359       -18.9217
  46   2.0000      -0.689124       -18.7520
  47   2.0000      -0.679972       -18.5030
  48   2.0000      -0.670730       -18.2515
  49   2.0000      -0.657978       -17.9045
  50   2.0000      -0.646809       -17.6006
  51   2.0000      -0.639897       -17.4125
  52   2.0000      -0.632846       -17.2206
  53   2.0000      -0.608851       -16.5677
  54   2.0000      -0.605881       -16.4869
  55   2.0000      -0.599886       -16.3237
  56   2.0000      -0.598696       -16.2914
  57   2.0000      -0.577107       -15.7039
  58   2.0000      -0.569349       -15.4928
  59   2.0000      -0.568045       -15.4573
  60   2.0000      -0.560641       -15.2558
  61   2.0000      -0.545177       -14.8350
  62   2.0000      -0.533598       -14.5200
  63   2.0000      -0.531949       -14.4751
  64   2.0000      -0.523665       -14.2496
  65   2.0000      -0.512944       -13.9579
  66   2.0000      -0.500043       -13.6069
  67   2.0000      -0.497611       -13.5407
  68   2.0000      -0.482582       -13.1317
  69   2.0000      -0.463136       -12.6026
  70   2.0000      -0.454496       -12.3675
  71   2.0000      -0.448101       -12.1934
  72   2.0000      -0.353063        -9.6073
  73   2.0000      -0.349608        -9.5133
  74   2.0000      -0.327852        -8.9213
  75   2.0000      -0.320681        -8.7262
  76   2.0000      -0.317857        -8.6493
  77   0.0000       0.078029         2.1233
  78   0.0000       0.105179         2.8621
  79   0.0000       0.124693         3.3931
  80   0.0000       0.132983         3.6187
  81   0.0000       0.138405         3.7662

MULLIKEN ATOMIC CHARGES
-----------------------
   0 C :   -0.285144
   1 C :    0.012287
   2 O :   -0.345983
   3 C :    0.441046
   4 O :   -0.439872
   5 C :   -0.221160
   6 C :    0.172045
   7 C :   -0.268735
   8 N :   -0.126241
   9 C :    0.209936
  10 S :   -0.442254
  11 N :   -0.215097
  12 C :    0.058136
  13 C :    0.048014
  14 C :   -0.181833
  15 C :   -0.135554
  16 C :   -0.276637
  17 C :    0.316432
  18 O :   -0.356817
  19 C :   -0.247492
  20 H :    0.103072
  21 H :    0.094249
  22 H :    0.105459
  23 H :    0.106417
  24 H :    0.119698
  25 H :    0.133947
  26 H :    0.128570
  27 H :    0.094583
  28 H :    0.199750
  29 H :    0.200238
  30 H :    0.152825
  31 H :    0.150958
  32 H :    0.161540
  33 H :    0.130293
  34 H :    0.240431
  35 H :    0.162891
Sum of atomic charges:   -0.0000000

LOEWDIN ATOMIC CHARGES
----------------------
   0 C :    0.105262
   1 C :   -0.018013
   2 O :    0.311523
   3 C :   -0.413607
   4 O :    0.093252
   5 C :   -0.094021
   6 C :   -0.057052
   7 C :    0.131085
   8 N :    0.407026
   9 C :   -0.456602
  10 S :   -0.036858
  11 N :    0.394699
  12 C :   -0.054622
  13 C :   -0.039906
  14 C :    0.016907
  15 C :    0.038860
  16 C :   -0.000728
  17 C :   -0.189563
  18 O :    0.395064
  19 C :    0.033706
  20 H :   -0.026466
  21 H :   -0.027775
  22 H :   -0.025005
  23 H :   -0.027497
  24 H :   -0.027887
  25 H :   -0.004231
  26 H :   -0.005223
  27 H :   -0.023665
  28 H :   -0.057176
  29 H :   -0.064360
  30 H :   -0.014068
  31 H :   -0.029400
  32 H :   -0.021580
  33 H :   -0.035380
  34 H :   -0.154060
  35 H :   -0.022639

  Mayer bond orders larger than 0.100000
B(  0-C ,  1-C ) :   0.9650 B(  0-C , 20-H ) :   0.9734 B(  0-C , 21-H ) :   0.9764
B(  0-C , 22-H ) :   0.9777 B(  1-C ,  2-O ) :   0.8941 B(  1-C , 23-H ) :   0.9847
B(  1-C , 24-H ) :   0.9766 B(  2-O ,  3-C ) :   1.1688 B(  3-C ,  4-O ) :   1.9536
B(  3-C ,  5-C ) :   1.0696 B(  5-C ,  6-C ) :   1.6445 B(  5-C , 12-C ) :   0.9550
B(  6-C ,  7-C ) :   0.9648 B(  6-C ,  8-N ) :   1.1529 B(  7-C , 25-H ) :   0.9613
B(  7-C , 26-H ) :   0.9591 B(  7-C , 27-H ) :   0.9905 B(  8-N ,  9-C ) :   1.1879
B(  8-N , 28-H ) :   0.9463 B(  9-C , 10-S ) :   1.6060 B(  9-C , 11-N ) :   1.3087
B( 11-N , 12-C ) :   0.9696 B( 11-N , 29-H ) :   0.9484 B( 12-C , 13-C ) :   0.9635
B( 12-C , 30-H ) :   1.0001 B( 13-C , 14-C ) :   1.3536 B( 13-C , 19-C ) :   1.3802
B( 14-C , 15-C ) :   1.3948 B( 14-C , 31-H ) :   0.9717 B( 15-C , 16-C ) :   1.3579
B( 15-C , 32-H ) :   0.9706 B( 16-C , 17-C ) :   1.3338 B( 16-C , 33-H ) :   0.9851
B( 17-C , 18-O ) :   1.1047 B( 17-C , 19-C ) :   1.3645 B( 18-O , 34-H ) :   0.9800
B( 19-C , 35-H ) :   0.9593

MP2 TOTAL ENERGY:    -1274.345185733 Eh
FINAL SINGLE POINT ENERGY     -1274.345185733380

DIPOLE MOMENT
-------------
                                X             Y             Z
Electronic contribution:      8.57816      11.18568       8.27952
Nuclear contribution   :     -9.40741     -12.97381      -8.76278
                        -----------------------------------------
Total Dipole Moment    :     -0.82925      -1.78813      -0.48325
                        -----------------------------------------
Magnitude (a.u.)       :      2.02943
Magnitude (Debye)      :      5.15841

Rotational constants in cm-1:     0.011601     0.008562     0.005917
Rotational constants in MHz :   347.783709   256.686130   177.384612

                             ****ORCA TERMINATED NORMALLY****
TOTAL RUN TIME: 0 days 1 hours 37 minutes 49 seconds 844 msec
