                         Program Version 4.2.0 -  RELEASE  -
|  1> ! ri-mp2 cc-pvtz cc-pvtz/c TightSCF NoKeepInts
|  2>
|  3> %scf
|  4>   MaxCore 4096
|  5> end
|  6> *xyz  0  1
|  7>     C       14.6881788   15.9244204   16.2583658
|  8>     C       15.0680534   16.0898661   14.7686165
|  9>     O       16.4734217   16.3560744   14.5251708
| 10>     C       17.4144258   16.5153395   15.5058715
| 11>     O       18.3290901   15.7203648   15.6235025
| 12>     C       17.2179808   17.6635346   16.4516008
| 13>     C       16.8417360   18.8916385   16.0125955
| 14>     C       16.3769217   19.2747107   14.6217544
| 15>     N       16.9308538   20.0058511   16.8502056
| 16>     C       17.6052255   20.0235529   18.0417519
| 17>     S       17.7688152   21.4086735   18.9301332
| 18>     N       18.1578143   18.8349141   18.4482373
| 19>     C       17.9429202   17.5287627   17.7946924
| 20>     C       17.3224394   16.4777049   18.7047359
| 21>     C       17.8732372   15.1860374   18.7818165
| 22>     C       17.2894904   14.2080639   19.6042050
| 23>     C       16.1443964   14.5242642   20.3551754
| 24>     C       15.5918107   15.8099863   20.2782201
| 25>     O       14.4806032   16.1155621   20.9941565
| 26>     C       16.1751209   16.7814958   19.4586936
| 27>     H       15.3476083   15.2058035   16.7627000
| 28>     H       13.6634950   15.5421692   16.3412950
| 29>     H       14.7190791   16.8794961   16.7950084
| 30>     H       14.8056040   15.1615403   14.2443773
| 31>     H       14.4577528   16.8869444   14.3266184
| 32>     H       15.3213184   19.0212029   14.4757581
| 33>     H       16.9639156   18.7635229   13.8482832
| 34>     H       16.4871451   20.3493155   14.4293879
| 35>     H       16.5568769   20.8922854   16.5505938
| 36>     H       18.6414289   18.8716959   19.3368612
| 37>     H       18.9812112   17.2597979   17.5498309
| 38>     H       18.7501224   14.9358569   18.1882605
| 39>     H       17.7223763   13.2102617   19.6517202
| 40>     H       15.6891705   13.7708523   20.9894529
| 41>     H       14.2560896   15.3380625   21.5273651
| 42>     H       15.7312705   17.7703745   19.4109858
| 43> *
| 44>
| 45>                          ****END OF INPUT****

CARTESIAN COORDINATES (ANGSTROEM)
---------------------------------
  C     14.688179   15.924420   16.258366
  C     15.068053   16.089866   14.768617
  O     16.473422   16.356074   14.525171
  C     17.414426   16.515339   15.505871
  O     18.329090   15.720365   15.623503
  C     17.217981   17.663535   16.451601
  C     16.841736   18.891638   16.012595
  C     16.376922   19.274711   14.621754
  N     16.930854   20.005851   16.850206
  C     17.605225   20.023553   18.041752
  S     17.768815   21.408673   18.930133
  N     18.157814   18.834914   18.448237
  C     17.942920   17.528763   17.794692
  C     17.322439   16.477705   18.704736
  C     17.873237   15.186037   18.781817
  C     17.289490   14.208064   19.604205
  C     16.144396   14.524264   20.355175
  C     15.591811   15.809986   20.278220
  O     14.480603   16.115562   20.994156
  C     16.175121   16.781496   19.458694
  H     15.347608   15.205804   16.762700
  H     13.663495   15.542169   16.341295
  H     14.719079   16.879496   16.795008
  H     14.805604   15.161540   14.244377
  H     14.457753   16.886944   14.326618
  H     15.321318   19.021203   14.475758
  H     16.963916   18.763523   13.848283
  H     16.487145   20.349315   14.429388
  H     16.556877   20.892285   16.550594
  H     18.641429   18.871696   19.336861
  H     18.981211   17.259798   17.549831
  H     18.750122   14.935857   18.188260
  H     17.722376   13.210262   19.651720
  H     15.689170   13.770852   20.989453
  H     14.256090   15.338062   21.527365
  H     15.731271   17.770374   19.410986

 Total Charge           Charge          ....    0
 Multiplicity           Mult            ....    1
 Number of Electrons    NEL             ....  154
 Basis Dimension        Dim             ....  828

ORBITAL ENERGIES
----------------

  NO   OCC          E(Eh)            E(eV)
   0   2.0000     -91.890050     -2500.4554
   1   2.0000     -20.597135      -560.4765
   2   2.0000     -20.589809      -560.2772
   3   2.0000     -20.550721      -559.2135
   4   2.0000     -15.629810      -425.3087
   5   2.0000     -15.608271      -424.7226
   6   2.0000     -11.396511      -310.1148
   7   2.0000     -11.385107      -309.8045
   8   2.0000     -11.337491      -308.5088
   9   2.0000     -11.313622      -307.8593
  10   2.0000     -11.311015      -307.7884
  11   2.0000     -11.307169      -307.6837
  12   2.0000     -11.263984      -306.5086
  13   2.0000     -11.261975      -306.4539
  14   2.0000     -11.260461      -306.4127
  15   2.0000     -11.253665      -306.2278
  16   2.0000     -11.243515      -305.9516
  17   2.0000     -11.239180      -305.8336
  18   2.0000     -11.235699      -305.7389
  19   2.0000     -11.234920      -305.7177
  20   2.0000      -8.895140      -242.0491
  21   2.0000      -6.576717      -178.9616
  22   2.0000      -6.574711      -178.9070
  23   2.0000      -6.574123      -178.8910
  24   2.0000      -1.444716       -39.3127
  25   2.0000      -1.416919       -38.5563
  26   2.0000      -1.356613       -36.9153
  27   2.0000      -1.341783       -36.5118
  28   2.0000      -1.239224       -33.7210
  29   2.0000      -1.157893       -31.5079
  30   2.0000      -1.123699       -30.5774
  31   2.0000      -1.045821       -28.4582
  32   2.0000      -1.036609       -28.2076
  33   2.0000      -1.015791       -27.6411
  34   2.0000      -1.004646       -27.3378
  35   2.0000      -0.988899       -26.9093
  36   2.0000      -0.925451       -25.1828
  37   2.0000      -0.900237       -24.4967
  38   2.0000      -0.851884       -23.1809
  39   2.0000      -0.839934       -22.8558
  40   2.0000      -0.833623       -22.6840
  41   2.0000      -0.824269       -22.4295
  42   2.0000      -0.744521       -20.2594
  43   2.0000      -0.732241       -19.9253
  44   2.0000      -0.729696       -19.8560
  45   2.0000      -0.694017       -18.8852
  46   2.0000      -0.686805       -18.6889
  47   2.0000      -0.679431       -18.4882
  48   2.0000      -0.674718       -18.3600
  49   2.0000      -0.664471       -18.0812
  50   2.0000      -0.654032       -17.7971
  51   2.0000      -0.650113       -17.6905
  52   2.0000      -0.638600       -17.3772
  53   2.0000      -0.621577       -16.9140
  54   2.0000      -0.607760       -16.5380
  55   2.0000      -0.603947       -16.4342
  56   2.0000      -0.600830       -16.3494
  57   2.0000      -0.582957       -15.8631
  58   2.0000      -0.576123       -15.6771
  59   2.0000      -0.564216       -15.3531
  60   2.0000      -0.560213       -15.2442
  61   2.0000      -0.549855       -14.9623
  62   2.0000      -0.543638       -14.7931
  63   2.0000      -0.534928       -14.5561
  64   2.0000      -0.521432       -14.1889
  65   2.0000      -0.511942       -13.9307
  66   2.0000      -0.499348       -13.5880
  67   2.0000      -0.489465       -13.3190
  68   2.0000      -0.487539       -13.2666
  69   2.0000      -0.471424       -12.8281
  70   2.0000      -0.456593       -12.4245
  71   2.0000      -0.448143       -12.1946
  72   2.0000      -0.355373        -9.6702
  73   2.0000      -0.348397        -9.4804
  74   2.0000      -0.329293        -8.9605
  75   2.0000      -0.321314        -8.7434
  76   2.0000      -0.319454        -8.6928
  77   0.0000       0.075927         2.0661
  78   0.0000       0.105567         2.8726
  79   0.0000       0.116804         3.1784
  80   0.0000       0.131415         3.5760
  81   0.0000       0.134575         3.6620

MULLIKEN ATOMIC CHARGES
-----------------------
   0 C :   -0.338338
   1 C :    0.037055
   2 O :   -0.362886
   3 C :    0.454802
   4 O :   -0.381350
   5 C :   -0.270136
   6 C :    0.194484
   7 C :   -0.315026
   8 N :   -0.133214
   9 C :    0.203876
  10 S :   -0.441014
  11 N :   -0.216857
  12 C :    0.066367
  13 C :    0.017067
  14 C :   -0.195473
  15 C :   -0.131471
  16 C :   -0.278882
  17 C :    0.316669
  18 O :   -0.358376
  19 C :   -0.257832
  20 H :    0.126975
  21 H :    0.120753
  22 H :    0.110416
  23 H :    0.122965
  24 H :    0.090829
  25 H :    0.117683
  26 H :    0.143445
  27 H :    0.115749
  28 H :    0.198333
  29 H :    0.200790
  30 H :    0.161732
  31 H :    0.172468
  32 H :    0.163389
  33 H :    0.131253
  34 H :    0.240946
  35 H :    0.172810
Sum of atomic charges:   -0.0000000

LOEWDIN ATOMIC CHARGES
----------------------
   0 C :    0.104438
   1 C :   -0.013202
   2 O :    0.287108
   3 C :   -0.422316
   4 O :    0.125098
   5 C :   -0.090267
   6 C :   -0.075248
   7 C :    0.128179
   8 N :    0.404453
   9 C :   -0.458676
  10 S :   -0.036813
  11 N :    0.396397
  12 C :   -0.048168
  13 C :   -0.042925
  14 C :    0.022610
  15 C :    0.042182
  16 C :   -0.001012
  17 C :   -0.193323
  18 O :    0.394193
  19 C :    0.029886
  20 H :   -0.019276
  21 H :   -0.021360
  22 H :   -0.033593
  23 H :   -0.022384
  24 H :   -0.035407
  25 H :   -0.016267
  26 H :   -0.005946
  27 H :   -0.016554
  28 H :   -0.058267
  29 H :   -0.063258
  30 H :   -0.005467
  31 H :   -0.021871
  32 H :   -0.019389
  33 H :   -0.035233
  34 H :   -0.153788
  35 H :   -0.024536

  Mayer bond orders larger than 0.100000
B(  0-C ,  1-C ) :   0.9589 B(  0-C , 20-H ) :   0.9668 B(  0-C , 21-H ) :   0.9748
B(  0-C , 22-H ) :   0.9704 B(  1-C ,  2-O ) :   0.9044 B(  1-C , 23-H ) :   0.9824
B(  1-C , 24-H ) :   0.9774 B(  2-O ,  3-C ) :   1.1168 B(  3-C ,  4-O ) :   2.0761
B(  3-C ,  5-C ) :   0.9595 B(  5-C ,  6-C ) :   1.6865 B(  5-C , 12-C ) :   0.9460
B(  6-C ,  7-C ) :   0.9422 B(  6-C ,  8-N ) :   1.1251 B(  7-C , 25-H ) :   0.9676
B(  7-C , 26-H ) :   0.9653 B(  7-C , 27-H ) :   0.9875 B(  8-N ,  9-C ) :   1.1898
B(  8-N , 28-H ) :   0.9482 B(  9-C , 10-S ) :   1.6112 B(  9-C , 11-N ) :   1.2978
B( 11-N , 12-C ) :   0.9802 B( 11-N , 29-H ) :   0.9487 B( 12-C , 13-C ) :   0.9683
B( 12-C , 30-H ) :   0.9933 B( 13-C , 14-C ) :   1.3877 B( 13-C , 19-C ) :   1.3500
B( 14-C , 15-C ) :   1.3950 B( 14-C , 31-H ) :   0.9589 B( 15-C , 16-C ) :   1.3601
B( 15-C , 32-H ) :   0.9705 B( 16-C , 17-C ) :   1.3309 B( 16-C , 33-H ) :   0.9850
B( 17-C , 18-O ) :   1.1072 B( 17-C , 19-C ) :   1.3657 B( 18-O , 34-H ) :   0.9799
B( 19-C , 35-H ) :   0.9582

MP2 TOTAL ENERGY:    -1274.324076438 Eh
FINAL SINGLE POINT ENERGY     -1274.324076438189

DIPOLE MOMENT
-------------
                                X             Y             Z
Electronic contribution:      8.71925       7.39783       6.85727
Nuclear contribution   :    -10.25785      -8.57122      -7.46651
                        -----------------------------------------
Total Dipole Moment    :     -1.53860      -1.17339      -0.60923
                        -----------------------------------------
Magnitude (a.u.)       :      2.02862
Magnitude (Debye)      :      5.15634

Rotational constants in cm-1:     0.011425     0.009361     0.006467
Rotational constants in MHz :   342.507902   280.646134   193.872520

                             ****ORCA TERMINATED NORMALLY****
TOTAL RUN TIME: 0 days 2 hours 8 minutes 35 seconds 149 msec
