                         Program Version 4.2.0 -  RELEASE  -
|  1> ! ri-mp2 cc-pvtz cc-pvtz/c TightSCF NoKeepInts
|  2>
|  3> %scf
|  4>   MaxCore 4096
|  5> end
|  6> *xyz  0  1
|  7>     C       13.7287807   16.0810052   14.3913944
|  8>     C       14.8414405   16.0235272   15.4516487
|  9>     O       16.0621056   16.4443595   14.8231213
| 10>     C       17.1576601   16.5522513   15.6245156
| 11>     O       18.0464535   15.7209456   15.5935041
| 12>     C       17.1295633   17.6850856   16.6071270
| 13>     C       16.6711319   18.9178541   16.2703237
| 14>     C       15.9493602   19.3191723   14.9994986
| 15>     N       16.9041429   20.0160323   17.1014999
| 16>     C       17.7748339   20.0134896   18.1583518
| 17>     S       18.0849522   21.3806355   19.0354124
| 18>     N       18.3926332   18.8202687   18.4380695
| 19>     C       18.0784708   17.5274034   17.7985999
| 20>     C       17.6280016   16.4514421   18.7768337
| 21>     C       18.2342070   15.1825094   18.7720399
| 22>     C       17.8111381   14.1851913   19.6665277
| 23>     C       16.7723284   14.4591277   20.5727315
| 24>     C       16.1635309   15.7216303   20.5764970
| 25>     O       15.1547661   15.9865845   21.4442976
| 26>     C       16.5858650   16.7120319   19.6838228
| 27>     H       12.7708554   15.7633899   14.8210319
| 28>     H       13.9643607   15.4152474   13.5514134
| 29>     H       13.6102539   17.0989210   14.0011723
| 30>     H       14.5839440   16.6824509   16.2917137
| 31>     H       14.9460986   14.9980838   15.8320541
| 32>     H       14.9097652   18.9729976   15.0133066
| 33>     H       16.4384240   18.8919012   14.1146552
| 34>     H       15.9330723   20.4061248   14.8515763
| 35>     H       16.4804761   20.9058015   16.8911229
| 36>     H       19.0202338   18.8418281   19.2321855
| 37>     H       19.0599740   17.2742465   17.3708811
| 38>     H       19.0277699   14.9651276   18.0602249
| 39>     H       18.2851490   13.2052341   19.6504676
| 40>     H       16.4417888   13.6909605   21.2640090
| 41>     H       15.0398435   15.2033761   22.0034564
| 42>     H       16.1036250   17.6837616   19.7029119
| 43> *
| 44>
| 45>                          ****END OF INPUT****

CARTESIAN COORDINATES (ANGSTROEM)
---------------------------------
  C     13.728781   16.081005   14.391394
  C     14.841440   16.023527   15.451649
  O     16.062106   16.444360   14.823121
  C     17.157660   16.552251   15.624516
  O     18.046453   15.720946   15.593504
  C     17.129563   17.685086   16.607127
  C     16.671132   18.917854   16.270324
  C     15.949360   19.319172   14.999499
  N     16.904143   20.016032   17.101500
  C     17.774834   20.013490   18.158352
  S     18.084952   21.380636   19.035412
  N     18.392633   18.820269   18.438069
  C     18.078471   17.527403   17.798600
  C     17.628002   16.451442   18.776834
  C     18.234207   15.182509   18.772040
  C     17.811138   14.185191   19.666528
  C     16.772328   14.459128   20.572731
  C     16.163531   15.721630   20.576497
  O     15.154766   15.986584   21.444298
  C     16.585865   16.712032   19.683823
  H     12.770855   15.763390   14.821032
  H     13.964361   15.415247   13.551413
  H     13.610254   17.098921   14.001172
  H     14.583944   16.682451   16.291714
  H     14.946099   14.998084   15.832054
  H     14.909765   18.972998   15.013307
  H     16.438424   18.891901   14.114655
  H     15.933072   20.406125   14.851576
  H     16.480476   20.905801   16.891123
  H     19.020234   18.841828   19.232185
  H     19.059974   17.274247   17.370881
  H     19.027770   14.965128   18.060225
  H     18.285149   13.205234   19.650468
  H     16.441789   13.690960   21.264009
  H     15.039843   15.203376   22.003456
  H     16.103625   17.683762   19.702912

 Total Charge           Charge          ....    0
 Multiplicity           Mult            ....    1
 Number of Electrons    NEL             ....  154
 Basis Dimension        Dim             ....  828

ORBITAL ENERGIES
----------------

  NO   OCC          E(Eh)            E(eV)
   0   2.0000     -91.890196     -2500.4594
   1   2.0000     -20.595791      -560.4400
   2   2.0000     -20.592377      -560.3471
   3   2.0000     -20.553258      -559.2826
   4   2.0000     -15.630748      -425.3343
   5   2.0000     -15.608082      -424.7175
   6   2.0000     -11.394138      -310.0502
   7   2.0000     -11.385195      -309.8069
   8   2.0000     -11.339614      -308.5666
   9   2.0000     -11.312154      -307.8194
  10   2.0000     -11.306821      -307.6742
  11   2.0000     -11.306355      -307.6616
  12   2.0000     -11.264367      -306.5190
  13   2.0000     -11.261555      -306.4425
  14   2.0000     -11.259366      -306.3829
  15   2.0000     -11.252004      -306.1826
  16   2.0000     -11.241945      -305.9089
  17   2.0000     -11.238320      -305.8102
  18   2.0000     -11.238232      -305.8078
  19   2.0000     -11.234611      -305.7093
  20   2.0000      -8.895279      -242.0529
  21   2.0000      -6.576854      -178.9653
  22   2.0000      -6.574851      -178.9108
  23   2.0000      -6.574261      -178.8947
  24   2.0000      -1.453399       -39.5490
  25   2.0000      -1.415530       -38.5185
  26   2.0000      -1.361947       -37.0605
  27   2.0000      -1.342075       -36.5197
  28   2.0000      -1.239224       -33.7210
  29   2.0000      -1.156611       -31.4730
  30   2.0000      -1.123655       -30.5762
  31   2.0000      -1.045714       -28.4553
  32   2.0000      -1.040889       -28.3240
  33   2.0000      -1.014338       -27.6015
  34   2.0000      -1.003010       -27.2933
  35   2.0000      -0.987771       -26.8786
  36   2.0000      -0.923946       -25.1418
  37   2.0000      -0.881601       -23.9896
  38   2.0000      -0.853081       -23.2135
  39   2.0000      -0.841904       -22.9094
  40   2.0000      -0.833752       -22.6876
  41   2.0000      -0.831877       -22.6365
  42   2.0000      -0.760820       -20.7030
  43   2.0000      -0.737941       -20.0804
  44   2.0000      -0.729836       -19.8599
  45   2.0000      -0.693367       -18.8675
  46   2.0000      -0.689464       -18.7613
  47   2.0000      -0.683607       -18.6019
  48   2.0000      -0.674229       -18.3467
  49   2.0000      -0.657602       -17.8943
  50   2.0000      -0.650667       -17.7056
  51   2.0000      -0.643690       -17.5157
  52   2.0000      -0.637518       -17.3477
  53   2.0000      -0.621281       -16.9059
  54   2.0000      -0.606397       -16.5009
  55   2.0000      -0.603043       -16.4096
  56   2.0000      -0.599125       -16.3030
  57   2.0000      -0.580346       -15.7920
  58   2.0000      -0.575944       -15.6722
  59   2.0000      -0.566425       -15.4132
  60   2.0000      -0.560331       -15.2474
  61   2.0000      -0.553629       -15.0650
  62   2.0000      -0.541698       -14.7404
  63   2.0000      -0.530129       -14.4255
  64   2.0000      -0.520879       -14.1738
  65   2.0000      -0.512930       -13.9575
  66   2.0000      -0.502284       -13.6679
  67   2.0000      -0.497543       -13.5388
  68   2.0000      -0.485351       -13.2071
  69   2.0000      -0.466684       -12.6991
  70   2.0000      -0.464785       -12.6474
  71   2.0000      -0.452111       -12.3026
  72   2.0000      -0.355967        -9.6864
  73   2.0000      -0.348353        -9.4792
  74   2.0000      -0.329318        -8.9612
  75   2.0000      -0.319886        -8.7045
  76   2.0000      -0.318819        -8.6755
  77   0.0000       0.074125         2.0170
  78   0.0000       0.106351         2.8940
  79   0.0000       0.118578         3.2267
  80   0.0000       0.133010         3.6194
  81   0.0000       0.138144         3.7591

MULLIKEN ATOMIC CHARGES
-----------------------
   0 C :   -0.264397
   1 C :    0.009423
   2 O :   -0.350896
   3 C :    0.463677
   4 O :   -0.378766
   5 C :   -0.268045
   6 C :    0.180439
   7 C :   -0.304154
   8 N :   -0.130710
   9 C :    0.205168
  10 S :   -0.440094
  11 N :   -0.213745
  12 C :    0.052033
  13 C :    0.026617
  14 C :   -0.187940
  15 C :   -0.131287
  16 C :   -0.277516
  17 C :    0.313546
  18 O :   -0.358339
  19 C :   -0.253441
  20 H :    0.094780
  21 H :    0.107815
  22 H :    0.092465
  23 H :    0.101494
  24 H :    0.114355
  25 H :    0.117480
  26 H :    0.139610
  27 H :    0.114240
  28 H :    0.198392
  29 H :    0.200379
  30 H :    0.159777
  31 H :    0.167586
  32 H :    0.162424
  33 H :    0.129815
  34 H :    0.240785
  35 H :    0.167031
Sum of atomic charges:    0.0000000

LOEWDIN ATOMIC CHARGES
----------------------
   0 C :    0.110921
   1 C :   -0.026129
   2 O :    0.301444
   3 C :   -0.422056
   4 O :    0.128617
   5 C :   -0.096150
   6 C :   -0.071434
   7 C :    0.127493
   8 N :    0.405130
   9 C :   -0.458234
  10 S :   -0.035986
  11 N :    0.396197
  12 C :   -0.049369
  13 C :   -0.042632
  14 C :    0.023688
  15 C :    0.042582
  16 C :   -0.000768
  17 C :   -0.192956
  18 O :    0.393332
  19 C :    0.027326
  20 H :   -0.023367
  21 H :   -0.022275
  22 H :   -0.030939
  23 H :   -0.037144
  24 H :   -0.025931
  25 H :   -0.014163
  26 H :   -0.005868
  27 H :   -0.017759
  28 H :   -0.058185
  29 H :   -0.063222
  30 H :   -0.006423
  31 H :   -0.022370
  32 H :   -0.019829
  33 H :   -0.035525
  34 H :   -0.153939
  35 H :   -0.024077

  Mayer bond orders larger than 0.100000
B(  0-C ,  1-C ) :   0.9766 B(  0-C , 20-H ) :   0.9755 B(  0-C , 21-H ) :   0.9768
B(  0-C , 22-H ) :   0.9780 B(  1-C ,  2-O ) :   0.8987 B(  1-C , 23-H ) :   0.9661
B(  1-C , 24-H ) :   0.9787 B(  2-O ,  3-C ) :   1.1102 B(  3-C ,  4-O ) :   2.0844
B(  3-C ,  5-C ) :   0.9759 B(  5-C ,  6-C ) :   1.6761 B(  5-C , 12-C ) :   0.9535
B(  6-C ,  7-C ) :   0.9434 B(  6-C ,  8-N ) :   1.1315 B(  7-C , 25-H ) :   0.9663
B(  7-C , 26-H ) :   0.9653 B(  7-C , 27-H ) :   0.9894 B(  8-N ,  9-C ) :   1.1864
B(  8-N , 28-H ) :   0.9478 B(  9-C , 10-S ) :   1.6119 B(  9-C , 11-N ) :   1.3008
B( 11-N , 12-C ) :   0.9836 B( 11-N , 29-H ) :   0.9487 B( 12-C , 13-C ) :   0.9714
B( 12-C , 30-H ) :   0.9938 B( 13-C , 14-C ) :   1.3821 B( 13-C , 19-C ) :   1.3599
B( 14-C , 15-C ) :   1.3954 B( 14-C , 31-H ) :   0.9608 B( 15-C , 16-C ) :   1.3604
B( 15-C , 32-H ) :   0.9704 B( 16-C , 17-C ) :   1.3319 B( 16-C , 33-H ) :   0.9855
B( 17-C , 18-O ) :   1.1056 B( 17-C , 19-C ) :   1.3671 B( 18-O , 34-H ) :   0.9799
B( 19-C , 35-H ) :   0.9589

MP2 TOTAL ENERGY:    -1274.329182892 Eh
FINAL SINGLE POINT ENERGY     -1274.329182892263

DIPOLE MOMENT
-------------
                                X             Y             Z
Electronic contribution:     11.31043       7.16628       9.90132
Nuclear contribution   :    -12.83380      -8.32244     -10.41002
                        -----------------------------------------
Total Dipole Moment    :     -1.52338      -1.15615      -0.50870
                        -----------------------------------------
Magnitude (a.u.)       :      1.97892
Magnitude (Debye)      :      5.03003

Rotational constants in cm-1:     0.009931     0.009363     0.006044
Rotational constants in MHz :   297.715717   280.691358   181.205513

                             ****ORCA TERMINATED NORMALLY****
TOTAL RUN TIME: 0 days 1 hours 39 minutes 28 seconds 403 msec
