                         Program Version 4.2.0 -  RELEASE  -
|  1> ! ri-mp2 cc-pvtz cc-pvtz/c TightSCF NoKeepInts
|  2>
|  3> %scf
|  4>   MaxCore 4096
|  5> end
|  6> *xyz  0  1
|  7>     C       14.9893352   14.5036230   14.6409813
|  8>     C       14.7020065   15.9951284   14.3648925
|  9>     O       15.6902877   16.9387296   14.8586756
| 10>     C       16.7012204   16.6913659   15.7513016
| 11>     O       17.2768361   15.6218499   15.8539641
| 12>     C       16.9989609   17.8400736   16.6754623
| 13>     C       16.8400978   19.1417094   16.3142846
| 14>     C       16.1553480   19.6931680   15.0787383
| 15>     N       17.3784791   20.1689496   17.0938760
| 16>     C       18.2684725   19.9819649   18.1165451
| 17>     S       18.9495013   21.2543833   18.9245159
| 18>     N       18.5825064   18.6820909   18.4206564
| 19>     C       17.9312703   17.4903508   17.8433599
| 20>     C       17.2815762   16.5955140   18.8908741
| 21>     C       17.6201743   15.2332715   18.9800920
| 22>     C       17.0202431   14.4093874   19.9471638
| 23>     C       16.0745273   14.9529105   20.8334826
| 24>     C       15.7337360   16.3097317   20.7453498
| 25>     O       14.8177068   16.8360302   21.5969777
| 26>     C       16.3321279   17.1270300   19.7810362
| 27>     H       15.9317048   14.1910234   14.1736114
| 28>     H       14.1886095   13.8801791   14.2255798
| 29>     H       15.0431328   14.3020818   15.7184465
| 30>     H       14.5871426   16.1399769   13.2829814
| 31>     H       13.7354402   16.2397751   14.8239716
| 32>     H       15.0851882   19.4520371   15.0881640
| 33>     H       16.5924742   19.2660922   14.1674035
| 34>     H       16.2425457   20.7832331   14.9937098
| 35>     H       17.1751091   21.1293798   16.8681198
| 36>     H       19.2252069   18.5697132   19.1944751
| 37>     H       18.8015041   16.9906074   17.3932911
| 38>     H       18.3402824   14.8093239   18.2840345
| 39>     H       17.2856255   13.3551819   20.0022565
| 40>     H       15.6078139   14.3199145   21.5807382
| 41>     H       14.5427872   16.1288008   22.1994700
| 42>     H       16.0580190   18.1754170   19.7295171
| 43> *
| 44>
| 45>                          ****END OF INPUT****

CARTESIAN COORDINATES (ANGSTROEM)
---------------------------------
  C     14.989335   14.503623   14.640981
  C     14.702006   15.995128   14.364892
  O     15.690288   16.938730   14.858676
  C     16.701220   16.691366   15.751302
  O     17.276836   15.621850   15.853964
  C     16.998961   17.840074   16.675462
  C     16.840098   19.141709   16.314285
  C     16.155348   19.693168   15.078738
  N     17.378479   20.168950   17.093876
  C     18.268473   19.981965   18.116545
  S     18.949501   21.254383   18.924516
  N     18.582506   18.682091   18.420656
  C     17.931270   17.490351   17.843360
  C     17.281576   16.595514   18.890874
  C     17.620174   15.233271   18.980092
  C     17.020243   14.409387   19.947164
  C     16.074527   14.952910   20.833483
  C     15.733736   16.309732   20.745350
  O     14.817707   16.836030   21.596978
  C     16.332128   17.127030   19.781036
  H     15.931705   14.191023   14.173611
  H     14.188609   13.880179   14.225580
  H     15.043133   14.302082   15.718446
  H     14.587143   16.139977   13.282981
  H     13.735440   16.239775   14.823972
  H     15.085188   19.452037   15.088164
  H     16.592474   19.266092   14.167404
  H     16.242546   20.783233   14.993710
  H     17.175109   21.129380   16.868120
  H     19.225207   18.569713   19.194475
  H     18.801504   16.990607   17.393291
  H     18.340282   14.809324   18.284034
  H     17.285625   13.355182   20.002257
  H     15.607814   14.319914   21.580738
  H     14.542787   16.128801   22.199470
  H     16.058019   18.175417   19.729517

 Total Charge           Charge          ....    0
 Multiplicity           Mult            ....    1
 Number of Electrons    NEL             ....  154
 Basis Dimension        Dim             ....  828

ORBITAL ENERGIES
----------------

  NO   OCC          E(Eh)            E(eV)
   0   2.0000     -91.887064     -2500.3741
   1   2.0000     -20.597194      -560.4781
   2   2.0000     -20.591976      -560.3361
   3   2.0000     -20.545169      -559.0625
   4   2.0000     -15.627135      -425.2360
   5   2.0000     -15.604830      -424.6290
   6   2.0000     -11.398468      -310.1681
   7   2.0000     -11.381537      -309.7074
   8   2.0000     -11.336211      -308.4740
   9   2.0000     -11.308004      -307.7064
  10   2.0000     -11.307552      -307.6941
  11   2.0000     -11.303240      -307.5768
  12   2.0000     -11.259426      -306.3845
  13   2.0000     -11.257729      -306.3384
  14   2.0000     -11.255076      -306.2662
  15   2.0000     -11.248178      -306.0785
  16   2.0000     -11.238284      -305.8093
  17   2.0000     -11.234238      -305.6992
  18   2.0000     -11.231057      -305.6126
  19   2.0000     -11.225293      -305.4558
  20   2.0000      -8.892160      -241.9680
  21   2.0000      -6.573740      -178.8806
  22   2.0000      -6.571735      -178.8260
  23   2.0000      -6.571150      -178.8101
  24   2.0000      -1.444701       -39.3123
  25   2.0000      -1.411722       -38.4149
  26   2.0000      -1.356526       -36.9130
  27   2.0000      -1.338698       -36.4278
  28   2.0000      -1.236013       -33.6336
  29   2.0000      -1.152243       -31.3541
  30   2.0000      -1.119279       -30.4571
  31   2.0000      -1.042253       -28.3611
  32   2.0000      -1.034129       -28.1401
  33   2.0000      -1.009911       -27.4811
  34   2.0000      -0.997671       -27.1480
  35   2.0000      -0.982440       -26.7336
  36   2.0000      -0.920502       -25.0481
  37   2.0000      -0.896458       -24.3939
  38   2.0000      -0.847299       -23.0562
  39   2.0000      -0.835193       -22.7267
  40   2.0000      -0.828228       -22.5372
  41   2.0000      -0.818443       -22.2710
  42   2.0000      -0.742857       -20.2142
  43   2.0000      -0.727091       -19.7851
  44   2.0000      -0.723970       -19.7002
  45   2.0000      -0.689516       -18.7627
  46   2.0000      -0.683430       -18.5971
  47   2.0000      -0.677564       -18.4375
  48   2.0000      -0.674005       -18.3406
  49   2.0000      -0.665004       -18.0957
  50   2.0000      -0.646245       -17.5852
  51   2.0000      -0.642892       -17.4940
  52   2.0000      -0.632371       -17.2077
  53   2.0000      -0.608802       -16.5663
  54   2.0000      -0.602652       -16.3990
  55   2.0000      -0.598017       -16.2729
  56   2.0000      -0.595315       -16.1993
  57   2.0000      -0.574964       -15.6456
  58   2.0000      -0.573127       -15.5956
  59   2.0000      -0.569847       -15.5063
  60   2.0000      -0.557822       -15.1791
  61   2.0000      -0.544762       -14.8237
  62   2.0000      -0.537859       -14.6359
  63   2.0000      -0.526605       -14.3297
  64   2.0000      -0.515392       -14.0245
  65   2.0000      -0.509973       -13.8771
  66   2.0000      -0.498117       -13.5544
  67   2.0000      -0.493323       -13.4240
  68   2.0000      -0.479294       -13.0423
  69   2.0000      -0.462628       -12.5887
  70   2.0000      -0.453285       -12.3345
  71   2.0000      -0.446440       -12.1483
  72   2.0000      -0.351746        -9.5715
  73   2.0000      -0.344545        -9.3755
  74   2.0000      -0.326244        -8.8775
  75   2.0000      -0.316268        -8.6061
  76   2.0000      -0.314676        -8.5628
  77   0.0000       0.077814         2.1174
  78   0.0000       0.111141         3.0243
  79   0.0000       0.121845         3.3156
  80   0.0000       0.135581         3.6893
  81   0.0000       0.138435         3.7670

MULLIKEN ATOMIC CHARGES
-----------------------
   0 C :   -0.290348
   1 C :    0.049649
   2 O :   -0.365934
   3 C :    0.421205
   4 O :   -0.413588
   5 C :   -0.159185
   6 C :    0.157800
   7 C :   -0.282271
   8 N :   -0.129114
   9 C :    0.207342
  10 S :   -0.444162
  11 N :   -0.211375
  12 C :    0.042753
  13 C :    0.031213
  14 C :   -0.174134
  15 C :   -0.134594
  16 C :   -0.277625
  17 C :    0.314259
  18 O :   -0.358843
  19 C :   -0.251487
  20 H :    0.115004
  21 H :    0.097322
  22 H :    0.109146
  23 H :    0.094093
  24 H :    0.088590
  25 H :    0.127114
  26 H :    0.125939
  27 H :    0.102298
  28 H :    0.198547
  29 H :    0.199838
  30 H :    0.156680
  31 H :    0.161068
  32 H :    0.160409
  33 H :    0.128418
  34 H :    0.239887
  35 H :    0.164087
Sum of atomic charges:    0.0000000

LOEWDIN ATOMIC CHARGES
----------------------
   0 C :    0.103571
   1 C :   -0.009306
   2 O :    0.290385
   3 C :   -0.412764
   4 O :    0.116965
   5 C :   -0.091960
   6 C :   -0.065185
   7 C :    0.124509
   8 N :    0.405078
   9 C :   -0.458828
  10 S :   -0.039033
  11 N :    0.396426
  12 C :   -0.048371
  13 C :   -0.040665
  14 C :    0.023901
  15 C :    0.040171
  16 C :   -0.001502
  17 C :   -0.192584
  18 O :    0.393144
  19 C :    0.029708
  20 H :   -0.023899
  21 H :   -0.027201
  22 H :   -0.024781
  23 H :   -0.026885
  24 H :   -0.029834
  25 H :   -0.009925
  26 H :   -0.009058
  27 H :   -0.021492
  28 H :   -0.059000
  29 H :   -0.063316
  30 H :   -0.008527
  31 H :   -0.023871
  32 H :   -0.021086
  33 H :   -0.036210
  34 H :   -0.154890
  35 H :   -0.023685

  Mayer bond orders larger than 0.100000
B(  0-C ,  1-C ) :   0.9823 B(  0-C , 20-H ) :   0.9723 B(  0-C , 21-H ) :   0.9719
B(  0-C , 22-H ) :   0.9734 B(  1-C ,  2-O ) :   0.9060 B(  1-C , 23-H ) :   0.9781
B(  1-C , 24-H ) :   0.9765 B(  2-O ,  3-C ) :   1.1104 B(  3-C ,  4-O ) :   1.9973
B(  3-C ,  5-C ) :   1.0297 B(  5-C ,  6-C ) :   1.6670 B(  5-C , 12-C ) :   0.9482
B(  6-C ,  7-C ) :   0.9532 B(  6-C ,  8-N ) :   1.1322 B(  7-C , 25-H ) :   0.9643
B(  7-C , 26-H ) :   0.9653 B(  7-C , 27-H ) :   0.9917 B(  8-N ,  9-C ) :   1.1873
B(  8-N , 28-H ) :   0.9470 B(  9-C , 10-S ) :   1.6065 B(  9-C , 11-N ) :   1.3062
B( 11-N , 12-C ) :   0.9756 B( 11-N , 29-H ) :   0.9487 B( 12-C , 13-C ) :   0.9719
B( 12-C , 30-H ) :   0.9969 B( 13-C , 14-C ) :   1.3755 B( 13-C , 19-C ) :   1.3663
B( 14-C , 15-C ) :   1.3964 B( 14-C , 31-H ) :   0.9632 B( 15-C , 16-C ) :   1.3588
B( 15-C , 32-H ) :   0.9711 B( 16-C , 17-C ) :   1.3332 B( 16-C , 33-H ) :   0.9859
B( 17-C , 18-O ) :   1.1038 B( 17-C , 19-C ) :   1.3669 B( 18-O , 34-H ) :   0.9807
B( 19-C , 35-H ) :   0.9599

MP2 TOTAL ENERGY:    -1274.327761945 Eh
FINAL SINGLE POINT ENERGY     -1274.327761944539

DIPOLE MOMENT
-------------
                                X             Y             Z
Electronic contribution:      9.19086      10.56932      10.69601
Nuclear contribution   :    -10.78555     -11.83634     -11.76885
                        -----------------------------------------
Total Dipole Moment    :     -1.59469      -1.26703      -1.07284
                        -----------------------------------------
Magnitude (a.u.)       :      2.30204
Magnitude (Debye)      :      5.85131

Rotational constants in cm-1:     0.010103     0.009147     0.005636
Rotational constants in MHz :   302.869843   274.233563   168.960770

                             ****ORCA TERMINATED NORMALLY****
TOTAL RUN TIME: 0 days 1 hours 51 minutes 17 seconds 128 msec
