                         Program Version 4.2.0 -  RELEASE  -
|  1> ! ri-mp2 cc-pvtz cc-pvtz/c TightSCF NoKeepInts
|  2>
|  3> %scf
|  4>   MaxCore 4096
|  5> end
|  6> *xyz  0  1
|  7>     C       14.6631435   15.9167090   16.3423681
|  8>     C       15.0264512   16.2165735   14.8706682
|  9>     O       16.4507993   16.1590115   14.6072315
| 10>     C       17.4502627   16.4630853   15.4969987
| 11>     O       18.4598899   15.7848111   15.5480748
| 12>     C       17.2228381   17.6151215   16.4266925
| 13>     C       16.8792169   18.8396679   15.9531924
| 14>     C       16.4979044   19.2163749   14.5349159
| 15>     N       16.9552292   19.9681831   16.7721712
| 16>     C       17.6053016   20.0035015   17.9769232
| 17>     S       17.7658572   21.4047945   18.8399809
| 18>     N       18.1409758   18.8186261   18.4160388
| 19>     C       17.9198380   17.5015563   17.7866756
| 20>     C       17.2859686   16.4644824   18.7035414
| 21>     C       17.7729462   15.1452097   18.7244934
| 22>     C       17.1785962   14.1768000   19.5504791
| 23>     C       16.0869435   14.5303666   20.3618308
| 24>     C       15.5980509   15.8437107   20.3415355
| 25>     O       14.5382252   16.1857936   21.1163586
| 26>     C       16.1917043   16.8058610   19.5182703
| 27>     H       15.2600599   15.0844075   16.7379353
| 28>     H       13.6066035   15.6317651   16.4162108
| 29>     H       14.8025893   16.7933660   16.9841329
| 30>     H       14.5313824   15.4786525   14.2259144
| 31>     H       14.6237088   17.1984382   14.5989744
| 32>     H       16.8722838   18.4993797   13.7948090
| 33>     H       16.9269850   20.1867753   14.2537121
| 34>     H       15.4103959   19.2928810   14.4229708
| 35>     H       16.6005018   20.8527761   16.4444289
| 36>     H       18.6133848   18.8690688   19.3100620
| 37>     H       18.9600123   17.2199475   17.5644621
| 38>     H       18.6100498   14.8672783   18.0871106
| 39>     H       17.5626439   13.1580435   19.5553915
| 40>     H       15.6237731   13.7846850   20.9995374
| 41>     H       14.2974382   15.4064840   21.6397588
| 42>     H       15.7950447   17.8158113   19.5141483
| 43> *
| 44>
| 45>                          ****END OF INPUT****

CARTESIAN COORDINATES (ANGSTROEM)
---------------------------------
  C     14.663143   15.916709   16.342368
  C     15.026451   16.216573   14.870668
  O     16.450799   16.159011   14.607231
  C     17.450263   16.463085   15.496999
  O     18.459890   15.784811   15.548075
  C     17.222838   17.615122   16.426693
  C     16.879217   18.839668   15.953192
  C     16.497904   19.216375   14.534916
  N     16.955229   19.968183   16.772171
  C     17.605302   20.003501   17.976923
  S     17.765857   21.404794   18.839981
  N     18.140976   18.818626   18.416039
  C     17.919838   17.501556   17.786676
  C     17.285969   16.464482   18.703541
  C     17.772946   15.145210   18.724493
  C     17.178596   14.176800   19.550479
  C     16.086944   14.530367   20.361831
  C     15.598051   15.843711   20.341535
  O     14.538225   16.185794   21.116359
  C     16.191704   16.805861   19.518270
  H     15.260060   15.084407   16.737935
  H     13.606604   15.631765   16.416211
  H     14.802589   16.793366   16.984133
  H     14.531382   15.478653   14.225914
  H     14.623709   17.198438   14.598974
  H     16.872284   18.499380   13.794809
  H     16.926985   20.186775   14.253712
  H     15.410396   19.292881   14.422971
  H     16.600502   20.852776   16.444429
  H     18.613385   18.869069   19.310062
  H     18.960012   17.219947   17.564462
  H     18.610050   14.867278   18.087111
  H     17.562644   13.158043   19.555391
  H     15.623773   13.784685   20.999537
  H     14.297438   15.406484   21.639759
  H     15.795045   17.815811   19.514148

 Total Charge           Charge          ....    0
 Multiplicity           Mult            ....    1
 Number of Electrons    NEL             ....  154
 Basis Dimension        Dim             ....  828

ORBITAL ENERGIES
----------------

  NO   OCC          E(Eh)            E(eV)
   0   2.0000     -91.890016     -2500.4545
   1   2.0000     -20.598212      -560.5059
   2   2.0000     -20.596876      -560.4695
   3   2.0000     -20.550257      -559.2009
   4   2.0000     -15.628595      -425.2757
   5   2.0000     -15.609030      -424.7433
   6   2.0000     -11.399285      -310.1903
   7   2.0000     -11.385503      -309.8153
   8   2.0000     -11.336157      -308.4725
   9   2.0000     -11.315118      -307.9000
  10   2.0000     -11.310754      -307.7813
  11   2.0000     -11.309033      -307.7344
  12   2.0000     -11.265677      -306.5547
  13   2.0000     -11.265088      -306.5386
  14   2.0000     -11.262481      -306.4677
  15   2.0000     -11.255275      -306.2716
  16   2.0000     -11.244585      -305.9807
  17   2.0000     -11.240271      -305.8633
  18   2.0000     -11.236887      -305.7712
  19   2.0000     -11.232890      -305.6625
  20   2.0000      -8.895119      -242.0485
  21   2.0000      -6.576700      -178.9611
  22   2.0000      -6.574688      -178.9064
  23   2.0000      -6.574104      -178.8905
  24   2.0000      -1.445505       -39.3342
  25   2.0000      -1.417974       -38.5850
  26   2.0000      -1.358721       -36.9727
  27   2.0000      -1.341761       -36.5112
  28   2.0000      -1.239638       -33.7323
  29   2.0000      -1.159349       -31.5475
  30   2.0000      -1.124978       -30.6122
  31   2.0000      -1.046902       -28.4877
  32   2.0000      -1.037310       -28.2266
  33   2.0000      -1.017530       -27.6884
  34   2.0000      -1.006112       -27.3777
  35   2.0000      -0.989606       -26.9285
  36   2.0000      -0.926422       -25.2092
  37   2.0000      -0.899773       -24.4841
  38   2.0000      -0.853225       -23.2174
  39   2.0000      -0.840949       -22.8834
  40   2.0000      -0.834943       -22.7200
  41   2.0000      -0.827917       -22.5288
  42   2.0000      -0.744743       -20.2655
  43   2.0000      -0.735282       -20.0080
  44   2.0000      -0.731427       -19.9031
  45   2.0000      -0.695307       -18.9203
  46   2.0000      -0.686810       -18.6891
  47   2.0000      -0.681160       -18.5353
  48   2.0000      -0.674990       -18.3674
  49   2.0000      -0.661449       -17.9989
  50   2.0000      -0.658145       -17.9090
  51   2.0000      -0.649764       -17.6810
  52   2.0000      -0.638665       -17.3789
  53   2.0000      -0.621156       -16.9025
  54   2.0000      -0.610377       -16.6092
  55   2.0000      -0.605551       -16.4779
  56   2.0000      -0.601797       -16.3757
  57   2.0000      -0.586068       -15.9477
  58   2.0000      -0.575919       -15.6715
  59   2.0000      -0.564384       -15.3577
  60   2.0000      -0.563950       -15.3458
  61   2.0000      -0.552421       -15.0321
  62   2.0000      -0.541574       -14.7370
  63   2.0000      -0.535434       -14.5699
  64   2.0000      -0.522074       -14.2064
  65   2.0000      -0.512223       -13.9383
  66   2.0000      -0.500446       -13.6178
  67   2.0000      -0.497067       -13.5259
  68   2.0000      -0.485012       -13.1978
  69   2.0000      -0.470580       -12.8051
  70   2.0000      -0.456459       -12.4209
  71   2.0000      -0.449130       -12.2214
  72   2.0000      -0.356990        -9.7142
  73   2.0000      -0.348985        -9.4964
  74   2.0000      -0.329451        -8.9648
  75   2.0000      -0.322989        -8.7890
  76   2.0000      -0.320015        -8.7080
  77   0.0000       0.080443         2.1890
  78   0.0000       0.104980         2.8567
  79   0.0000       0.115870         3.1530
  80   0.0000       0.130651         3.5552
  81   0.0000       0.130809         3.5595

MULLIKEN ATOMIC CHARGES
-----------------------
   0 C :   -0.331986
   1 C :    0.038263
   2 O :   -0.341944
   3 C :    0.439755
   4 O :   -0.380949
   5 C :   -0.259754
   6 C :    0.190331
   7 C :   -0.340305
   8 N :   -0.139014
   9 C :    0.205183
  10 S :   -0.442245
  11 N :   -0.223519
  12 C :    0.073860
  13 C :    0.021611
  14 C :   -0.220234
  15 C :   -0.129470
  16 C :   -0.278046
  17 C :    0.319890
  18 O :   -0.357104
  19 C :   -0.261301
  20 H :    0.125156
  21 H :    0.116346
  22 H :    0.112246
  23 H :    0.127143
  24 H :    0.081749
  25 H :    0.144032
  26 H :    0.127641
  27 H :    0.122945
  28 H :    0.198447
  29 H :    0.202931
  30 H :    0.166016
  31 H :    0.178257
  32 H :    0.164494
  33 H :    0.131673
  34 H :    0.241073
  35 H :    0.176827
Sum of atomic charges:   -0.0000000

LOEWDIN ATOMIC CHARGES
----------------------
   0 C :    0.104478
   1 C :   -0.014657
   2 O :    0.292480
   3 C :   -0.418171
   4 O :    0.122742
   5 C :   -0.084315
   6 C :   -0.083157
   7 C :    0.125398
   8 N :    0.403353
   9 C :   -0.458651
  10 S :   -0.037748
  11 N :    0.396456
  12 C :   -0.047542
  13 C :   -0.042669
  14 C :    0.021090
  15 C :    0.042944
  16 C :   -0.000763
  17 C :   -0.192233
  18 O :    0.394932
  19 C :    0.028875
  20 H :   -0.019834
  21 H :   -0.023293
  22 H :   -0.033859
  23 H :   -0.020053
  24 H :   -0.038399
  25 H :   -0.007880
  26 H :   -0.012213
  27 H :   -0.019194
  28 H :   -0.057117
  29 H :   -0.063229
  30 H :   -0.004269
  31 H :   -0.021577
  32 H :   -0.018945
  33 H :   -0.035035
  34 H :   -0.153493
  35 H :   -0.024451

  Mayer bond orders larger than 0.100000
B(  0-C ,  1-C ) :   0.9537 B(  0-C , 20-H ) :   0.9680 B(  0-C , 21-H ) :   0.9764
B(  0-C , 22-H ) :   0.9719 B(  1-C ,  2-O ) :   0.9054 B(  1-C , 23-H ) :   0.9820
B(  1-C , 24-H ) :   0.9744 B(  2-O ,  3-C ) :   1.1517 B(  3-C ,  4-O ) :   2.0833
B(  3-C ,  5-C ) :   0.9374 B(  5-C ,  6-C ) :   1.6958 B(  5-C , 12-C ) :   0.9396
B(  6-C ,  7-C ) :   0.9371 B(  6-C ,  8-N ) :   1.1141 B(  7-C , 25-H ) :   0.9706
B(  7-C , 26-H ) :   0.9792 B(  7-C , 27-H ) :   0.9665 B(  8-N ,  9-C ) :   1.1951
B(  8-N , 28-H ) :   0.9504 B(  9-C , 10-S ) :   1.6098 B(  9-C , 11-N ) :   1.2938
B( 11-N , 12-C ) :   0.9797 B( 11-N , 29-H ) :   0.9478 B( 12-C , 13-C ) :   0.9701
B( 12-C , 30-H ) :   0.9905 B( 13-C , 14-C ) :   1.3883 B( 13-C , 19-C ) :   1.3437
B( 14-C , 15-C ) :   1.3945 B( 14-C , 31-H ) :   0.9578 B( 15-C , 16-C ) :   1.3598
B( 15-C , 32-H ) :   0.9701 B( 16-C , 17-C ) :   1.3314 B( 16-C , 33-H ) :   0.9848
B( 17-C , 18-O ) :   1.1084 B( 17-C , 19-C ) :   1.3630 B( 18-O , 34-H ) :   0.9797
B( 19-C , 35-H ) :   0.9566

MP2 TOTAL ENERGY:    -1274.326498038 Eh
FINAL SINGLE POINT ENERGY     -1274.326498038327

DIPOLE MOMENT
-------------
                                X             Y             Z
Electronic contribution:      8.67186       6.99500       6.64845
Nuclear contribution   :    -10.28341      -8.12797      -7.20265
                        -----------------------------------------
Total Dipole Moment    :     -1.61154      -1.13297      -0.55420
                        -----------------------------------------
Magnitude (a.u.)       :      2.04642
Magnitude (Debye)      :      5.20158

Rotational constants in cm-1:     0.011537     0.009327     0.006463
Rotational constants in MHz :   345.865135   279.613305   193.768887

                             ****ORCA TERMINATED NORMALLY****
TOTAL RUN TIME: 0 days 2 hours 3 minutes 57 seconds 23 msec
