                         Program Version 4.2.0 -  RELEASE  -
|  1> ! ri-mp2 cc-pvtz cc-pvtz/c TightSCF NoKeepInts
|  2>
|  3> %scf
|  4>   MaxCore 4096
|  5> end
|  6> *xyz  0  1
|  7>     C       14.2186490   14.9582198   14.8000501
|  8>     C       15.2231350   15.8162713   14.0064214
|  9>     O       15.6883127   16.8842006   14.8529350
| 10>     C       16.6607425   16.6463743   15.7831272
| 11>     O       17.2177365   15.5648772   15.8818110
| 12>     C       16.9734673   17.8020976   16.6940930
| 13>     C       16.7746532   19.1017140   16.3448890
| 14>     C       16.0147202   19.6461741   15.1509706
| 15>     N       17.3285429   20.1363952   17.1035412
| 16>     C       18.2628460   19.9629452   18.0882757
| 17>     S       18.9560701   21.2453755   18.8695792
| 18>     N       18.6102824   18.6681540   18.3769854
| 19>     C       17.9576678   17.4662783   17.8229589
| 20>     C       17.3677449   16.5597120   18.8954844
| 21>     C       17.7485867   15.2084971   18.9823017
| 22>     C       17.2047895   14.3749113   19.9739798
| 23>     C       16.2734750   14.8976239   20.8876457
| 24>     C       15.8910555   16.2434786   20.8022894
| 25>     O       14.9892105   16.7497365   21.6807998
| 26>     C       16.4337906   17.0705147   19.8136831
| 27>     H       14.7077917   14.4695053   15.6523470
| 28>     H       13.7936036   14.1756363   14.1600886
| 29>     H       13.3956512   15.5757370   15.1804714
| 30>     H       16.0594108   15.2018652   13.6451452
| 31>     H       14.7126757   16.2429717   13.1335999
| 32>     H       16.4481612   19.2789491   14.2124233
| 33>     H       16.0245272   20.7418526   15.1021782
| 34>     H       14.9633619   19.3339467   15.1856718
| 35>     H       17.0990970   21.0936049   16.8894026
| 36>     H       19.2839315   18.5657460   19.1254785
| 37>     H       18.8178180   16.9831594   17.3369931
| 38>     H       18.4569083   14.8000553   18.2653872
| 39>     H       17.5015763   13.3290206   20.0267424
| 40>     H       15.8497910   14.2569750   21.6537565
| 41>     H       14.7489355   16.0371322   22.2916679
| 42>     H       16.1282807   18.1102917   19.7648247
| 43> *
| 44>
| 45>                          ****END OF INPUT****

CARTESIAN COORDINATES (ANGSTROEM)
---------------------------------
  C     14.218649   14.958220   14.800050
  C     15.223135   15.816271   14.006421
  O     15.688313   16.884201   14.852935
  C     16.660743   16.646374   15.783127
  O     17.217736   15.564877   15.881811
  C     16.973467   17.802098   16.694093
  C     16.774653   19.101714   16.344889
  C     16.014720   19.646174   15.150971
  N     17.328543   20.136395   17.103541
  C     18.262846   19.962945   18.088276
  S     18.956070   21.245376   18.869579
  N     18.610282   18.668154   18.376985
  C     17.957668   17.466278   17.822959
  C     17.367745   16.559712   18.895484
  C     17.748587   15.208497   18.982302
  C     17.204789   14.374911   19.973980
  C     16.273475   14.897624   20.887646
  C     15.891056   16.243479   20.802289
  O     14.989211   16.749737   21.680800
  C     16.433791   17.070515   19.813683
  H     14.707792   14.469505   15.652347
  H     13.793604   14.175636   14.160089
  H     13.395651   15.575737   15.180471
  H     16.059411   15.201865   13.645145
  H     14.712676   16.242972   13.133600
  H     16.448161   19.278949   14.212423
  H     16.024527   20.741853   15.102178
  H     14.963362   19.333947   15.185672
  H     17.099097   21.093605   16.889403
  H     19.283932   18.565746   19.125478
  H     18.817818   16.983159   17.336993
  H     18.456908   14.800055   18.265387
  H     17.501576   13.329021   20.026742
  H     15.849791   14.256975   21.653757
  H     14.748935   16.037132   22.291668
  H     16.128281   18.110292   19.764825

 Total Charge           Charge          ....    0
 Multiplicity           Mult            ....    1
 Number of Electrons    NEL             ....  154
 Basis Dimension        Dim             ....  828

ORBITAL ENERGIES
----------------

  NO   OCC          E(Eh)            E(eV)
   0   2.0000     -91.887809     -2500.3944
   1   2.0000     -20.604701      -560.6824
   2   2.0000     -20.591140      -560.3134
   3   2.0000     -20.544787      -559.0521
   4   2.0000     -15.628404      -425.2705
   5   2.0000     -15.605481      -424.6467
   6   2.0000     -11.396926      -310.1261
   7   2.0000     -11.382281      -309.7276
   8   2.0000     -11.338428      -308.5343
   9   2.0000     -11.307129      -307.6826
  10   2.0000     -11.303967      -307.5966
  11   2.0000     -11.300556      -307.5038
  12   2.0000     -11.261607      -306.4439
  13   2.0000     -11.258809      -306.3678
  14   2.0000     -11.254436      -306.2488
  15   2.0000     -11.247245      -306.0531
  16   2.0000     -11.237451      -305.7866
  17   2.0000     -11.233583      -305.6813
  18   2.0000     -11.230375      -305.5940
  19   2.0000     -11.226476      -305.4880
  20   2.0000      -8.892894      -241.9879
  21   2.0000      -6.574472      -178.9005
  22   2.0000      -6.572468      -178.8460
  23   2.0000      -6.571881      -178.8300
  24   2.0000      -1.454300       -39.5735
  25   2.0000      -1.410888       -38.3922
  26   2.0000      -1.357176       -36.9306
  27   2.0000      -1.339792       -36.4576
  28   2.0000      -1.236929       -33.6586
  29   2.0000      -1.151864       -31.3438
  30   2.0000      -1.120395       -30.4875
  31   2.0000      -1.042359       -28.3640
  32   2.0000      -1.034209       -28.1423
  33   2.0000      -1.009342       -27.4656
  34   2.0000      -0.998235       -27.1634
  35   2.0000      -0.983072       -26.7507
  36   2.0000      -0.920610       -25.0511
  37   2.0000      -0.893550       -24.3147
  38   2.0000      -0.847571       -23.0636
  39   2.0000      -0.834516       -22.7083
  40   2.0000      -0.827474       -22.5167
  41   2.0000      -0.815896       -22.2017
  42   2.0000      -0.755017       -20.5451
  43   2.0000      -0.736184       -20.0326
  44   2.0000      -0.725668       -19.7464
  45   2.0000      -0.690512       -18.7898
  46   2.0000      -0.685844       -18.6628
  47   2.0000      -0.679524       -18.4908
  48   2.0000      -0.669371       -18.2145
  49   2.0000      -0.653555       -17.7841
  50   2.0000      -0.651143       -17.7185
  51   2.0000      -0.643931       -17.5223
  52   2.0000      -0.630205       -17.1487
  53   2.0000      -0.611277       -16.6337
  54   2.0000      -0.602345       -16.3906
  55   2.0000      -0.597735       -16.2652
  56   2.0000      -0.594389       -16.1741
  57   2.0000      -0.580989       -15.8095
  58   2.0000      -0.573344       -15.6015
  59   2.0000      -0.564004       -15.3473
  60   2.0000      -0.558838       -15.2067
  61   2.0000      -0.547760       -14.9053
  62   2.0000      -0.536497       -14.5988
  63   2.0000      -0.529431       -14.4065
  64   2.0000      -0.514942       -14.0123
  65   2.0000      -0.508122       -13.8267
  66   2.0000      -0.498230       -13.5575
  67   2.0000      -0.493675       -13.4336
  68   2.0000      -0.481888       -13.1128
  69   2.0000      -0.464472       -12.6389
  70   2.0000      -0.458579       -12.4786
  71   2.0000      -0.451296       -12.2804
  72   2.0000      -0.353081        -9.6078
  73   2.0000      -0.344080        -9.3629
  74   2.0000      -0.326886        -8.8950
  75   2.0000      -0.316964        -8.6250
  76   2.0000      -0.313736        -8.5372
  77   0.0000       0.077758         2.1159
  78   0.0000       0.112271         3.0551
  79   0.0000       0.121461         3.3051
  80   0.0000       0.136478         3.7138
  81   0.0000       0.141554         3.8519

MULLIKEN ATOMIC CHARGES
-----------------------
   0 C :   -0.289445
   1 C :    0.029490
   2 O :   -0.347947
   3 C :    0.426728
   4 O :   -0.430319
   5 C :   -0.174165
   6 C :    0.163166
   7 C :   -0.278852
   8 N :   -0.128719
   9 C :    0.207429
  10 S :   -0.442798
  11 N :   -0.210782
  12 C :    0.041452
  13 C :    0.032469
  14 C :   -0.166405
  15 C :   -0.134629
  16 C :   -0.276782
  17 C :    0.314522
  18 O :   -0.359118
  19 C :   -0.251241
  20 H :    0.117252
  21 H :    0.094140
  22 H :    0.094043
  23 H :    0.107017
  24 H :    0.105796
  25 H :    0.124026
  26 H :    0.101285
  27 H :    0.129811
  28 H :    0.198857
  29 H :    0.199946
  30 H :    0.154819
  31 H :    0.158380
  32 H :    0.159730
  33 H :    0.128035
  34 H :    0.239839
  35 H :    0.162969
Sum of atomic charges:   -0.0000000

LOEWDIN ATOMIC CHARGES
----------------------
   0 C :    0.106039
   1 C :   -0.017683
   2 O :    0.306367
   3 C :   -0.413982
   4 O :    0.101746
   5 C :   -0.090558
   6 C :   -0.063332
   7 C :    0.124828
   8 N :    0.405460
   9 C :   -0.458852
  10 S :   -0.037881
  11 N :    0.396651
  12 C :   -0.048298
  13 C :   -0.040441
  14 C :    0.024873
  15 C :    0.040673
  16 C :   -0.001059
  17 C :   -0.192362
  18 O :    0.393082
  19 C :    0.029942
  20 H :   -0.023239
  21 H :   -0.026733
  22 H :   -0.029030
  23 H :   -0.028188
  24 H :   -0.026803
  25 H :   -0.009738
  26 H :   -0.021453
  27 H :   -0.009202
  28 H :   -0.058813
  29 H :   -0.062994
  30 H :   -0.008636
  31 H :   -0.024150
  32 H :   -0.021173
  33 H :   -0.036208
  34 H :   -0.154953
  35 H :   -0.023898

  Mayer bond orders larger than 0.100000
B(  0-C ,  1-C ) :   0.9654 B(  0-C , 20-H ) :   0.9747 B(  0-C , 21-H ) :   0.9759
B(  0-C , 22-H ) :   0.9769 B(  1-C ,  2-O ) :   0.8927 B(  1-C , 23-H ) :   0.9763
B(  1-C , 24-H ) :   0.9840 B(  2-O ,  3-C ) :   1.1530 B(  3-C ,  4-O ) :   1.9649
B(  3-C ,  5-C ) :   1.0552 B(  5-C ,  6-C ) :   1.6506 B(  5-C , 12-C ) :   0.9535
B(  6-C ,  7-C ) :   0.9540 B(  6-C ,  8-N ) :   1.1374 B(  7-C , 25-H ) :   0.9653
B(  7-C , 26-H ) :   0.9912 B(  7-C , 27-H ) :   0.9633 B(  8-N ,  9-C ) :   1.1850
B(  8-N , 28-H ) :   0.9469 B(  9-C , 10-S ) :   1.6076 B(  9-C , 11-N ) :   1.3071
B( 11-N , 12-C ) :   0.9767 B( 11-N , 29-H ) :   0.9485 B( 12-C , 13-C ) :   0.9737
B( 12-C , 30-H ) :   0.9977 B( 13-C , 14-C ) :   1.3747 B( 13-C , 19-C ) :   1.3671
B( 14-C , 15-C ) :   1.3973 B( 14-C , 31-H ) :   0.9640 B( 15-C , 16-C ) :   1.3585
B( 15-C , 32-H ) :   0.9712 B( 16-C , 17-C ) :   1.3336 B( 16-C , 33-H ) :   0.9860
B( 17-C , 18-O ) :   1.1031 B( 17-C , 19-C ) :   1.3674 B( 18-O , 34-H ) :   0.9807
B( 19-C , 35-H ) :   0.9602

MP2 TOTAL ENERGY:    -1274.343002463 Eh
FINAL SINGLE POINT ENERGY     -1274.343002462711

DIPOLE MOMENT
-------------
                                X             Y             Z
Electronic contribution:     10.09014       9.87086      10.68787
Nuclear contribution   :    -11.48983     -11.08715     -11.87726
                        -----------------------------------------
Total Dipole Moment    :     -1.39969      -1.21629      -1.18939
                        -----------------------------------------
Magnitude (a.u.)       :      2.20299
Magnitude (Debye)      :      5.59956

Rotational constants in cm-1:     0.009877     0.009223     0.005600
Rotational constants in MHz :   296.100123   276.489929   167.893294

                             ****ORCA TERMINATED NORMALLY****
TOTAL RUN TIME: 0 days 1 hours 33 minutes 56 seconds 720 msec
