                         Program Version 4.2.0 -  RELEASE  -
|  1> ! ri-mp2 cc-pvtz cc-pvtz/c TightSCF NoKeepInts
|  2>
|  3> %scf
|  4>   MaxCore 4096
|  5> end
|  6> *xyz  0  1
|  7>     C       14.5669043   15.1513837   13.4664063
|  8>     C       14.6924798   15.5171112   14.9548323
|  9>     O       15.6865767   16.5518646   15.0597152
| 10>     C       16.7106878   16.4031614   15.9482556
| 11>     O       17.2162935   15.3174389   16.1790327
| 12>     C       17.0424050   17.6368443   16.7391295
| 13>     C       16.9086649   18.8911060   16.2318955
| 14>     C       16.2208227   19.3084571   14.9467128
| 15>     N       17.4804187   19.9877888   16.8821187
| 16>     C       18.3802975   19.8968514   17.9094323
| 17>     S       19.1022795   21.2358772   18.5584501
| 18>     N       18.6688783   18.6327147   18.3569443
| 19>     C       17.9816134   17.3989767   17.9285664
| 20>     C       17.3271145   16.6456704   19.0791487
| 21>     C       17.6404869   15.2965025   19.3237070
| 22>     C       17.0370781   14.6039538   20.3868467
| 23>     C       16.1134049   15.2668170   21.2131816
| 24>     C       15.7978442   16.6107999   20.9703449
| 25>     O       14.9031729   17.2519804   21.7639209
| 26>     C       16.3996000   17.2971735   19.9107482
| 27>     H       14.2790473   16.0284519   12.8736984
| 28>     H       13.8063745   14.3741143   13.3237877
| 29>     H       15.5219363   14.7707968   13.0825883
| 30>     H       13.7303098   15.8819120   15.3368245
| 31>     H       14.9706191   14.6209571   15.5266979
| 32>     H       16.6360636   18.7661181   14.0878640
| 33>     H       16.3307549   20.3785086   14.7324176
| 34>     H       15.1458633   19.0943581   14.9946726
| 35>     H       17.2961033   20.9207006   16.5495650
| 36>     H       19.3196818   18.5943211   19.1312712
| 37>     H       18.8332920   16.8298476   17.5281371
| 38>     H       18.3435592   14.7792600   18.6749464
| 39>     H       17.2827673   13.5581704   20.5624654
| 40>     H       15.6441618   14.7353166   22.0343161
| 41>     H       14.6237726   16.6266847   22.4493026
| 42>     H       16.1456694   18.3380089   19.7400555
| 43> *
| 44>
| 45>                          ****END OF INPUT****

CARTESIAN COORDINATES (ANGSTROEM)
---------------------------------
  C     14.566904   15.151384   13.466406
  C     14.692480   15.517111   14.954832
  O     15.686577   16.551865   15.059715
  C     16.710688   16.403161   15.948256
  O     17.216293   15.317439   16.179033
  C     17.042405   17.636844   16.739130
  C     16.908665   18.891106   16.231896
  C     16.220823   19.308457   14.946713
  N     17.480419   19.987789   16.882119
  C     18.380297   19.896851   17.909432
  S     19.102280   21.235877   18.558450
  N     18.668878   18.632715   18.356944
  C     17.981613   17.398977   17.928566
  C     17.327115   16.645670   19.079149
  C     17.640487   15.296502   19.323707
  C     17.037078   14.603954   20.386847
  C     16.113405   15.266817   21.213182
  C     15.797844   16.610800   20.970345
  O     14.903173   17.251980   21.763921
  C     16.399600   17.297173   19.910748
  H     14.279047   16.028452   12.873698
  H     13.806375   14.374114   13.323788
  H     15.521936   14.770797   13.082588
  H     13.730310   15.881912   15.336824
  H     14.970619   14.620957   15.526698
  H     16.636064   18.766118   14.087864
  H     16.330755   20.378509   14.732418
  H     15.145863   19.094358   14.994673
  H     17.296103   20.920701   16.549565
  H     19.319682   18.594321   19.131271
  H     18.833292   16.829848   17.528137
  H     18.343559   14.779260   18.674946
  H     17.282767   13.558170   20.562465
  H     15.644162   14.735317   22.034316
  H     14.623773   16.626685   22.449303
  H     16.145669   18.338009   19.740056

 Total Charge           Charge          ....    0
 Multiplicity           Mult            ....    1
 Number of Electrons    NEL             ....  154
 Basis Dimension        Dim             ....  828

ORBITAL ENERGIES
----------------

  NO   OCC          E(Eh)            E(eV)
   0   2.0000     -91.888245     -2500.4063
   1   2.0000     -20.597774      -560.4939
   2   2.0000     -20.592133      -560.3404
   3   2.0000     -20.547553      -559.1273
   4   2.0000     -15.628900      -425.2840
   5   2.0000     -15.605840      -424.6565
   6   2.0000     -11.395661      -310.0917
   7   2.0000     -11.382809      -309.7420
   8   2.0000     -11.338379      -308.5330
   9   2.0000     -11.308147      -307.7103
  10   2.0000     -11.304297      -307.6055
  11   2.0000     -11.300117      -307.4918
  12   2.0000     -11.260443      -306.4122
  13   2.0000     -11.259392      -306.3836
  14   2.0000     -11.255386      -306.2746
  15   2.0000     -11.248217      -306.0796
  16   2.0000     -11.238401      -305.8124
  17   2.0000     -11.234518      -305.7068
  18   2.0000     -11.231258      -305.6181
  19   2.0000     -11.230259      -305.5909
  20   2.0000      -8.893326      -241.9997
  21   2.0000      -6.574903      -178.9122
  22   2.0000      -6.572901      -178.8577
  23   2.0000      -6.572312      -178.8417
  24   2.0000      -1.453533       -39.5526
  25   2.0000      -1.411876       -38.4191
  26   2.0000      -1.357630       -36.9430
  27   2.0000      -1.340097       -36.4659
  28   2.0000      -1.237197       -33.6658
  29   2.0000      -1.152731       -31.3674
  30   2.0000      -1.121030       -30.5048
  31   2.0000      -1.043965       -28.4077
  32   2.0000      -1.036014       -28.1914
  33   2.0000      -1.010270       -27.4908
  34   2.0000      -0.998867       -27.1806
  35   2.0000      -0.983854       -26.7720
  36   2.0000      -0.920889       -25.0587
  37   2.0000      -0.886753       -24.1298
  38   2.0000      -0.847734       -23.0680
  39   2.0000      -0.835593       -22.7377
  40   2.0000      -0.828412       -22.5422
  41   2.0000      -0.821779       -22.3617
  42   2.0000      -0.760547       -20.6955
  43   2.0000      -0.736019       -20.0281
  44   2.0000      -0.726513       -19.7694
  45   2.0000      -0.690481       -18.7889
  46   2.0000      -0.686201       -18.6725
  47   2.0000      -0.680074       -18.5058
  48   2.0000      -0.671973       -18.2853
  49   2.0000      -0.654810       -17.8183
  50   2.0000      -0.648241       -17.6395
  51   2.0000      -0.639461       -17.4006
  52   2.0000      -0.627693       -17.0804
  53   2.0000      -0.618777       -16.8378
  54   2.0000      -0.603273       -16.4159
  55   2.0000      -0.598800       -16.2942
  56   2.0000      -0.595391       -16.2014
  57   2.0000      -0.581192       -15.8150
  58   2.0000      -0.573404       -15.6031
  59   2.0000      -0.563220       -15.3260
  60   2.0000      -0.561647       -15.2832
  61   2.0000      -0.547878       -14.9085
  62   2.0000      -0.534648       -14.5485
  63   2.0000      -0.527777       -14.3615
  64   2.0000      -0.516295       -14.0491
  65   2.0000      -0.509272       -13.8580
  66   2.0000      -0.501677       -13.6513
  67   2.0000      -0.494382       -13.4528
  68   2.0000      -0.480830       -13.0841
  69   2.0000      -0.463061       -12.6005
  70   2.0000      -0.459884       -12.5141
  71   2.0000      -0.452352       -12.3091
  72   2.0000      -0.353273        -9.6130
  73   2.0000      -0.344856        -9.3840
  74   2.0000      -0.327305        -8.9064
  75   2.0000      -0.317423        -8.6375
  76   2.0000      -0.314822        -8.5667
  77   0.0000       0.075410         2.0520
  78   0.0000       0.111033         3.0214
  79   0.0000       0.121071         3.2945
  80   0.0000       0.135344         3.6829
  81   0.0000       0.138992         3.7822

MULLIKEN ATOMIC CHARGES
-----------------------
   0 C :   -0.264533
   1 C :    0.028656
   2 O :   -0.357653
   3 C :    0.437114
   4 O :   -0.414181
   5 C :   -0.180714
   6 C :    0.155019
   7 C :   -0.280847
   8 N :   -0.128761
   9 C :    0.207264
  10 S :   -0.442046
  11 N :   -0.210808
  12 C :    0.040687
  13 C :    0.031893
  14 C :   -0.169812
  15 C :   -0.134388
  16 C :   -0.277224
  17 C :    0.313937
  18 O :   -0.359020
  19 C :   -0.251336
  20 H :    0.090276
  21 H :    0.090410
  22 H :    0.102781
  23 H :    0.098132
  24 H :    0.112253
  25 H :    0.126561
  26 H :    0.102464
  27 H :    0.127427
  28 H :    0.198891
  29 H :    0.200006
  30 H :    0.155779
  31 H :    0.159653
  32 H :    0.160206
  33 H :    0.128339
  34 H :    0.239983
  35 H :    0.163592
Sum of atomic charges:   -0.0000000

LOEWDIN ATOMIC CHARGES
----------------------
   0 C :    0.105316
   1 C :   -0.013705
   2 O :    0.304148
   3 C :   -0.416638
   4 O :    0.108611
   5 C :   -0.093282
   6 C :   -0.064462
   7 C :    0.125315
   8 N :    0.405567
   9 C :   -0.458540
  10 S :   -0.037366
  11 N :    0.396338
  12 C :   -0.048345
  13 C :   -0.040708
  14 C :    0.024646
  15 C :    0.040878
  16 C :   -0.001215
  17 C :   -0.192603
  18 O :    0.393065
  19 C :    0.029463
  20 H :   -0.029818
  21 H :   -0.026265
  22 H :   -0.023668
  23 H :   -0.031524
  24 H :   -0.026024
  25 H :   -0.008886
  26 H :   -0.021034
  27 H :   -0.009681
  28 H :   -0.058637
  29 H :   -0.063182
  30 H :   -0.008071
  31 H :   -0.023877
  32 H :   -0.020996
  33 H :   -0.036139
  34 H :   -0.154807
  35 H :   -0.023873

  Mayer bond orders larger than 0.100000
B(  0-C ,  1-C ) :   0.9753 B(  0-C , 20-H ) :   0.9797 B(  0-C , 21-H ) :   0.9759
B(  0-C , 22-H ) :   0.9779 B(  1-C ,  2-O ) :   0.8904 B(  1-C , 23-H ) :   0.9784
B(  1-C , 24-H ) :   0.9723 B(  2-O ,  3-C ) :   1.1093 B(  3-C ,  4-O ) :   2.0014
B(  3-C ,  5-C ) :   1.0401 B(  5-C ,  6-C ) :   1.6598 B(  5-C , 12-C ) :   0.9468
B(  6-C ,  7-C ) :   0.9540 B(  6-C ,  8-N ) :   1.1355 B(  7-C , 25-H ) :   0.9655
B(  7-C , 26-H ) :   0.9908 B(  7-C , 27-H ) :   0.9639 B(  8-N ,  9-C ) :   1.1852
B(  8-N , 28-H ) :   0.9469 B(  9-C , 10-S ) :   1.6086 B(  9-C , 11-N ) :   1.3062
B( 11-N , 12-C ) :   0.9758 B( 11-N , 29-H ) :   0.9485 B( 12-C , 13-C ) :   0.9725
B( 12-C , 30-H ) :   0.9969 B( 13-C , 14-C ) :   1.3769 B( 13-C , 19-C ) :   1.3651
B( 14-C , 15-C ) :   1.3973 B( 14-C , 31-H ) :   0.9636 B( 15-C , 16-C ) :   1.3588
B( 15-C , 32-H ) :   0.9711 B( 16-C , 17-C ) :   1.3332 B( 16-C , 33-H ) :   0.9860
B( 17-C , 18-O ) :   1.1037 B( 17-C , 19-C ) :   1.3675 B( 18-O , 34-H ) :   0.9806
B( 19-C , 35-H ) :   0.9602

MP2 TOTAL ENERGY:    -1274.334706096 Eh
FINAL SINGLE POINT ENERGY     -1274.334706096349

DIPOLE MOMENT
-------------
                                X             Y             Z
Electronic contribution:     10.17879       9.66060      12.30957
Nuclear contribution   :    -11.77096     -10.89241     -13.13616
                        -----------------------------------------
Total Dipole Moment    :     -1.59218      -1.23181      -0.82660
                        -----------------------------------------
Magnitude (a.u.)       :      2.17615
Magnitude (Debye)      :      5.53134

Rotational constants in cm-1:     0.009866     0.008885     0.005472
Rotational constants in MHz :   295.765438   266.365636   164.039622

                             ****ORCA TERMINATED NORMALLY****
TOTAL RUN TIME: 0 days 1 hours 33 minutes 26 seconds 152 msec
