                         Program Version 4.2.0 -  RELEASE  -
|  1> ! ri-mp2 cc-pvtz cc-pvtz/c TightSCF NoKeepInts
|  2>
|  3> %scf
|  4>   MaxCore 4096
|  5> end
|  6> *xyz  0  1
|  7>     C       13.9478524   15.2745989   14.7655662
|  8>     C       15.2786259   15.6780096   14.1071945
|  9>     O       15.8051003   16.7992546   14.8412147
| 10>     C       16.7955282   16.6148292   15.7639439
| 11>     O       17.4004653   15.5608870   15.8738441
| 12>     C       17.0274475   17.7787544   16.6878269
| 13>     C       16.7743732   19.0678917   16.3355589
| 14>     C       16.0241365   19.5763873   15.1198648
| 15>     N       17.2561657   20.1263495   17.1103660
| 16>     C       18.1729154   19.9960257   18.1180571
| 17>     S       18.7816371   21.3085333   18.9195594
| 18>     N       18.5772069   18.7190356   18.4123843
| 19>     C       17.9983950   17.4881256   17.8402494
| 20>     C       17.4271431   16.5500984   18.8956138
| 21>     C       17.8717900   15.2189876   18.9891482
| 22>     C       17.3450578   14.3563874   19.9651063
| 23>     C       16.3664625   14.8295940   20.8560625
| 24>     C       15.9203712   16.1552440   20.7638200
| 25>     O       14.9727919   16.6135396   21.6202393
| 26>     C       16.4462951   17.0112447   19.7909083
| 27>     H       14.1149726   14.9399025   15.7973526
| 28>     H       13.4784206   14.4525465   14.2117304
| 29>     H       13.2500380   16.1209001   14.7835595
| 30>     H       15.9745821   14.8284996   14.0791726
| 31>     H       15.0812047   15.9851117   13.0721885
| 32>     H       16.4911137   19.2164141   14.1946397
| 33>     H       15.9985352   20.6713242   15.0612351
| 34>     H       14.9835956   19.2283736   15.1332406
| 35>     H       16.9849246   21.0716831   16.8923279
| 36>     H       19.2365054   18.6476741   19.1770841
| 37>     H       18.8930574   17.0493551   17.3749544
| 38>     H       18.6171920   14.8483144   18.2895010
| 39>     H       17.6916988   13.3262271   20.0232262
| 40>     H       15.9558386   14.1663392   21.6099546
| 41>     H       14.7542786   15.8886548   22.2248086
| 42>     H       16.0912810   18.0349016   19.7364954
| 43> *
| 44>
| 45>                          ****END OF INPUT****

CARTESIAN COORDINATES (ANGSTROEM)
---------------------------------
  C     13.947852   15.274599   14.765566
  C     15.278626   15.678010   14.107194
  O     15.805100   16.799255   14.841215
  C     16.795528   16.614829   15.763944
  O     17.400465   15.560887   15.873844
  C     17.027447   17.778754   16.687827
  C     16.774373   19.067892   16.335559
  C     16.024137   19.576387   15.119865
  N     17.256166   20.126349   17.110366
  C     18.172915   19.996026   18.118057
  S     18.781637   21.308533   18.919559
  N     18.577207   18.719036   18.412384
  C     17.998395   17.488126   17.840249
  C     17.427143   16.550098   18.895614
  C     17.871790   15.218988   18.989148
  C     17.345058   14.356387   19.965106
  C     16.366463   14.829594   20.856063
  C     15.920371   16.155244   20.763820
  O     14.972792   16.613540   21.620239
  C     16.446295   17.011245   19.790908
  H     14.114973   14.939902   15.797353
  H     13.478421   14.452547   14.211730
  H     13.250038   16.120900   14.783559
  H     15.974582   14.828500   14.079173
  H     15.081205   15.985112   13.072188
  H     16.491114   19.216414   14.194640
  H     15.998535   20.671324   15.061235
  H     14.983596   19.228374   15.133241
  H     16.984925   21.071683   16.892328
  H     19.236505   18.647674   19.177084
  H     18.893057   17.049355   17.374954
  H     18.617192   14.848314   18.289501
  H     17.691699   13.326227   20.023226
  H     15.955839   14.166339   21.609955
  H     14.754279   15.888655   22.224809
  H     16.091281   18.034902   19.736495

 Total Charge           Charge          ....    0
 Multiplicity           Mult            ....    1
 Number of Electrons    NEL             ....  154
 Basis Dimension        Dim             ....  828

ORBITAL ENERGIES
----------------

  NO   OCC          E(Eh)            E(eV)
   0   2.0000     -91.887777     -2500.3935
   1   2.0000     -20.604309      -560.6717
   2   2.0000     -20.591307      -560.3180
   3   2.0000     -20.544708      -559.0499
   4   2.0000     -15.628336      -425.2686
   5   2.0000     -15.605432      -424.6454
   6   2.0000     -11.396663      -310.1190
   7   2.0000     -11.382271      -309.7273
   8   2.0000     -11.338185      -308.5277
   9   2.0000     -11.307273      -307.6866
  10   2.0000     -11.303936      -307.5957
  11   2.0000     -11.298948      -307.4600
  12   2.0000     -11.261214      -306.4332
  13   2.0000     -11.258906      -306.3704
  14   2.0000     -11.254519      -306.2510
  15   2.0000     -11.247341      -306.0557
  16   2.0000     -11.237576      -305.7900
  17   2.0000     -11.233695      -305.6844
  18   2.0000     -11.230443      -305.5959
  19   2.0000     -11.230200      -305.5893
  20   2.0000      -8.892862      -241.9871
  21   2.0000      -6.574440      -178.8996
  22   2.0000      -6.572436      -178.8451
  23   2.0000      -6.571849      -178.8291
  24   2.0000      -1.453955       -39.5641
  25   2.0000      -1.411056       -38.3968
  26   2.0000      -1.357386       -36.9364
  27   2.0000      -1.339711       -36.4554
  28   2.0000      -1.236851       -33.6564
  29   2.0000      -1.151943       -31.3460
  30   2.0000      -1.120448       -30.4890
  31   2.0000      -1.043449       -28.3937
  32   2.0000      -1.035517       -28.1779
  33   2.0000      -1.009464       -27.4689
  34   2.0000      -0.998517       -27.1710
  35   2.0000      -0.983397       -26.7596
  36   2.0000      -0.920524       -25.0487
  37   2.0000      -0.892326       -24.2814
  38   2.0000      -0.847273       -23.0555
  39   2.0000      -0.834428       -22.7059
  40   2.0000      -0.827572       -22.5194
  41   2.0000      -0.815504       -22.1910
  42   2.0000      -0.759265       -20.6607
  43   2.0000      -0.736409       -20.0387
  44   2.0000      -0.725741       -19.7484
  45   2.0000      -0.690758       -18.7965
  46   2.0000      -0.685501       -18.6534
  47   2.0000      -0.679518       -18.4906
  48   2.0000      -0.669266       -18.2117
  49   2.0000      -0.657468       -17.8906
  50   2.0000      -0.648367       -17.6430
  51   2.0000      -0.644414       -17.5354
  52   2.0000      -0.631699       -17.1894
  53   2.0000      -0.606306       -16.4984
  54   2.0000      -0.601188       -16.3591
  55   2.0000      -0.597650       -16.2629
  56   2.0000      -0.594400       -16.1744
  57   2.0000      -0.582103       -15.8398
  58   2.0000      -0.573316       -15.6007
  59   2.0000      -0.562235       -15.2992
  60   2.0000      -0.559016       -15.2116
  61   2.0000      -0.553560       -15.0631
  62   2.0000      -0.536169       -14.5899
  63   2.0000      -0.531882       -14.4732
  64   2.0000      -0.515313       -14.0224
  65   2.0000      -0.508326       -13.8322
  66   2.0000      -0.498466       -13.5640
  67   2.0000      -0.493806       -13.4371
  68   2.0000      -0.481591       -13.1048
  69   2.0000      -0.464659       -12.6440
  70   2.0000      -0.457718       -12.4552
  71   2.0000      -0.452107       -12.3025
  72   2.0000      -0.353044        -9.6068
  73   2.0000      -0.344154        -9.3649
  74   2.0000      -0.326857        -8.8942
  75   2.0000      -0.316963        -8.6250
  76   2.0000      -0.313877        -8.5410
  77   0.0000       0.077813         2.1174
  78   0.0000       0.112090         3.0501
  79   0.0000       0.120060         3.2670
  80   0.0000       0.136309         3.7092
  81   0.0000       0.140675         3.8280

MULLIKEN ATOMIC CHARGES
-----------------------
   0 C :   -0.272516
   1 C :    0.015639
   2 O :   -0.346812
   3 C :    0.428996
   4 O :   -0.426336
   5 C :   -0.176838
   6 C :    0.161440
   7 C :   -0.281026
   8 N :   -0.129079
   9 C :    0.207346
  10 S :   -0.442827
  11 N :   -0.210718
  12 C :    0.042454
  13 C :    0.031367
  14 C :   -0.165751
  15 C :   -0.134577
  16 C :   -0.277111
  17 C :    0.314077
  18 O :   -0.359125
  19 C :   -0.250920
  20 H :    0.104859
  21 H :    0.094081
  22 H :    0.091973
  23 H :    0.121444
  24 H :    0.100669
  25 H :    0.124994
  26 H :    0.101706
  27 H :    0.129615
  28 H :    0.198800
  29 H :    0.199933
  30 H :    0.155148
  31 H :    0.158319
  32 H :    0.159737
  33 H :    0.128092
  34 H :    0.239853
  35 H :    0.163094
Sum of atomic charges:   -0.0000000

LOEWDIN ATOMIC CHARGES
----------------------
   0 C :    0.104866
   1 C :   -0.015080
   2 O :    0.308297
   3 C :   -0.415030
   4 O :    0.101946
   5 C :   -0.091100
   6 C :   -0.063942
   7 C :    0.124882
   8 N :    0.405406
   9 C :   -0.458765
  10 S :   -0.037923
  11 N :    0.396586
  12 C :   -0.048290
  13 C :   -0.040474
  14 C :    0.025092
  15 C :    0.040832
  16 C :   -0.001223
  17 C :   -0.192543
  18 O :    0.393037
  19 C :    0.029759
  20 H :   -0.024023
  21 H :   -0.025772
  22 H :   -0.028928
  23 H :   -0.027548
  24 H :   -0.028992
  25 H :   -0.009495
  26 H :   -0.021339
  27 H :   -0.009619
  28 H :   -0.058825
  29 H :   -0.063048
  30 H :   -0.008451
  31 H :   -0.024070
  32 H :   -0.021148
  33 H :   -0.036224
  34 H :   -0.154953
  35 H :   -0.023900

  Mayer bond orders larger than 0.100000
B(  0-C ,  1-C ) :   0.9695 B(  0-C , 20-H ) :   0.9776 B(  0-C , 21-H ) :   0.9755
B(  0-C , 22-H ) :   0.9783 B(  1-C ,  2-O ) :   0.8867 B(  1-C , 23-H ) :   0.9731
B(  1-C , 24-H ) :   0.9837 B(  2-O ,  3-C ) :   1.1542 B(  3-C ,  4-O ) :   1.9800
B(  3-C ,  5-C ) :   1.0420 B(  5-C ,  6-C ) :   1.6555 B(  5-C , 12-C ) :   0.9513
B(  6-C ,  7-C ) :   0.9542 B(  6-C ,  8-N ) :   1.1353 B(  7-C , 25-H ) :   0.9654
B(  7-C , 26-H ) :   0.9911 B(  7-C , 27-H ) :   0.9634 B(  8-N ,  9-C ) :   1.1854
B(  8-N , 28-H ) :   0.9468 B(  9-C , 10-S ) :   1.6076 B(  9-C , 11-N ) :   1.3070
B( 11-N , 12-C ) :   0.9763 B( 11-N , 29-H ) :   0.9486 B( 12-C , 13-C ) :   0.9741
B( 12-C , 30-H ) :   0.9975 B( 13-C , 14-C ) :   1.3758 B( 13-C , 19-C ) :   1.3663
B( 14-C , 15-C ) :   1.3974 B( 14-C , 31-H ) :   0.9640 B( 15-C , 16-C ) :   1.3585
B( 15-C , 32-H ) :   0.9712 B( 16-C , 17-C ) :   1.3335 B( 16-C , 33-H ) :   0.9860
B( 17-C , 18-O ) :   1.1032 B( 17-C , 19-C ) :   1.3675 B( 18-O , 34-H ) :   0.9807
B( 19-C , 35-H ) :   0.9603

MP2 TOTAL ENERGY:    -1274.341720448 Eh
FINAL SINGLE POINT ENERGY     -1274.341720448020

DIPOLE MOMENT
-------------
                                X             Y             Z
Electronic contribution:     10.56034       9.40824      10.69118
Nuclear contribution   :    -11.94159     -10.69442     -11.86599
                        -----------------------------------------
Total Dipole Moment    :     -1.38125      -1.28618      -1.17481
                        -----------------------------------------
Magnitude (a.u.)       :      2.22313
Magnitude (Debye)      :      5.65074

Rotational constants in cm-1:     0.009787     0.009218     0.005650
Rotational constants in MHz :   293.418613   276.352191   169.376471

                             ****ORCA TERMINATED NORMALLY****
TOTAL RUN TIME: 0 days 1 hours 44 minutes 39 seconds 788 msec
