                         Program Version 4.2.0 -  RELEASE  -
|  1> ! ri-mp2 cc-pvtz cc-pvtz/c TightSCF NoKeepInts
|  2>
|  3> %scf
|  4>   MaxCore 4096
|  5> end
|  6> *xyz  0  1
|  7>     C       14.8725104   14.5432721   14.6393640
|  8>     C       14.8664421   15.9923378   14.1038871
|  9>     O       15.6296948   16.9518057   14.8822430
| 10>     C       16.6151803   16.6829860   15.7965982
| 11>     O       17.1808238   15.6074939   15.8917874
| 12>     C       16.9492629   17.8335929   16.7077446
| 13>     C       16.7881174   19.1374379   16.3537671
| 14>     C       16.0618925   19.6998709   15.1470419
| 15>     N       17.3586850   20.1594648   17.1173239
| 16>     C       18.2776991   19.9651717   18.1123778
| 17>     S       18.9930705   21.2318564   18.8994499
| 18>     N       18.5902089   18.6628818   18.4065724
| 19>     C       17.9134471   17.4766519   17.8478845
| 20>     C       17.2894726   16.5871760   18.9155132
| 21>     C       17.6282216   15.2247961   19.0022098
| 22>     C       17.0528987   14.4064989   19.9887987
| 23>     C       16.1321023   14.9558438   20.8974845
| 24>     C       15.7914278   16.3128739   20.8121565
| 25>     O       14.8996617   16.8448654   21.6857383
| 26>     C       16.3653619   17.1246151   19.8284899
| 27>     H       15.8398466   14.0566758   14.4630704
| 28>     H       14.1092185   13.9471229   14.1251505
| 29>     H       14.6529816   14.5180066   15.7142793
| 30>     H       15.2602810   15.9765466   13.0793970
| 31>     H       13.8283513   16.3435595   14.0435267
| 32>     H       14.9971281   19.4372034   15.1782964
| 33>     H       16.4846799   19.3003721   14.2167767
| 34>     H       16.1237931   20.7930781   15.0829387
| 35>     H       17.1556086   21.1216276   16.8989474
| 36>     H       19.2540664   18.5449735   19.1614601
| 37>     H       18.7664787   16.9710055   17.3722920
| 38>     H       18.3286002   14.7962903   18.2891084
| 39>     H       17.3175711   13.3520186   20.0415550
| 40>     H       15.6842842   14.3271528   21.6597647
| 41>     H       14.6360203   16.1395966   22.2954864
| 42>     H       16.0919088   18.1732771   19.7795177
| 43> *
| 44>
| 45>                          ****END OF INPUT****

CARTESIAN COORDINATES (ANGSTROEM)
---------------------------------
  C     14.872510   14.543272   14.639364
  C     14.866442   15.992338   14.103887
  O     15.629695   16.951806   14.882243
  C     16.615180   16.682986   15.796598
  O     17.180824   15.607494   15.891787
  C     16.949263   17.833593   16.707745
  C     16.788117   19.137438   16.353767
  C     16.061892   19.699871   15.147042
  N     17.358685   20.159465   17.117324
  C     18.277699   19.965172   18.112378
  S     18.993071   21.231856   18.899450
  N     18.590209   18.662882   18.406572
  C     17.913447   17.476652   17.847884
  C     17.289473   16.587176   18.915513
  C     17.628222   15.224796   19.002210
  C     17.052899   14.406499   19.988799
  C     16.132102   14.955844   20.897484
  C     15.791428   16.312874   20.812157
  O     14.899662   16.844865   21.685738
  C     16.365362   17.124615   19.828490
  H     15.839847   14.056676   14.463070
  H     14.109218   13.947123   14.125151
  H     14.652982   14.518007   15.714279
  H     15.260281   15.976547   13.079397
  H     13.828351   16.343560   14.043527
  H     14.997128   19.437203   15.178296
  H     16.484680   19.300372   14.216777
  H     16.123793   20.793078   15.082939
  H     17.155609   21.121628   16.898947
  H     19.254066   18.544973   19.161460
  H     18.766479   16.971006   17.372292
  H     18.328600   14.796290   18.289108
  H     17.317571   13.352019   20.041555
  H     15.684284   14.327153   21.659765
  H     14.636020   16.139597   22.295486
  H     16.091909   18.173277   19.779518

 Total Charge           Charge          ....    0
 Multiplicity           Mult            ....    1
 Number of Electrons    NEL             ....  154
 Basis Dimension        Dim             ....  828

ORBITAL ENERGIES
----------------

  NO   OCC          E(Eh)            E(eV)
   0   2.0000     -91.886846     -2500.3682
   1   2.0000     -20.600648      -560.5721
   2   2.0000     -20.591213      -560.3154
   3   2.0000     -20.543643      -559.0209
   4   2.0000     -15.626966      -425.2314
   5   2.0000     -15.604608      -424.6230
   6   2.0000     -11.398667      -310.1735
   7   2.0000     -11.381258      -309.6998
   8   2.0000     -11.336401      -308.4792
   9   2.0000     -11.307176      -307.6839
  10   2.0000     -11.307119      -307.6823
  11   2.0000     -11.303013      -307.5706
  12   2.0000     -11.260204      -306.4057
  13   2.0000     -11.257667      -306.3367
  14   2.0000     -11.254299      -306.2450
  15   2.0000     -11.247317      -306.0551
  16   2.0000     -11.237489      -305.7876
  17   2.0000     -11.233484      -305.6786
  18   2.0000     -11.230278      -305.5914
  19   2.0000     -11.225566      -305.4632
  20   2.0000      -8.891943      -241.9621
  21   2.0000      -6.573525      -178.8747
  22   2.0000      -6.571519      -178.8201
  23   2.0000      -6.570934      -178.8042
  24   2.0000      -1.445946       -39.3462
  25   2.0000      -1.410961       -38.3942
  26   2.0000      -1.356496       -36.9121
  27   2.0000      -1.338598       -36.4251
  28   2.0000      -1.235887       -33.6302
  29   2.0000      -1.151530       -31.3347
  30   2.0000      -1.118957       -30.4484
  31   2.0000      -1.041982       -28.3538
  32   2.0000      -1.034142       -28.1404
  33   2.0000      -1.009166       -27.4608
  34   2.0000      -0.997369       -27.1398
  35   2.0000      -0.982081       -26.7238
  36   2.0000      -0.920218       -25.0404
  37   2.0000      -0.897421       -24.4201
  38   2.0000      -0.847084       -23.0503
  39   2.0000      -0.834534       -22.7088
  40   2.0000      -0.827443       -22.5159
  41   2.0000      -0.817081       -22.2339
  42   2.0000      -0.743062       -20.2198
  43   2.0000      -0.728585       -19.8258
  44   2.0000      -0.724637       -19.7184
  45   2.0000      -0.688715       -18.7409
  46   2.0000      -0.683741       -18.6055
  47   2.0000      -0.677652       -18.4398
  48   2.0000      -0.672068       -18.2879
  49   2.0000      -0.662908       -18.0386
  50   2.0000      -0.648011       -17.6333
  51   2.0000      -0.642390       -17.4803
  52   2.0000      -0.631236       -17.1768
  53   2.0000      -0.610788       -16.6204
  54   2.0000      -0.602294       -16.3893
  55   2.0000      -0.597422       -16.2567
  56   2.0000      -0.594542       -16.1783
  57   2.0000      -0.576353       -15.6834
  58   2.0000      -0.573052       -15.5935
  59   2.0000      -0.567852       -15.4520
  60   2.0000      -0.557816       -15.1789
  61   2.0000      -0.543367       -14.7858
  62   2.0000      -0.538078       -14.6418
  63   2.0000      -0.525231       -14.2923
  64   2.0000      -0.514553       -14.0017
  65   2.0000      -0.510348       -13.8873
  66   2.0000      -0.499166       -13.5830
  67   2.0000      -0.493221       -13.4212
  68   2.0000      -0.479353       -13.0439
  69   2.0000      -0.463639       -12.6163
  70   2.0000      -0.453048       -12.3281
  71   2.0000      -0.446918       -12.1612
  72   2.0000      -0.351673        -9.5695
  73   2.0000      -0.343877        -9.3574
  74   2.0000      -0.326025        -8.8716
  75   2.0000      -0.316005        -8.5989
  76   2.0000      -0.313792        -8.5387
  77   0.0000       0.078955         2.1485
  78   0.0000       0.112280         3.0553
  79   0.0000       0.121666         3.3107
  80   0.0000       0.136268         3.7080
  81   0.0000       0.139863         3.8059

MULLIKEN ATOMIC CHARGES
-----------------------
   0 C :   -0.296178
   1 C :    0.050338
   2 O :   -0.355618
   3 C :    0.424642
   4 O :   -0.422623
   5 C :   -0.170478
   6 C :    0.162121
   7 C :   -0.281710
   8 N :   -0.129200
   9 C :    0.207418
  10 S :   -0.444520
  11 N :   -0.211078
  12 C :    0.044298
  13 C :    0.030672
  14 C :   -0.169762
  15 C :   -0.134533
  16 C :   -0.277388
  17 C :    0.314542
  18 O :   -0.359016
  19 C :   -0.251438
  20 H :    0.121963
  21 H :    0.096280
  22 H :    0.105102
  23 H :    0.088993
  24 H :    0.096066
  25 H :    0.128978
  26 H :    0.124649
  27 H :    0.102314
  28 H :    0.198534
  29 H :    0.199817
  30 H :    0.156071
  31 H :    0.159483
  32 H :    0.159819
  33 H :    0.128093
  34 H :    0.239787
  35 H :    0.163561
Sum of atomic charges:   -0.0000000

LOEWDIN ATOMIC CHARGES
----------------------
   0 C :    0.103753
   1 C :   -0.008018
   2 O :    0.293514
   3 C :   -0.413749
   4 O :    0.112460
   5 C :   -0.090520
   6 C :   -0.064571
   7 C :    0.124154
   8 N :    0.405052
   9 C :   -0.459040
  10 S :   -0.039263
  11 N :    0.396616
  12 C :   -0.048328
  13 C :   -0.040486
  14 C :    0.024432
  15 C :    0.040371
  16 C :   -0.001447
  17 C :   -0.192536
  18 O :    0.393073
  19 C :    0.029847
  20 H :   -0.024499
  21 H :   -0.027588
  22 H :   -0.024644
  23 H :   -0.029962
  24 H :   -0.026281
  25 H :   -0.009602
  26 H :   -0.009642
  27 H :   -0.021664
  28 H :   -0.059103
  29 H :   -0.063175
  30 H :   -0.008824
  31 H :   -0.024068
  32 H :   -0.021219
  33 H :   -0.036286
  34 H :   -0.154992
  35 H :   -0.023767

  Mayer bond orders larger than 0.100000
B(  0-C ,  1-C ) :   0.9746 B(  0-C , 20-H ) :   0.9720 B(  0-C , 21-H ) :   0.9737
B(  0-C , 22-H ) :   0.9746 B(  1-C ,  2-O ) :   0.9016 B(  1-C , 23-H ) :   0.9788
B(  1-C , 24-H ) :   0.9803 B(  2-O ,  3-C ) :   1.1463 B(  3-C ,  4-O ) :   1.9802
B(  3-C ,  5-C ) :   1.0366 B(  5-C ,  6-C ) :   1.6619 B(  5-C , 12-C ) :   0.9504
B(  6-C ,  7-C ) :   0.9525 B(  6-C ,  8-N ) :   1.1338 B(  7-C , 25-H ) :   0.9639
B(  7-C , 26-H ) :   0.9655 B(  7-C , 27-H ) :   0.9921 B(  8-N ,  9-C ) :   1.1869
B(  8-N , 28-H ) :   0.9470 B(  9-C , 10-S ) :   1.6059 B(  9-C , 11-N ) :   1.3068
B( 11-N , 12-C ) :   0.9764 B( 11-N , 29-H ) :   0.9487 B( 12-C , 13-C ) :   0.9725
B( 12-C , 30-H ) :   0.9975 B( 13-C , 14-C ) :   1.3753 B( 13-C , 19-C ) :   1.3671
B( 14-C , 15-C ) :   1.3969 B( 14-C , 31-H ) :   0.9636 B( 15-C , 16-C ) :   1.3586
B( 15-C , 32-H ) :   0.9713 B( 16-C , 17-C ) :   1.3334 B( 16-C , 33-H ) :   0.9860
B( 17-C , 18-O ) :   1.1033 B( 17-C , 19-C ) :   1.3670 B( 18-O , 34-H ) :   0.9808
B( 19-C , 35-H ) :   0.9600

MP2 TOTAL ENERGY:    -1274.331423149 Eh
FINAL SINGLE POINT ENERGY     -1274.331423148966

DIPOLE MOMENT
-------------
                                X             Y             Z
Electronic contribution:      9.13960      10.45385      11.07512
Nuclear contribution   :    -10.68364     -11.71219     -12.25940
                        -----------------------------------------
Total Dipole Moment    :     -1.54405      -1.25833      -1.18429
                        -----------------------------------------
Magnitude (a.u.)       :      2.31733
Magnitude (Debye)      :      5.89018

Rotational constants in cm-1:     0.009962     0.009166     0.005573
Rotational constants in MHz :   298.647921   274.798926   167.074735

                             ****ORCA TERMINATED NORMALLY****
TOTAL RUN TIME: 0 days 1 hours 51 minutes 37 seconds 625 msec
