                         Program Version 4.2.0 -  RELEASE  -
|  1> ! ri-mp2 cc-pvtz cc-pvtz/c TightSCF NoKeepInts
|  2>
|  3> %scf
|  4>   MaxCore 4096
|  5> end
|  6> *xyz  0  1
|  7>     C       14.5294367   16.2343052   16.0554640
|  8>     C       15.5842382   15.1121967   15.9062000
|  9>     O       16.9153224   15.5612924   15.5381224
| 10>     C       17.2199335   16.8481733   15.1969838
| 11>     O       17.4818197   17.1337768   14.0430595
| 12>     C       17.1354941   17.8423278   16.3214670
| 13>     C       16.9702778   19.1580486   16.0359531
| 14>     C       16.4642697   19.7442568   14.7346169
| 15>     N       17.2543073   20.1456378   16.9806890
| 16>     C       17.9366169   19.9203989   18.1455741
| 17>     S       18.3504088   21.1500290   19.1710237
| 18>     N       18.2816922   18.6183713   18.4083736
| 19>     C       17.8378691   17.4432956   17.6332032
| 20>     C       17.1523977   16.3950620   18.4990906
| 21>     C       17.6723623   15.0902487   18.5872774
| 22>     C       17.0505696   14.1272924   19.3998065
| 23>     C       15.9055510   14.4746086   20.1370584
| 24>     C       15.3960615   15.7783367   20.0646597
| 25>     O       14.2927929   16.1179541   20.7770282
| 26>     C       16.0181710   16.7348230   19.2562997
| 27>     H       14.7400507   16.8939453   16.9019737
| 28>     H       13.5417826   15.7910868   16.2319102
| 29>     H       14.4600932   16.8368757   15.1411514
| 30>     H       15.6352313   14.5376247   16.8394662
| 31>     H       15.2339171   14.4215497   15.1281479
| 32>     H       17.2836571   19.8285459   14.0087414
| 33>     H       16.0208036   20.7387223   14.8630717
| 34>     H       15.6965184   19.1024781   14.2849850
| 35>     H       17.0427069   21.1097241   16.7778730
| 36>     H       18.7701783   18.4808177   19.2844693
| 37>     H       18.8190391   17.0639736   17.3132075
| 38>     H       18.5551194   14.8183258   18.0136886
| 39>     H       17.4565330   13.1184584   19.4563351
| 40>     H       15.4217988   13.7340149   20.7657379
| 41>     H       14.0440076   15.3512173   21.3152440
| 42>     H       15.6159706   17.7422042   19.2200461
| 43> *
| 44>
| 45>                          ****END OF INPUT****

CARTESIAN COORDINATES (ANGSTROEM)
---------------------------------
  C     14.529437   16.234305   16.055464
  C     15.584238   15.112197   15.906200
  O     16.915322   15.561292   15.538122
  C     17.219933   16.848173   15.196984
  O     17.481820   17.133777   14.043060
  C     17.135494   17.842328   16.321467
  C     16.970278   19.158049   16.035953
  C     16.464270   19.744257   14.734617
  N     17.254307   20.145638   16.980689
  C     17.936617   19.920399   18.145574
  S     18.350409   21.150029   19.171024
  N     18.281692   18.618371   18.408374
  C     17.837869   17.443296   17.633203
  C     17.152398   16.395062   18.499091
  C     17.672362   15.090249   18.587277
  C     17.050570   14.127292   19.399807
  C     15.905551   14.474609   20.137058
  C     15.396062   15.778337   20.064660
  O     14.292793   16.117954   20.777028
  C     16.018171   16.734823   19.256300
  H     14.740051   16.893945   16.901974
  H     13.541783   15.791087   16.231910
  H     14.460093   16.836876   15.141151
  H     15.635231   14.537625   16.839466
  H     15.233917   14.421550   15.128148
  H     17.283657   19.828546   14.008741
  H     16.020804   20.738722   14.863072
  H     15.696518   19.102478   14.284985
  H     17.042707   21.109724   16.777873
  H     18.770178   18.480818   19.284469
  H     18.819039   17.063974   17.313207
  H     18.555119   14.818326   18.013689
  H     17.456533   13.118458   19.456335
  H     15.421799   13.734015   20.765738
  H     14.044008   15.351217   21.315244
  H     15.615971   17.742204   19.220046

 Total Charge           Charge          ....    0
 Multiplicity           Mult            ....    1
 Number of Electrons    NEL             ....  154
 Basis Dimension        Dim             ....  828

ORBITAL ENERGIES
----------------

  NO   OCC          E(Eh)            E(eV)
   0   2.0000     -91.890864     -2500.4775
   1   2.0000     -20.603209      -560.6418
   2   2.0000     -20.582115      -560.0678
   3   2.0000     -20.550301      -559.2021
   4   2.0000     -15.629001      -425.2867
   5   2.0000     -15.610163      -424.7741
   6   2.0000     -11.393557      -310.0345
   7   2.0000     -11.385546      -309.8164
   8   2.0000     -11.333684      -308.4052
   9   2.0000     -11.321031      -308.0609
  10   2.0000     -11.314431      -307.8813
  11   2.0000     -11.302458      -307.5555
  12   2.0000     -11.267776      -306.6118
  13   2.0000     -11.261453      -306.4397
  14   2.0000     -11.257044      -306.3197
  15   2.0000     -11.254166      -306.2414
  16   2.0000     -11.251202      -306.1608
  17   2.0000     -11.246602      -306.0356
  18   2.0000     -11.245168      -305.9966
  19   2.0000     -11.232937      -305.6638
  20   2.0000      -8.895924      -242.0704
  21   2.0000      -6.577493      -178.9827
  22   2.0000      -6.575498      -178.9284
  23   2.0000      -6.574903      -178.9122
  24   2.0000      -1.441772       -39.2326
  25   2.0000      -1.423009       -38.7220
  26   2.0000      -1.352728       -36.8096
  27   2.0000      -1.341569       -36.5059
  28   2.0000      -1.240663       -33.7602
  29   2.0000      -1.164103       -31.6769
  30   2.0000      -1.122921       -30.5562
  31   2.0000      -1.048491       -28.5309
  32   2.0000      -1.033388       -28.1199
  33   2.0000      -1.022363       -27.8199
  34   2.0000      -1.002731       -27.2857
  35   2.0000      -0.988678       -26.9033
  36   2.0000      -0.925852       -25.1937
  37   2.0000      -0.899186       -24.4681
  38   2.0000      -0.849613       -23.1192
  39   2.0000      -0.843751       -22.9596
  40   2.0000      -0.841454       -22.8971
  41   2.0000      -0.822597       -22.3840
  42   2.0000      -0.746579       -20.3155
  43   2.0000      -0.738270       -20.0894
  44   2.0000      -0.721287       -19.6272
  45   2.0000      -0.701249       -19.0820
  46   2.0000      -0.689605       -18.7651
  47   2.0000      -0.676377       -18.4052
  48   2.0000      -0.673041       -18.3144
  49   2.0000      -0.660712       -17.9789
  50   2.0000      -0.655773       -17.8445
  51   2.0000      -0.646471       -17.5914
  52   2.0000      -0.639883       -17.4121
  53   2.0000      -0.621974       -16.9248
  54   2.0000      -0.612823       -16.6758
  55   2.0000      -0.605672       -16.4812
  56   2.0000      -0.602046       -16.3825
  57   2.0000      -0.581849       -15.8329
  58   2.0000      -0.574872       -15.6431
  59   2.0000      -0.566150       -15.4057
  60   2.0000      -0.553589       -15.0639
  61   2.0000      -0.550989       -14.9932
  62   2.0000      -0.542672       -14.7669
  63   2.0000      -0.532182       -14.4814
  64   2.0000      -0.528212       -14.3734
  65   2.0000      -0.515957       -14.0399
  66   2.0000      -0.504144       -13.7185
  67   2.0000      -0.493079       -13.4174
  68   2.0000      -0.482095       -13.1185
  69   2.0000      -0.470358       -12.7991
  70   2.0000      -0.451915       -12.2972
  71   2.0000      -0.447801       -12.1853
  72   2.0000      -0.358213        -9.7475
  73   2.0000      -0.350341        -9.5333
  74   2.0000      -0.330504        -8.9935
  75   2.0000      -0.327958        -8.9242
  76   2.0000      -0.320657        -8.7255
  77   0.0000       0.075401         2.0518
  78   0.0000       0.098254         2.6736
  79   0.0000       0.120715         3.2848
  80   0.0000       0.127300         3.4640
  81   0.0000       0.130100         3.5402

MULLIKEN ATOMIC CHARGES
-----------------------
   0 C :   -0.333466
   1 C :    0.028994
   2 O :   -0.367026
   3 C :    0.438523
   4 O :   -0.373860
   5 C :   -0.262062
   6 C :    0.169929
   7 C :   -0.276310
   8 N :   -0.128851
   9 C :    0.207456
  10 S :   -0.438597
  11 N :   -0.211730
  12 C :    0.062846
  13 C :    0.019972
  14 C :   -0.182684
  15 C :   -0.135625
  16 C :   -0.275431
  17 C :    0.319759
  18 O :   -0.356056
  19 C :   -0.264742
  20 H :    0.115958
  21 H :    0.119384
  22 H :    0.104838
  23 H :    0.112623
  24 H :    0.123139
  25 H :    0.141149
  26 H :    0.095363
  27 H :    0.121417
  28 H :    0.198594
  29 H :    0.200391
  30 H :    0.151807
  31 H :    0.154538
  32 H :    0.165983
  33 H :    0.134713
  34 H :    0.241690
  35 H :    0.177374
Sum of atomic charges:   -0.0000000

LOEWDIN ATOMIC CHARGES
----------------------
   0 C :    0.103929
   1 C :   -0.009779
   2 O :    0.285908
   3 C :   -0.428314
   4 O :    0.127482
   5 C :   -0.097902
   6 C :   -0.065819
   7 C :    0.129300
   8 N :    0.406688
   9 C :   -0.457043
  10 S :   -0.034343
  11 N :    0.395331
  12 C :   -0.053657
  13 C :   -0.042631
  14 C :    0.022479
  15 C :    0.040386
  16 C :   -0.000186
  17 C :   -0.192336
  18 O :    0.396309
  19 C :    0.033945
  20 H :   -0.035909
  21 H :   -0.020518
  22 H :   -0.029274
  23 H :   -0.027269
  24 H :   -0.026069
  25 H :   -0.003960
  26 H :   -0.022311
  27 H :   -0.009528
  28 H :   -0.056897
  29 H :   -0.063596
  30 H :   -0.010847
  31 H :   -0.025895
  32 H :   -0.019372
  33 H :   -0.033844
  34 H :   -0.152568
  35 H :   -0.021891

  Mayer bond orders larger than 0.100000
B(  0-C ,  1-C ) :   0.9618 B(  0-C , 20-H ) :   0.9673 B(  0-C , 21-H ) :   0.9751
B(  0-C , 22-H ) :   0.9740 B(  1-C ,  2-O ) :   0.8958 B(  1-C , 23-H ) :   0.9715
B(  1-C , 24-H ) :   0.9853 B(  2-O ,  3-C ) :   1.1276 B(  3-C ,  4-O ) :   2.0984
B(  3-C ,  5-C ) :   0.9816 B(  5-C ,  6-C ) :   1.6558 B(  5-C , 12-C ) :   0.9569
B(  6-C ,  7-C ) :   0.9563 B(  6-C ,  8-N ) :   1.1426 B(  7-C , 25-H ) :   0.9552
B(  7-C , 26-H ) :   0.9857 B(  7-C , 27-H ) :   0.9721 B(  8-N ,  9-C ) :   1.1916
B(  8-N , 28-H ) :   0.9486 B(  9-C , 10-S ) :   1.6141 B(  9-C , 11-N ) :   1.2948
B( 11-N , 12-C ) :   0.9795 B( 11-N , 29-H ) :   0.9477 B( 12-C , 13-C ) :   0.9595
B( 12-C , 30-H ) :   1.0029 B( 13-C , 14-C ) :   1.3598 B( 13-C , 19-C ) :   1.3533
B( 14-C , 15-C ) :   1.3966 B( 14-C , 31-H ) :   0.9718 B( 15-C , 16-C ) :   1.3554
B( 15-C , 32-H ) :   0.9701 B( 16-C , 17-C ) :   1.3326 B( 16-C , 33-H ) :   0.9837
B( 17-C , 18-O ) :   1.1095 B( 17-C , 19-C ) :   1.3591 B( 18-O , 34-H ) :   0.9789
B( 19-C , 35-H ) :   0.9560

MP2 TOTAL ENERGY:    -1274.317949435 Eh
FINAL SINGLE POINT ENERGY     -1274.317949434664

DIPOLE MOMENT
-------------
                                X             Y             Z
Electronic contribution:      9.08170       7.22317       6.11002
Nuclear contribution   :    -10.43959      -8.84337      -5.90043
                        -----------------------------------------
Total Dipole Moment    :     -1.35789      -1.62020       0.20960
                        -----------------------------------------
Magnitude (a.u.)       :      2.12434
Magnitude (Debye)      :      5.39965

Rotational constants in cm-1:     0.012373     0.009126     0.006347
Rotational constants in MHz :   370.941572   273.591510   190.271020

                             ****ORCA TERMINATED NORMALLY****
TOTAL RUN TIME: 0 days 2 hours 5 minutes 43 seconds 891 msec
