                         Program Version 4.2.0 -  RELEASE  -
|  1> ! ri-mp2 cc-pvtz cc-pvtz/c TightSCF NoKeepInts
|  2>
|  3> %scf
|  4>   MaxCore 4096
|  5> end
|  6> *xyz  0  1
|  7>     C       14.0014919   15.3284064   14.7730234
|  8>     C       14.9846935   16.1818687   15.5902060
|  9>     O       16.2880436   16.0125275   15.0016733
| 10>     C       17.4089596   16.3885988   15.6906047
| 11>     O       18.4300956   15.7274700   15.6552509
| 12>     C       17.2700608   17.6047790   16.5486941
| 13>     C       16.9372327   18.7997424   16.0010013
| 14>     C       16.4733747   19.0624599   14.5812447
| 15>     N       17.0961188   19.9839359   16.7232720
| 16>     C       17.8043563   20.0820248   17.8920389
| 17>     S       18.0522205   21.5352145   18.6409544
| 18>     N       18.3185307   18.9125664   18.3963336
| 19>     C       18.0330896   17.5619175   17.8721155
| 20>     C       17.4056270   16.6071650   18.8765350
| 21>     C       17.8776804   15.2871945   18.9878278
| 22>     C       17.2878302   14.3922575   19.8959357
| 23>     C       16.2147867   14.8204217   20.6963645
| 24>     C       15.7378827   16.1334746   20.5818752
| 25>     O       14.6951080   16.5464006   21.3452303
| 26>     C       16.3259342   17.0219787   19.6757445
| 27>     H       14.3048344   14.2737737   14.7845296
| 28>     H       13.9694134   15.6665420   13.7297882
| 29>     H       12.9894054   15.3989893   15.1897567
| 30>     H       14.6668031   17.2305976   15.5825632
| 31>     H       14.9900807   15.8247249   16.6297225
| 32>     H       16.7986201   18.2792982   13.8853604
| 33>     H       16.8870763   20.0023472   14.1937879
| 34>     H       15.3808296   19.1328557   14.5251270
| 35>     H       16.7568553   20.8547082   16.3455593
| 36>     H       18.8331512   19.0115365   19.2626464
| 37>     H       19.0516672   17.2308429   17.6194531
| 38>     H       18.6993007   14.9513992   18.3579860
| 39>     H       17.6606033   13.3721276   19.9727544
| 40>     H       15.7556706   14.1316433   21.3979127
| 41>     H       14.4588446   15.8146227   21.9352336
| 42>     H       15.9407267   18.0335865   19.5998929
| 43> *
| 44>
| 45>                          ****END OF INPUT****

CARTESIAN COORDINATES (ANGSTROEM)
---------------------------------
  C     14.001492   15.328406   14.773023
  C     14.984693   16.181869   15.590206
  O     16.288044   16.012528   15.001673
  C     17.408960   16.388599   15.690605
  O     18.430096   15.727470   15.655251
  C     17.270061   17.604779   16.548694
  C     16.937233   18.799742   16.001001
  C     16.473375   19.062460   14.581245
  N     17.096119   19.983936   16.723272
  C     17.804356   20.082025   17.892039
  S     18.052221   21.535214   18.640954
  N     18.318531   18.912566   18.396334
  C     18.033090   17.561917   17.872115
  C     17.405627   16.607165   18.876535
  C     17.877680   15.287195   18.987828
  C     17.287830   14.392257   19.895936
  C     16.214787   14.820422   20.696365
  C     15.737883   16.133475   20.581875
  O     14.695108   16.546401   21.345230
  C     16.325934   17.021979   19.675744
  H     14.304834   14.273774   14.784530
  H     13.969413   15.666542   13.729788
  H     12.989405   15.398989   15.189757
  H     14.666803   17.230598   15.582563
  H     14.990081   15.824725   16.629722
  H     16.798620   18.279298   13.885360
  H     16.887076   20.002347   14.193788
  H     15.380830   19.132856   14.525127
  H     16.756855   20.854708   16.345559
  H     18.833151   19.011536   19.262646
  H     19.051667   17.230843   17.619453
  H     18.699301   14.951399   18.357986
  H     17.660603   13.372128   19.972754
  H     15.755671   14.131643   21.397913
  H     14.458845   15.814623   21.935234
  H     15.940727   18.033586   19.599893

 Total Charge           Charge          ....    0
 Multiplicity           Mult            ....    1
 Number of Electrons    NEL             ....  154
 Basis Dimension        Dim             ....  828

ORBITAL ENERGIES
----------------

  NO   OCC          E(Eh)            E(eV)
   0   2.0000     -91.889921     -2500.4519
   1   2.0000     -20.601248      -560.5885
   2   2.0000     -20.598898      -560.5245
   3   2.0000     -20.552442      -559.2604
   4   2.0000     -15.628484      -425.2727
   5   2.0000     -15.609237      -424.7489
   6   2.0000     -11.397596      -310.1444
   7   2.0000     -11.385707      -309.8208
   8   2.0000     -11.335388      -308.4516
   9   2.0000     -11.316053      -307.9255
  10   2.0000     -11.309137      -307.7373
  11   2.0000     -11.306589      -307.6679
  12   2.0000     -11.266381      -306.5738
  13   2.0000     -11.263607      -306.4983
  14   2.0000     -11.263038      -306.4829
  15   2.0000     -11.256256      -306.2983
  16   2.0000     -11.245317      -306.0006
  17   2.0000     -11.241402      -305.8941
  18   2.0000     -11.238502      -305.8152
  19   2.0000     -11.235508      -305.7337
  20   2.0000      -8.895025      -242.0459
  21   2.0000      -6.576605      -178.9585
  22   2.0000      -6.574594      -178.9038
  23   2.0000      -6.574010      -178.8879
  24   2.0000      -1.451373       -39.4939
  25   2.0000      -1.418618       -38.6026
  26   2.0000      -1.363702       -37.1082
  27   2.0000      -1.341165       -36.4950
  28   2.0000      -1.239276       -33.7224
  29   2.0000      -1.160407       -31.5763
  30   2.0000      -1.125733       -30.6328
  31   2.0000      -1.047910       -28.5151
  32   2.0000      -1.041419       -28.3385
  33   2.0000      -1.018162       -27.7056
  34   2.0000      -1.005305       -27.3557
  35   2.0000      -0.989180       -26.9169
  36   2.0000      -0.925990       -25.1975
  37   2.0000      -0.880434       -23.9578
  38   2.0000      -0.855891       -23.2900
  39   2.0000      -0.842821       -22.9343
  40   2.0000      -0.837438       -22.7878
  41   2.0000      -0.835363       -22.7314
  42   2.0000      -0.758843       -20.6492
  43   2.0000      -0.739513       -20.1232
  44   2.0000      -0.732115       -19.9219
  45   2.0000      -0.696313       -18.9476
  46   2.0000      -0.688714       -18.7409
  47   2.0000      -0.683558       -18.6006
  48   2.0000      -0.674480       -18.3535
  49   2.0000      -0.664065       -18.0701
  50   2.0000      -0.657132       -17.8815
  51   2.0000      -0.648294       -17.6410
  52   2.0000      -0.639505       -17.4018
  53   2.0000      -0.612369       -16.6634
  54   2.0000      -0.606344       -16.4994
  55   2.0000      -0.602580       -16.3970
  56   2.0000      -0.599174       -16.3044
  57   2.0000      -0.583823       -15.8866
  58   2.0000      -0.576869       -15.6974
  59   2.0000      -0.566798       -15.4234
  60   2.0000      -0.561691       -15.2844
  61   2.0000      -0.560048       -15.2397
  62   2.0000      -0.550112       -14.9693
  63   2.0000      -0.525673       -14.3043
  64   2.0000      -0.521624       -14.1941
  65   2.0000      -0.514838       -14.0095
  66   2.0000      -0.504567       -13.7300
  67   2.0000      -0.500997       -13.6328
  68   2.0000      -0.489443       -13.3184
  69   2.0000      -0.469748       -12.7825
  70   2.0000      -0.459753       -12.5105
  71   2.0000      -0.452153       -12.3037
  72   2.0000      -0.356664        -9.7053
  73   2.0000      -0.351165        -9.5557
  74   2.0000      -0.329338        -8.9617
  75   2.0000      -0.323651        -8.8070
  76   2.0000      -0.319800        -8.7022
  77   0.0000       0.081628         2.2212
  78   0.0000       0.104591         2.8461
  79   0.0000       0.115444         3.1414
  80   0.0000       0.130080         3.5397
  81   0.0000       0.130729         3.5573

MULLIKEN ATOMIC CHARGES
-----------------------
   0 C :   -0.257206
   1 C :    0.025588
   2 O :   -0.318954
   3 C :    0.419550
   4 O :   -0.378030
   5 C :   -0.212067
   6 C :    0.141157
   7 C :   -0.323109
   8 N :   -0.137197
   9 C :    0.207994
  10 S :   -0.442032
  11 N :   -0.220252
  12 C :    0.060620
  13 C :    0.023301
  14 C :   -0.214886
  15 C :   -0.128200
  16 C :   -0.277684
  17 C :    0.313957
  18 O :   -0.356338
  19 C :   -0.250204
  20 H :    0.107046
  21 H :    0.096206
  22 H :    0.090129
  23 H :    0.084277
  24 H :    0.110445
  25 H :    0.139513
  26 H :    0.125773
  27 H :    0.121785
  28 H :    0.197725
  29 H :    0.201849
  30 H :    0.165043
  31 H :    0.175405
  32 H :    0.164282
  33 H :    0.131620
  34 H :    0.241198
  35 H :    0.171696
Sum of atomic charges:   -0.0000000

LOEWDIN ATOMIC CHARGES
----------------------
   0 C :    0.111970
   1 C :   -0.026318
   2 O :    0.303850
   3 C :   -0.417218
   4 O :    0.123537
   5 C :   -0.087568
   6 C :   -0.085286
   7 C :    0.126795
   8 N :    0.403125
   9 C :   -0.456850
  10 S :   -0.037587
  11 N :    0.395930
  12 C :   -0.049489
  13 C :   -0.044173
  14 C :    0.019981
  15 C :    0.043978
  16 C :   -0.000372
  17 C :   -0.192093
  18 O :    0.394692
  19 C :    0.027184
  20 H :   -0.021823
  21 H :   -0.026734
  22 H :   -0.024549
  23 H :   -0.038625
  24 H :   -0.027185
  25 H :   -0.007311
  26 H :   -0.012552
  27 H :   -0.017986
  28 H :   -0.057255
  29 H :   -0.063628
  30 H :   -0.004672
  31 H :   -0.021439
  32 H :   -0.018822
  33 H :   -0.034933
  34 H :   -0.153283
  35 H :   -0.023291

  Mayer bond orders larger than 0.100000
B(  0-C ,  1-C ) :   0.9805 B(  0-C , 20-H ) :   0.9774 B(  0-C , 21-H ) :   0.9778
B(  0-C , 22-H ) :   0.9764 B(  1-C ,  2-O ) :   0.9044 B(  1-C , 23-H ) :   0.9684
B(  1-C , 24-H ) :   0.9730 B(  2-O ,  3-C ) :   1.1659 B(  3-C ,  4-O ) :   2.0986
B(  3-C ,  5-C ) :   0.9298 B(  5-C ,  6-C ) :   1.7134 B(  5-C , 12-C ) :   0.9423
B(  6-C ,  7-C ) :   0.9354 B(  6-C ,  8-N ) :   1.1142 B(  7-C , 25-H ) :   0.9717
B(  7-C , 26-H ) :   0.9799 B(  7-C , 27-H ) :   0.9663 B(  8-N ,  9-C ) :   1.1940
B(  8-N , 28-H ) :   0.9505 B(  9-C , 10-S ) :   1.6109 B(  9-C , 11-N ) :   1.2930
B( 11-N , 12-C ) :   0.9839 B( 11-N , 29-H ) :   0.9479 B( 12-C , 13-C ) :   0.9682
B( 12-C , 30-H ) :   0.9903 B( 13-C , 14-C ) :   1.3841 B( 13-C , 19-C ) :   1.3555
B( 14-C , 15-C ) :   1.3937 B( 14-C , 31-H ) :   0.9593 B( 15-C , 16-C ) :   1.3616
B( 15-C , 32-H ) :   0.9699 B( 16-C , 17-C ) :   1.3311 B( 16-C , 33-H ) :   0.9849
B( 17-C , 18-O ) :   1.1085 B( 17-C , 19-C ) :   1.3665 B( 18-O , 34-H ) :   0.9794
B( 19-C , 35-H ) :   0.9571

MP2 TOTAL ENERGY:    -1274.331754121 Eh
FINAL SINGLE POINT ENERGY     -1274.331754120581

DIPOLE MOMENT
-------------
                                X             Y             Z
Electronic contribution:     10.42185       8.54521       9.08956
Nuclear contribution   :    -12.04454      -9.70581      -9.43658
                        -----------------------------------------
Total Dipole Moment    :     -1.62270      -1.16060      -0.34702
                        -----------------------------------------
Magnitude (a.u.)       :      2.02498
Magnitude (Debye)      :      5.14710

Rotational constants in cm-1:     0.010404     0.009194     0.006153
Rotational constants in MHz :   311.910503   275.622442   184.460671

                             ****ORCA TERMINATED NORMALLY****
TOTAL RUN TIME: 0 days 1 hours 40 minutes 37 seconds 468 msec
