                         Program Version 4.2.0 -  RELEASE  -
|  1> ! ri-mp2 cc-pvtz cc-pvtz/c TightSCF NoKeepInts
|  2>
|  3> %scf
|  4>   MaxCore 4096
|  5> end
|  6> *xyz  0  1
|  7>     C       14.0824141   15.4992917   14.0315473
|  8>     C       15.0018607   15.5369612   15.2634610
|  9>     O       16.1816598   16.2652733   14.8986758
| 10>     C       17.1636177   16.3189027   15.8369604
| 11>     O       17.8334748   15.3383930   16.1088525
| 12>     C       17.2068482   17.5897293   16.6346309
| 13>     C       16.9151435   18.8002303   16.0908331
| 14>     C       16.3020877   19.0841978   14.7337190
| 15>     N       17.2261671   19.9803186   16.7708929
| 16>     C       18.0208102   20.0456108   17.8837460
| 17>     S       18.4363831   21.4892447   18.5752830
| 18>     N       18.4719472   18.8497308   18.3827033
| 19>     C       18.0498485   17.5157980   17.9127231
| 20>     C       17.4151547   16.6634969   19.0035158
| 21>     C       17.9096118   15.3779123   19.2877066
| 22>     C       17.3204873   14.5914876   20.2918779
| 23>     C       16.2279438   15.0954053   21.0183694
| 24>     C       15.7315151   16.3752647   20.7352041
| 25>     O       14.6728942   16.8620306   21.4305352
| 26>     C       16.3193474   17.1552199   19.7341374
| 27>     H       14.5862408   15.0073337   13.1899421
| 28>     H       13.8036936   16.5143859   13.7231851
| 29>     H       13.1638789   14.9425782   14.2538079
| 30>     H       14.4913834   16.0254823   16.1043734
| 31>     H       15.2638499   14.5115532   15.5597306
| 32>     H       16.8672759   18.5837538   13.9370500
| 33>     H       16.2870438   20.1534086   14.4893322
| 34>     H       15.2670497   18.7238032   14.6909733
| 35>     H       16.9236040   20.8678033   16.4021846
| 36>     H       19.0410132   18.9246851   19.2165682
| 37>     H       19.0205612   17.0972435   17.6086992
| 38>     H       18.7448443   14.9814863   18.7147315
| 39>     H       17.7083174   13.5955854   20.4988061
| 40>     H       15.7693031   14.4906126   21.7935760
| 41>     H       14.4361557   16.2010049   22.0984180
| 42>     H       15.9235683   18.1447806   19.5312471
| 43> *
| 44>
| 45>                          ****END OF INPUT****

CARTESIAN COORDINATES (ANGSTROEM)
---------------------------------
  C     14.082414   15.499292   14.031547
  C     15.001861   15.536961   15.263461
  O     16.181660   16.265273   14.898676
  C     17.163618   16.318903   15.836960
  O     17.833475   15.338393   16.108853
  C     17.206848   17.589729   16.634631
  C     16.915143   18.800230   16.090833
  C     16.302088   19.084198   14.733719
  N     17.226167   19.980319   16.770893
  C     18.020810   20.045611   17.883746
  S     18.436383   21.489245   18.575283
  N     18.471947   18.849731   18.382703
  C     18.049848   17.515798   17.912723
  C     17.415155   16.663497   19.003516
  C     17.909612   15.377912   19.287707
  C     17.320487   14.591488   20.291878
  C     16.227944   15.095405   21.018369
  C     15.731515   16.375265   20.735204
  O     14.672894   16.862031   21.430535
  C     16.319347   17.155220   19.734137
  H     14.586241   15.007334   13.189942
  H     13.803694   16.514386   13.723185
  H     13.163879   14.942578   14.253808
  H     14.491383   16.025482   16.104373
  H     15.263850   14.511553   15.559731
  H     16.867276   18.583754   13.937050
  H     16.287044   20.153409   14.489332
  H     15.267050   18.723803   14.690973
  H     16.923604   20.867803   16.402185
  H     19.041013   18.924685   19.216568
  H     19.020561   17.097244   17.608699
  H     18.744844   14.981486   18.714731
  H     17.708317   13.595585   20.498806
  H     15.769303   14.490613   21.793576
  H     14.436156   16.201005   22.098418
  H     15.923568   18.144781   19.531247

 Total Charge           Charge          ....    0
 Multiplicity           Mult            ....    1
 Number of Electrons    NEL             ....  154
 Basis Dimension        Dim             ....  828

ORBITAL ENERGIES
----------------

  NO   OCC          E(Eh)            E(eV)
   0   2.0000     -91.889726     -2500.4466
   1   2.0000     -20.593972      -560.3905
   2   2.0000     -20.588987      -560.2548
   3   2.0000     -20.551709      -559.2404
   4   2.0000     -15.630861      -425.3374
   5   2.0000     -15.607171      -424.6927
   6   2.0000     -11.393022      -310.0199
   7   2.0000     -11.384420      -309.7858
   8   2.0000     -11.340443      -308.5891
   9   2.0000     -11.310054      -307.7622
  10   2.0000     -11.305218      -307.6306
  11   2.0000     -11.303626      -307.5873
  12   2.0000     -11.261886      -306.4515
  13   2.0000     -11.260484      -306.4133
  14   2.0000     -11.257217      -306.3244
  15   2.0000     -11.249909      -306.1256
  16   2.0000     -11.240090      -305.8584
  17   2.0000     -11.236431      -305.7588
  18   2.0000     -11.235856      -305.7432
  19   2.0000     -11.232833      -305.6609
  20   2.0000      -8.894799      -242.0398
  21   2.0000      -6.576372      -178.9522
  22   2.0000      -6.574372      -178.8977
  23   2.0000      -6.573780      -178.8816
  24   2.0000      -1.454353       -39.5750
  25   2.0000      -1.413719       -38.4692
  26   2.0000      -1.359266       -36.9875
  27   2.0000      -1.341710       -36.5098
  28   2.0000      -1.238631       -33.7049
  29   2.0000      -1.154551       -31.4169
  30   2.0000      -1.122370       -30.5412
  31   2.0000      -1.044891       -28.4329
  32   2.0000      -1.038050       -28.2468
  33   2.0000      -1.012166       -27.5424
  34   2.0000      -1.000991       -27.2383
  35   2.0000      -0.986069       -26.8323
  36   2.0000      -0.922480       -25.1020
  37   2.0000      -0.882324       -24.0092
  38   2.0000      -0.850056       -23.1312
  39   2.0000      -0.838759       -22.8238
  40   2.0000      -0.830312       -22.5940
  41   2.0000      -0.828985       -22.5578
  42   2.0000      -0.761102       -20.7106
  43   2.0000      -0.736892       -20.0519
  44   2.0000      -0.728175       -19.8147
  45   2.0000      -0.691785       -18.8244
  46   2.0000      -0.688617       -18.7382
  47   2.0000      -0.681556       -18.5461
  48   2.0000      -0.674151       -18.3446
  49   2.0000      -0.654251       -17.8031
  50   2.0000      -0.650742       -17.7076
  51   2.0000      -0.641218       -17.4484
  52   2.0000      -0.629611       -17.1326
  53   2.0000      -0.625774       -17.0282
  54   2.0000      -0.605111       -16.4659
  55   2.0000      -0.600910       -16.3516
  56   2.0000      -0.597303       -16.2535
  57   2.0000      -0.578221       -15.7342
  58   2.0000      -0.574962       -15.6455
  59   2.0000      -0.564377       -15.3575
  60   2.0000      -0.560030       -15.2392
  61   2.0000      -0.549985       -14.9659
  62   2.0000      -0.538416       -14.6510
  63   2.0000      -0.526338       -14.3224
  64   2.0000      -0.518452       -14.1078
  65   2.0000      -0.511537       -13.9196
  66   2.0000      -0.505652       -13.7595
  67   2.0000      -0.495905       -13.4943
  68   2.0000      -0.481213       -13.0945
  69   2.0000      -0.463668       -12.6170
  70   2.0000      -0.462219       -12.5776
  71   2.0000      -0.452837       -12.3223
  72   2.0000      -0.355065        -9.6618
  73   2.0000      -0.346640        -9.4326
  74   2.0000      -0.328727        -8.9451
  75   2.0000      -0.318938        -8.6787
  76   2.0000      -0.316721        -8.6184
  77   0.0000       0.071939         1.9576
  78   0.0000       0.108213         2.9446
  79   0.0000       0.119403         3.2491
  80   0.0000       0.134244         3.6530
  81   0.0000       0.138132         3.7588

MULLIKEN ATOMIC CHARGES
-----------------------
   0 C :   -0.266217
   1 C :    0.027927
   2 O :   -0.365307
   3 C :    0.470362
   4 O :   -0.393243
   5 C :   -0.228475
   6 C :    0.158201
   7 C :   -0.286572
   8 N :   -0.127953
   9 C :    0.206149
  10 S :   -0.439839
  11 N :   -0.211070
  12 C :    0.044159
  13 C :    0.033234
  14 C :   -0.174086
  15 C :   -0.133140
  16 C :   -0.277477
  17 C :    0.313580
  18 O :   -0.359017
  19 C :   -0.255437
  20 H :    0.104534
  21 H :    0.090656
  22 H :    0.094351
  23 H :    0.091598
  24 H :    0.111580
  25 H :    0.131565
  26 H :    0.106365
  27 H :    0.120867
  28 H :    0.198941
  29 H :    0.199910
  30 H :    0.156618
  31 H :    0.161954
  32 H :    0.161119
  33 H :    0.129012
  34 H :    0.240439
  35 H :    0.164713
Sum of atomic charges:   -0.0000000

LOEWDIN ATOMIC CHARGES
----------------------
   0 C :    0.110404
   1 C :   -0.024065
   2 O :    0.299955
   3 C :   -0.422750
   4 O :    0.124030
   5 C :   -0.097678
   6 C :   -0.065031
   7 C :    0.126026
   8 N :    0.405929
   9 C :   -0.458324
  10 S :   -0.035744
  11 N :    0.396232
  12 C :   -0.048807
  13 C :   -0.041422
  14 C :    0.024749
  15 C :    0.041784
  16 C :   -0.001034
  17 C :   -0.193150
  18 O :    0.392976
  19 C :    0.028015
  20 H :   -0.022983
  21 H :   -0.030507
  22 H :   -0.023649
  23 H :   -0.034367
  24 H :   -0.025252
  25 H :   -0.006715
  26 H :   -0.020227
  27 H :   -0.011474
  28 H :   -0.058270
  29 H :   -0.063197
  30 H :   -0.007368
  31 H :   -0.023282
  32 H :   -0.020456
  33 H :   -0.035860
  34 H :   -0.154387
  35 H :   -0.024102

  Mayer bond orders larger than 0.100000
B(  0-C ,  1-C ) :   0.9765 B(  0-C , 20-H ) :   0.9767 B(  0-C , 21-H ) :   0.9789
B(  0-C , 22-H ) :   0.9758 B(  1-C ,  2-O ) :   0.8997 B(  1-C , 23-H ) :   0.9695
B(  1-C , 24-H ) :   0.9782 B(  2-O ,  3-C ) :   1.0818 B(  3-C ,  4-O ) :   2.0482
B(  3-C ,  5-C ) :   1.0222 B(  5-C ,  6-C ) :   1.6589 B(  5-C , 12-C ) :   0.9539
B(  6-C ,  7-C ) :   0.9521 B(  6-C ,  8-N ) :   1.1396 B(  7-C , 25-H ) :   0.9647
B(  7-C , 26-H ) :   0.9901 B(  7-C , 27-H ) :   0.9662 B(  8-N ,  9-C ) :   1.1834
B(  8-N , 28-H ) :   0.9470 B(  9-C , 10-S ) :   1.6115 B(  9-C , 11-N ) :   1.3048
B( 11-N , 12-C ) :   0.9795 B( 11-N , 29-H ) :   0.9486 B( 12-C , 13-C ) :   0.9719
B( 12-C , 30-H ) :   0.9958 B( 13-C , 14-C ) :   1.3795 B( 13-C , 19-C ) :   1.3621
B( 14-C , 15-C ) :   1.3972 B( 14-C , 31-H ) :   0.9625 B( 15-C , 16-C ) :   1.3594
B( 15-C , 32-H ) :   0.9708 B( 16-C , 17-C ) :   1.3329 B( 16-C , 33-H ) :   0.9857
B( 17-C , 18-O ) :   1.1043 B( 17-C , 19-C ) :   1.3673 B( 18-O , 34-H ) :   0.9802
B( 19-C , 35-H ) :   0.9600

MP2 TOTAL ENERGY:    -1274.328380650 Eh
FINAL SINGLE POINT ENERGY     -1274.328380649898

DIPOLE MOMENT
-------------
                                X             Y             Z
Electronic contribution:     10.63924       9.11746      10.60269
Nuclear contribution   :    -12.10984     -10.35272     -11.25734
                        -----------------------------------------
Total Dipole Moment    :     -1.47060      -1.23526      -0.65465
                        -----------------------------------------
Magnitude (a.u.)       :      2.02906
Magnitude (Debye)      :      5.15747

Rotational constants in cm-1:     0.009582     0.009477     0.005821
Rotational constants in MHz :   287.258270   284.121616   174.505825

                             ****ORCA TERMINATED NORMALLY****
TOTAL RUN TIME: 0 days 1 hours 38 minutes 57 seconds 775 msec
