                         Program Version 4.2.0 -  RELEASE  -
|  1> ! ri-mp2 cc-pvtz cc-pvtz/c TightSCF NoKeepInts
|  2>
|  3> %scf
|  4>   MaxCore 4096
|  5> end
|  6> *xyz  0  1
|  7>     C       14.2705889   15.8928254   15.1414329
|  8>     C       15.3810809   15.4812171   16.1266119
|  9>     O       16.6598171   15.7026364   15.4961700
| 10>     C       17.1239228   16.9676037   15.2694565
| 11>     O       17.5374682   17.2921240   14.1716580
| 12>     C       17.0726938   17.8990209   16.4442632
| 13>     C       16.8728850   19.2196361   16.2142262
| 14>     C       16.2936448   19.8321892   14.9564872
| 15>     N       17.2017170   20.1817832   17.1703417
| 16>     C       17.9687205   19.9312469   18.2761801
| 17>     S       18.4326415   21.1337840   19.3121086
| 18>     N       18.3550129   18.6280394   18.4682644
| 19>     C       17.8750439   17.4708629   17.6869993
| 20>     C       17.2730577   16.3751697   18.5540947
| 21>     C       17.7447490   15.0525974   18.4649219
| 22>     C       17.1833862   14.0401291   19.2608124
| 23>     C       16.1471710   14.3541384   20.1569303
| 24>     C       15.6815412   15.6725817   20.2539445
| 25>     O       14.6789349   15.9781283   21.1149032
| 26>     C       16.2399114   16.6780971   19.4582651
| 27>     H       14.2932768   16.9715559   14.9460419
| 28>     H       13.2841755   15.6428149   15.5507149
| 29>     H       14.3879094   15.3655166   14.1860448
| 30>     H       15.2657536   16.0500941   17.0539396
| 31>     H       15.2760413   14.4151854   16.3665702
| 32>     H       15.5523902   19.1686173   14.4949603
| 33>     H       17.0856360   19.9992656   14.2144904
| 34>     H       15.7975187   20.7913481   15.1466875
| 35>     H       16.9631816   21.1482552   17.0135787
| 36>     H       18.9118167   18.4716091   19.2993967
| 37>     H       18.8375680   17.1236779   17.2837461
| 38>     H       18.5411796   14.8061393   17.7666568
| 39>     H       17.5518326   13.0184327   19.1816148
| 40>     H       15.7113624   13.5748957   20.7739333
| 41>     H       14.4658283   15.1749661   21.6140279
| 42>     H       15.8675406   17.6938152   19.5475237
| 43> *
| 44>
| 45>                          ****END OF INPUT****

CARTESIAN COORDINATES (ANGSTROEM)
---------------------------------
  C     14.270589   15.892825   15.141433
  C     15.381081   15.481217   16.126612
  O     16.659817   15.702636   15.496170
  C     17.123923   16.967604   15.269456
  O     17.537468   17.292124   14.171658
  C     17.072694   17.899021   16.444263
  C     16.872885   19.219636   16.214226
  C     16.293645   19.832189   14.956487
  N     17.201717   20.181783   17.170342
  C     17.968720   19.931247   18.276180
  S     18.432641   21.133784   19.312109
  N     18.355013   18.628039   18.468264
  C     17.875044   17.470863   17.686999
  C     17.273058   16.375170   18.554095
  C     17.744749   15.052597   18.464922
  C     17.183386   14.040129   19.260812
  C     16.147171   14.354138   20.156930
  C     15.681541   15.672582   20.253944
  O     14.678935   15.978128   21.114903
  C     16.239911   16.678097   19.458265
  H     14.293277   16.971556   14.946042
  H     13.284175   15.642815   15.550715
  H     14.387909   15.365517   14.186045
  H     15.265754   16.050094   17.053940
  H     15.276041   14.415185   16.366570
  H     15.552390   19.168617   14.494960
  H     17.085636   19.999266   14.214490
  H     15.797519   20.791348   15.146688
  H     16.963182   21.148255   17.013579
  H     18.911817   18.471609   19.299397
  H     18.837568   17.123678   17.283746
  H     18.541180   14.806139   17.766657
  H     17.551833   13.018433   19.181615
  H     15.711362   13.574896   20.773933
  H     14.465828   15.174966   21.614028
  H     15.867541   17.693815   19.547524

 Total Charge           Charge          ....    0
 Multiplicity           Mult            ....    1
 Number of Electrons    NEL             ....  154
 Basis Dimension        Dim             ....  828

ORBITAL ENERGIES
----------------

  NO   OCC          E(Eh)            E(eV)
   0   2.0000     -91.891166     -2500.4858
   1   2.0000     -20.603418      -560.6475
   2   2.0000     -20.591378      -560.3199
   3   2.0000     -20.551189      -559.2263
   4   2.0000     -15.629006      -425.2869
   5   2.0000     -15.611005      -424.7970
   6   2.0000     -11.394332      -310.0555
   7   2.0000     -11.386109      -309.8318
   8   2.0000     -11.333577      -308.4023
   9   2.0000     -11.321576      -308.0757
  10   2.0000     -11.316271      -307.9314
  11   2.0000     -11.299060      -307.4631
  12   2.0000     -11.268479      -306.6309
  13   2.0000     -11.262520      -306.4687
  14   2.0000     -11.258008      -306.3460
  15   2.0000     -11.256045      -306.2926
  16   2.0000     -11.251451      -306.1675
  17   2.0000     -11.246258      -306.0262
  18   2.0000     -11.245764      -306.0128
  19   2.0000     -11.230501      -305.5975
  20   2.0000      -8.896223      -242.0785
  21   2.0000      -6.577792      -178.9908
  22   2.0000      -6.575796      -178.9365
  23   2.0000      -6.575201      -178.9203
  24   2.0000      -1.446540       -39.3624
  25   2.0000      -1.423196       -38.7271
  26   2.0000      -1.358314       -36.9616
  27   2.0000      -1.341791       -36.5120
  28   2.0000      -1.241072       -33.7713
  29   2.0000      -1.164789       -31.6955
  30   2.0000      -1.124281       -30.5932
  31   2.0000      -1.049614       -28.5615
  32   2.0000      -1.034379       -28.1469
  33   2.0000      -1.022866       -27.8336
  34   2.0000      -1.002796       -27.2875
  35   2.0000      -0.989296       -26.9201
  36   2.0000      -0.926765       -25.2186
  37   2.0000      -0.890324       -24.2269
  38   2.0000      -0.851528       -23.1713
  39   2.0000      -0.844055       -22.9679
  40   2.0000      -0.841724       -22.9045
  41   2.0000      -0.833116       -22.6702
  42   2.0000      -0.755202       -20.5501
  43   2.0000      -0.738361       -20.0918
  44   2.0000      -0.718916       -19.5627
  45   2.0000      -0.701691       -19.0940
  46   2.0000      -0.691734       -18.8230
  47   2.0000      -0.679976       -18.5031
  48   2.0000      -0.675939       -18.3932
  49   2.0000      -0.668385       -18.1877
  50   2.0000      -0.649688       -17.6789
  51   2.0000      -0.649101       -17.6629
  52   2.0000      -0.635107       -17.2821
  53   2.0000      -0.615865       -16.7585
  54   2.0000      -0.612345       -16.6627
  55   2.0000      -0.605859       -16.4863
  56   2.0000      -0.603109       -16.4114
  57   2.0000      -0.582648       -15.8547
  58   2.0000      -0.577226       -15.7071
  59   2.0000      -0.567665       -15.4469
  60   2.0000      -0.556154       -15.1337
  61   2.0000      -0.551423       -15.0050
  62   2.0000      -0.545885       -14.8543
  63   2.0000      -0.530482       -14.4352
  64   2.0000      -0.527429       -14.3521
  65   2.0000      -0.517507       -14.0821
  66   2.0000      -0.505332       -13.7508
  67   2.0000      -0.500599       -13.6220
  68   2.0000      -0.483722       -13.1627
  69   2.0000      -0.467201       -12.7132
  70   2.0000      -0.454854       -12.3772
  71   2.0000      -0.450173       -12.2498
  72   2.0000      -0.357924        -9.7396
  73   2.0000      -0.352243        -9.5850
  74   2.0000      -0.330823        -9.0021
  75   2.0000      -0.328680        -8.9438
  76   2.0000      -0.321262        -8.7420
  77   0.0000       0.079239         2.1562
  78   0.0000       0.096744         2.6325
  79   0.0000       0.121708         3.3118
  80   0.0000       0.127781         3.4771
  81   0.0000       0.128630         3.5002

MULLIKEN ATOMIC CHARGES
-----------------------
   0 C :   -0.278534
   1 C :    0.022421
   2 O :   -0.343527
   3 C :    0.409680
   4 O :   -0.370112
   5 C :   -0.218514
   6 C :    0.149675
   7 C :   -0.278162
   8 N :   -0.131019
   9 C :    0.210089
  10 S :   -0.437974
  11 N :   -0.212513
  12 C :    0.033559
  13 C :   -0.007066
  14 C :   -0.158412
  15 C :   -0.144889
  16 C :   -0.270684
  17 C :    0.306532
  18 O :   -0.354575
  19 C :   -0.232449
  20 H :    0.082317
  21 H :    0.099762
  22 H :    0.112694
  23 H :    0.103269
  24 H :    0.123344
  25 H :    0.117720
  26 H :    0.142466
  27 H :    0.097420
  28 H :    0.199040
  29 H :    0.200634
  30 H :    0.156879
  31 H :    0.153629
  32 H :    0.165676
  33 H :    0.135167
  34 H :    0.241524
  35 H :    0.174933
Sum of atomic charges:   -0.0000000

LOEWDIN ATOMIC CHARGES
----------------------
   0 C :    0.105987
   1 C :   -0.022055
   2 O :    0.300963
   3 C :   -0.426097
   4 O :    0.127802
   5 C :   -0.101241
   6 C :   -0.070527
   7 C :    0.129478
   8 N :    0.406393
   9 C :   -0.456519
  10 S :   -0.033841
  11 N :    0.395582
  12 C :   -0.053325
  13 C :   -0.045299
  14 C :    0.022373
  15 C :    0.043656
  16 C :    0.001057
  17 C :   -0.192185
  18 O :    0.396651
  19 C :    0.030600
  20 H :   -0.033073
  21 H :   -0.025406
  22 H :   -0.022114
  23 H :   -0.038470
  24 H :   -0.020970
  25 H :   -0.011166
  26 H :   -0.003760
  27 H :   -0.021278
  28 H :   -0.056733
  29 H :   -0.063450
  30 H :   -0.010538
  31 H :   -0.025941
  32 H :   -0.018702
  33 H :   -0.033759
  34 H :   -0.152439
  35 H :   -0.021652

  Mayer bond orders larger than 0.100000
B(  0-C ,  1-C ) :   0.9808 B(  0-C , 20-H ) :   0.9757 B(  0-C , 21-H ) :   0.9773
B(  0-C , 22-H ) :   0.9773 B(  1-C ,  2-O ) :   0.8832 B(  1-C , 23-H ) :   0.9571
B(  1-C , 24-H ) :   0.9788 B(  2-O ,  3-C ) :   1.1460 B(  3-C ,  4-O ) :   2.1156
B(  3-C ,  5-C ) :   0.9484 B(  5-C ,  6-C ) :   1.6710 B(  5-C , 12-C ) :   0.9568
B(  6-C ,  7-C ) :   0.9563 B(  6-C ,  8-N ) :   1.1381 B(  7-C , 25-H ) :   0.9748
B(  7-C , 26-H ) :   0.9549 B(  7-C , 27-H ) :   0.9843 B(  8-N ,  9-C ) :   1.1930
B(  8-N , 28-H ) :   0.9488 B(  9-C , 10-S ) :   1.6152 B(  9-C , 11-N ) :   1.2911
B( 11-N , 12-C ) :   0.9821 B( 11-N , 29-H ) :   0.9468 B( 12-C , 13-C ) :   0.9645
B( 12-C , 30-H ) :   1.0055 B( 13-C , 14-C ) :   1.3735 B( 13-C , 19-C ) :   1.3522
B( 14-C , 15-C ) :   1.3957 B( 14-C , 31-H ) :   0.9709 B( 15-C , 16-C ) :   1.3603
B( 15-C , 32-H ) :   0.9696 B( 16-C , 17-C ) :   1.3315 B( 16-C , 33-H ) :   0.9831
B( 17-C , 18-O ) :   1.1105 B( 17-C , 19-C ) :   1.3635 B( 18-O , 34-H ) :   0.9789
B( 19-C , 35-H ) :   0.9576

MP2 TOTAL ENERGY:    -1274.324207586 Eh
FINAL SINGLE POINT ENERGY     -1274.324207586096

DIPOLE MOMENT
-------------
                                X             Y             Z
Electronic contribution:      9.96950       7.46106       8.02929
Nuclear contribution   :    -11.38308      -9.09172      -7.81879
                        -----------------------------------------
Total Dipole Moment    :     -1.41358      -1.63066       0.21050
                        -----------------------------------------
Magnitude (a.u.)       :      2.16831
Magnitude (Debye)      :      5.51141

Rotational constants in cm-1:     0.011626     0.009168     0.006135
Rotational constants in MHz :   348.553034   274.857361   183.923037

                             ****ORCA TERMINATED NORMALLY****
TOTAL RUN TIME: 0 days 1 hours 44 minutes 51 seconds 231 msec
