                         Program Version 4.2.0 -  RELEASE  -
|  1> ! ri-mp2 cc-pvtz cc-pvtz/c TightSCF NoKeepInts
|  2>
|  3> %scf
|  4>   MaxCore 4096
|  5> end
|  6> *xyz  0  1
|  7>     C       14.0272396   15.1160363   15.4629000
|  8>     C       15.0534911   16.0781296   16.0823902
|  9>     O       16.2260206   16.0427146   15.2479083
| 10>     C       17.2106914   16.9925010   15.3125087
| 11>     O       18.1056304   17.0511519   14.4910364
| 12>     C       17.1297385   17.9377267   16.4605462
| 13>     C       16.8625902   19.2328777   16.1864906
| 14>     C       16.2883970   19.7434062   14.8830391
| 15>     N       17.1544974   20.2418531   17.1056567
| 16>     C       17.9364000   20.0570392   18.2162226
| 17>     S       18.3434025   21.3094934   19.2162337
| 18>     N       18.3849575   18.7780096   18.4454219
| 19>     C       17.9672126   17.5801229   17.6886951
| 20>     C       17.3899118   16.4566199   18.5338564
| 21>     C       17.8064288   15.1291724   18.3267347
| 22>     C       17.2552051   14.0828682   19.0849604
| 23>     C       16.2802324   14.3669632   20.0566553
| 24>     C       15.8629409   15.6889318   20.2635632
| 25>     O       14.9146227   15.9649338   21.1932883
| 26>     C       16.4109521   16.7286508   19.5053695
| 27>     H       13.1040608   15.1028631   16.0548934
| 28>     H       14.4283033   14.0952276   15.4291477
| 29>     H       13.7768324   15.4225419   14.4395602
| 30>     H       14.6225233   17.0876295   16.1115078
| 31>     H       15.2874448   15.7596209   17.1048243
| 32>     H       15.4618087   19.1099751   14.5382411
| 33>     H       17.0585185   19.7358447   14.0996576
| 34>     H       15.9050180   20.7676099   14.9653764
| 35>     H       16.8728337   21.1918421   16.9216636
| 36>     H       18.9574649   18.6711752   19.2737117
| 37>     H       18.9418145   17.2694806   17.2829343
| 38>     H       18.5534106   14.9063221   17.5680335
| 39>     H       17.5825636   13.0579717   18.9166313
| 40>     H       15.8516714   13.5611376   20.6438098
| 41>     H       14.7003117   15.1360815   21.6479852
| 42>     H       16.0718572   17.7454738   19.6765445
| 43> *
| 44>
| 45>                          ****END OF INPUT****

CARTESIAN COORDINATES (ANGSTROEM)
---------------------------------
  C     14.027240   15.116036   15.462900
  C     15.053491   16.078130   16.082390
  O     16.226021   16.042715   15.247908
  C     17.210691   16.992501   15.312509
  O     18.105630   17.051152   14.491036
  C     17.129738   17.937727   16.460546
  C     16.862590   19.232878   16.186491
  C     16.288397   19.743406   14.883039
  N     17.154497   20.241853   17.105657
  C     17.936400   20.057039   18.216223
  S     18.343402   21.309493   19.216234
  N     18.384957   18.778010   18.445422
  C     17.967213   17.580123   17.688695
  C     17.389912   16.456620   18.533856
  C     17.806429   15.129172   18.326735
  C     17.255205   14.082868   19.084960
  C     16.280232   14.366963   20.056655
  C     15.862941   15.688932   20.263563
  O     14.914623   15.964934   21.193288
  C     16.410952   16.728651   19.505369
  H     13.104061   15.102863   16.054893
  H     14.428303   14.095228   15.429148
  H     13.776832   15.422542   14.439560
  H     14.622523   17.087629   16.111508
  H     15.287445   15.759621   17.104824
  H     15.461809   19.109975   14.538241
  H     17.058519   19.735845   14.099658
  H     15.905018   20.767610   14.965376
  H     16.872834   21.191842   16.921664
  H     18.957465   18.671175   19.273712
  H     18.941814   17.269481   17.282934
  H     18.553411   14.906322   17.568033
  H     17.582564   13.057972   18.916631
  H     15.851671   13.561138   20.643810
  H     14.700312   15.136081   21.647985
  H     16.071857   17.745474   19.676544

 Total Charge           Charge          ....    0
 Multiplicity           Mult            ....    1
 Number of Electrons    NEL             ....  154
 Basis Dimension        Dim             ....  828

ORBITAL ENERGIES
----------------

  NO   OCC          E(Eh)            E(eV)
   0   2.0000     -91.889351     -2500.4364
   1   2.0000     -20.604740      -560.6835
   2   2.0000     -20.602470      -560.6217
   3   2.0000     -20.552874      -559.2721
   4   2.0000     -15.625586      -425.1938
   5   2.0000     -15.610735      -424.7897
   6   2.0000     -11.397199      -310.1336
   7   2.0000     -11.385182      -309.8066
   8   2.0000     -11.325851      -308.1921
   9   2.0000     -11.323298      -308.1226
  10   2.0000     -11.316130      -307.9276
  11   2.0000     -11.300113      -307.4917
  12   2.0000     -11.270494      -306.6857
  13   2.0000     -11.264616      -306.5258
  14   2.0000     -11.260733      -306.4201
  15   2.0000     -11.255897      -306.2885
  16   2.0000     -11.252688      -306.2012
  17   2.0000     -11.247691      -306.0652
  18   2.0000     -11.247368      -306.0564
  19   2.0000     -11.232206      -305.6439
  20   2.0000      -8.894441      -242.0301
  21   2.0000      -6.576021      -178.9426
  22   2.0000      -6.574013      -178.8880
  23   2.0000      -6.573430      -178.8721
  24   2.0000      -1.449133       -39.4329
  25   2.0000      -1.424474       -38.7619
  26   2.0000      -1.363611       -37.1057
  27   2.0000      -1.338724       -36.4285
  28   2.0000      -1.238783       -33.7090
  29   2.0000      -1.166984       -31.7552
  30   2.0000      -1.126973       -30.6665
  31   2.0000      -1.052151       -28.6305
  32   2.0000      -1.038635       -28.2627
  33   2.0000      -1.024872       -27.8882
  34   2.0000      -1.004440       -27.3322
  35   2.0000      -0.989722       -26.9317
  36   2.0000      -0.927580       -25.2407
  37   2.0000      -0.879206       -23.9244
  38   2.0000      -0.853916       -23.2362
  39   2.0000      -0.844418       -22.9778
  40   2.0000      -0.842802       -22.9338
  41   2.0000      -0.839083       -22.8326
  42   2.0000      -0.759474       -20.6663
  43   2.0000      -0.739388       -20.1198
  44   2.0000      -0.731451       -19.9038
  45   2.0000      -0.702985       -19.1292
  46   2.0000      -0.692845       -18.8533
  47   2.0000      -0.679728       -18.4963
  48   2.0000      -0.676945       -18.4206
  49   2.0000      -0.668573       -18.1928
  50   2.0000      -0.654043       -17.7974
  51   2.0000      -0.651705       -17.7338
  52   2.0000      -0.636315       -17.3150
  53   2.0000      -0.614553       -16.7228
  54   2.0000      -0.608785       -16.5659
  55   2.0000      -0.606390       -16.5007
  56   2.0000      -0.590231       -16.0610
  57   2.0000      -0.581184       -15.8148
  58   2.0000      -0.577801       -15.7228
  59   2.0000      -0.570799       -15.5322
  60   2.0000      -0.563993       -15.3470
  61   2.0000      -0.559919       -15.2362
  62   2.0000      -0.551750       -15.0139
  63   2.0000      -0.530177       -14.4269
  64   2.0000      -0.523796       -14.2532
  65   2.0000      -0.517211       -14.0740
  66   2.0000      -0.509578       -13.8663
  67   2.0000      -0.504625       -13.7316
  68   2.0000      -0.489204       -13.3119
  69   2.0000      -0.468178       -12.7398
  70   2.0000      -0.454144       -12.3579
  71   2.0000      -0.452068       -12.3014
  72   2.0000      -0.357429        -9.7261
  73   2.0000      -0.352482        -9.5915
  74   2.0000      -0.332027        -9.0349
  75   2.0000      -0.328408        -8.9364
  76   2.0000      -0.318503        -8.6669
  77   0.0000       0.088578         2.4103
  78   0.0000       0.098695         2.6856
  79   0.0000       0.117816         3.2059
  80   0.0000       0.126517         3.4427
  81   0.0000       0.130017         3.5380

MULLIKEN ATOMIC CHARGES
-----------------------
   0 C :   -0.260634
   1 C :    0.026739
   2 O :   -0.297540
   3 C :    0.411340
   4 O :   -0.382190
   5 C :   -0.209437
   6 C :    0.147057
   7 C :   -0.300644
   8 N :   -0.135904
   9 C :    0.215661
  10 S :   -0.442186
  11 N :   -0.224171
  12 C :    0.032274
  13 C :    0.002316
  14 C :   -0.204015
  15 C :   -0.133576
  16 C :   -0.271982
  17 C :    0.309877
  18 O :   -0.354073
  19 C :   -0.228083
  20 H :    0.089934
  21 H :    0.101282
  22 H :    0.100156
  23 H :    0.089365
  24 H :    0.111764
  25 H :    0.115116
  26 H :    0.146348
  27 H :    0.100547
  28 H :    0.196570
  29 H :    0.201699
  30 H :    0.166392
  31 H :    0.162600
  32 H :    0.165406
  33 H :    0.134990
  34 H :    0.241846
  35 H :    0.175157
Sum of atomic charges:   -0.0000000

LOEWDIN ATOMIC CHARGES
----------------------
   0 C :    0.111112
   1 C :   -0.025691
   2 O :    0.310191
   3 C :   -0.415937
   4 O :    0.124234
   5 C :   -0.089927
   6 C :   -0.092620
   7 C :    0.129263
   8 N :    0.403353
   9 C :   -0.453677
  10 S :   -0.037755
  11 N :    0.395666
  12 C :   -0.053896
  13 C :   -0.045841
  14 C :    0.016555
  15 C :    0.045125
  16 C :    0.001187
  17 C :   -0.191287
  18 O :    0.397341
  19 C :    0.030477
  20 H :   -0.025072
  21 H :   -0.024646
  22 H :   -0.025963
  23 H :   -0.037089
  24 H :   -0.031473
  25 H :   -0.012332
  26 H :   -0.003001
  27 H :   -0.018747
  28 H :   -0.059323
  29 H :   -0.064475
  30 H :   -0.006672
  31 H :   -0.024563
  32 H :   -0.017711
  33 H :   -0.033416
  34 H :   -0.152124
  35 H :   -0.021267

  Mayer bond orders larger than 0.100000
B(  0-C ,  1-C ) :   0.9827 B(  0-C , 20-H ) :   0.9776 B(  0-C , 21-H ) :   0.9782
B(  0-C , 22-H ) :   0.9789 B(  1-C ,  2-O ) :   0.9060 B(  1-C , 23-H ) :   0.9681
B(  1-C , 24-H ) :   0.9636 B(  2-O ,  3-C ) :   1.2065 B(  3-C ,  4-O ) :   2.1216
B(  3-C ,  5-C ) :   0.9075 B(  5-C ,  6-C ) :   1.7261 B(  5-C , 12-C ) :   0.9568
B(  6-C ,  7-C ) :   0.9342 B(  6-C ,  8-N ) :   1.1117 B(  7-C , 25-H ) :   0.9782
B(  7-C , 26-H ) :   0.9609 B(  7-C , 27-H ) :   0.9865 B(  8-N ,  9-C ) :   1.2015
B(  8-N , 28-H ) :   0.9493 B(  9-C , 10-S ) :   1.6107 B(  9-C , 11-N ) :   1.2844
B( 11-N , 12-C ) :   0.9779 B( 11-N , 29-H ) :   0.9465 B( 12-C , 13-C ) :   0.9554
B( 12-C , 30-H ) :   0.9992 B( 13-C , 14-C ) :   1.3795 B( 13-C , 19-C ) :   1.3585
B( 14-C , 15-C ) :   1.3964 B( 14-C , 31-H ) :   0.9680 B( 15-C , 16-C ) :   1.3631
B( 15-C , 32-H ) :   0.9694 B( 16-C , 17-C ) :   1.3286 B( 16-C , 33-H ) :   0.9836
B( 17-C , 18-O ) :   1.1124 B( 17-C , 19-C ) :   1.3622 B( 18-O , 34-H ) :   0.9785
B( 19-C , 35-H ) :   0.9565

MP2 TOTAL ENERGY:    -1274.327144067 Eh
FINAL SINGLE POINT ENERGY     -1274.327144066865

DIPOLE MOMENT
-------------
                                X             Y             Z
Electronic contribution:     10.63470       8.93034       7.49674
Nuclear contribution   :    -12.28462     -10.51113      -7.38424
                        -----------------------------------------
Total Dipole Moment    :     -1.64993      -1.58078       0.11251
                        -----------------------------------------
Magnitude (a.u.)       :      2.28775
Magnitude (Debye)      :      5.81500

Rotational constants in cm-1:     0.011714     0.008881     0.006121
Rotational constants in MHz :   351.184220   266.241005   183.511514

                             ****ORCA TERMINATED NORMALLY****
TOTAL RUN TIME: 0 days 1 hours 40 minutes 47 seconds 840 msec
