                         Program Version 4.2.0 -  RELEASE  -
|  1> ! ri-mp2 cc-pvtz cc-pvtz/c TightSCF NoKeepInts
|  2>
|  3> %scf
|  4>   MaxCore 4096
|  5> end
|  6> *xyz  0  1
|  7>     C       15.5061861   13.8025878   15.3218331
|  8>     C       15.3105215   15.2407371   14.8132593
|  9>     O       15.8748041   16.1199385   15.7988825
| 10>     C       15.5800866   17.4534814   15.7566993
| 11>     O       14.7180050   17.9014959   15.0194356
| 12>     C       16.4719664   18.2725759   16.6519440
| 13>     C       16.5379821   19.6228170   16.5220480
| 14>     C       15.6074439   20.5138534   15.7252347
| 15>     N       17.5457805   20.3583021   17.1500432
| 16>     C       18.6333339   19.8076459   17.7719892
| 17>     S       19.8408349   20.7389308   18.4125859
| 18>     N       18.6815138   18.4374937   17.8179300
| 19>     C       17.6091822   17.5276368   17.3723193
| 20>     C       17.1383007   16.5919696   18.4781891
| 21>     C       17.4083526   15.2125075   18.4142140
| 22>     C       16.9735494   14.3520620   19.4363289
| 23>     C       16.2671601   14.8764895   20.5324706
| 24>     C       16.0012620   16.2512618   20.6003270
| 25>     O       15.3206576   16.7601971   21.6581130
| 26>     C       16.4350261   17.1049873   19.5812377
| 27>     H       16.5730550   13.5718557   15.4294983
| 28>     H       15.0671182   13.0829935   14.6202035
| 29>     H       15.0229928   13.6702120   16.2982498
| 30>     H       15.8018544   15.3822887   13.8416498
| 31>     H       14.2351944   15.4337489   14.6951771
| 32>     H       15.7168355   20.3245401   14.6498275
| 33>     H       15.7855621   21.5823269   15.8944311
| 34>     H       14.5610383   20.3130885   15.9889484
| 35>     H       17.5332638   21.3646741   17.1048663
| 36>     H       19.4788398   18.0606236   18.3146096
| 37>     H       18.1420716   16.9672220   16.5912594
| 38>     H       17.9483976   14.8056863   17.5636627
| 39>     H       17.1826708   13.2855166   19.3765471
| 40>     H       15.9290330   14.2161619   21.3241781
| 41>     H       15.1216412   16.0250765   22.2570405
| 42>     H       16.2254821   18.1670135   19.6527663
| 43> *
| 44>
| 45>                          ****END OF INPUT****

CARTESIAN COORDINATES (ANGSTROEM)
---------------------------------
  C     15.506186   13.802588   15.321833
  C     15.310522   15.240737   14.813259
  O     15.874804   16.119938   15.798882
  C     15.580087   17.453481   15.756699
  O     14.718005   17.901496   15.019436
  C     16.471966   18.272576   16.651944
  C     16.537982   19.622817   16.522048
  C     15.607444   20.513853   15.725235
  N     17.545780   20.358302   17.150043
  C     18.633334   19.807646   17.771989
  S     19.840835   20.738931   18.412586
  N     18.681514   18.437494   17.817930
  C     17.609182   17.527637   17.372319
  C     17.138301   16.591970   18.478189
  C     17.408353   15.212507   18.414214
  C     16.973549   14.352062   19.436329
  C     16.267160   14.876489   20.532471
  C     16.001262   16.251262   20.600327
  O     15.320658   16.760197   21.658113
  C     16.435026   17.104987   19.581238
  H     16.573055   13.571856   15.429498
  H     15.067118   13.082994   14.620203
  H     15.022993   13.670212   16.298250
  H     15.801854   15.382289   13.841650
  H     14.235194   15.433749   14.695177
  H     15.716836   20.324540   14.649827
  H     15.785562   21.582327   15.894431
  H     14.561038   20.313088   15.988948
  H     17.533264   21.364674   17.104866
  H     19.478840   18.060624   18.314610
  H     18.142072   16.967222   16.591259
  H     17.948398   14.805686   17.563663
  H     17.182671   13.285517   19.376547
  H     15.929033   14.216162   21.324178
  H     15.121641   16.025077   22.257040
  H     16.225482   18.167013   19.652766

 Total Charge           Charge          ....    0
 Multiplicity           Mult            ....    1
 Number of Electrons    NEL             ....  154
 Basis Dimension        Dim             ....  828

ORBITAL ENERGIES
----------------

  NO   OCC          E(Eh)            E(eV)
   0   2.0000     -91.888556     -2500.4147
   1   2.0000     -20.602321      -560.6177
   2   2.0000     -20.595343      -560.4278
   3   2.0000     -20.541405      -558.9600
   4   2.0000     -15.628801      -425.2813
   5   2.0000     -15.606800      -424.6826
   6   2.0000     -11.394884      -310.0706
   7   2.0000     -11.383214      -309.7530
   8   2.0000     -11.336969      -308.4946
   9   2.0000     -11.312412      -307.8264
  10   2.0000     -11.307379      -307.6894
  11   2.0000     -11.297033      -307.4079
  12   2.0000     -11.259655      -306.3908
  13   2.0000     -11.259623      -306.3899
  14   2.0000     -11.253849      -306.2328
  15   2.0000     -11.251326      -306.1641
  16   2.0000     -11.242623      -305.9273
  17   2.0000     -11.238034      -305.8024
  18   2.0000     -11.237794      -305.7959
  19   2.0000     -11.231562      -305.6263
  20   2.0000      -8.893633      -242.0081
  21   2.0000      -6.575208      -178.9205
  22   2.0000      -6.573207      -178.8661
  23   2.0000      -6.572618      -178.8500
  24   2.0000      -1.453105       -39.5410
  25   2.0000      -1.415023       -38.5047
  26   2.0000      -1.354893       -36.8685
  27   2.0000      -1.340078       -36.4654
  28   2.0000      -1.237998       -33.6877
  29   2.0000      -1.156651       -31.4741
  30   2.0000      -1.120797       -30.4984
  31   2.0000      -1.043459       -28.3940
  32   2.0000      -1.040387       -28.3104
  33   2.0000      -1.014001       -27.5924
  34   2.0000      -0.996157       -27.1068
  35   2.0000      -0.984506       -26.7898
  36   2.0000      -0.921324       -25.0705
  37   2.0000      -0.888682       -24.1823
  38   2.0000      -0.845915       -23.0185
  39   2.0000      -0.837067       -22.7777
  40   2.0000      -0.833159       -22.6714
  41   2.0000      -0.817355       -22.2414
  42   2.0000      -0.766197       -20.8493
  43   2.0000      -0.732293       -19.9267
  44   2.0000      -0.720120       -19.5955
  45   2.0000      -0.694950       -18.9106
  46   2.0000      -0.689057       -18.7502
  47   2.0000      -0.679073       -18.4785
  48   2.0000      -0.672750       -18.3065
  49   2.0000      -0.666937       -18.1483
  50   2.0000      -0.645460       -17.5638
  51   2.0000      -0.643344       -17.5063
  52   2.0000      -0.634979       -17.2786
  53   2.0000      -0.605931       -16.4882
  54   2.0000      -0.600627       -16.3439
  55   2.0000      -0.598074       -16.2744
  56   2.0000      -0.590512       -16.0687
  57   2.0000      -0.577890       -15.7252
  58   2.0000      -0.569290       -15.4912
  59   2.0000      -0.568992       -15.4831
  60   2.0000      -0.562335       -15.3019
  61   2.0000      -0.551290       -15.0014
  62   2.0000      -0.540191       -14.6993
  63   2.0000      -0.523527       -14.2459
  64   2.0000      -0.521855       -14.2004
  65   2.0000      -0.512677       -13.9507
  66   2.0000      -0.504756       -13.7351
  67   2.0000      -0.497266       -13.5313
  68   2.0000      -0.483692       -13.1619
  69   2.0000      -0.462466       -12.5843
  70   2.0000      -0.460614       -12.5339
  71   2.0000      -0.447998       -12.1906
  72   2.0000      -0.352828        -9.6009
  73   2.0000      -0.348975        -9.4961
  74   2.0000      -0.327696        -8.9171
  75   2.0000      -0.319851        -8.7036
  76   2.0000      -0.317594        -8.6422
  77   0.0000       0.078219         2.1285
  78   0.0000       0.105736         2.8772
  79   0.0000       0.123318         3.3556
  80   0.0000       0.133182         3.6241
  81   0.0000       0.136603         3.7172

MULLIKEN ATOMIC CHARGES
-----------------------
   0 C :   -0.283717
   1 C :    0.041916
   2 O :   -0.333306
   3 C :    0.430826
   4 O :   -0.434813
   5 C :   -0.218403
   6 C :    0.172434
   7 C :   -0.269093
   8 N :   -0.126365
   9 C :    0.210321
  10 S :   -0.442535
  11 N :   -0.213561
  12 C :    0.047244
  13 C :    0.048714
  14 C :   -0.175480
  15 C :   -0.135472
  16 C :   -0.275955
  17 C :    0.316786
  18 O :   -0.357133
  19 C :   -0.246837
  20 H :    0.089605
  21 H :    0.105082
  22 H :    0.106926
  23 H :    0.086313
  24 H :    0.104534
  25 H :    0.128644
  26 H :    0.094317
  27 H :    0.133470
  28 H :    0.199694
  29 H :    0.200159
  30 H :    0.150540
  31 H :    0.152790
  32 H :    0.160090
  33 H :    0.129664
  34 H :    0.240318
  35 H :    0.162281
Sum of atomic charges:   -0.0000000

LOEWDIN ATOMIC CHARGES
----------------------
   0 C :    0.106522
   1 C :   -0.017071
   2 O :    0.311701
   3 C :   -0.412977
   4 O :    0.095090
   5 C :   -0.094386
   6 C :   -0.057140
   7 C :    0.130876
   8 N :    0.406940
   9 C :   -0.456889
  10 S :   -0.037118
  11 N :    0.394741
  12 C :   -0.055419
  13 C :   -0.039907
  14 C :    0.018835
  15 C :    0.039607
  16 C :   -0.000063
  17 C :   -0.189567
  18 O :    0.394859
  19 C :    0.033786
  20 H :   -0.031146
  21 H :   -0.024222
  22 H :   -0.023868
  23 H :   -0.031578
  24 H :   -0.026957
  25 H :   -0.005352
  26 H :   -0.023670
  27 H :   -0.004143
  28 H :   -0.057149
  29 H :   -0.064292
  30 H :   -0.015079
  31 H :   -0.030880
  32 H :   -0.021677
  33 H :   -0.035455
  34 H :   -0.154184
  35 H :   -0.022766

  Mayer bond orders larger than 0.100000
B(  0-C ,  1-C ) :   0.9728 B(  0-C , 20-H ) :   0.9787 B(  0-C , 21-H ) :   0.9790
B(  0-C , 22-H ) :   0.9735 B(  1-C ,  2-O ) :   0.9078 B(  1-C , 23-H ) :   0.9789
B(  1-C , 24-H ) :   0.9767 B(  2-O ,  3-C ) :   1.1819 B(  3-C ,  4-O ) :   1.9642
B(  3-C ,  5-C ) :   1.0743 B(  5-C ,  6-C ) :   1.6474 B(  5-C , 12-C ) :   0.9526
B(  6-C ,  7-C ) :   0.9662 B(  6-C ,  8-N ) :   1.1529 B(  7-C , 25-H ) :   0.9583
B(  7-C , 26-H ) :   0.9903 B(  7-C , 27-H ) :   0.9620 B(  8-N ,  9-C ) :   1.1879
B(  8-N , 28-H ) :   0.9463 B(  9-C , 10-S ) :   1.6060 B(  9-C , 11-N ) :   1.3083
B( 11-N , 12-C ) :   0.9714 B( 11-N , 29-H ) :   0.9484 B( 12-C , 13-C ) :   0.9666
B( 12-C , 30-H ) :   1.0011 B( 13-C , 14-C ) :   1.3575 B( 13-C , 19-C ) :   1.3805
B( 14-C , 15-C ) :   1.3950 B( 14-C , 31-H ) :   0.9701 B( 15-C , 16-C ) :   1.3604
B( 15-C , 32-H ) :   0.9705 B( 16-C , 17-C ) :   1.3333 B( 16-C , 33-H ) :   0.9852
B( 17-C , 18-O ) :   1.1038 B( 17-C , 19-C ) :   1.3658 B( 18-O , 34-H ) :   0.9801
B( 19-C , 35-H ) :   0.9596

MP2 TOTAL ENERGY:    -1274.344516606 Eh
FINAL SINGLE POINT ENERGY     -1274.344516605744

DIPOLE MOMENT
-------------
                                X             Y             Z
Electronic contribution:      7.62737      12.03653       7.98193
Nuclear contribution   :     -8.56876     -13.77378      -8.38131
                        -----------------------------------------
Total Dipole Moment    :     -0.94139      -1.73725      -0.39939
                        -----------------------------------------
Magnitude (a.u.)       :      2.01587
Magnitude (Debye)      :      5.12394

Rotational constants in cm-1:     0.011056     0.008495     0.005881
Rotational constants in MHz :   331.465379   254.687600   176.322435

                             ****ORCA TERMINATED NORMALLY****
TOTAL RUN TIME: 0 days 1 hours 38 minutes 9 seconds 878 msec
