                         Program Version 4.2.0 -  RELEASE  -
|  1> ! ri-mp2 cc-pvtz cc-pvtz/c TightSCF NoKeepInts
|  2>
|  3> %scf
|  4>   MaxCore 4096
|  5> end
|  6> *xyz  0  1
|  7>     C       14.5296635   15.1612202   15.6590647
|  8>     C       15.1235532   15.7607599   14.3640261
|  9>     O       15.9905356   16.8733686   14.6648730
| 10>     C       16.9900166   16.7306652   15.5825922
| 11>     O       17.6454372   15.7053842   15.6694237
| 12>     C       17.1056897   17.8581283   16.5664045
| 13>     C       16.8402801   19.1494280   16.2380151
| 14>     C       16.1951939   19.6710092   14.9693264
| 15>     N       17.2117821   20.1917882   17.0910142
| 16>     C       18.0325084   20.0484610   18.1773668
| 17>     S       18.5149510   21.3453339   19.0833892
| 18>     N       18.4511422   18.7732930   18.4625468
| 19>     C       17.9761655   17.5487657   17.7893385
| 20>     C       17.3347199   16.5463497   18.7396482
| 21>     C       17.7992913   15.2203789   18.8035610
| 22>     C       17.1997206   14.2941858   19.6733372
| 23>     C       16.1266214   14.6977971   20.4862843
| 24>     C       15.6599355   16.0179945   20.4223902
| 25>     O       14.6199496   16.4086939   21.2014889
| 26>     C       16.2584527   16.9373774   19.5550270
| 27>     H       15.2987666   14.6663651   16.2658441
| 28>     H       13.7684343   14.4105424   15.4148754
| 29>     H       14.0553545   15.9409163   16.2680274
| 30>     H       15.6874946   14.9831514   13.8312081
| 31>     H       14.3113928   16.0998874   13.7083674
| 32>     H       15.1532678   19.3348302   14.8980160
| 33>     H       16.7294032   19.3081173   14.0821955
| 34>     H       16.1899641   20.7664005   14.9136937
| 35>     H       16.9306524   21.1363452   16.8820144
| 36>     H       19.0383267   18.6922318   19.2830333
| 37>     H       18.9246615   17.1573506   17.3933729
| 38>     H       18.6180268   14.9035546   18.1616127
| 39>     H       17.5639356   13.2690362   19.7096072
| 40>     H       15.6596053   13.9852720   21.1579748
| 41>     H       14.3675870   15.6504539   21.7494211
| 42>     H       15.8845168   17.9551621   19.5196178
| 43> *
| 44>
| 45>                          ****END OF INPUT****

CARTESIAN COORDINATES (ANGSTROEM)
---------------------------------
  C     14.529663   15.161220   15.659065
  C     15.123553   15.760760   14.364026
  O     15.990536   16.873369   14.664873
  C     16.990017   16.730665   15.582592
  O     17.645437   15.705384   15.669424
  C     17.105690   17.858128   16.566405
  C     16.840280   19.149428   16.238015
  C     16.195194   19.671009   14.969326
  N     17.211782   20.191788   17.091014
  C     18.032508   20.048461   18.177367
  S     18.514951   21.345334   19.083389
  N     18.451142   18.773293   18.462547
  C     17.976165   17.548766   17.789338
  C     17.334720   16.546350   18.739648
  C     17.799291   15.220379   18.803561
  C     17.199721   14.294186   19.673337
  C     16.126621   14.697797   20.486284
  C     15.659935   16.017995   20.422390
  O     14.619950   16.408694   21.201489
  C     16.258453   16.937377   19.555027
  H     15.298767   14.666365   16.265844
  H     13.768434   14.410542   15.414875
  H     14.055354   15.940916   16.268027
  H     15.687495   14.983151   13.831208
  H     14.311393   16.099887   13.708367
  H     15.153268   19.334830   14.898016
  H     16.729403   19.308117   14.082195
  H     16.189964   20.766400   14.913694
  H     16.930652   21.136345   16.882014
  H     19.038327   18.692232   19.283033
  H     18.924661   17.157351   17.393373
  H     18.618027   14.903555   18.161613
  H     17.563936   13.269036   19.709607
  H     15.659605   13.985272   21.157975
  H     14.367587   15.650454   21.749421
  H     15.884517   17.955162   19.519618

 Total Charge           Charge          ....    0
 Multiplicity           Mult            ....    1
 Number of Electrons    NEL             ....  154
 Basis Dimension        Dim             ....  828

ORBITAL ENERGIES
----------------

  NO   OCC          E(Eh)            E(eV)
   0   2.0000     -91.888401     -2500.4105
   1   2.0000     -20.594799      -560.4130
   2   2.0000     -20.593434      -560.3758
   3   2.0000     -20.547361      -559.1221
   4   2.0000     -15.628824      -425.2819
   5   2.0000     -15.606256      -424.6678
   6   2.0000     -11.395194      -310.0790
   7   2.0000     -11.383138      -309.7509
   8   2.0000     -11.337726      -308.5152
   9   2.0000     -11.309622      -307.7505
  10   2.0000     -11.304796      -307.6191
  11   2.0000     -11.302465      -307.5557
  12   2.0000     -11.259945      -306.3987
  13   2.0000     -11.258865      -306.3693
  14   2.0000     -11.256615      -306.3081
  15   2.0000     -11.249741      -306.1210
  16   2.0000     -11.239855      -305.8520
  17   2.0000     -11.235864      -305.7434
  18   2.0000     -11.232615      -305.6550
  19   2.0000     -11.227116      -305.5053
  20   2.0000      -8.893481      -242.0039
  21   2.0000      -6.575057      -178.9164
  22   2.0000      -6.573055      -178.8619
  23   2.0000      -6.572467      -178.8459
  24   2.0000      -1.451214       -39.4895
  25   2.0000      -1.413194       -38.4550
  26   2.0000      -1.355921       -36.8965
  27   2.0000      -1.339992       -36.4630
  28   2.0000      -1.237299       -33.6686
  29   2.0000      -1.154092       -31.4044
  30   2.0000      -1.121375       -30.5142
  31   2.0000      -1.042979       -28.3809
  32   2.0000      -1.032357       -28.0919
  33   2.0000      -1.011552       -27.5257
  34   2.0000      -0.999482       -27.1973
  35   2.0000      -0.984630       -26.7932
  36   2.0000      -0.921862       -25.0851
  37   2.0000      -0.896129       -24.3849
  38   2.0000      -0.847953       -23.0740
  39   2.0000      -0.836269       -22.7560
  40   2.0000      -0.829813       -22.5804
  41   2.0000      -0.816178       -22.2093
  42   2.0000      -0.748526       -20.3684
  43   2.0000      -0.734892       -19.9974
  44   2.0000      -0.727109       -19.7856
  45   2.0000      -0.691650       -18.8208
  46   2.0000      -0.686053       -18.6685
  47   2.0000      -0.678187       -18.4544
  48   2.0000      -0.669938       -18.2299
  49   2.0000      -0.658388       -17.9156
  50   2.0000      -0.653024       -17.7697
  51   2.0000      -0.645411       -17.5625
  52   2.0000      -0.632617       -17.2144
  53   2.0000      -0.615690       -16.7538
  54   2.0000      -0.603736       -16.4285
  55   2.0000      -0.599575       -16.3153
  56   2.0000      -0.596764       -16.2388
  57   2.0000      -0.578555       -15.7433
  58   2.0000      -0.574370       -15.6294
  59   2.0000      -0.563233       -15.3263
  60   2.0000      -0.554238       -15.0816
  61   2.0000      -0.548291       -14.9197
  62   2.0000      -0.536194       -14.5906
  63   2.0000      -0.532003       -14.4765
  64   2.0000      -0.517440       -14.0803
  65   2.0000      -0.509630       -13.8677
  66   2.0000      -0.497797       -13.5458
  67   2.0000      -0.493973       -13.4417
  68   2.0000      -0.480878       -13.0853
  69   2.0000      -0.463737       -12.6189
  70   2.0000      -0.458942       -12.4884
  71   2.0000      -0.449807       -12.2399
  72   2.0000      -0.353197        -9.6110
  73   2.0000      -0.346156        -9.4194
  74   2.0000      -0.327493        -8.9115
  75   2.0000      -0.317564        -8.6414
  76   2.0000      -0.316330        -8.6078
  77   0.0000       0.075626         2.0579
  78   0.0000       0.108752         2.9593
  79   0.0000       0.120535         3.2799
  80   0.0000       0.134430         3.6580
  81   0.0000       0.141478         3.8498

MULLIKEN ATOMIC CHARGES
-----------------------
   0 C :   -0.316534
   1 C :    0.042472
   2 O :   -0.368079
   3 C :    0.434262
   4 O :   -0.415700
   5 C :   -0.169458
   6 C :    0.150975
   7 C :   -0.279959
   8 N :   -0.128013
   9 C :    0.208189
  10 S :   -0.441776
  11 N :   -0.211853
  12 C :    0.046414
  13 C :    0.030910
  14 C :   -0.178129
  15 C :   -0.134072
  16 C :   -0.277913
  17 C :    0.315212
  18 O :   -0.358674
  19 C :   -0.251787
  20 H :    0.126725
  21 H :    0.101918
  22 H :    0.097601
  23 H :    0.104516
  24 H :    0.106265
  25 H :    0.126715
  26 H :    0.126917
  27 H :    0.101329
  28 H :    0.198776
  29 H :    0.199644
  30 H :    0.155989
  31 H :    0.161857
  32 H :    0.161246
  33 H :    0.129238
  34 H :    0.240179
  35 H :    0.164599
Sum of atomic charges:   -0.0000000

LOEWDIN ATOMIC CHARGES
----------------------
   0 C :    0.105980
   1 C :   -0.016083
   2 O :    0.296072
   3 C :   -0.417068
   4 O :    0.110418
   5 C :   -0.093297
   6 C :   -0.065410
   7 C :    0.125986
   8 N :    0.405491
   9 C :   -0.457869
  10 S :   -0.037330
  11 N :    0.396251
  12 C :   -0.048147
  13 C :   -0.041070
  14 C :    0.024119
  15 C :    0.040365
  16 C :   -0.001164
  17 C :   -0.192621
  18 O :    0.393362
  19 C :    0.029850
  20 H :   -0.023067
  21 H :   -0.025418
  22 H :   -0.028668
  23 H :   -0.028240
  24 H :   -0.024973
  25 H :   -0.009741
  26 H :   -0.008281
  27 H :   -0.021089
  28 H :   -0.058575
  29 H :   -0.063423
  30 H :   -0.007767
  31 H :   -0.023651
  32 H :   -0.020759
  33 H :   -0.035909
  34 H :   -0.154613
  35 H :   -0.023664

  Mayer bond orders larger than 0.100000
B(  0-C ,  1-C ) :   0.9574 B(  0-C , 20-H ) :   0.9698 B(  0-C , 21-H ) :   0.9765
B(  0-C , 22-H ) :   0.9749 B(  1-C ,  2-O ) :   0.9028 B(  1-C , 23-H ) :   0.9826
B(  1-C , 24-H ) :   0.9833 B(  2-O ,  3-C ) :   1.0969 B(  3-C ,  4-O ) :   2.0029
B(  3-C ,  5-C ) :   1.0334 B(  5-C ,  6-C ) :   1.6584 B(  5-C , 12-C ) :   0.9486
B(  6-C ,  7-C ) :   0.9559 B(  6-C ,  8-N ) :   1.1382 B(  7-C , 25-H ) :   0.9638
B(  7-C , 26-H ) :   0.9653 B(  7-C , 27-H ) :   0.9902 B(  8-N ,  9-C ) :   1.1853
B(  8-N , 28-H ) :   0.9470 B(  9-C , 10-S ) :   1.6095 B(  9-C , 11-N ) :   1.3045
B( 11-N , 12-C ) :   0.9783 B( 11-N , 29-H ) :   0.9485 B( 12-C , 13-C ) :   0.9689
B( 12-C , 30-H ) :   0.9958 B( 13-C , 14-C ) :   1.3775 B( 13-C , 19-C ) :   1.3657
B( 14-C , 15-C ) :   1.3959 B( 14-C , 31-H ) :   0.9627 B( 15-C , 16-C ) :   1.3593
B( 15-C , 32-H ) :   0.9708 B( 16-C , 17-C ) :   1.3328 B( 16-C , 33-H ) :   0.9856
B( 17-C , 18-O ) :   1.1044 B( 17-C , 19-C ) :   1.3662 B( 18-O , 34-H ) :   0.9804
B( 19-C , 35-H ) :   0.9598

MP2 TOTAL ENERGY:    -1274.335473850 Eh
FINAL SINGLE POINT ENERGY     -1274.335473849782

DIPOLE MOMENT
-------------
                                X             Y             Z
Electronic contribution:      9.35136       9.76682       8.53175
Nuclear contribution   :    -10.77843     -11.07348      -9.51789
                        -----------------------------------------
Total Dipole Moment    :     -1.42707      -1.30666      -0.98614
                        -----------------------------------------
Magnitude (a.u.)       :      2.17172
Magnitude (Debye)      :      5.52007

Rotational constants in cm-1:     0.010804     0.009236     0.005989
Rotational constants in MHz :   323.888342   276.881404   179.532418

                             ****ORCA TERMINATED NORMALLY****
TOTAL RUN TIME: 0 days 1 hours 40 minutes 10 seconds 451 msec
