                         Program Version 4.2.0 -  RELEASE  -
|  1> ! ri-mp2 cc-pvtz cc-pvtz/c TightSCF NoKeepInts
|  2>
|  3> %scf
|  4>   MaxCore 4096
|  5> end
|  6> *xyz  0  1
|  7>     C       13.8245387   16.5366964   15.3203362
|  8>     C       15.1188686   15.7204182   15.4743067
|  9>     O       16.1837064   16.3982379   14.7817638
| 10>     C       17.3216002   16.6252330   15.4951352
| 11>     O       18.2891555   15.8901851   15.4199816
| 12>     C       17.1897648   17.7089177   16.5148281
| 13>     C       16.7444146   18.9396731   16.1625042
| 14>     C       16.1712373   19.3517527   14.8208813
| 15>     N       16.8841446   20.0229657   17.0326070
| 16>     C       17.6588795   20.0071199   18.1625250
| 17>     S       17.8689105   21.3570967   19.0942258
| 18>     N       18.2717167   18.8167031   18.4688277
| 19>     C       18.0375509   17.5346094   17.7747013
| 20>     C       17.5251003   16.4177743   18.6721409
| 21>     C       18.1191508   15.1438130   18.6316202
| 22>     C       17.6337343   14.1034890   19.4413656
| 23>     C       16.5432221   14.3388948   20.2962400
| 24>     C       15.9453184   15.6060960   20.3335138
| 25>     O       14.8857287   15.8334463   21.1497310
| 26>     C       16.4296529   16.6393582   19.5248927
| 27>     H       13.8808856   17.4681064   15.8955385
| 28>     H       12.9671273   15.9637245   15.6942499
| 29>     H       13.6398556   16.7800521   14.2664566
| 30>     H       15.3471118   15.5895658   16.5420213
| 31>     H       14.9814988   14.7234154   15.0354018
| 32>     H       16.7075045   18.8697675   13.9935476
| 33>     H       16.2469326   20.4330779   14.6518418
| 34>     H       15.1144584   19.0770325   14.7382886
| 35>     H       16.4660955   20.9108152   16.8034937
| 36>     H       18.8294953   18.8301542   19.3135848
| 37>     H       19.0556130   17.3090122   17.4237518
| 38>     H       18.9535529   14.9573138   17.9585041
| 39>     H       18.1004822   13.1206773   19.4004500
| 40>     H       16.1646899   13.5376550   20.9224034
| 41>     H       14.7330292   15.0241517   21.6606559
| 42>     H       15.9522718   17.6129982   19.5656821
| 43> *
| 44>
| 45>                          ****END OF INPUT****

CARTESIAN COORDINATES (ANGSTROEM)
---------------------------------
  C     13.824539   16.536696   15.320336
  C     15.118869   15.720418   15.474307
  O     16.183706   16.398238   14.781764
  C     17.321600   16.625233   15.495135
  O     18.289155   15.890185   15.419982
  C     17.189765   17.708918   16.514828
  C     16.744415   18.939673   16.162504
  C     16.171237   19.351753   14.820881
  N     16.884145   20.022966   17.032607
  C     17.658879   20.007120   18.162525
  S     17.868910   21.357097   19.094226
  N     18.271717   18.816703   18.468828
  C     18.037551   17.534609   17.774701
  C     17.525100   16.417774   18.672141
  C     18.119151   15.143813   18.631620
  C     17.633734   14.103489   19.441366
  C     16.543222   14.338895   20.296240
  C     15.945318   15.606096   20.333514
  O     14.885729   15.833446   21.149731
  C     16.429653   16.639358   19.524893
  H     13.880886   17.468106   15.895539
  H     12.967127   15.963724   15.694250
  H     13.639856   16.780052   14.266457
  H     15.347112   15.589566   16.542021
  H     14.981499   14.723415   15.035402
  H     16.707504   18.869767   13.993548
  H     16.246933   20.433078   14.651842
  H     15.114458   19.077032   14.738289
  H     16.466096   20.910815   16.803494
  H     18.829495   18.830154   19.313585
  H     19.055613   17.309012   17.423752
  H     18.953553   14.957314   17.958504
  H     18.100482   13.120677   19.400450
  H     16.164690   13.537655   20.922403
  H     14.733029   15.024152   21.660656
  H     15.952272   17.612998   19.565682

 Total Charge           Charge          ....    0
 Multiplicity           Mult            ....    1
 Number of Electrons    NEL             ....  154
 Basis Dimension        Dim             ....  828

ORBITAL ENERGIES
----------------

  NO   OCC          E(Eh)            E(eV)
   0   2.0000     -91.890080     -2500.4562
   1   2.0000     -20.598440      -560.5120
   2   2.0000     -20.587728      -560.2206
   3   2.0000     -20.556080      -559.3594
   4   2.0000     -15.629413      -425.2980
   5   2.0000     -15.608726      -424.7350
   6   2.0000     -11.394661      -310.0645
   7   2.0000     -11.385527      -309.8159
   8   2.0000     -11.336489      -308.4815
   9   2.0000     -11.315448      -307.9090
  10   2.0000     -11.307887      -307.7032
  11   2.0000     -11.305241      -307.6313
  12   2.0000     -11.262455      -306.4670
  13   2.0000     -11.261783      -306.4487
  14   2.0000     -11.259462      -306.3855
  15   2.0000     -11.255492      -306.2775
  16   2.0000     -11.244989      -305.9917
  17   2.0000     -11.241011      -305.8835
  18   2.0000     -11.237822      -305.7967
  19   2.0000     -11.236265      -305.7543
  20   2.0000      -8.895165      -242.0497
  21   2.0000      -6.576740      -178.9622
  22   2.0000      -6.574736      -178.9077
  23   2.0000      -6.574147      -178.8916
  24   2.0000      -1.451599       -39.5000
  25   2.0000      -1.418194       -38.5910
  26   2.0000      -1.361680       -37.0532
  27   2.0000      -1.341138       -36.4942
  28   2.0000      -1.238941       -33.7133
  29   2.0000      -1.159609       -31.5546
  30   2.0000      -1.124777       -30.6067
  31   2.0000      -1.047164       -28.4948
  32   2.0000      -1.038831       -28.2680
  33   2.0000      -1.017106       -27.6769
  34   2.0000      -1.003121       -27.2963
  35   2.0000      -0.988783       -26.9061
  36   2.0000      -0.924914       -25.1682
  37   2.0000      -0.885183       -24.0870
  38   2.0000      -0.850987       -23.1565
  39   2.0000      -0.841621       -22.9017
  40   2.0000      -0.835426       -22.7331
  41   2.0000      -0.833025       -22.6678
  42   2.0000      -0.759770       -20.6744
  43   2.0000      -0.737177       -20.0596
  44   2.0000      -0.730626       -19.8813
  45   2.0000      -0.696041       -18.9402
  46   2.0000      -0.687349       -18.7037
  47   2.0000      -0.684767       -18.6335
  48   2.0000      -0.675311       -18.3762
  49   2.0000      -0.659656       -17.9501
  50   2.0000      -0.653472       -17.7819
  51   2.0000      -0.641559       -17.4577
  52   2.0000      -0.633429       -17.2365
  53   2.0000      -0.616768       -16.7831
  54   2.0000      -0.608424       -16.5561
  55   2.0000      -0.604593       -16.4518
  56   2.0000      -0.601841       -16.3769
  57   2.0000      -0.580224       -15.7887
  58   2.0000      -0.576257       -15.6807
  59   2.0000      -0.575405       -15.6576
  60   2.0000      -0.562310       -15.3012
  61   2.0000      -0.554660       -15.0931
  62   2.0000      -0.547295       -14.8926
  63   2.0000      -0.524373       -14.2689
  64   2.0000      -0.519754       -14.1432
  65   2.0000      -0.513280       -13.9671
  66   2.0000      -0.502158       -13.6644
  67   2.0000      -0.498352       -13.5609
  68   2.0000      -0.486897       -13.2491
  69   2.0000      -0.467768       -12.7286
  70   2.0000      -0.460143       -12.5211
  71   2.0000      -0.452854       -12.3228
  72   2.0000      -0.355748        -9.6804
  73   2.0000      -0.350948        -9.5498
  74   2.0000      -0.329322        -8.9613
  75   2.0000      -0.322756        -8.7826
  76   2.0000      -0.319652        -8.6982
  77   0.0000       0.076612         2.0847
  78   0.0000       0.103440         2.8147
  79   0.0000       0.120080         3.2675
  80   0.0000       0.130885         3.5616
  81   0.0000       0.133309         3.6275

MULLIKEN ATOMIC CHARGES
-----------------------
   0 C :   -0.300574
   1 C :    0.033385
   2 O :   -0.364341
   3 C :    0.454464
   4 O :   -0.377050
   5 C :   -0.222660
   6 C :    0.136272
   7 C :   -0.295250
   8 N :   -0.132050
   9 C :    0.206608
  10 S :   -0.440512
  11 N :   -0.217239
  12 C :    0.064909
  13 C :    0.008689
  14 C :   -0.195238
  15 C :   -0.131461
  16 C :   -0.277035
  17 C :    0.311956
  18 O :   -0.356752
  19 C :   -0.243660
  20 H :    0.092715
  21 H :    0.113459
  22 H :    0.104244
  23 H :    0.101264
  24 H :    0.118375
  25 H :    0.131614
  26 H :    0.112232
  27 H :    0.124110
  28 H :    0.198474
  29 H :    0.200561
  30 H :    0.161377
  31 H :    0.172048
  32 H :    0.163588
  33 H :    0.131891
  34 H :    0.241045
  35 H :    0.170542
Sum of atomic charges:   -0.0000000

LOEWDIN ATOMIC CHARGES
----------------------
   0 C :    0.105050
   1 C :   -0.014510
   2 O :    0.292604
   3 C :   -0.424851
   4 O :    0.129741
   5 C :   -0.095537
   6 C :   -0.075096
   7 C :    0.128248
   8 N :    0.404654
   9 C :   -0.456716
  10 S :   -0.036547
  11 N :    0.395605
  12 C :   -0.049278
  13 C :   -0.044280
  14 C :    0.021281
  15 C :    0.043095
  16 C :   -0.000602
  17 C :   -0.193005
  18 O :    0.394472
  19 C :    0.027039
  20 H :   -0.032252
  21 H :   -0.022466
  22 H :   -0.025803
  23 H :   -0.026950
  24 H :   -0.024978
  25 H :   -0.006631
  26 H :   -0.017450
  27 H :   -0.014368
  28 H :   -0.057976
  29 H :   -0.063889
  30 H :   -0.005792
  31 H :   -0.021873
  32 H :   -0.019175
  33 H :   -0.035017
  34 H :   -0.153498
  35 H :   -0.023247

  Mayer bond orders larger than 0.100000
B(  0-C ,  1-C ) :   0.9710 B(  0-C , 20-H ) :   0.9774 B(  0-C , 21-H ) :   0.9779
B(  0-C , 22-H ) :   0.9742 B(  1-C ,  2-O ) :   0.8944 B(  1-C , 23-H ) :   0.9636
B(  1-C , 24-H ) :   0.9836 B(  2-O ,  3-C ) :   1.0945 B(  3-C ,  4-O ) :   2.0891
B(  3-C ,  5-C ) :   0.9601 B(  5-C ,  6-C ) :   1.7012 B(  5-C , 12-C ) :   0.9401
B(  6-C ,  7-C ) :   0.9476 B(  6-C ,  8-N ) :   1.1248 B(  7-C , 25-H ) :   0.9684
B(  7-C , 26-H ) :   0.9875 B(  7-C , 27-H ) :   0.9648 B(  8-N ,  9-C ) :   1.1901
B(  8-N , 28-H ) :   0.9486 B(  9-C , 10-S ) :   1.6124 B(  9-C , 11-N ) :   1.2955
B( 11-N , 12-C ) :   0.9828 B( 11-N , 29-H ) :   0.9484 B( 12-C , 13-C ) :   0.9667
B( 12-C , 30-H ) :   0.9924 B( 13-C , 14-C ) :   1.3853 B( 13-C , 19-C ) :   1.3567
B( 14-C , 15-C ) :   1.3956 B( 14-C , 31-H ) :   0.9596 B( 15-C , 16-C ) :   1.3615
B( 15-C , 32-H ) :   0.9703 B( 16-C , 17-C ) :   1.3309 B( 16-C , 33-H ) :   0.9846
B( 17-C , 18-O ) :   1.1084 B( 17-C , 19-C ) :   1.3664 B( 18-O , 34-H ) :   0.9796
B( 19-C , 35-H ) :   0.9579

MP2 TOTAL ENERGY:    -1274.324920486 Eh
FINAL SINGLE POINT ENERGY     -1274.324920485546

DIPOLE MOMENT
-------------
                                X             Y             Z
Electronic contribution:     10.42600       6.64442       8.10874
Nuclear contribution   :    -11.81958      -7.97914      -8.54617
                        -----------------------------------------
Total Dipole Moment    :     -1.39358      -1.33472      -0.43742
                        -----------------------------------------
Magnitude (a.u.)       :      1.97861
Magnitude (Debye)      :      5.02923

Rotational constants in cm-1:     0.010915     0.009147     0.006422
Rotational constants in MHz :   327.210180   274.210969   192.528369

                             ****ORCA TERMINATED NORMALLY****
TOTAL RUN TIME: 0 days 1 hours 56 minutes 23 seconds 436 msec
