                         Program Version 4.2.0 -  RELEASE  -
|  1> ! ri-mp2 cc-pvtz cc-pvtz/c TightSCF NoKeepInts
|  2>
|  3> %scf
|  4>   MaxCore 4096
|  5> end
|  6> *xyz  0  1
|  7>     C       14.3269284   15.4915406   13.3985253
|  8>     C       14.8748249   15.3205340   14.8252874
|  9>     O       15.7464907   16.4344801   15.0841193
| 10>     C       16.7407358   16.3019627   16.0091901
| 11>     O       17.2285637   15.2197592   16.2902965
| 12>     C       17.0734260   17.5600587   16.7612801
| 13>     C       16.9579658   18.7982088   16.2110417
| 14>     C       16.2882389   19.1811178   14.9055815
| 15>     N       17.5318673   19.9106747   16.8319905
| 16>     C       18.4174878   19.8462415   17.8734947
| 17>     S       19.1441605   21.1996727   18.4864482
| 18>     N       18.6880158   18.5953749   18.3669001
| 19>     C       17.9946166   17.3543101   17.9709834
| 20>     C       17.3187138   16.6469532   19.1382770
| 21>     C       17.6211172   15.3062504   19.4372242
| 22>     C       16.9986340   14.6566677   20.5163807
| 23>     C       16.0669095   15.3543866   21.3040801
| 24>     C       15.7624039   16.6900292   21.0071122
| 25>     O       14.8602642   17.3647947   21.7635406
| 26>     C       16.3832428   17.3336114   19.9317971
| 27>     H       13.7650612   16.4294805   13.3090315
| 28>     H       13.6555906   14.6627319   13.1427572
| 29>     H       15.1466564   15.5064254   12.6693532
| 30>     H       14.0585628   15.2921671   15.5589230
| 31>     H       15.4221211   14.3690278   14.8747275
| 32>     H       16.7157358   18.6166678   14.0673228
| 33>     H       16.3999855   20.2453271   14.6648665
| 34>     H       15.2127465   18.9674210   14.9442745
| 35>     H       17.3603439   20.8335863   16.4664013
| 36>     H       19.3277033   18.5771878   19.1511485
| 37>     H       18.8461712   16.7644530   17.6015896
| 38>     H       18.3304543   14.7617678   18.8183401
| 39>     H       17.2357507   13.6168539   20.7340680
| 40>     H       15.5828714   14.8560812   22.1373356
| 41>     H       14.5649456   16.7655095   22.4652567
| 42>     H       16.1376918   18.3686830   19.7190533
| 43> *
| 44>
| 45>                          ****END OF INPUT****

CARTESIAN COORDINATES (ANGSTROEM)
---------------------------------
  C     14.326928   15.491541   13.398525
  C     14.874825   15.320534   14.825287
  O     15.746491   16.434480   15.084119
  C     16.740736   16.301963   16.009190
  O     17.228564   15.219759   16.290297
  C     17.073426   17.560059   16.761280
  C     16.957966   18.798209   16.211042
  C     16.288239   19.181118   14.905581
  N     17.531867   19.910675   16.831990
  C     18.417488   19.846242   17.873495
  S     19.144160   21.199673   18.486448
  N     18.688016   18.595375   18.366900
  C     17.994617   17.354310   17.970983
  C     17.318714   16.646953   19.138277
  C     17.621117   15.306250   19.437224
  C     16.998634   14.656668   20.516381
  C     16.066910   15.354387   21.304080
  C     15.762404   16.690029   21.007112
  O     14.860264   17.364795   21.763541
  C     16.383243   17.333611   19.931797
  H     13.765061   16.429481   13.309031
  H     13.655591   14.662732   13.142757
  H     15.146656   15.506425   12.669353
  H     14.058563   15.292167   15.558923
  H     15.422121   14.369028   14.874727
  H     16.715736   18.616668   14.067323
  H     16.399985   20.245327   14.664866
  H     15.212746   18.967421   14.944274
  H     17.360344   20.833586   16.466401
  H     19.327703   18.577188   19.151149
  H     18.846171   16.764453   17.601590
  H     18.330454   14.761768   18.818340
  H     17.235751   13.616854   20.734068
  H     15.582871   14.856081   22.137336
  H     14.564946   16.765510   22.465257
  H     16.137692   18.368683   19.719053

 Total Charge           Charge          ....    0
 Multiplicity           Mult            ....    1
 Number of Electrons    NEL             ....  154
 Basis Dimension        Dim             ....  828

ORBITAL ENERGIES
----------------

  NO   OCC          E(Eh)            E(eV)
   0   2.0000     -91.887966     -2500.3987
   1   2.0000     -20.600982      -560.5812
   2   2.0000     -20.591575      -560.3252
   3   2.0000     -20.546136      -559.0888
   4   2.0000     -15.628571      -425.2750
   5   2.0000     -15.605551      -424.6486
   6   2.0000     -11.395327      -310.0826
   7   2.0000     -11.382495      -309.7334
   8   2.0000     -11.338181      -308.5276
   9   2.0000     -11.307524      -307.6934
  10   2.0000     -11.304019      -307.5980
  11   2.0000     -11.299132      -307.4650
  12   2.0000     -11.260560      -306.4154
  13   2.0000     -11.259133      -306.3766
  14   2.0000     -11.254768      -306.2578
  15   2.0000     -11.247566      -306.0618
  16   2.0000     -11.237793      -305.7959
  17   2.0000     -11.234053      -305.6941
  18   2.0000     -11.233920      -305.6905
  19   2.0000     -11.230644      -305.6014
  20   2.0000      -8.893050      -241.9922
  21   2.0000      -6.574627      -178.9047
  22   2.0000      -6.572624      -178.8502
  23   2.0000      -6.572036      -178.8342
  24   2.0000      -1.454125       -39.5688
  25   2.0000      -1.411319       -38.4039
  26   2.0000      -1.357493       -36.9393
  27   2.0000      -1.339832       -36.4587
  28   2.0000      -1.236935       -33.6587
  29   2.0000      -1.152154       -31.3517
  30   2.0000      -1.120699       -30.4958
  31   2.0000      -1.044791       -28.4302
  32   2.0000      -1.036707       -28.2102
  33   2.0000      -1.009691       -27.4751
  34   2.0000      -0.998619       -27.1738
  35   2.0000      -0.983741       -26.7689
  36   2.0000      -0.920481       -25.0476
  37   2.0000      -0.887266       -24.1437
  38   2.0000      -0.847086       -23.0504
  39   2.0000      -0.834793       -22.7159
  40   2.0000      -0.827794       -22.5254
  41   2.0000      -0.819776       -22.3072
  42   2.0000      -0.761840       -20.7307
  43   2.0000      -0.736153       -20.0317
  44   2.0000      -0.725982       -19.7550
  45   2.0000      -0.689695       -18.7676
  46   2.0000      -0.685083       -18.6421
  47   2.0000      -0.680223       -18.5098
  48   2.0000      -0.674856       -18.3638
  49   2.0000      -0.654135       -17.7999
  50   2.0000      -0.651733       -17.7345
  51   2.0000      -0.639887       -17.4122
  52   2.0000      -0.631626       -17.1874
  53   2.0000      -0.610647       -16.6166
  54   2.0000      -0.603061       -16.4101
  55   2.0000      -0.598258       -16.2794
  56   2.0000      -0.594872       -16.1873
  57   2.0000      -0.578289       -15.7360
  58   2.0000      -0.572888       -15.5891
  59   2.0000      -0.562474       -15.3057
  60   2.0000      -0.562158       -15.2971
  61   2.0000      -0.546376       -14.8676
  62   2.0000      -0.541656       -14.7392
  63   2.0000      -0.528451       -14.3799
  64   2.0000      -0.515709       -14.0332
  65   2.0000      -0.508734       -13.8434
  66   2.0000      -0.501162       -13.6373
  67   2.0000      -0.493816       -13.4374
  68   2.0000      -0.481221       -13.0947
  69   2.0000      -0.463204       -12.6044
  70   2.0000      -0.462596       -12.5879
  71   2.0000      -0.450990       -12.2721
  72   2.0000      -0.353074        -9.6076
  73   2.0000      -0.344306        -9.3690
  74   2.0000      -0.327031        -8.8990
  75   2.0000      -0.317145        -8.6299
  76   2.0000      -0.314158        -8.5487
  77   0.0000       0.076306         2.0764
  78   0.0000       0.111719         3.0400
  79   0.0000       0.120827         3.2879
  80   0.0000       0.135558         3.6887
  81   0.0000       0.138389         3.7658

MULLIKEN ATOMIC CHARGES
-----------------------
   0 C :   -0.268871
   1 C :    0.029296
   2 O :   -0.347364
   3 C :    0.434511
   4 O :   -0.418337
   5 C :   -0.178628
   6 C :    0.155062
   7 C :   -0.284050
   8 N :   -0.128728
   9 C :    0.207685
  10 S :   -0.442422
  11 N :   -0.210639
  12 C :    0.040544
  13 C :    0.032432
  14 C :   -0.167253
  15 C :   -0.134279
  16 C :   -0.277172
  17 C :    0.313935
  18 O :   -0.359160
  19 C :   -0.251355
  20 H :    0.091198
  21 H :    0.095804
  22 H :    0.098513
  23 H :    0.091805
  24 H :    0.115751
  25 H :    0.125832
  26 H :    0.103261
  27 H :    0.128530
  28 H :    0.198805
  29 H :    0.199943
  30 H :    0.155405
  31 H :    0.158757
  32 H :    0.159861
  33 H :    0.128121
  34 H :    0.239905
  35 H :    0.163302
Sum of atomic charges:   -0.0000000

LOEWDIN ATOMIC CHARGES
----------------------
   0 C :    0.106096
   1 C :   -0.014296
   2 O :    0.304418
   3 C :   -0.414888
   4 O :    0.106997
   5 C :   -0.092313
   6 C :   -0.064385
   7 C :    0.125167
   8 N :    0.405478
   9 C :   -0.458616
  10 S :   -0.037664
  11 N :    0.396427
  12 C :   -0.048293
  13 C :   -0.040545
  14 C :    0.025075
  15 C :    0.041019
  16 C :   -0.001217
  17 C :   -0.192605
  18 O :    0.392997
  19 C :    0.029529
  20 H :   -0.030134
  21 H :   -0.023991
  22 H :   -0.025594
  23 H :   -0.031124
  24 H :   -0.027002
  25 H :   -0.009284
  26 H :   -0.021126
  27 H :   -0.009958
  28 H :   -0.058731
  29 H :   -0.063128
  30 H :   -0.008217
  31 H :   -0.023978
  32 H :   -0.021069
  33 H :   -0.036206
  34 H :   -0.154902
  35 H :   -0.023936

  Mayer bond orders larger than 0.100000
B(  0-C ,  1-C ) :   0.9741 B(  0-C , 20-H ) :   0.9793 B(  0-C , 21-H ) :   0.9770
B(  0-C , 22-H ) :   0.9776 B(  1-C ,  2-O ) :   0.8992 B(  1-C , 23-H ) :   0.9756
B(  1-C , 24-H ) :   0.9754 B(  2-O ,  3-C ) :   1.1309 B(  3-C ,  4-O ) :   1.9988
B(  3-C ,  5-C ) :   1.0394 B(  5-C ,  6-C ) :   1.6556 B(  5-C , 12-C ) :   0.9485
B(  6-C ,  7-C ) :   0.9543 B(  6-C ,  8-N ) :   1.1353 B(  7-C , 25-H ) :   0.9651
B(  7-C , 26-H ) :   0.9918 B(  7-C , 27-H ) :   0.9633 B(  8-N ,  9-C ) :   1.1851
B(  8-N , 28-H ) :   0.9469 B(  9-C , 10-S ) :   1.6082 B(  9-C , 11-N ) :   1.3064
B( 11-N , 12-C ) :   0.9763 B( 11-N , 29-H ) :   0.9485 B( 12-C , 13-C ) :   0.9735
B( 12-C , 30-H ) :   0.9970 B( 13-C , 14-C ) :   1.3770 B( 13-C , 19-C ) :   1.3654
B( 14-C , 15-C ) :   1.3975 B( 14-C , 31-H ) :   0.9638 B( 15-C , 16-C ) :   1.3587
B( 15-C , 32-H ) :   0.9712 B( 16-C , 17-C ) :   1.3333 B( 16-C , 33-H ) :   0.9860
B( 17-C , 18-O ) :   1.1034 B( 17-C , 19-C ) :   1.3677 B( 18-O , 34-H ) :   0.9807
B( 19-C , 35-H ) :   0.9603

MP2 TOTAL ENERGY:    -1274.338137742 Eh
FINAL SINGLE POINT ENERGY     -1274.338137741682

DIPOLE MOMENT
-------------
                                X             Y             Z
Electronic contribution:     10.49217       9.04656      12.61384
Nuclear contribution   :    -12.04978     -10.31830     -13.53917
                        -----------------------------------------
Total Dipole Moment    :     -1.55761      -1.27174      -0.92533
                        -----------------------------------------
Magnitude (a.u.)       :      2.21352
Magnitude (Debye)      :      5.62633

Rotational constants in cm-1:     0.009882     0.008753     0.005448
Rotational constants in MHz :   296.251941   262.396438   163.341701

                             ****ORCA TERMINATED NORMALLY****
TOTAL RUN TIME: 0 days 1 hours 38 minutes 3 seconds 145 msec
