                         Program Version 4.2.0 -  RELEASE  -
|  1> ! ri-mp2 cc-pvtz cc-pvtz/c TightSCF NoKeepInts
|  2>
|  3> %scf
|  4>   MaxCore 4096
|  5> end
|  6> *xyz  0  1
|  7>     C       14.6472659   14.8765637   16.0338628
|  8>     C       15.9128716   14.8545615   15.1529836
|  9>     O       16.8069989   15.8960675   15.5853314
| 10>     C       16.4740445   17.2034443   15.3673403
| 11>     O       15.7937156   17.5432519   14.4140934
| 12>     C       16.9555901   18.1180348   16.4612181
| 13>     C       16.9509692   19.4653706   16.2934004
| 14>     C       16.2720554   20.2478480   15.1882831
| 15>     N       17.6308131   20.3033669   17.1802246
| 16>     C       18.4913544   19.8678169   18.1512496
| 17>     S       19.3371680   20.9191128   19.1078846
| 18>     N       18.6335447   18.5090848   18.2766879
| 19>     C       17.8480903   17.4952247   17.5479500
| 20>     C       17.1164444   16.5395978   18.4814265
| 21>     C       17.5593011   15.2133109   18.6385915
| 22>     C       16.8809912   14.3316618   19.4970085
| 23>     C       15.7529741   14.7812211   20.2048458
| 24>     C       15.3131128   16.1036057   20.0530837
| 25>     O       14.2242195   16.5399680   20.7347358
| 26>     C       15.9904479   16.9787326   19.1982720
| 27>     H       14.9108424   14.7842985   17.0947343
| 28>     H       13.9855679   14.0420968   15.7726735
| 29>     H       14.0852509   15.8086830   15.8955637
| 30>     H       16.4097242   13.8821985   15.2624944
| 31>     H       15.6450893   14.9840873   14.0953396
| 32>     H       16.7245166   20.0159614   14.2156774
| 33>     H       16.3308942   21.3333175   15.3306031
| 34>     H       15.2084798   19.9838583   15.1260890
| 35>     H       17.5523584   21.3031858   17.0842864
| 36>     H       19.2506280   18.2176841   19.0241339
| 37>     H       18.6514138   16.9720329   17.0100396
| 38>     H       18.4274151   14.8634147   18.0863310
| 39>     H       17.2290828   13.3064983   19.6110215
| 40>     H       15.2257433   14.1041635   20.8689017
| 41>     H       13.9185144   15.8103940   21.2943608
| 42>     H       15.6395060   18.0002791   19.0972760
| 43> *
| 44>
| 45>                          ****END OF INPUT****

CARTESIAN COORDINATES (ANGSTROEM)
---------------------------------
  C     14.647266   14.876564   16.033863
  C     15.912872   14.854562   15.152984
  O     16.806999   15.896067   15.585331
  C     16.474045   17.203444   15.367340
  O     15.793716   17.543252   14.414093
  C     16.955590   18.118035   16.461218
  C     16.950969   19.465371   16.293400
  C     16.272055   20.247848   15.188283
  N     17.630813   20.303367   17.180225
  C     18.491354   19.867817   18.151250
  S     19.337168   20.919113   19.107885
  N     18.633545   18.509085   18.276688
  C     17.848090   17.495225   17.547950
  C     17.116444   16.539598   18.481427
  C     17.559301   15.213311   18.638592
  C     16.880991   14.331662   19.497008
  C     15.752974   14.781221   20.204846
  C     15.313113   16.103606   20.053084
  O     14.224220   16.539968   20.734736
  C     15.990448   16.978733   19.198272
  H     14.910842   14.784299   17.094734
  H     13.985568   14.042097   15.772673
  H     14.085251   15.808683   15.895564
  H     16.409724   13.882198   15.262494
  H     15.645089   14.984087   14.095340
  H     16.724517   20.015961   14.215677
  H     16.330894   21.333317   15.330603
  H     15.208480   19.983858   15.126089
  H     17.552358   21.303186   17.084286
  H     19.250628   18.217684   19.024134
  H     18.651414   16.972033   17.010040
  H     18.427415   14.863415   18.086331
  H     17.229083   13.306498   19.611021
  H     15.225743   14.104164   20.868902
  H     13.918514   15.810394   21.294361
  H     15.639506   18.000279   19.097276

 Total Charge           Charge          ....    0
 Multiplicity           Mult            ....    1
 Number of Electrons    NEL             ....  154
 Basis Dimension        Dim             ....  828

ORBITAL ENERGIES
----------------

  NO   OCC          E(Eh)            E(eV)
   0   2.0000     -91.889458     -2500.4393
   1   2.0000     -20.598453      -560.5124
   2   2.0000     -20.595122      -560.4218
   3   2.0000     -20.541498      -558.9626
   4   2.0000     -15.629925      -425.3119
   5   2.0000     -15.607614      -424.7048
   6   2.0000     -11.394038      -310.0475
   7   2.0000     -11.384153      -309.7786
   8   2.0000     -11.338055      -308.5242
   9   2.0000     -11.315958      -307.9229
  10   2.0000     -11.308199      -307.7118
  11   2.0000     -11.295742      -307.3728
  12   2.0000     -11.262531      -306.4690
  13   2.0000     -11.259039      -306.3740
  14   2.0000     -11.257300      -306.3267
  15   2.0000     -11.252146      -306.1865
  16   2.0000     -11.245804      -306.0139
  17   2.0000     -11.240771      -305.8769
  18   2.0000     -11.240456      -305.8683
  19   2.0000     -11.222014      -305.3665
  20   2.0000      -8.894521      -242.0322
  21   2.0000      -6.576092      -178.9445
  22   2.0000      -6.574095      -178.8902
  23   2.0000      -6.573503      -178.8741
  24   2.0000      -1.449419       -39.4407
  25   2.0000      -1.418162       -38.5902
  26   2.0000      -1.352835       -36.8125
  27   2.0000      -1.340965       -36.4895
  28   2.0000      -1.238895       -33.7121
  29   2.0000      -1.159537       -31.5526
  30   2.0000      -1.121874       -30.5278
  31   2.0000      -1.044217       -28.4146
  32   2.0000      -1.033640       -28.1268
  33   2.0000      -1.017043       -27.6751
  34   2.0000      -0.996822       -27.1249
  35   2.0000      -0.985414       -26.8145
  36   2.0000      -0.922833       -25.1116
  37   2.0000      -0.893984       -24.3265
  38   2.0000      -0.847241       -23.0546
  39   2.0000      -0.839649       -22.8480
  40   2.0000      -0.836001       -22.7487
  41   2.0000      -0.814908       -22.1748
  42   2.0000      -0.754041       -20.5185
  43   2.0000      -0.735118       -20.0036
  44   2.0000      -0.722786       -19.6680
  45   2.0000      -0.697299       -18.9745
  46   2.0000      -0.689550       -18.7636
  47   2.0000      -0.677602       -18.4385
  48   2.0000      -0.671496       -18.2723
  49   2.0000      -0.662205       -18.0195
  50   2.0000      -0.647398       -17.6166
  51   2.0000      -0.640292       -17.4232
  52   2.0000      -0.635202       -17.2847
  53   2.0000      -0.609461       -16.5843
  54   2.0000      -0.608428       -16.5562
  55   2.0000      -0.601464       -16.3667
  56   2.0000      -0.600536       -16.3414
  57   2.0000      -0.578830       -15.7508
  58   2.0000      -0.570221       -15.5165
  59   2.0000      -0.566481       -15.4147
  60   2.0000      -0.554924       -15.1003
  61   2.0000      -0.545956       -14.8562
  62   2.0000      -0.533875       -14.5275
  63   2.0000      -0.531343       -14.4586
  64   2.0000      -0.525600       -14.3023
  65   2.0000      -0.513744       -13.9797
  66   2.0000      -0.501586       -13.6489
  67   2.0000      -0.498730       -13.5711
  68   2.0000      -0.479765       -13.0551
  69   2.0000      -0.464469       -12.6388
  70   2.0000      -0.453857       -12.3501
  71   2.0000      -0.445356       -12.1187
  72   2.0000      -0.353924        -9.6308
  73   2.0000      -0.351676        -9.5696
  74   2.0000      -0.328759        -8.9460
  75   2.0000      -0.323432        -8.8010
  76   2.0000      -0.318823        -8.6756
  77   0.0000       0.075426         2.0524
  78   0.0000       0.103067         2.8046
  79   0.0000       0.124161         3.3786
  80   0.0000       0.131555         3.5798
  81   0.0000       0.136086         3.7031

MULLIKEN ATOMIC CHARGES
-----------------------
   0 C :   -0.310010
   1 C :    0.018671
   2 O :   -0.363281
   3 C :    0.443567
   4 O :   -0.433287
   5 C :   -0.235512
   6 C :    0.176689
   7 C :   -0.266930
   8 N :   -0.126358
   9 C :    0.211205
  10 S :   -0.441100
  11 N :   -0.216741
  12 C :    0.069519
  13 C :    0.022916
  14 C :   -0.180000
  15 C :   -0.134099
  16 C :   -0.276608
  17 C :    0.309976
  18 O :   -0.357745
  19 C :   -0.230094
  20 H :    0.110530
  21 H :    0.103461
  22 H :    0.107838
  23 H :    0.111380
  24 H :    0.121534
  25 H :    0.129900
  26 H :    0.094769
  27 H :    0.133567
  28 H :    0.199746
  29 H :    0.200680
  30 H :    0.153128
  31 H :    0.154659
  32 H :    0.161274
  33 H :    0.131513
  34 H :    0.240892
  35 H :    0.164355
Sum of atomic charges:   -0.0000000

LOEWDIN ATOMIC CHARGES
----------------------
   0 C :    0.105198
   1 C :   -0.018661
   2 O :    0.303697
   3 C :   -0.416635
   4 O :    0.097847
   5 C :   -0.096546
   6 C :   -0.055715
   7 C :    0.131575
   8 N :    0.407420
   9 C :   -0.456097
  10 S :   -0.035854
  11 N :    0.394586
  12 C :   -0.053970
  13 C :   -0.039997
  14 C :    0.016459
  15 C :    0.038876
  16 C :   -0.001481
  17 C :   -0.190500
  18 O :    0.395999
  19 C :    0.033591
  20 H :   -0.025348
  21 H :   -0.026869
  22 H :   -0.026527
  23 H :   -0.025247
  24 H :   -0.028031
  25 H :   -0.004602
  26 H :   -0.023574
  27 H :   -0.004368
  28 H :   -0.057035
  29 H :   -0.064471
  30 H :   -0.012939
  31 H :   -0.028503
  32 H :   -0.020892
  33 H :   -0.035070
  34 H :   -0.153577
  35 H :   -0.022739

  Mayer bond orders larger than 0.100000
B(  0-C ,  1-C ) :   0.9583 B(  0-C , 20-H ) :   0.9696 B(  0-C , 21-H ) :   0.9783
B(  0-C , 22-H ) :   0.9758 B(  1-C ,  2-O ) :   0.8927 B(  1-C , 23-H ) :   0.9840
B(  1-C , 24-H ) :   0.9812 B(  2-O ,  3-C ) :   1.1415 B(  3-C ,  4-O ) :   1.9716
B(  3-C ,  5-C ) :   1.0670 B(  5-C ,  6-C ) :   1.6337 B(  5-C , 12-C ) :   0.9536
B(  6-C ,  7-C ) :   0.9651 B(  6-C ,  8-N ) :   1.1567 B(  7-C , 25-H ) :   0.9586
B(  7-C , 26-H ) :   0.9903 B(  7-C , 27-H ) :   0.9612 B(  8-N ,  9-C ) :   1.1864
B(  8-N , 28-H ) :   0.9463 B(  9-C , 10-S ) :   1.6063 B(  9-C , 11-N ) :   1.3099
B( 11-N , 12-C ) :   0.9668 B( 11-N , 29-H ) :   0.9485 B( 12-C , 13-C ) :   0.9610
B( 12-C , 30-H ) :   1.0009 B( 13-C , 14-C ) :   1.3543 B( 13-C , 19-C ) :   1.3826
B( 14-C , 15-C ) :   1.3927 B( 14-C , 31-H ) :   0.9713 B( 15-C , 16-C ) :   1.3559
B( 15-C , 32-H ) :   0.9715 B( 16-C , 17-C ) :   1.3338 B( 16-C , 33-H ) :   0.9851
B( 17-C , 18-O ) :   1.1061 B( 17-C , 19-C ) :   1.3643 B( 18-O , 34-H ) :   0.9795
B( 19-C , 35-H ) :   0.9585

MP2 TOTAL ENERGY:    -1274.342731415 Eh
FINAL SINGLE POINT ENERGY     -1274.342731415186

DIPOLE MOMENT
-------------
                                X             Y             Z
Electronic contribution:      9.01244      10.31527       6.69020
Nuclear contribution   :     -9.91156     -12.07025      -6.92921
                        -----------------------------------------
Total Dipole Moment    :     -0.89912      -1.75498      -0.23900
                        -----------------------------------------
Magnitude (a.u.)       :      1.98632
Magnitude (Debye)      :      5.04883

Rotational constants in cm-1:     0.012320     0.008606     0.006121
Rotational constants in MHz :   369.340487   258.006969   183.493421

                             ****ORCA TERMINATED NORMALLY****
TOTAL RUN TIME: 0 days 1 hours 59 minutes 0 seconds 286 msec
