                         Program Version 4.2.0 -  RELEASE  -
|  1> ! ri-mp2 cc-pvtz cc-pvtz/c TightSCF NoKeepInts
|  2>
|  3> %scf
|  4>   MaxCore 4096
|  5> end
|  6> *xyz  0  1
|  7>     C       13.7308414   15.6939546   14.1056712
|  8>     C       15.2483244   15.5014743   14.2652569
|  9>     O       15.7552785   16.6602406   14.9508919
| 10>     C       16.7639519   16.5228587   15.8603717
| 11>     O       17.4015047   15.4884440   15.9722418
| 12>     C       16.9872391   17.7130168   16.7530283
| 13>     C       16.6706742   18.9851250   16.3894761
| 14>     C       15.8487639   19.4433955   15.2003020
| 15>     N       17.1432102   20.0752547   17.1251083
| 16>     C       18.1046831   19.9985539   18.0958772
| 17>     S       18.6952679   21.3479134   18.8482359
| 18>     N       18.5688539   18.7434254   18.3955405
| 19>     C       18.0144959   17.4810929   17.8696334
| 20>     C       17.5241254   16.5431954   18.9650492
| 21>     C       18.0273651   15.2337636   19.0674472
| 22>     C       17.5762913   14.3719755   20.0813009
| 23>     C       16.6150620   14.8242497   21.0015576
| 24>     C       16.1108312   16.1282604   20.9007493
| 25>     O       15.1800423   16.5662652   21.7857278
| 26>     C       16.5615108   16.9835020   19.8901298
| 27>     H       13.2485533   15.7929511   15.0862493
| 28>     H       13.2865310   14.8336418   13.5903974
| 29>     H       13.5142838   16.5953777   13.5191550
| 30>     H       15.4209173   14.5862680   14.8486080
| 31>     H       15.7360504   15.3894282   13.2882076
| 32>     H       16.2965855   19.0976495   14.2602598
| 33>     H       15.7654975   20.5349971   15.1338700
| 34>     H       14.8282679   19.0441959   15.2575051
| 35>     H       16.8277109   21.0055258   16.9019037
| 36>     H       19.2608901   18.7113519   19.1335152
| 37>     H       18.9056488   17.0675309   17.3754201
| 38>     H       18.7593281   14.8786603   18.3459031
| 39>     H       17.9676127   13.3583566   20.1461961
| 40>     H       16.2627698   14.1614674   21.7848100
| 41>     H       15.0154107   15.8461034   22.4126073
| 42>     H       16.1626252   17.9905329   19.8297954
| 43> *
| 44>
| 45>                          ****END OF INPUT****

CARTESIAN COORDINATES (ANGSTROEM)
---------------------------------
  C     13.730841   15.693955   14.105671
  C     15.248324   15.501474   14.265257
  O     15.755278   16.660241   14.950892
  C     16.763952   16.522859   15.860372
  O     17.401505   15.488444   15.972242
  C     16.987239   17.713017   16.753028
  C     16.670674   18.985125   16.389476
  C     15.848764   19.443395   15.200302
  N     17.143210   20.075255   17.125108
  C     18.104683   19.998554   18.095877
  S     18.695268   21.347913   18.848236
  N     18.568854   18.743425   18.395540
  C     18.014496   17.481093   17.869633
  C     17.524125   16.543195   18.965049
  C     18.027365   15.233764   19.067447
  C     17.576291   14.371975   20.081301
  C     16.615062   14.824250   21.001558
  C     16.110831   16.128260   20.900749
  O     15.180042   16.566265   21.785728
  C     16.561511   16.983502   19.890130
  H     13.248553   15.792951   15.086249
  H     13.286531   14.833642   13.590397
  H     13.514284   16.595378   13.519155
  H     15.420917   14.586268   14.848608
  H     15.736050   15.389428   13.288208
  H     16.296585   19.097649   14.260260
  H     15.765497   20.534997   15.133870
  H     14.828268   19.044196   15.257505
  H     16.827711   21.005526   16.901904
  H     19.260890   18.711352   19.133515
  H     18.905649   17.067531   17.375420
  H     18.759328   14.878660   18.345903
  H     17.967613   13.358357   20.146196
  H     16.262770   14.161467   21.784810
  H     15.015411   15.846103   22.412607
  H     16.162625   17.990533   19.829795

 Total Charge           Charge          ....    0
 Multiplicity           Mult            ....    1
 Number of Electrons    NEL             ....  154
 Basis Dimension        Dim             ....  828

ORBITAL ENERGIES
----------------

  NO   OCC          E(Eh)            E(eV)
   0   2.0000     -91.887737     -2500.3924
   1   2.0000     -20.604721      -560.6830
   2   2.0000     -20.591111      -560.3126
   3   2.0000     -20.544356      -559.0404
   4   2.0000     -15.628359      -425.2693
   5   2.0000     -15.605352      -424.6432
   6   2.0000     -11.395719      -310.0933
   7   2.0000     -11.382199      -309.7254
   8   2.0000     -11.338317      -308.5313
   9   2.0000     -11.307009      -307.6794
  10   2.0000     -11.303845      -307.5933
  11   2.0000     -11.299382      -307.4718
  12   2.0000     -11.261372      -306.4375
  13   2.0000     -11.258983      -306.3725
  14   2.0000     -11.254260      -306.2440
  15   2.0000     -11.247046      -306.0477
  16   2.0000     -11.237307      -305.7827
  17   2.0000     -11.234303      -305.7009
  18   2.0000     -11.233458      -305.6779
  19   2.0000     -11.230171      -305.5885
  20   2.0000      -8.892823      -241.9860
  21   2.0000      -6.574401      -178.8985
  22   2.0000      -6.572397      -178.8440
  23   2.0000      -6.571810      -178.8280
  24   2.0000      -1.454705       -39.5845
  25   2.0000      -1.410856       -38.3913
  26   2.0000      -1.357043       -36.9270
  27   2.0000      -1.339719       -36.4556
  28   2.0000      -1.236837       -33.6560
  29   2.0000      -1.151692       -31.3391
  30   2.0000      -1.120348       -30.4862
  31   2.0000      -1.044971       -28.4351
  32   2.0000      -1.036636       -28.2083
  33   2.0000      -1.009244       -27.4629
  34   2.0000      -0.998556       -27.1721
  35   2.0000      -0.983512       -26.7627
  36   2.0000      -0.920277       -25.0420
  37   2.0000      -0.889411       -24.2021
  38   2.0000      -0.846915       -23.0457
  39   2.0000      -0.834182       -22.6993
  40   2.0000      -0.827310       -22.5123
  41   2.0000      -0.816896       -22.2289
  42   2.0000      -0.762679       -20.7535
  43   2.0000      -0.736111       -20.0306
  44   2.0000      -0.725551       -19.7432
  45   2.0000      -0.690869       -18.7995
  46   2.0000      -0.685039       -18.6409
  47   2.0000      -0.679329       -18.4855
  48   2.0000      -0.673818       -18.3355
  49   2.0000      -0.660911       -17.9843
  50   2.0000      -0.648386       -17.6435
  51   2.0000      -0.642573       -17.4853
  52   2.0000      -0.633116       -17.2280
  53   2.0000      -0.603330       -16.4174
  54   2.0000      -0.598291       -16.2803
  55   2.0000      -0.594725       -16.1833
  56   2.0000      -0.591046       -16.0832
  57   2.0000      -0.584289       -15.8993
  58   2.0000      -0.572583       -15.5808
  59   2.0000      -0.563280       -15.3276
  60   2.0000      -0.561164       -15.2701
  61   2.0000      -0.557237       -15.1632
  62   2.0000      -0.540176       -14.6989
  63   2.0000      -0.524928       -14.2840
  64   2.0000      -0.515225       -14.0200
  65   2.0000      -0.509006       -13.8508
  66   2.0000      -0.500134       -13.6093
  67   2.0000      -0.493671       -13.4335
  68   2.0000      -0.480857       -13.0848
  69   2.0000      -0.467296       -12.7158
  70   2.0000      -0.457154       -12.4398
  71   2.0000      -0.454413       -12.3652
  72   2.0000      -0.352967        -9.6047
  73   2.0000      -0.343921        -9.3586
  74   2.0000      -0.326814        -8.8931
  75   2.0000      -0.316871        -8.6225
  76   2.0000      -0.313568        -8.5326
  77   0.0000       0.077757         2.1159
  78   0.0000       0.112398         3.0585
  79   0.0000       0.119933         3.2635
  80   0.0000       0.136181         3.7057
  81   0.0000       0.139033         3.7833

MULLIKEN ATOMIC CHARGES
-----------------------
   0 C :   -0.267603
   1 C :    0.027994
   2 O :   -0.336125
   3 C :    0.418777
   4 O :   -0.425093
   5 C :   -0.180070
   6 C :    0.165907
   7 C :   -0.281854
   8 N :   -0.128720
   9 C :    0.207413
  10 S :   -0.442931
  11 N :   -0.210550
  12 C :    0.042614
  13 C :    0.032043
  14 C :   -0.164254
  15 C :   -0.134687
  16 C :   -0.276990
  17 C :    0.314361
  18 O :   -0.359312
  19 C :   -0.251455
  20 H :    0.099254
  21 H :    0.098398
  22 H :    0.090590
  23 H :    0.108475
  24 H :    0.094626
  25 H :    0.124876
  26 H :    0.102727
  27 H :    0.129878
  28 H :    0.198793
  29 H :    0.199937
  30 H :    0.154856
  31 H :    0.157867
  32 H :    0.159615
  33 H :    0.127956
  34 H :    0.239843
  35 H :    0.162843
Sum of atomic charges:   -0.0000000

LOEWDIN ATOMIC CHARGES
----------------------
   0 C :    0.105282
   1 C :   -0.013801
   2 O :    0.308115
   3 C :   -0.415431
   4 O :    0.102529
   5 C :   -0.091533
   6 C :   -0.063881
   7 C :    0.124594
   8 N :    0.405403
   9 C :   -0.458854
  10 S :   -0.037975
  11 N :    0.396623
  12 C :   -0.048313
  13 C :   -0.040332
  14 C :    0.025373
  15 C :    0.040932
  16 C :   -0.001198
  17 C :   -0.192561
  18 O :    0.392936
  19 C :    0.029678
  20 H :   -0.025523
  21 H :   -0.023770
  22 H :   -0.030180
  23 H :   -0.025556
  24 H :   -0.031007
  25 H :   -0.009695
  26 H :   -0.021375
  27 H :   -0.009593
  28 H :   -0.058857
  29 H :   -0.063003
  30 H :   -0.008505
  31 H :   -0.024106
  32 H :   -0.021173
  33 H :   -0.036262
  34 H :   -0.154980
  35 H :   -0.024002

  Mayer bond orders larger than 0.100000
B(  0-C ,  1-C ) :   0.9725 B(  0-C , 20-H ) :   0.9760 B(  0-C , 21-H ) :   0.9779
B(  0-C , 22-H ) :   0.9791 B(  1-C ,  2-O ) :   0.8988 B(  1-C , 23-H ) :   0.9739
B(  1-C , 24-H ) :   0.9815 B(  2-O ,  3-C ) :   1.1646 B(  3-C ,  4-O ) :   1.9795
B(  3-C ,  5-C ) :   1.0504 B(  5-C ,  6-C ) :   1.6528 B(  5-C , 12-C ) :   0.9503
B(  6-C ,  7-C ) :   0.9534 B(  6-C ,  8-N ) :   1.1367 B(  7-C , 25-H ) :   0.9652
B(  7-C , 26-H ) :   0.9913 B(  7-C , 27-H ) :   0.9637 B(  8-N ,  9-C ) :   1.1851
B(  8-N , 28-H ) :   0.9469 B(  9-C , 10-S ) :   1.6074 B(  9-C , 11-N ) :   1.3073
B( 11-N , 12-C ) :   0.9764 B( 11-N , 29-H ) :   0.9485 B( 12-C , 13-C ) :   0.9744
B( 12-C , 30-H ) :   0.9975 B( 13-C , 14-C ) :   1.3754 B( 13-C , 19-C ) :   1.3667
B( 14-C , 15-C ) :   1.3975 B( 14-C , 31-H ) :   0.9642 B( 15-C , 16-C ) :   1.3584
B( 15-C , 32-H ) :   0.9713 B( 16-C , 17-C ) :   1.3335 B( 16-C , 33-H ) :   0.9861
B( 17-C , 18-O ) :   1.1029 B( 17-C , 19-C ) :   1.3675 B( 18-O , 34-H ) :   0.9807
B( 19-C , 35-H ) :   0.9603

MP2 TOTAL ENERGY:    -1274.341836563 Eh
FINAL SINGLE POINT ENERGY     -1274.341836562558

DIPOLE MOMENT
-------------
                                X             Y             Z
Electronic contribution:     10.98153       8.71924      11.86970
Nuclear contribution   :    -12.37763     -10.05588     -12.98496
                        -----------------------------------------
Total Dipole Moment    :     -1.39610      -1.33664      -1.11526
                        -----------------------------------------
Magnitude (a.u.)       :      2.23148
Magnitude (Debye)      :      5.67196

Rotational constants in cm-1:     0.009734     0.008890     0.005537
Rotational constants in MHz :   291.824487   266.527580   165.991817

                             ****ORCA TERMINATED NORMALLY****
TOTAL RUN TIME: 0 days 1 hours 39 minutes 50 seconds 671 msec
