                         Program Version 4.2.0 -  RELEASE  -
|  1> ! ri-mp2 cc-pvtz cc-pvtz/c TightSCF NoKeepInts
|  2>
|  3> %scf
|  4>   MaxCore 4096
|  5> end
|  6> *xyz  0  1
|  7>     C       14.4865595   15.6586130   15.9438157
|  8>     C       15.8131876   14.8805899   15.7760143
|  9>     O       16.9653476   15.7302971   15.5520681
| 10>     C       16.8305354   17.0464236   15.2201364
| 11>     O       16.4635684   17.3685992   14.1042223
| 12>     C       17.0661206   17.9877135   16.3735282
| 13>     C       16.9971799   19.3313765   16.1843725
| 14>     C       16.3945770   20.0624096   15.0021960
| 15>     N       17.5073461   20.2212164   17.1321880
| 16>     C       18.2954040   19.8561051   18.1892297
| 17>     S       18.9624607   20.9711356   19.2124876
| 18>     N       18.5244312   18.5126224   18.3423209
| 19>     C       17.8747598   17.4404943   17.5650130
| 20>     C       17.1421192   16.4481656   18.4571441
| 21>     C       17.6622733   15.1583906   18.6714459
| 22>     C       16.9876717   14.2461606   19.5003143
| 23>     C       15.7882439   14.6299644   20.1244873
| 24>     C       15.2767228   15.9195906   19.9240801
| 25>     O       14.1203049   16.2938749   20.5264504
| 26>     C       15.9512102   16.8256114   19.0998808
| 27>     H       14.5478035   16.3885007   16.7586528
| 28>     H       13.6717983   14.9638059   16.1805717
| 29>     H       14.2142364   16.1835518   15.0192693
| 30>     H       15.9861993   14.2597991   16.6639646
| 31>     H       15.7066493   14.2015943   14.9200315
| 32>     H       17.0297794   19.9494125   14.1141402
| 33>     H       16.2618686   21.1355803   15.1829778
| 34>     H       15.4078692   19.6513831   14.7533710
| 35>     H       17.3715022   21.2123313   17.0123373
| 36>     H       19.0883955   18.2716856   19.1476326
| 37>     H       18.7627810   16.9712197   17.1179511
| 38>     H       18.5877636   14.8597015   18.1857421
| 39>     H       17.3948119   13.2486269   19.6576322
| 40>     H       15.2634932   13.9288723   20.7653820
| 41>     H       13.8356771   15.5616920   21.0940912
| 42>     H       15.5463479   17.8228889   18.9628570
| 43> *
| 44>
| 45>                          ****END OF INPUT****

CARTESIAN COORDINATES (ANGSTROEM)
---------------------------------
  C     14.486559   15.658613   15.943816
  C     15.813188   14.880590   15.776014
  O     16.965348   15.730297   15.552068
  C     16.830535   17.046424   15.220136
  O     16.463568   17.368599   14.104222
  C     17.066121   17.987714   16.373528
  C     16.997180   19.331377   16.184372
  C     16.394577   20.062410   15.002196
  N     17.507346   20.221216   17.132188
  C     18.295404   19.856105   18.189230
  S     18.962461   20.971136   19.212488
  N     18.524431   18.512622   18.342321
  C     17.874760   17.440494   17.565013
  C     17.142119   16.448166   18.457144
  C     17.662273   15.158391   18.671446
  C     16.987672   14.246161   19.500314
  C     15.788244   14.629964   20.124487
  C     15.276723   15.919591   19.924080
  O     14.120305   16.293875   20.526450
  C     15.951210   16.825611   19.099881
  H     14.547803   16.388501   16.758653
  H     13.671798   14.963806   16.180572
  H     14.214236   16.183552   15.019269
  H     15.986199   14.259799   16.663965
  H     15.706649   14.201594   14.920032
  H     17.029779   19.949413   14.114140
  H     16.261869   21.135580   15.182978
  H     15.407869   19.651383   14.753371
  H     17.371502   21.212331   17.012337
  H     19.088395   18.271686   19.147633
  H     18.762781   16.971220   17.117951
  H     18.587764   14.859701   18.185742
  H     17.394812   13.248627   19.657632
  H     15.263493   13.928872   20.765382
  H     13.835677   15.561692   21.094091
  H     15.546348   17.822889   18.962857

 Total Charge           Charge          ....    0
 Multiplicity           Mult            ....    1
 Number of Electrons    NEL             ....  154
 Basis Dimension        Dim             ....  828

ORBITAL ENERGIES
----------------

  NO   OCC          E(Eh)            E(eV)
   0   2.0000     -91.890825     -2500.4765
   1   2.0000     -20.602033      -560.6098
   2   2.0000     -20.579410      -559.9942
   3   2.0000     -20.544953      -559.0566
   4   2.0000     -15.631021      -425.3417
   5   2.0000     -15.608886      -424.7394
   6   2.0000     -11.392416      -310.0034
   7   2.0000     -11.385170      -309.8062
   8   2.0000     -11.339099      -308.5526
   9   2.0000     -11.319526      -308.0200
  10   2.0000     -11.310683      -307.7793
  11   2.0000     -11.298480      -307.4473
  12   2.0000     -11.265766      -306.5571
  13   2.0000     -11.260582      -306.4160
  14   2.0000     -11.258807      -306.3677
  15   2.0000     -11.253054      -306.2112
  16   2.0000     -11.249454      -306.1132
  17   2.0000     -11.244309      -305.9732
  18   2.0000     -11.243737      -305.9576
  19   2.0000     -11.226458      -305.4874
  20   2.0000      -8.895876      -242.0691
  21   2.0000      -6.577442      -178.9813
  22   2.0000      -6.575450      -178.9271
  23   2.0000      -6.574853      -178.9109
  24   2.0000      -1.442405       -39.2498
  25   2.0000      -1.421744       -38.6876
  26   2.0000      -1.349605       -36.7246
  27   2.0000      -1.342542       -36.5324
  28   2.0000      -1.240641       -33.7596
  29   2.0000      -1.162634       -31.6369
  30   2.0000      -1.122364       -30.5411
  31   2.0000      -1.046816       -28.4853
  32   2.0000      -1.030749       -28.0481
  33   2.0000      -1.020743       -27.7758
  34   2.0000      -0.999969       -27.2105
  35   2.0000      -0.987391       -26.8683
  36   2.0000      -0.924814       -25.1655
  37   2.0000      -0.896445       -24.3935
  38   2.0000      -0.849116       -23.1056
  39   2.0000      -0.842915       -22.9369
  40   2.0000      -0.839637       -22.8477
  41   2.0000      -0.819130       -22.2897
  42   2.0000      -0.744933       -20.2707
  43   2.0000      -0.736693       -20.0464
  44   2.0000      -0.720607       -19.6087
  45   2.0000      -0.700235       -19.0544
  46   2.0000      -0.690113       -18.7789
  47   2.0000      -0.675040       -18.3688
  48   2.0000      -0.671601       -18.2752
  49   2.0000      -0.659701       -17.9514
  50   2.0000      -0.651866       -17.7382
  51   2.0000      -0.642655       -17.4875
  52   2.0000      -0.637435       -17.3455
  53   2.0000      -0.625282       -17.0148
  54   2.0000      -0.612120       -16.6566
  55   2.0000      -0.604369       -16.4457
  56   2.0000      -0.602272       -16.3887
  57   2.0000      -0.581241       -15.8164
  58   2.0000      -0.571200       -15.5431
  59   2.0000      -0.566959       -15.4277
  60   2.0000      -0.546491       -14.8708
  61   2.0000      -0.544586       -14.8189
  62   2.0000      -0.535625       -14.5751
  63   2.0000      -0.530767       -14.4429
  64   2.0000      -0.528458       -14.3801
  65   2.0000      -0.515403       -14.0248
  66   2.0000      -0.502784       -13.6814
  67   2.0000      -0.492939       -13.4135
  68   2.0000      -0.484719       -13.1899
  69   2.0000      -0.464530       -12.6405
  70   2.0000      -0.454990       -12.3809
  71   2.0000      -0.442631       -12.0446
  72   2.0000      -0.355198        -9.6654
  73   2.0000      -0.353702        -9.6247
  74   2.0000      -0.330382        -8.9902
  75   2.0000      -0.326643        -8.8884
  76   2.0000      -0.320501        -8.7213
  77   0.0000       0.071323         1.9408
  78   0.0000       0.099083         2.6962
  79   0.0000       0.121583         3.3084
  80   0.0000       0.128910         3.5078
  81   0.0000       0.131607         3.5812

MULLIKEN ATOMIC CHARGES
-----------------------
   0 C :   -0.336446
   1 C :    0.034235
   2 O :   -0.392884
   3 C :    0.510469
   4 O :   -0.413080
   5 C :   -0.294418
   6 C :    0.175550
   7 C :   -0.267581
   8 N :   -0.126648
   9 C :    0.209309
  10 S :   -0.438949
  11 N :   -0.213882
  12 C :    0.065778
  13 C :    0.047343
  14 C :   -0.185105
  15 C :   -0.132447
  16 C :   -0.273953
  17 C :    0.328032
  18 O :   -0.358009
  19 C :   -0.291908
  20 H :    0.107320
  21 H :    0.110162
  22 H :    0.122421
  23 H :    0.113292
  24 H :    0.118990
  25 H :    0.134289
  26 H :    0.094352
  27 H :    0.129422
  28 H :    0.199787
  29 H :    0.200970
  30 H :    0.152627
  31 H :    0.155158
  32 H :    0.166487
  33 H :    0.133919
  34 H :    0.241630
  35 H :    0.173769
Sum of atomic charges:   -0.0000000

LOEWDIN ATOMIC CHARGES
----------------------
   0 C :    0.105169
   1 C :   -0.010468
   2 O :    0.284773
   3 C :   -0.424354
   4 O :    0.114679
   5 C :   -0.102866
   6 C :   -0.054880
   7 C :    0.131142
   8 N :    0.407789
   9 C :   -0.457289
  10 S :   -0.034078
  11 N :    0.394885
  12 C :   -0.054241
  13 C :   -0.040127
  14 C :    0.020200
  15 C :    0.039909
  16 C :   -0.000939
  17 C :   -0.190696
  18 O :    0.396152
  19 C :    0.034799
  20 H :   -0.032938
  21 H :   -0.022445
  22 H :   -0.025823
  23 H :   -0.028342
  24 H :   -0.028002
  25 H :   -0.003893
  26 H :   -0.023439
  27 H :   -0.005303
  28 H :   -0.056721
  29 H :   -0.064011
  30 H :   -0.011579
  31 H :   -0.026977
  32 H :   -0.020084
  33 H :   -0.034339
  34 H :   -0.152750
  35 H :   -0.022912

  Mayer bond orders larger than 0.100000
B(  0-C ,  1-C ) :   0.9567 B(  0-C , 20-H ) :   0.9709 B(  0-C , 21-H ) :   0.9762
B(  0-C , 22-H ) :   0.9719 B(  1-C ,  2-O ) :   0.8902 B(  1-C , 23-H ) :   0.9728
B(  1-C , 24-H ) :   0.9870 B(  2-O ,  3-C ) :   1.0973 B(  3-C ,  4-O ) :   2.0180
B(  3-C ,  5-C ) :   1.0582 B(  5-C ,  6-C ) :   1.6317 B(  5-C , 12-C ) :   0.9574
B(  6-C ,  7-C ) :   0.9662 B(  6-C ,  8-N ) :   1.1551 B(  7-C , 25-H ) :   0.9559
B(  7-C , 26-H ) :   0.9889 B(  7-C , 27-H ) :   0.9645 B(  8-N ,  9-C ) :   1.1855
B(  8-N , 28-H ) :   0.9467 B(  9-C , 10-S ) :   1.6102 B(  9-C , 11-N ) :   1.3077
B( 11-N , 12-C ) :   0.9675 B( 11-N , 29-H ) :   0.9485 B( 12-C , 13-C ) :   0.9613
B( 12-C , 30-H ) :   1.0023 B( 13-C , 14-C ) :   1.3486 B( 13-C , 19-C ) :   1.3588
B( 14-C , 15-C ) :   1.3909 B( 14-C , 31-H ) :   0.9733 B( 15-C , 16-C ) :   1.3562
B( 15-C , 32-H ) :   0.9694 B( 16-C , 17-C ) :   1.3335 B( 16-C , 33-H ) :   0.9837
B( 17-C , 18-O ) :   1.1056 B( 17-C , 19-C ) :   1.3544 B( 18-O , 34-H ) :   0.9792
B( 19-C , 35-H ) :   0.9592

MP2 TOTAL ENERGY:    -1274.325165219 Eh
FINAL SINGLE POINT ENERGY     -1274.325165219452

DIPOLE MOMENT
-------------
                                X             Y             Z
Electronic contribution:      9.31172       8.57788       6.09799
Nuclear contribution   :    -10.40877     -10.20346      -5.93350
                        -----------------------------------------
Total Dipole Moment    :     -1.09705      -1.62557       0.16449
                        -----------------------------------------
Magnitude (a.u.)       :      1.96801
Magnitude (Debye)      :      5.00229

Rotational constants in cm-1:     0.012444     0.008897     0.006299
Rotational constants in MHz :   373.047062   266.726860   188.834586

                             ****ORCA TERMINATED NORMALLY****
TOTAL RUN TIME: 0 days 2 hours 9 minutes 56 seconds 369 msec
