                         Program Version 4.2.0 -  RELEASE  -
|  1> ! ri-mp2 cc-pvtz cc-pvtz/c TightSCF NoKeepInts
|  2>
|  3> %scf
|  4>   MaxCore 4096
|  5> end
|  6> *xyz  0  1
|  7>     C       13.7717211   16.3257798   15.1009122
|  8>     C       15.1253513   15.5967044   15.0611487
|  9>     O       16.1371493   16.5625232   14.7342050
| 10>     C       17.2139978   16.6108568   15.5636416
| 11>     O       18.0218676   15.7003134   15.6152690
| 12>     C       17.1726845   17.7277720   16.5616215
| 13>     C       16.7603899   18.9762198   16.2234469
| 14>     C       16.1053181   19.4113039   14.9276622
| 15>     N       16.9848335   20.0567689   17.0798064
| 16>     C       17.8032563   20.0157972   18.1768991
| 17>     S       18.1094268   21.3621124   19.0872567
| 18>     N       18.3744056   18.8022693   18.4684652
| 19>     C       18.0588706   17.5273752   17.7945466
| 20>     C       17.5344420   16.4518603   18.7359913
| 21>     C       18.1342686   15.1804332   18.7752787
| 22>     C       17.6438096   14.1853696   19.6373336
| 23>     C       16.5438195   14.4642957   20.4665744
| 24>     C       15.9417764   15.7294700   20.4263811
| 25>     O       14.8751054   15.9993372   21.2203727
| 26>     C       16.4316118   16.7175467   19.5663116
| 27>     H       13.7649360   17.0879734   15.8898852
| 28>     H       12.9607780   15.6161780   15.3059157
| 29>     H       13.5655319   16.8135115   14.1400103
| 30>     H       15.3186413   15.1309803   16.0384731
| 31>     H       15.1079741   14.8045469   14.3011667
| 32>     H       16.6655859   19.0388753   14.0606289
| 33>     H       16.0523026   20.5021526   14.8256721
| 34>     H       15.0821780   19.0238909   14.8581737
| 35>     H       16.5935594   20.9597455   16.8636992
| 36>     H       18.9602309   18.7955271   19.2940006
| 37>     H       19.0526718   17.2546002   17.4099509
| 38>     H       18.9754067   14.9594098   18.1219084
| 39>     H       18.1134562   13.2034262   19.6557272
| 40>     H       16.1612119   13.6981386   21.1327070
| 41>     H       14.7147593   15.2155073   21.7671478
| 42>     H       15.9536702   17.6914275   19.5498086
| 43> *
| 44>
| 45>                          ****END OF INPUT****

CARTESIAN COORDINATES (ANGSTROEM)
---------------------------------
  C     13.771721   16.325780   15.100912
  C     15.125351   15.596704   15.061149
  O     16.137149   16.562523   14.734205
  C     17.213998   16.610857   15.563642
  O     18.021868   15.700313   15.615269
  C     17.172684   17.727772   16.561622
  C     16.760390   18.976220   16.223447
  C     16.105318   19.411304   14.927662
  N     16.984834   20.056769   17.079806
  C     17.803256   20.015797   18.176899
  S     18.109427   21.362112   19.087257
  N     18.374406   18.802269   18.468465
  C     18.058871   17.527375   17.794547
  C     17.534442   16.451860   18.735991
  C     18.134269   15.180433   18.775279
  C     17.643810   14.185370   19.637334
  C     16.543820   14.464296   20.466574
  C     15.941776   15.729470   20.426381
  O     14.875105   15.999337   21.220373
  C     16.431612   16.717547   19.566312
  H     13.764936   17.087973   15.889885
  H     12.960778   15.616178   15.305916
  H     13.565532   16.813512   14.140010
  H     15.318641   15.130980   16.038473
  H     15.107974   14.804547   14.301167
  H     16.665586   19.038875   14.060629
  H     16.052303   20.502153   14.825672
  H     15.082178   19.023891   14.858174
  H     16.593559   20.959746   16.863699
  H     18.960231   18.795527   19.294001
  H     19.052672   17.254600   17.409951
  H     18.975407   14.959410   18.121908
  H     18.113456   13.203426   19.655727
  H     16.161212   13.698139   21.132707
  H     14.714759   15.215507   21.767148
  H     15.953670   17.691427   19.549809

 Total Charge           Charge          ....    0
 Multiplicity           Mult            ....    1
 Number of Electrons    NEL             ....  154
 Basis Dimension        Dim             ....  828

ORBITAL ENERGIES
----------------

  NO   OCC          E(Eh)            E(eV)
   0   2.0000     -91.889700     -2500.4459
   1   2.0000     -20.595332      -560.4275
   2   2.0000     -20.587274      -560.2082
   3   2.0000     -20.552327      -559.2572
   4   2.0000     -15.630261      -425.3210
   5   2.0000     -15.607523      -424.7023
   6   2.0000     -11.393619      -310.0361
   7   2.0000     -11.384606      -309.7909
   8   2.0000     -11.338856      -308.5460
   9   2.0000     -11.311686      -307.8066
  10   2.0000     -11.305956      -307.6507
  11   2.0000     -11.304033      -307.5984
  12   2.0000     -11.260745      -306.4205
  13   2.0000     -11.259870      -306.3966
  14   2.0000     -11.258759      -306.3664
  15   2.0000     -11.251638      -306.1726
  16   2.0000     -11.241694      -305.9020
  17   2.0000     -11.237873      -305.7981
  18   2.0000     -11.235461      -305.7324
  19   2.0000     -11.234413      -305.7039
  20   2.0000      -8.894775      -242.0391
  21   2.0000      -6.576348      -178.9515
  22   2.0000      -6.574348      -178.8971
  23   2.0000      -6.573757      -178.8810
  24   2.0000      -1.453132       -39.5417
  25   2.0000      -1.415088       -38.5065
  26   2.0000      -1.358877       -36.9769
  27   2.0000      -1.341337       -36.4996
  28   2.0000      -1.238548       -33.7026
  29   2.0000      -1.156061       -31.4580
  30   2.0000      -1.123003       -30.5585
  31   2.0000      -1.045212       -28.4417
  32   2.0000      -1.038027       -28.2461
  33   2.0000      -1.013565       -27.5805
  34   2.0000      -1.001345       -27.2480
  35   2.0000      -0.986939       -26.8560
  36   2.0000      -0.923044       -25.1173
  37   2.0000      -0.886740       -24.1294
  38   2.0000      -0.849136       -23.1062
  39   2.0000      -0.838732       -22.8230
  40   2.0000      -0.831750       -22.6331
  41   2.0000      -0.826975       -22.5031
  42   2.0000      -0.760834       -20.7033
  43   2.0000      -0.736859       -20.0510
  44   2.0000      -0.728807       -19.8318
  45   2.0000      -0.693259       -18.8645
  46   2.0000      -0.685189       -18.6450
  47   2.0000      -0.683017       -18.5858
  48   2.0000      -0.675894       -18.3920
  49   2.0000      -0.657686       -17.8965
  50   2.0000      -0.653599       -17.7853
  51   2.0000      -0.642749       -17.4901
  52   2.0000      -0.635052       -17.2806
  53   2.0000      -0.607237       -16.5237
  54   2.0000      -0.604624       -16.4526
  55   2.0000      -0.601869       -16.3777
  56   2.0000      -0.598735       -16.2924
  57   2.0000      -0.578116       -15.7313
  58   2.0000      -0.575403       -15.6575
  59   2.0000      -0.572962       -15.5911
  60   2.0000      -0.560965       -15.2646
  61   2.0000      -0.553327       -15.0568
  62   2.0000      -0.548321       -14.9206
  63   2.0000      -0.519768       -14.1436
  64   2.0000      -0.515361       -14.0237
  65   2.0000      -0.511921       -13.9301
  66   2.0000      -0.506861       -13.7924
  67   2.0000      -0.496954       -13.5228
  68   2.0000      -0.482790       -13.1374
  69   2.0000      -0.464178       -12.6309
  70   2.0000      -0.458962       -12.4890
  71   2.0000      -0.453761       -12.3475
  72   2.0000      -0.354781        -9.6541
  73   2.0000      -0.348021        -9.4701
  74   2.0000      -0.328766        -8.9462
  75   2.0000      -0.319075        -8.6825
  76   2.0000      -0.318434        -8.6650
  77   0.0000       0.072838         1.9820
  78   0.0000       0.106278         2.8920
  79   0.0000       0.119928         3.2634
  80   0.0000       0.133253         3.6260
  81   0.0000       0.138027         3.7559

MULLIKEN ATOMIC CHARGES
-----------------------
   0 C :   -0.298255
   1 C :    0.046203
   2 O :   -0.371515
   3 C :    0.450336
   4 O :   -0.390103
   5 C :   -0.210430
   6 C :    0.152612
   7 C :   -0.288204
   8 N :   -0.128635
   9 C :    0.205805
  10 S :   -0.440192
  11 N :   -0.212390
  12 C :    0.051443
  13 C :    0.027959
  14 C :   -0.181525
  15 C :   -0.132592
  16 C :   -0.278266
  17 C :    0.313947
  18 O :   -0.358237
  19 C :   -0.253804
  20 H :    0.096483
  21 H :    0.112747
  22 H :    0.099226
  23 H :    0.095706
  24 H :    0.110089
  25 H :    0.130062
  26 H :    0.107200
  27 H :    0.124900
  28 H :    0.198707
  29 H :    0.199954
  30 H :    0.157636
  31 H :    0.164697
  32 H :    0.162045
  33 H :    0.129981
  34 H :    0.240561
  35 H :    0.165849
Sum of atomic charges:   -0.0000000

LOEWDIN ATOMIC CHARGES
----------------------
   0 C :    0.103891
   1 C :   -0.014798
   2 O :    0.295904
   3 C :   -0.425427
   4 O :    0.123552
   5 C :   -0.097118
   6 C :   -0.067170
   7 C :    0.127033
   8 N :    0.405748
   9 C :   -0.457787
  10 S :   -0.036106
  11 N :    0.395959
  12 C :   -0.048702
  13 C :   -0.042282
  14 C :    0.023717
  15 C :    0.041633
  16 C :   -0.001095
  17 C :   -0.193101
  18 O :    0.393413
  19 C :    0.027880
  20 H :   -0.029466
  21 H :   -0.022999
  22 H :   -0.027855
  23 H :   -0.025087
  24 H :   -0.025951
  25 H :   -0.007151
  26 H :   -0.019803
  27 H :   -0.011555
  28 H :   -0.058187
  29 H :   -0.063470
  30 H :   -0.007006
  31 H :   -0.022870
  32 H :   -0.020140
  33 H :   -0.035628
  34 H :   -0.154217
  35 H :   -0.023762

  Mayer bond orders larger than 0.100000
B(  0-C ,  1-C ) :   0.9697 B(  0-C , 20-H ) :   0.9763 B(  0-C , 21-H ) :   0.9782
B(  0-C , 22-H ) :   0.9755 B(  1-C ,  2-O ) :   0.8939 B(  1-C , 23-H ) :   0.9698
B(  1-C , 24-H ) :   0.9846 B(  2-O ,  3-C ) :   1.0766 B(  3-C ,  4-O ) :   2.0525
B(  3-C ,  5-C ) :   1.0089 B(  5-C ,  6-C ) :   1.6710 B(  5-C , 12-C ) :   0.9475
B(  6-C ,  7-C ) :   0.9530 B(  6-C ,  8-N ) :   1.1368 B(  7-C , 25-H ) :   0.9662
B(  7-C , 26-H ) :   0.9894 B(  7-C , 27-H ) :   0.9655 B(  8-N ,  9-C ) :   1.1856
B(  8-N , 28-H ) :   0.9472 B(  9-C , 10-S ) :   1.6118 B(  9-C , 11-N ) :   1.3023
B( 11-N , 12-C ) :   0.9791 B( 11-N , 29-H ) :   0.9486 B( 12-C , 13-C ) :   0.9699
B( 12-C , 30-H ) :   0.9943 B( 13-C , 14-C ) :   1.3804 B( 13-C , 19-C ) :   1.3615
B( 14-C , 15-C ) :   1.3960 B( 14-C , 31-H ) :   0.9617 B( 15-C , 16-C ) :   1.3600
B( 15-C , 32-H ) :   0.9706 B( 16-C , 17-C ) :   1.3320 B( 16-C , 33-H ) :   0.9854
B( 17-C , 18-O ) :   1.1055 B( 17-C , 19-C ) :   1.3670 B( 18-O , 34-H ) :   0.9801
B( 19-C , 35-H ) :   0.9597

MP2 TOTAL ENERGY:    -1274.326114360 Eh
FINAL SINGLE POINT ENERGY     -1274.326114360354

DIPOLE MOMENT
-------------
                                X             Y             Z
Electronic contribution:     10.80111       7.32924       8.88072
Nuclear contribution   :    -12.17954      -8.63218      -9.56407
                        -----------------------------------------
Total Dipole Moment    :     -1.37844      -1.30294      -0.68335
                        -----------------------------------------
Magnitude (a.u.)       :      2.01611
Magnitude (Debye)      :      5.12455

Rotational constants in cm-1:     0.010386     0.009254     0.006198
Rotational constants in MHz :   311.353184   277.424547   185.803120

                             ****ORCA TERMINATED NORMALLY****
TOTAL RUN TIME: 0 days 1 hours 48 minutes 0 seconds 342 msec
