                         Program Version 4.2.0 -  RELEASE  -
|  1> ! ri-mp2 cc-pvtz cc-pvtz/c TightSCF NoKeepInts
|  2>
|  3> %scf
|  4>   MaxCore 4096
|  5> end
|  6> *xyz  0  1
|  7>     C       14.7631119   14.9798197   15.7220195
|  8>     C       14.9564662   15.8972227   14.4909151
|  9>     O       16.0288304   16.8585440   14.6414468
| 10>     C       17.0186315   16.7193376   15.5709054
| 11>     O       17.6867059   15.7031104   15.6605357
| 12>     C       17.1272342   17.8545302   16.5461799
| 13>     C       16.8775640   19.1448240   16.2024971
| 14>     C       16.2610071   19.6600224   14.9171610
| 15>     N       17.2415450   20.1913004   17.0536783
| 16>     C       18.0407475   20.0503790   18.1563530
| 17>     S       18.5152958   21.3507362   19.0615086
| 18>     N       18.4442009   18.7743761   18.4594496
| 19>     C       17.9731349   17.5480970   17.7865808
| 20>     C       17.3048102   16.5571917   18.7304306
| 21>     C       17.7463047   15.2236385   18.7993009
| 22>     C       17.1201735   14.3070206   19.6604084
| 23>     C       16.0434224   14.7278789   20.4596313
| 24>     C       15.5995620   16.0556374   20.3906782
| 25>     O       14.5556238   16.4629031   21.1558238
| 26>     C       16.2242446   16.9654013   19.5316413
| 27>     H       15.5948709   14.2728799   15.8324465
| 28>     H       13.8460233   14.3889073   15.6111331
| 29>     H       14.6751042   15.5665557   16.6454363
| 30>     H       15.1675515   15.2630871   13.6198818
| 31>     H       14.0218976   16.4351672   14.2865665
| 32>     H       15.2147328   19.3411142   14.8337581
| 33>     H       16.8027508   19.2762802   14.0433664
| 34>     H       16.2764864   20.7545008   14.8468827
| 35>     H       16.9723554   21.1363820   16.8316773
| 36>     H       19.0164061   18.6955067   19.2906754
| 37>     H       18.9257248   17.1462652   17.4112463
| 38>     H       18.5678508   14.8935137   18.1676060
| 39>     H       17.4669104   13.2759501   19.7004983
| 40>     H       15.5559746   14.0227459   21.1245952
| 41>     H       14.2865228   15.7100693   21.7033125
| 42>     H       15.8672211   17.9891039   19.4917720
| 43> *
| 44>
| 45>                          ****END OF INPUT****

CARTESIAN COORDINATES (ANGSTROEM)
---------------------------------
  C     14.763112   14.979820   15.722019
  C     14.956466   15.897223   14.490915
  O     16.028830   16.858544   14.641447
  C     17.018632   16.719338   15.570905
  O     17.686706   15.703110   15.660536
  C     17.127234   17.854530   16.546180
  C     16.877564   19.144824   16.202497
  C     16.261007   19.660022   14.917161
  N     17.241545   20.191300   17.053678
  C     18.040747   20.050379   18.156353
  S     18.515296   21.350736   19.061509
  N     18.444201   18.774376   18.459450
  C     17.973135   17.548097   17.786581
  C     17.304810   16.557192   18.730431
  C     17.746305   15.223638   18.799301
  C     17.120173   14.307021   19.660408
  C     16.043422   14.727879   20.459631
  C     15.599562   16.055637   20.390678
  O     14.555624   16.462903   21.155824
  C     16.224245   16.965401   19.531641
  H     15.594871   14.272880   15.832446
  H     13.846023   14.388907   15.611133
  H     14.675104   15.566556   16.645436
  H     15.167552   15.263087   13.619882
  H     14.021898   16.435167   14.286566
  H     15.214733   19.341114   14.833758
  H     16.802751   19.276280   14.043366
  H     16.276486   20.754501   14.846883
  H     16.972355   21.136382   16.831677
  H     19.016406   18.695507   19.290675
  H     18.925725   17.146265   17.411246
  H     18.567851   14.893514   18.167606
  H     17.466910   13.275950   19.700498
  H     15.555975   14.022746   21.124595
  H     14.286523   15.710069   21.703312
  H     15.867221   17.989104   19.491772

 Total Charge           Charge          ....    0
 Multiplicity           Mult            ....    1
 Number of Electrons    NEL             ....  154
 Basis Dimension        Dim             ....  828

ORBITAL ENERGIES
----------------

  NO   OCC          E(Eh)            E(eV)
   0   2.0000     -91.888429     -2500.4113
   1   2.0000     -20.594150      -560.3953
   2   2.0000     -20.589463      -560.2678
   3   2.0000     -20.548574      -559.1551
   4   2.0000     -15.628781      -425.2808
   5   2.0000     -15.606281      -424.6685
   6   2.0000     -11.395265      -310.0809
   7   2.0000     -11.383182      -309.7521
   8   2.0000     -11.337456      -308.5079
   9   2.0000     -11.310387      -307.7713
  10   2.0000     -11.305883      -307.6487
  11   2.0000     -11.304656      -307.6153
  12   2.0000     -11.259316      -306.3816
  13   2.0000     -11.258947      -306.3715
  14   2.0000     -11.257194      -306.3238
  15   2.0000     -11.250356      -306.1377
  16   2.0000     -11.240502      -305.8696
  17   2.0000     -11.236530      -305.7615
  18   2.0000     -11.233073      -305.6675
  19   2.0000     -11.228002      -305.5295
  20   2.0000      -8.893512      -242.0048
  21   2.0000      -6.575089      -178.9173
  22   2.0000      -6.573086      -178.8628
  23   2.0000      -6.572498      -178.8468
  24   2.0000      -1.447109       -39.3778
  25   2.0000      -1.413928       -38.4749
  26   2.0000      -1.355077       -36.8735
  27   2.0000      -1.339928       -36.4613
  28   2.0000      -1.237272       -33.6679
  29   2.0000      -1.154619       -31.4188
  30   2.0000      -1.121187       -30.5091
  31   2.0000      -1.043212       -28.3873
  32   2.0000      -1.032541       -28.0969
  33   2.0000      -1.012176       -27.5427
  34   2.0000      -0.999754       -27.2047
  35   2.0000      -0.984846       -26.7990
  36   2.0000      -0.922168       -25.0935
  37   2.0000      -0.897481       -24.4217
  38   2.0000      -0.848354       -23.0849
  39   2.0000      -0.836908       -22.7734
  40   2.0000      -0.830441       -22.5974
  41   2.0000      -0.818329       -22.2679
  42   2.0000      -0.743900       -20.2426
  43   2.0000      -0.730625       -19.8813
  44   2.0000      -0.726807       -19.7774
  45   2.0000      -0.691525       -18.8173
  46   2.0000      -0.685823       -18.6622
  47   2.0000      -0.676938       -18.4204
  48   2.0000      -0.671818       -18.2811
  49   2.0000      -0.662531       -18.0284
  50   2.0000      -0.650777       -17.7085
  51   2.0000      -0.645460       -17.5639
  52   2.0000      -0.632699       -17.2166
  53   2.0000      -0.622194       -16.9308
  54   2.0000      -0.604405       -16.4467
  55   2.0000      -0.600037       -16.3278
  56   2.0000      -0.597534       -16.2597
  57   2.0000      -0.577094       -15.7035
  58   2.0000      -0.574347       -15.6288
  59   2.0000      -0.563692       -15.3388
  60   2.0000      -0.552448       -15.0329
  61   2.0000      -0.546839       -14.8802
  62   2.0000      -0.537911       -14.6373
  63   2.0000      -0.527430       -14.3521
  64   2.0000      -0.517613       -14.0850
  65   2.0000      -0.510072       -13.8798
  66   2.0000      -0.499622       -13.5954
  67   2.0000      -0.494802       -13.4643
  68   2.0000      -0.479943       -13.0599
  69   2.0000      -0.463796       -12.6205
  70   2.0000      -0.457126       -12.4390
  71   2.0000      -0.448842       -12.2136
  72   2.0000      -0.352977        -9.6050
  73   2.0000      -0.346720        -9.4347
  74   2.0000      -0.327551        -8.9131
  75   2.0000      -0.317683        -8.6446
  76   2.0000      -0.316922        -8.6239
  77   0.0000       0.074776         2.0348
  78   0.0000       0.108175         2.9436
  79   0.0000       0.121229         3.2988
  80   0.0000       0.133707         3.6384
  81   0.0000       0.139557         3.7975

MULLIKEN ATOMIC CHARGES
-----------------------
   0 C :   -0.323194
   1 C :    0.059664
   2 O :   -0.378876
   3 C :    0.456992
   4 O :   -0.408486
   5 C :   -0.191642
   6 C :    0.148864
   7 C :   -0.280085
   8 N :   -0.127200
   9 C :    0.208317
  10 S :   -0.441850
  11 N :   -0.212482
  12 C :    0.047322
  13 C :    0.028808
  14 C :   -0.178261
  15 C :   -0.133538
  16 C :   -0.277289
  17 C :    0.315058
  18 O :   -0.358692
  19 C :   -0.254362
  20 H :    0.125699
  21 H :    0.105726
  22 H :    0.104451
  23 H :    0.099624
  24 H :    0.094441
  25 H :    0.125056
  26 H :    0.128411
  27 H :    0.102035
  28 H :    0.198633
  29 H :    0.199596
  30 H :    0.156815
  31 H :    0.163653
  32 H :    0.161238
  33 H :    0.129579
  34 H :    0.240267
  35 H :    0.165708
Sum of atomic charges:   -0.0000000

LOEWDIN ATOMIC CHARGES
----------------------
   0 C :    0.106187
   1 C :   -0.010472
   2 O :    0.289132
   3 C :   -0.419062
   4 O :    0.116953
   5 C :   -0.095546
   6 C :   -0.065969
   7 C :    0.125932
   8 N :    0.405433
   9 C :   -0.457839
  10 S :   -0.037446
  11 N :    0.396173
  12 C :   -0.048313
  13 C :   -0.041427
  14 C :    0.024641
  15 C :    0.041027
  16 C :   -0.001248
  17 C :   -0.193333
  18 O :    0.393478
  19 C :    0.028741
  20 H :   -0.023273
  21 H :   -0.024701
  22 H :   -0.026421
  23 H :   -0.027857
  24 H :   -0.028269
  25 H :   -0.009936
  26 H :   -0.007658
  27 H :   -0.021016
  28 H :   -0.058586
  29 H :   -0.063555
  30 H :   -0.007678
  31 H :   -0.023473
  32 H :   -0.020628
  33 H :   -0.035832
  34 H :   -0.154487
  35 H :   -0.023671

  Mayer bond orders larger than 0.100000
B(  0-C ,  1-C ) :   0.9619 B(  0-C , 20-H ) :   0.9709 B(  0-C , 21-H ) :   0.9749
B(  0-C , 22-H ) :   0.9702 B(  1-C ,  2-O ) :   0.9043 B(  1-C , 23-H ) :   0.9833
B(  1-C , 24-H ) :   0.9800 B(  2-O ,  3-C ) :   1.0788 B(  3-C ,  4-O ) :   2.0126
B(  3-C ,  5-C ) :   1.0282 B(  5-C ,  6-C ) :   1.6680 B(  5-C , 12-C ) :   0.9446
B(  6-C ,  7-C ) :   0.9544 B(  6-C ,  8-N ) :   1.1414 B(  7-C , 25-H ) :   0.9650
B(  7-C , 26-H ) :   0.9652 B(  7-C , 27-H ) :   0.9900 B(  8-N ,  9-C ) :   1.1850
B(  8-N , 28-H ) :   0.9471 B(  9-C , 10-S ) :   1.6095 B(  9-C , 11-N ) :   1.3040
B( 11-N , 12-C ) :   0.9788 B( 11-N , 29-H ) :   0.9486 B( 12-C , 13-C ) :   0.9681
B( 12-C , 30-H ) :   0.9963 B( 13-C , 14-C ) :   1.3813 B( 13-C , 19-C ) :   1.3622
B( 14-C , 15-C ) :   1.3959 B( 14-C , 31-H ) :   0.9616 B( 15-C , 16-C ) :   1.3592
B( 15-C , 32-H ) :   0.9708 B( 16-C , 17-C ) :   1.3329 B( 16-C , 33-H ) :   0.9854
B( 17-C , 18-O ) :   1.1051 B( 17-C , 19-C ) :   1.3651 B( 18-O , 34-H ) :   0.9803
B( 19-C , 35-H ) :   0.9597

MP2 TOTAL ENERGY:    -1274.328502205 Eh
FINAL SINGLE POINT ENERGY     -1274.328502204979

DIPOLE MOMENT
-------------
                                X             Y             Z
Electronic contribution:      9.16608       9.92529       8.28103
Nuclear contribution   :    -10.66810     -11.22409      -9.17213
                        -----------------------------------------
Total Dipole Moment    :     -1.50202      -1.29880      -0.89110
                        -----------------------------------------
Magnitude (a.u.)       :      2.17647
Magnitude (Debye)      :      5.53215

Rotational constants in cm-1:     0.010993     0.009210     0.006025
Rotational constants in MHz :   329.567942   276.108790   180.627593

                             ****ORCA TERMINATED NORMALLY****
TOTAL RUN TIME: 0 days 1 hours 43 minutes 56 seconds 26 msec
