                         Program Version 4.2.0 -  RELEASE  -
|  1> ! ri-mp2 cc-pvtz cc-pvtz/c TightSCF NoKeepInts
|  2>
|  3> %scf
|  4>   MaxCore 4096
|  5> end
|  6> *xyz  0  1
|  7>     C       14.1098946   15.0473043   14.7316409
|  8>     C       15.2605960   15.7782165   14.0162157
|  9>     O       15.7043145   16.8518448   14.8663719
| 10>     C       16.6843596   16.6292460   15.7920066
| 11>     O       17.2521899   15.5538890   15.8950175
| 12>     C       16.9814737   17.7900672   16.7016475
| 13>     C       16.7674319   19.0863408   16.3490805
| 14>     C       16.0033207   19.6184991   15.1522736
| 15>     N       17.3076178   20.1294772   17.1060175
| 16>     C       18.2431240   19.9697316   18.0919295
| 17>     S       18.9199780   21.2623342   18.8708170
| 18>     N       18.6062355   18.6799483   18.3837866
| 19>     C       17.9685507   17.4689218   17.8322836
| 20>     C       17.3888999   16.5579195   18.9066355
| 21>     C       17.7864683   15.2117990   18.9974707
| 22>     C       17.2523451   14.3742593   19.9910784
| 23>     C       16.3139226   14.8878651   20.9026355
| 24>     C       15.9148454   16.2286127   20.8132705
| 25>     O       15.0061440   16.7260431   21.6897583
| 26>     C       16.4479994   17.0596044   19.8227698
| 27>     H       14.4642746   14.5868840   15.6628782
| 28>     H       13.7026659   14.2539464   14.0933003
| 29>     H       13.2984008   15.7439312   14.9758247
| 30>     H       16.0773048   15.0847459   13.7723597
| 31>     H       14.8801922   16.1967189   13.0756738
| 32>     H       16.4411657   19.2517814   14.2155840
| 33>     H       16.0024598   20.7140154   15.0990510
| 34>     H       14.9550556   19.2960315   15.1872932
| 35>     H       17.0665540   21.0833013   16.8895395
| 36>     H       19.2804314   18.5875080   19.1330870
| 37>     H       18.8349415   16.9951161   17.3482497
| 38>     H       18.5003435   14.8102157   18.2821998
| 39>     H       17.5620476   13.3322815   20.0469255
| 40>     H       15.8976634   14.2441067   21.6702070
| 41>     H       14.7741343   16.0121190   22.3022764
| 42>     H       16.1296534   18.0953727   19.7708431
| 43> *
| 44>
| 45>                          ****END OF INPUT****

CARTESIAN COORDINATES (ANGSTROEM)
---------------------------------
  C     14.109895   15.047304   14.731641
  C     15.260596   15.778216   14.016216
  O     15.704314   16.851845   14.866372
  C     16.684360   16.629246   15.792007
  O     17.252190   15.553889   15.895017
  C     16.981474   17.790067   16.701647
  C     16.767432   19.086341   16.349080
  C     16.003321   19.618499   15.152274
  N     17.307618   20.129477   17.106018
  C     18.243124   19.969732   18.091929
  S     18.919978   21.262334   18.870817
  N     18.606236   18.679948   18.383787
  C     17.968551   17.468922   17.832284
  C     17.388900   16.557920   18.906636
  C     17.786468   15.211799   18.997471
  C     17.252345   14.374259   19.991078
  C     16.313923   14.887865   20.902635
  C     15.914845   16.228613   20.813271
  O     15.006144   16.726043   21.689758
  C     16.447999   17.059604   19.822770
  H     14.464275   14.586884   15.662878
  H     13.702666   14.253946   14.093300
  H     13.298401   15.743931   14.975825
  H     16.077305   15.084746   13.772360
  H     14.880192   16.196719   13.075674
  H     16.441166   19.251781   14.215584
  H     16.002460   20.714015   15.099051
  H     14.955056   19.296031   15.187293
  H     17.066554   21.083301   16.889540
  H     19.280431   18.587508   19.133087
  H     18.834941   16.995116   17.348250
  H     18.500343   14.810216   18.282200
  H     17.562048   13.332281   20.046926
  H     15.897663   14.244107   21.670207
  H     14.774134   16.012119   22.302276
  H     16.129653   18.095373   19.770843

 Total Charge           Charge          ....    0
 Multiplicity           Mult            ....    1
 Number of Electrons    NEL             ....  154
 Basis Dimension        Dim             ....  828

ORBITAL ENERGIES
----------------

  NO   OCC          E(Eh)            E(eV)
   0   2.0000     -91.887807     -2500.3943
   1   2.0000     -20.604959      -560.6894
   2   2.0000     -20.591067      -560.3114
   3   2.0000     -20.544669      -559.0489
   4   2.0000     -15.628413      -425.2707
   5   2.0000     -15.605456      -424.6461
   6   2.0000     -11.396841      -310.1238
   7   2.0000     -11.382279      -309.7276
   8   2.0000     -11.338436      -308.5345
   9   2.0000     -11.307041      -307.6802
  10   2.0000     -11.303932      -307.5956
  11   2.0000     -11.299712      -307.4808
  12   2.0000     -11.261567      -306.4428
  13   2.0000     -11.258927      -306.3710
  14   2.0000     -11.254349      -306.2464
  15   2.0000     -11.247139      -306.0502
  16   2.0000     -11.237362      -305.7842
  17   2.0000     -11.233497      -305.6790
  18   2.0000     -11.230273      -305.5913
  19   2.0000     -11.227904      -305.5268
  20   2.0000      -8.892892      -241.9879
  21   2.0000      -6.574470      -178.9004
  22   2.0000      -6.572466      -178.8459
  23   2.0000      -6.571879      -178.8299
  24   2.0000      -1.454497       -39.5789
  25   2.0000      -1.410815       -38.3902
  26   2.0000      -1.357279       -36.9334
  27   2.0000      -1.339794       -36.4577
  28   2.0000      -1.236917       -33.6582
  29   2.0000      -1.151786       -31.3417
  30   2.0000      -1.120408       -30.4879
  31   2.0000      -1.042750       -28.3747
  32   2.0000      -1.034805       -28.1585
  33   2.0000      -1.009277       -27.4638
  34   2.0000      -0.998317       -27.1656
  35   2.0000      -0.983163       -26.7532
  36   2.0000      -0.920538       -25.0491
  37   2.0000      -0.892859       -24.2959
  38   2.0000      -0.847494       -23.0615
  39   2.0000      -0.834396       -22.7051
  40   2.0000      -0.827380       -22.5142
  41   2.0000      -0.815794       -22.1989
  42   2.0000      -0.757139       -20.6028
  43   2.0000      -0.736378       -20.0379
  44   2.0000      -0.725626       -19.7453
  45   2.0000      -0.690585       -18.7918
  46   2.0000      -0.685794       -18.6614
  47   2.0000      -0.679641       -18.4940
  48   2.0000      -0.669222       -18.2105
  49   2.0000      -0.654632       -17.8134
  50   2.0000      -0.649465       -17.6728
  51   2.0000      -0.644143       -17.5280
  52   2.0000      -0.630466       -17.1559
  53   2.0000      -0.609997       -16.5989
  54   2.0000      -0.602169       -16.3858
  55   2.0000      -0.597678       -16.2637
  56   2.0000      -0.594275       -16.1710
  57   2.0000      -0.581526       -15.8241
  58   2.0000      -0.573303       -15.6004
  59   2.0000      -0.563402       -15.3310
  60   2.0000      -0.559075       -15.2132
  61   2.0000      -0.549426       -14.9506
  62   2.0000      -0.535075       -14.5601
  63   2.0000      -0.531689       -14.4680
  64   2.0000      -0.514968       -14.0130
  65   2.0000      -0.508042       -13.8245
  66   2.0000      -0.498214       -13.5571
  67   2.0000      -0.493693       -13.4341
  68   2.0000      -0.481987       -13.1155
  69   2.0000      -0.464643       -12.6436
  70   2.0000      -0.458233       -12.4692
  71   2.0000      -0.451719       -12.2919
  72   2.0000      -0.353114        -9.6087
  73   2.0000      -0.344000        -9.3607
  74   2.0000      -0.326881        -8.8949
  75   2.0000      -0.316969        -8.6252
  76   2.0000      -0.313643        -8.5346
  77   0.0000       0.077834         2.1180
  78   0.0000       0.112374         3.0578
  79   0.0000       0.120949         3.2912
  80   0.0000       0.136525         3.7150
  81   0.0000       0.141240         3.8433

MULLIKEN ATOMIC CHARGES
-----------------------
   0 C :   -0.281870
   1 C :    0.025426
   2 O :   -0.347232
   3 C :    0.427272
   4 O :   -0.429891
   5 C :   -0.176208
   6 C :    0.163429
   7 C :   -0.279431
   8 N :   -0.128837
   9 C :    0.207350
  10 S :   -0.442805
  11 N :   -0.210739
  12 C :    0.041564
  13 C :    0.032101
  14 C :   -0.165486
  15 C :   -0.134633
  16 C :   -0.276839
  17 C :    0.314380
  18 O :   -0.359146
  19 C :   -0.250985
  20 H :    0.111535
  21 H :    0.093800
  22 H :    0.093592
  23 H :    0.112498
  24 H :    0.103514
  25 H :    0.124014
  26 H :    0.101526
  27 H :    0.130028
  28 H :    0.198846
  29 H :    0.199951
  30 H :    0.154698
  31 H :    0.158146
  32 H :    0.159664
  33 H :    0.128007
  34 H :    0.239829
  35 H :    0.162930
Sum of atomic charges:   -0.0000000

LOEWDIN ATOMIC CHARGES
----------------------
   0 C :    0.105700
   1 C :   -0.017313
   2 O :    0.308000
   3 C :   -0.414610
   4 O :    0.101003
   5 C :   -0.090603
   6 C :   -0.063444
   7 C :    0.124810
   8 N :    0.405447
   9 C :   -0.458854
  10 S :   -0.037879
  11 N :    0.396643
  12 C :   -0.048306
  13 C :   -0.040429
  14 C :    0.025017
  15 C :    0.040765
  16 C :   -0.001096
  17 C :   -0.192397
  18 O :    0.393060
  19 C :    0.029908
  20 H :   -0.023143
  21 H :   -0.026425
  22 H :   -0.028736
  23 H :   -0.027888
  24 H :   -0.027963
  25 H :   -0.009761
  26 H :   -0.021408
  27 H :   -0.009242
  28 H :   -0.058822
  29 H :   -0.062990
  30 H :   -0.008616
  31 H :   -0.024146
  32 H :   -0.021175
  33 H :   -0.036222
  34 H :   -0.154966
  35 H :   -0.023921

  Mayer bond orders larger than 0.100000
B(  0-C ,  1-C ) :   0.9672 B(  0-C , 20-H ) :   0.9765 B(  0-C , 21-H ) :   0.9756
B(  0-C , 22-H ) :   0.9775 B(  1-C ,  2-O ) :   0.8889 B(  1-C , 23-H ) :   0.9747
B(  1-C , 24-H ) :   0.9839 B(  2-O ,  3-C ) :   1.1565 B(  3-C ,  4-O ) :   1.9677
B(  3-C ,  5-C ) :   1.0535 B(  5-C ,  6-C ) :   1.6516 B(  5-C , 12-C ) :   0.9531
B(  6-C ,  7-C ) :   0.9537 B(  6-C ,  8-N ) :   1.1370 B(  7-C , 25-H ) :   0.9654
B(  7-C , 26-H ) :   0.9913 B(  7-C , 27-H ) :   0.9633 B(  8-N ,  9-C ) :   1.1851
B(  8-N , 28-H ) :   0.9469 B(  9-C , 10-S ) :   1.6075 B(  9-C , 11-N ) :   1.3072
B( 11-N , 12-C ) :   0.9766 B( 11-N , 29-H ) :   0.9485 B( 12-C , 13-C ) :   0.9742
B( 12-C , 30-H ) :   0.9977 B( 13-C , 14-C ) :   1.3749 B( 13-C , 19-C ) :   1.3670
B( 14-C , 15-C ) :   1.3974 B( 14-C , 31-H ) :   0.9641 B( 15-C , 16-C ) :   1.3585
B( 15-C , 32-H ) :   0.9713 B( 16-C , 17-C ) :   1.3335 B( 16-C , 33-H ) :   0.9860
B( 17-C , 18-O ) :   1.1031 B( 17-C , 19-C ) :   1.3675 B( 18-O , 34-H ) :   0.9807
B( 19-C , 35-H ) :   0.9603

MP2 TOTAL ENERGY:    -1274.342958945 Eh
FINAL SINGLE POINT ENERGY     -1274.342958944525

DIPOLE MOMENT
-------------
                                X             Y             Z
Electronic contribution:     10.26513       9.72600      10.83992
Nuclear contribution   :    -11.64883     -10.95503     -12.03800
                        -----------------------------------------
Total Dipole Moment    :     -1.38370      -1.22903      -1.19808
                        -----------------------------------------
Magnitude (a.u.)       :      2.20466
Magnitude (Debye)      :      5.60381

Rotational constants in cm-1:     0.009830     0.009193     0.005593
Rotational constants in MHz :   294.709673   275.586813   167.661196

                             ****ORCA TERMINATED NORMALLY****
TOTAL RUN TIME: 0 days 1 hours 55 minutes 17 seconds 614 msec
