                         Program Version 4.2.0 -  RELEASE  -
|  1> ! ri-mp2 cc-pvtz cc-pvtz/c TightSCF NoKeepInts
|  2>
|  3> %scf
|  4>   MaxCore 4096
|  5> end
|  6> *xyz  0  1
|  7>     C       14.7595454   15.0367039   14.0177573
|  8>     C       15.5433517   14.7441362   15.3152065
|  9>     O       16.1722517   15.8855716   15.9567207
| 10>     C       15.9217171   17.2229223   15.7633501
| 11>     O       15.1339503   17.6630270   14.9458003
| 12>     C       16.7233035   18.0812467   16.7092719
| 13>     C       16.8387661   19.4203951   16.5087024
| 14>     C       16.0365914   20.2807630   15.5536437
| 15>     N       17.7819512   20.1757934   17.2094814
| 16>     C       18.7754354   19.6470221   17.9875295
| 17>     S       19.9205867   20.5956766   18.7118197
| 18>     N       18.7859137   18.2819384   18.1182885
| 19>     C       17.7512415   17.3650702   17.6041186
| 20>     C       17.1350090   16.5089130   18.7031113
| 21>     C       17.4303236   15.1360146   18.7926924
| 22>     C       16.8638304   14.3493490   19.8098677
| 23>     C       15.9984587   14.9415013   20.7458684
| 24>     C       15.7069294   16.3101290   20.6610853
| 25>     O       14.8737289   16.8846380   21.5648739
| 26>     C       16.2724662   17.0904032   19.6477912
| 27>     H       13.8515690   15.6169361   14.2245890
| 28>     H       14.4483243   14.0980447   13.5439977
| 29>     H       15.3782743   15.5878114   13.2984705
| 30>     H       14.8494842   14.2845230   16.0310409
| 31>     H       16.3184264   13.9977592   15.0994109
| 32>     H       14.9606371   20.1352508   15.7146912
| 33>     H       16.2521879   20.0078664   14.5127913
| 34>     H       16.2398375   21.3523821   15.6642175
| 35>     H       17.7981403   21.1775821   17.1044275
| 36>     H       19.5103243   17.9231776   18.7272485
| 37>     H       18.3583633   16.7486211   16.9262663
| 38>     H       18.0962855   14.6771488   18.0669954
| 39>     H       17.0956820   13.2875280   19.8709572
| 40>     H       15.5587910   14.3384415   21.5334300
| 41>     H       14.6039519   16.1963647   22.1911541
| 42>     H       16.0413693   18.1493484   19.6013312
| 43> *
| 44>
| 45>                          ****END OF INPUT****

CARTESIAN COORDINATES (ANGSTROEM)
---------------------------------
  C     14.759545   15.036704   14.017757
  C     15.543352   14.744136   15.315207
  O     16.172252   15.885572   15.956721
  C     15.921717   17.222922   15.763350
  O     15.133950   17.663027   14.945800
  C     16.723304   18.081247   16.709272
  C     16.838766   19.420395   16.508702
  C     16.036591   20.280763   15.553644
  N     17.781951   20.175793   17.209481
  C     18.775435   19.647022   17.987529
  S     19.920587   20.595677   18.711820
  N     18.785914   18.281938   18.118288
  C     17.751241   17.365070   17.604119
  C     17.135009   16.508913   18.703111
  C     17.430324   15.136015   18.792692
  C     16.863830   14.349349   19.809868
  C     15.998459   14.941501   20.745868
  C     15.706929   16.310129   20.661085
  O     14.873729   16.884638   21.564874
  C     16.272466   17.090403   19.647791
  H     13.851569   15.616936   14.224589
  H     14.448324   14.098045   13.543998
  H     15.378274   15.587811   13.298470
  H     14.849484   14.284523   16.031041
  H     16.318426   13.997759   15.099411
  H     14.960637   20.135251   15.714691
  H     16.252188   20.007866   14.512791
  H     16.239838   21.352382   15.664217
  H     17.798140   21.177582   17.104427
  H     19.510324   17.923178   18.727249
  H     18.358363   16.748621   16.926266
  H     18.096286   14.677149   18.066995
  H     17.095682   13.287528   19.870957
  H     15.558791   14.338442   21.533430
  H     14.603952   16.196365   22.191154
  H     16.041369   18.149348   19.601331

 Total Charge           Charge          ....    0
 Multiplicity           Mult            ....    1
 Number of Electrons    NEL             ....  154
 Basis Dimension        Dim             ....  828

ORBITAL ENERGIES
----------------

  NO   OCC          E(Eh)            E(eV)
   0   2.0000     -91.887609     -2500.3889
   1   2.0000     -20.598375      -560.5103
   2   2.0000     -20.595350      -560.4280
   3   2.0000     -20.539180      -558.8995
   4   2.0000     -15.627767      -425.2532
   5   2.0000     -15.605574      -424.6493
   6   2.0000     -11.398413      -310.1666
   7   2.0000     -11.382095      -309.7226
   8   2.0000     -11.335890      -308.4652
   9   2.0000     -11.312351      -307.8247
  10   2.0000     -11.305846      -307.6477
  11   2.0000     -11.303840      -307.5931
  12   2.0000     -11.259411      -306.3841
  13   2.0000     -11.258416      -306.3571
  14   2.0000     -11.253930      -306.2350
  15   2.0000     -11.250524      -306.1423
  16   2.0000     -11.242162      -305.9148
  17   2.0000     -11.237468      -305.7871
  18   2.0000     -11.237359      -305.7841
  19   2.0000     -11.223051      -305.3948
  20   2.0000      -8.892695      -241.9825
  21   2.0000      -6.574272      -178.8950
  22   2.0000      -6.572270      -178.8406
  23   2.0000      -6.571683      -178.8246
  24   2.0000      -1.442176       -39.2436
  25   2.0000      -1.414992       -38.5039
  26   2.0000      -1.353935       -36.8425
  27   2.0000      -1.339132       -36.4396
  28   2.0000      -1.236981       -33.6600
  29   2.0000      -1.156014       -31.4567
  30   2.0000      -1.119141       -30.4534
  31   2.0000      -1.041372       -28.3372
  32   2.0000      -1.036937       -28.2165
  33   2.0000      -1.013604       -27.5816
  34   2.0000      -0.994900       -27.0726
  35   2.0000      -0.982819       -26.7439
  36   2.0000      -0.920388       -25.0450
  37   2.0000      -0.897961       -24.4348
  38   2.0000      -0.845774       -23.0147
  39   2.0000      -0.836913       -22.7736
  40   2.0000      -0.832825       -22.6623
  41   2.0000      -0.817695       -22.2506
  42   2.0000      -0.744827       -20.2678
  43   2.0000      -0.730607       -19.8808
  44   2.0000      -0.716989       -19.5103
  45   2.0000      -0.694107       -18.8876
  46   2.0000      -0.686827       -18.6895
  47   2.0000      -0.675773       -18.3887
  48   2.0000      -0.667659       -18.1679
  49   2.0000      -0.661681       -18.0053
  50   2.0000      -0.647761       -17.6265
  51   2.0000      -0.643380       -17.5073
  52   2.0000      -0.633853       -17.2480
  53   2.0000      -0.605840       -16.4858
  54   2.0000      -0.600777       -16.3480
  55   2.0000      -0.597880       -16.2691
  56   2.0000      -0.596016       -16.2184
  57   2.0000      -0.582799       -15.8588
  58   2.0000      -0.574635       -15.6366
  59   2.0000      -0.568730       -15.4759
  60   2.0000      -0.560847       -15.2614
  61   2.0000      -0.539282       -14.6746
  62   2.0000      -0.535638       -14.5755
  63   2.0000      -0.524111       -14.2618
  64   2.0000      -0.522295       -14.2124
  65   2.0000      -0.511361       -13.9148
  66   2.0000      -0.502429       -13.6718
  67   2.0000      -0.496570       -13.5123
  68   2.0000      -0.482291       -13.1238
  69   2.0000      -0.461938       -12.5700
  70   2.0000      -0.450876       -12.2689
  71   2.0000      -0.439424       -11.9573
  72   2.0000      -0.351543        -9.5660
  73   2.0000      -0.348358        -9.4793
  74   2.0000      -0.326857        -8.8942
  75   2.0000      -0.319784        -8.7018
  76   2.0000      -0.316802        -8.6206
  77   0.0000       0.079266         2.1569
  78   0.0000       0.107068         2.9135
  79   0.0000       0.123935         3.3724
  80   0.0000       0.133865         3.6427
  81   0.0000       0.136752         3.7212

MULLIKEN ATOMIC CHARGES
-----------------------
   0 C :   -0.285334
   1 C :    0.050745
   2 O :   -0.357624
   3 C :    0.433836
   4 O :   -0.434991
   5 C :   -0.208436
   6 C :    0.172208
   7 C :   -0.268113
   8 N :   -0.125908
   9 C :    0.211292
  10 S :   -0.444330
  11 N :   -0.215217
  12 C :    0.055483
  13 C :    0.055030
  14 C :   -0.182292
  15 C :   -0.133812
  16 C :   -0.276683
  17 C :    0.317117
  18 O :   -0.357113
  19 C :   -0.249596
  20 H :    0.115892
  21 H :    0.096162
  22 H :    0.102810
  23 H :    0.090862
  24 H :    0.091225
  25 H :    0.133279
  26 H :    0.127868
  27 H :    0.094286
  28 H :    0.199472
  29 H :    0.200146
  30 H :    0.150115
  31 H :    0.150244
  32 H :    0.159602
  33 H :    0.129307
  34 H :    0.240366
  35 H :    0.162104
Sum of atomic charges:   -0.0000000

LOEWDIN ATOMIC CHARGES
----------------------
   0 C :    0.102099
   1 C :   -0.008097
   2 O :    0.296820
   3 C :   -0.412460
   4 O :    0.105925
   5 C :   -0.093194
   6 C :   -0.057032
   7 C :    0.129925
   8 N :    0.406833
   9 C :   -0.457028
  10 S :   -0.038342
  11 N :    0.394586
  12 C :   -0.055165
  13 C :   -0.038319
  14 C :    0.016326
  15 C :    0.039032
  16 C :   -0.001058
  17 C :   -0.189470
  18 O :    0.394900
  19 C :    0.033277
  20 H :   -0.024758
  21 H :   -0.028193
  22 H :   -0.025976
  23 H :   -0.027531
  24 H :   -0.027420
  25 H :   -0.004631
  26 H :   -0.005754
  27 H :   -0.023997
  28 H :   -0.057420
  29 H :   -0.064583
  30 H :   -0.014754
  31 H :   -0.030031
  32 H :   -0.021628
  33 H :   -0.035707
  34 H :   -0.154192
  35 H :   -0.022982

  Mayer bond orders larger than 0.100000
B(  0-C ,  1-C ) :   0.9836 B(  0-C , 20-H ) :   0.9725 B(  0-C , 21-H ) :   0.9739
B(  0-C , 22-H ) :   0.9746 B(  1-C ,  2-O ) :   0.9012 B(  1-C , 23-H ) :   0.9747
B(  1-C , 24-H ) :   0.9799 B(  2-O ,  3-C ) :   1.1506 B(  3-C ,  4-O ) :   1.9648
B(  3-C ,  5-C ) :   1.0786 B(  5-C ,  6-C ) :   1.6418 B(  5-C , 12-C ) :   0.9564
B(  6-C ,  7-C ) :   0.9657 B(  6-C ,  8-N ) :   1.1507 B(  7-C , 25-H ) :   0.9613
B(  7-C , 26-H ) :   0.9590 B(  7-C , 27-H ) :   0.9911 B(  8-N ,  9-C ) :   1.1886
B(  8-N , 28-H ) :   0.9465 B(  9-C , 10-S ) :   1.6032 B(  9-C , 11-N ) :   1.3106
B( 11-N , 12-C ) :   0.9651 B( 11-N , 29-H ) :   0.9485 B( 12-C , 13-C ) :   0.9659
B( 12-C , 30-H ) :   1.0012 B( 13-C , 14-C ) :   1.3509 B( 13-C , 19-C ) :   1.3822
B( 14-C , 15-C ) :   1.3960 B( 14-C , 31-H ) :   0.9726 B( 15-C , 16-C ) :   1.3598
B( 15-C , 32-H ) :   0.9710 B( 16-C , 17-C ) :   1.3340 B( 16-C , 33-H ) :   0.9854
B( 17-C , 18-O ) :   1.1039 B( 17-C , 19-C ) :   1.3649 B( 18-O , 34-H ) :   0.9801
B( 19-C , 35-H ) :   0.9598

MP2 TOTAL ENERGY:    -1274.331836618 Eh
FINAL SINGLE POINT ENERGY     -1274.331836617534

DIPOLE MOMENT
-------------
                                X             Y             Z
Electronic contribution:      9.14724       9.73577      10.57729
Nuclear contribution   :    -10.18619     -11.52865     -10.97578
                        -----------------------------------------
Total Dipole Moment    :     -1.03895      -1.79289      -0.39849
                        -----------------------------------------
Magnitude (a.u.)       :      2.11013
Magnitude (Debye)      :      5.36352

Rotational constants in cm-1:     0.010420     0.008850     0.005755
Rotational constants in MHz :   312.377178   265.304078   172.522033

                             ****ORCA TERMINATED NORMALLY****
TOTAL RUN TIME: 0 days 1 hours 37 minutes 54 seconds 448 msec
