                         Program Version 4.2.0 -  RELEASE  -
|  1> ! ri-mp2 cc-pvtz cc-pvtz/c TightSCF NoKeepInts
|  2>
|  3> %scf
|  4>   MaxCore 4096
|  5> end
|  6> *xyz  0  1
|  7>     C       14.3713228   15.9455836   15.1794958
|  8>     C       15.4721323   15.3153071   16.0581948
|  9>     O       16.7796741   15.6562242   15.5450131
| 10>     C       17.1042908   16.9515900   15.2618397
| 11>     O       17.3670634   17.2876511   14.1216315
| 12>     C       17.0768988   17.8909781   16.4344501
| 13>     C       16.8912535   19.2153991   16.2060656
| 14>     C       16.3046043   19.8439590   14.9591529
| 15>     N       17.2334538   20.1726211   17.1626200
| 16>     C       17.9988222   19.9136957   18.2670467
| 17>     S       18.4802932   21.1110286   19.3010659
| 18>     N       18.3682004   18.6061467   18.4589250
| 19>     C       17.8710009   17.4546266   17.6805511
| 20>     C       17.2421967   16.3847753   18.5595283
| 21>     C       17.7408349   15.0690348   18.5557527
| 22>     C       17.1560928   14.0829888   19.3679204
| 23>     C       16.0700015   14.4174130   20.1950554
| 24>     C       15.5783145   15.7299617   20.2080964
| 25>     O       14.5284943   16.0551099   21.0031165
| 26>     C       16.1599509   16.7089082   19.3961764
| 27>     H       14.3473246   17.0364467   15.2882784
| 28>     H       13.3865275   15.5590495   15.4689526
| 29>     H       14.5344650   15.7032124   14.1213498
| 30>     H       15.3361146   15.6613176   17.0864499
| 31>     H       15.3616767   14.2232522   16.0578111
| 32>     H       15.5333432   19.2022019   14.5159933
| 33>     H       17.0847144   19.9854918   14.1995951
| 34>     H       15.8414188   20.8180782   15.1560832
| 35>     H       17.0049546   21.1416639   17.0070825
| 36>     H       18.9211607   18.4428853   19.2912413
| 37>     H       18.8287081   17.0885776   17.2829855
| 38>     H       18.5768124   14.8071746   17.9115817
| 39>     H       17.5453275   13.0660548   19.3550422
| 40>     H       15.6162074   13.6587338   20.8245736
| 41>     H       14.3047039   15.2718238   21.5284181
| 42>     H       15.7686443   17.7210329   19.4208634
| 43> *
| 44>
| 45>                          ****END OF INPUT****

CARTESIAN COORDINATES (ANGSTROEM)
---------------------------------
  C     14.371323   15.945584   15.179496
  C     15.472132   15.315307   16.058195
  O     16.779674   15.656224   15.545013
  C     17.104291   16.951590   15.261840
  O     17.367063   17.287651   14.121631
  C     17.076899   17.890978   16.434450
  C     16.891254   19.215399   16.206066
  C     16.304604   19.843959   14.959153
  N     17.233454   20.172621   17.162620
  C     17.998822   19.913696   18.267047
  S     18.480293   21.111029   19.301066
  N     18.368200   18.606147   18.458925
  C     17.871001   17.454627   17.680551
  C     17.242197   16.384775   18.559528
  C     17.740835   15.069035   18.555753
  C     17.156093   14.082989   19.367920
  C     16.070002   14.417413   20.195055
  C     15.578314   15.729962   20.208096
  O     14.528494   16.055110   21.003117
  C     16.159951   16.708908   19.396176
  H     14.347325   17.036447   15.288278
  H     13.386527   15.559049   15.468953
  H     14.534465   15.703212   14.121350
  H     15.336115   15.661318   17.086450
  H     15.361677   14.223252   16.057811
  H     15.533343   19.202202   14.515993
  H     17.084714   19.985492   14.199595
  H     15.841419   20.818078   15.156083
  H     17.004955   21.141664   17.007082
  H     18.921161   18.442885   19.291241
  H     18.828708   17.088578   17.282985
  H     18.576812   14.807175   17.911582
  H     17.545327   13.066055   19.355042
  H     15.616207   13.658734   20.824574
  H     14.304704   15.271824   21.528418
  H     15.768644   17.721033   19.420863

 Total Charge           Charge          ....    0
 Multiplicity           Mult            ....    1
 Number of Electrons    NEL             ....  154
 Basis Dimension        Dim             ....  828

ORBITAL ENERGIES
----------------

  NO   OCC          E(Eh)            E(eV)
   0   2.0000     -91.891229     -2500.4875
   1   2.0000     -20.602869      -560.6326
   2   2.0000     -20.585954      -560.1723
   3   2.0000     -20.551023      -559.2218
   4   2.0000     -15.629723      -425.3064
   5   2.0000     -15.610458      -424.7822
   6   2.0000     -11.393442      -310.0313
   7   2.0000     -11.385867      -309.8252
   8   2.0000     -11.335454      -308.4534
   9   2.0000     -11.320932      -308.0582
  10   2.0000     -11.314983      -307.8963
  11   2.0000     -11.298886      -307.4583
  12   2.0000     -11.267315      -306.5992
  13   2.0000     -11.261806      -306.4493
  14   2.0000     -11.258052      -306.3472
  15   2.0000     -11.255199      -306.2695
  16   2.0000     -11.250919      -306.1531
  17   2.0000     -11.245737      -306.0121
  18   2.0000     -11.244922      -305.9899
  19   2.0000     -11.230590      -305.5999
  20   2.0000      -8.896282      -242.0801
  21   2.0000      -6.577849      -178.9924
  22   2.0000      -6.575855      -178.9381
  23   2.0000      -6.575258      -178.9219
  24   2.0000      -1.445061       -39.3221
  25   2.0000      -1.422655       -38.7124
  26   2.0000      -1.355826       -36.8939
  27   2.0000      -1.342306       -36.5260
  28   2.0000      -1.241205       -33.7749
  29   2.0000      -1.164049       -31.6754
  30   2.0000      -1.123583       -30.5743
  31   2.0000      -1.048742       -28.5377
  32   2.0000      -1.033083       -28.1116
  33   2.0000      -1.022037       -27.8110
  34   2.0000      -1.002247       -27.2725
  35   2.0000      -0.988825       -26.9073
  36   2.0000      -0.926290       -25.2056
  37   2.0000      -0.893014       -24.3001
  38   2.0000      -0.850684       -23.1483
  39   2.0000      -0.843722       -22.9588
  40   2.0000      -0.841015       -22.8852
  41   2.0000      -0.829580       -22.5740
  42   2.0000      -0.751961       -20.4619
  43   2.0000      -0.737889       -20.0790
  44   2.0000      -0.717108       -19.5135
  45   2.0000      -0.700945       -19.0737
  46   2.0000      -0.689862       -18.7721
  47   2.0000      -0.680609       -18.5203
  48   2.0000      -0.674388       -18.3510
  49   2.0000      -0.666530       -18.1372
  50   2.0000      -0.651262       -17.7217
  51   2.0000      -0.647858       -17.6291
  52   2.0000      -0.635984       -17.3060
  53   2.0000      -0.620719       -16.8906
  54   2.0000      -0.612116       -16.6565
  55   2.0000      -0.605527       -16.4772
  56   2.0000      -0.602662       -16.3993
  57   2.0000      -0.581830       -15.8324
  58   2.0000      -0.576096       -15.6764
  59   2.0000      -0.567171       -15.4335
  60   2.0000      -0.553085       -15.0502
  61   2.0000      -0.548346       -14.9213
  62   2.0000      -0.543161       -14.7802
  63   2.0000      -0.531968       -14.4756
  64   2.0000      -0.527847       -14.3634
  65   2.0000      -0.517122       -14.0716
  66   2.0000      -0.504392       -13.7252
  67   2.0000      -0.497577       -13.5398
  68   2.0000      -0.479901       -13.0588
  69   2.0000      -0.468365       -12.7449
  70   2.0000      -0.454859       -12.3773
  71   2.0000      -0.449183       -12.2229
  72   2.0000      -0.357010        -9.7147
  73   2.0000      -0.353276        -9.6131
  74   2.0000      -0.330727        -8.9995
  75   2.0000      -0.328146        -8.9293
  76   2.0000      -0.321126        -8.7383
  77   0.0000       0.076210         2.0738
  78   0.0000       0.097900         2.6640
  79   0.0000       0.122019         3.3203
  80   0.0000       0.127664         3.4739
  81   0.0000       0.130078         3.5396

MULLIKEN ATOMIC CHARGES
-----------------------
   0 C :   -0.297512
   1 C :    0.030656
   2 O :   -0.359436
   3 C :    0.429124
   4 O :   -0.373324
   5 C :   -0.233329
   6 C :    0.161965
   7 C :   -0.276664
   8 N :   -0.129251
   9 C :    0.208864
  10 S :   -0.437623
  11 N :   -0.208671
  12 C :    0.034569
  13 C :   -0.008147
  14 C :   -0.162300
  15 C :   -0.136612
  16 C :   -0.271966
  17 C :    0.303323
  18 O :   -0.355718
  19 C :   -0.227810
  20 H :    0.085799
  21 H :    0.106262
  22 H :    0.116477
  23 H :    0.103126
  24 H :    0.119888
  25 H :    0.119658
  26 H :    0.141926
  27 H :    0.096259
  28 H :    0.199443
  29 H :    0.199893
  30 H :    0.153732
  31 H :    0.155511
  32 H :    0.165144
  33 H :    0.134767
  34 H :    0.241428
  35 H :    0.170549
Sum of atomic charges:   -0.0000000

LOEWDIN ATOMIC CHARGES
----------------------
   0 C :    0.105280
   1 C :   -0.017904
   2 O :    0.293065
   3 C :   -0.427623
   4 O :    0.128436
   5 C :   -0.102288
   6 C :   -0.064699
   7 C :    0.129445
   8 N :    0.407077
   9 C :   -0.457413
  10 S :   -0.033467
  11 N :    0.395691
  12 C :   -0.053495
  13 C :   -0.045578
  14 C :    0.022089
  15 C :    0.043214
  16 C :    0.000960
  17 C :   -0.192645
  18 O :    0.396508
  19 C :    0.030612
  20 H :   -0.033343
  21 H :   -0.024182
  22 H :   -0.021571
  23 H :   -0.037281
  24 H :   -0.021127
  25 H :   -0.010159
  26 H :   -0.003867
  27 H :   -0.021844
  28 H :   -0.056465
  29 H :   -0.063376
  30 H :   -0.010989
  31 H :   -0.026130
  32 H :   -0.018909
  33 H :   -0.033818
  34 H :   -0.152561
  35 H :   -0.021644

  Mayer bond orders larger than 0.100000
B(  0-C ,  1-C ) :   0.9753 B(  0-C , 20-H ) :   0.9745 B(  0-C , 21-H ) :   0.9772
B(  0-C , 22-H ) :   0.9747 B(  1-C ,  2-O ) :   0.8889 B(  1-C , 23-H ) :   0.9616
B(  1-C , 24-H ) :   0.9802 B(  2-O ,  3-C ) :   1.1247 B(  3-C ,  4-O ) :   2.0965
B(  3-C ,  5-C ) :   0.9832 B(  5-C ,  6-C ) :   1.6519 B(  5-C , 12-C ) :   0.9618
B(  6-C ,  7-C ) :   0.9600 B(  6-C ,  8-N ) :   1.1449 B(  7-C , 25-H ) :   0.9726
B(  7-C , 26-H ) :   0.9546 B(  7-C , 27-H ) :   0.9852 B(  8-N ,  9-C ) :   1.1903
B(  8-N , 28-H ) :   0.9484 B(  9-C , 10-S ) :   1.6153 B(  9-C , 11-N ) :   1.2944
B( 11-N , 12-C ) :   0.9822 B( 11-N , 29-H ) :   0.9476 B( 12-C , 13-C ) :   0.9618
B( 12-C , 30-H ) :   1.0052 B( 13-C , 14-C ) :   1.3721 B( 13-C , 19-C ) :   1.3614
B( 14-C , 15-C ) :   1.3925 B( 14-C , 31-H ) :   0.9689 B( 15-C , 16-C ) :   1.3613
B( 15-C , 32-H ) :   0.9693 B( 16-C , 17-C ) :   1.3319 B( 16-C , 33-H ) :   0.9833
B( 17-C , 18-O ) :   1.1094 B( 17-C , 19-C ) :   1.3635 B( 18-O , 34-H ) :   0.9789
B( 19-C , 35-H ) :   0.9593

MP2 TOTAL ENERGY:    -1274.322556177 Eh
FINAL SINGLE POINT ENERGY     -1274.322556177040

DIPOLE MOMENT
-------------
                                X             Y             Z
Electronic contribution:      9.74481       7.48820       7.86834
Nuclear contribution   :    -11.10025      -9.11346      -7.66904
                        -----------------------------------------
Total Dipole Moment    :     -1.35543      -1.62526       0.19929
                        -----------------------------------------
Magnitude (a.u.)       :      2.12565
Magnitude (Debye)      :      5.40296

Rotational constants in cm-1:     0.011672     0.009195     0.006170
Rotational constants in MHz :   349.921147   275.649259   184.971114

                             ****ORCA TERMINATED NORMALLY****
TOTAL RUN TIME: 0 days 1 hours 47 minutes 55 seconds 417 msec
