                         Program Version 4.2.0 -  RELEASE  -
|  1> ! ri-mp2 cc-pvtz cc-pvtz/c TightSCF NoKeepInts
|  2>
|  3> %scf
|  4>   MaxCore 4096
|  5> end
|  6> *xyz  0  1
|  7>     C       14.9231788   14.4228546   14.6864526
|  8>     C       15.1970123   15.3079865   15.9137719
|  9>     O       16.3239683   16.1442966   15.6029338
| 10>     C       16.1049214   17.4868865   15.5240476
| 11>     O       15.3228416   17.9485597   14.7121393
| 12>     C       16.7952289   18.2662320   16.6113456
| 13>     C       16.8377362   19.6230151   16.5713401
| 14>     C       16.0356191   20.5382610   15.6693931
| 15>     N       17.6935877   20.3416977   17.4090855
| 16>     C       18.6760496   19.7792938   18.1780629
| 17>     S       19.7202806   20.6964993   19.0746279
| 18>     N       18.7653752   18.4107110   18.1493825
| 19>     C       17.8175898   17.5053353   17.4732578
| 20>     C       17.2077785   16.4841034   18.4242600
| 21>     C       17.6861398   15.1611173   18.4512545
| 22>     C       17.1193673   14.2153708   19.3221427
| 23>     C       16.0693523   14.5974009   20.1747605
| 24>     C       15.5968186   15.9169839   20.1549957
| 25>     O       14.5837151   16.2887847   20.9770622
| 26>     C       16.1617774   16.8556680   19.2860103
| 27>     H       14.6772731   15.0421662   13.8142654
| 28>     H       14.0797130   13.7485811   14.8774557
| 29>     H       15.8032437   13.8150805   14.4426243
| 30>     H       14.3066859   15.9055459   16.1551050
| 31>     H       15.4298400   14.6735634   16.7785855
| 32>     H       14.9637841   20.3149090   15.7465453
| 33>     H       16.3245271   20.3972683   14.6199421
| 34>     H       16.1651948   21.6003182   15.9086609
| 35>     H       17.6546512   21.3484208   17.4201037
| 36>     H       19.4811418   18.0235640   18.7512716
| 37>     H       18.4925132   17.0112133   16.7596926
| 38>     H       18.4948486   14.8636522   17.7886352
| 39>     H       17.4943565   13.1932159   19.3353603
| 40>     H       15.6292304   13.8707540   20.8499985
| 41>     H       14.3637199   15.5265459   21.5337553
| 42>     H       15.7879381   17.8741434   19.2896721
| 43> *
| 44>
| 45>                          ****END OF INPUT****

CARTESIAN COORDINATES (ANGSTROEM)
---------------------------------
  C     14.923179   14.422855   14.686453
  C     15.197012   15.307987   15.913772
  O     16.323968   16.144297   15.602934
  C     16.104921   17.486886   15.524048
  O     15.322842   17.948560   14.712139
  C     16.795229   18.266232   16.611346
  C     16.837736   19.623015   16.571340
  C     16.035619   20.538261   15.669393
  N     17.693588   20.341698   17.409085
  C     18.676050   19.779294   18.178063
  S     19.720281   20.696499   19.074628
  N     18.765375   18.410711   18.149383
  C     17.817590   17.505335   17.473258
  C     17.207778   16.484103   18.424260
  C     17.686140   15.161117   18.451255
  C     17.119367   14.215371   19.322143
  C     16.069352   14.597401   20.174761
  C     15.596819   15.916984   20.154996
  O     14.583715   16.288785   20.977062
  C     16.161777   16.855668   19.286010
  H     14.677273   15.042166   13.814265
  H     14.079713   13.748581   14.877456
  H     15.803244   13.815081   14.442624
  H     14.306686   15.905546   16.155105
  H     15.429840   14.673563   16.778585
  H     14.963784   20.314909   15.746545
  H     16.324527   20.397268   14.619942
  H     16.165195   21.600318   15.908661
  H     17.654651   21.348421   17.420104
  H     19.481142   18.023564   18.751272
  H     18.492513   17.011213   16.759693
  H     18.494849   14.863652   17.788635
  H     17.494356   13.193216   19.335360
  H     15.629230   13.870754   20.849999
  H     14.363720   15.526546   21.533755
  H     15.787938   17.874143   19.289672

 Total Charge           Charge          ....    0
 Multiplicity           Mult            ....    1
 Number of Electrons    NEL             ....  154
 Basis Dimension        Dim             ....  828

ORBITAL ENERGIES
----------------

  NO   OCC          E(Eh)            E(eV)
   0   2.0000     -91.890473     -2500.4669
   1   2.0000     -20.601175      -560.5865
   2   2.0000     -20.585108      -560.1493
   3   2.0000     -20.545102      -559.0607
   4   2.0000     -15.631039      -425.3422
   5   2.0000     -15.608589      -424.7313
   6   2.0000     -11.392624      -310.0091
   7   2.0000     -11.385105      -309.8045
   8   2.0000     -11.339174      -308.5546
   9   2.0000     -11.318964      -308.0047
  10   2.0000     -11.309581      -307.7493
  11   2.0000     -11.294688      -307.3441
  12   2.0000     -11.265151      -306.5403
  13   2.0000     -11.260183      -306.4052
  14   2.0000     -11.258613      -306.3624
  15   2.0000     -11.253112      -306.2128
  16   2.0000     -11.248469      -306.0864
  17   2.0000     -11.243454      -305.9499
  18   2.0000     -11.243065      -305.9394
  19   2.0000     -11.220467      -305.3244
  20   2.0000      -8.895531      -242.0597
  21   2.0000      -6.577099      -178.9720
  22   2.0000      -6.575104      -178.9177
  23   2.0000      -6.574510      -178.9015
  24   2.0000      -1.448901       -39.4266
  25   2.0000      -1.420844       -38.6631
  26   2.0000      -1.353318       -36.8256
  27   2.0000      -1.342095       -36.5203
  28   2.0000      -1.240082       -33.7443
  29   2.0000      -1.162017       -31.6201
  30   2.0000      -1.122649       -30.5488
  31   2.0000      -1.046265       -28.4703
  32   2.0000      -1.033200       -28.1148
  33   2.0000      -1.019897       -27.7528
  34   2.0000      -0.997775       -27.1508
  35   2.0000      -0.986138       -26.8342
  36   2.0000      -0.924362       -25.1532
  37   2.0000      -0.880999       -23.9732
  38   2.0000      -0.848992       -23.1023
  39   2.0000      -0.841794       -22.9064
  40   2.0000      -0.838457       -22.8156
  41   2.0000      -0.826439       -22.4885
  42   2.0000      -0.760550       -20.6956
  43   2.0000      -0.736922       -20.0527
  44   2.0000      -0.723744       -19.6941
  45   2.0000      -0.699837       -19.0435
  46   2.0000      -0.690271       -18.7832
  47   2.0000      -0.678000       -18.4493
  48   2.0000      -0.672470       -18.2988
  49   2.0000      -0.653346       -17.7785
  50   2.0000      -0.649014       -17.6606
  51   2.0000      -0.642972       -17.4962
  52   2.0000      -0.634870       -17.2757
  53   2.0000      -0.611481       -16.6393
  54   2.0000      -0.608233       -16.5509
  55   2.0000      -0.602618       -16.3981
  56   2.0000      -0.600210       -16.3325
  57   2.0000      -0.581477       -15.8228
  58   2.0000      -0.572964       -15.5911
  59   2.0000      -0.568607       -15.4726
  60   2.0000      -0.566046       -15.4029
  61   2.0000      -0.541743       -14.7416
  62   2.0000      -0.534863       -14.5544
  63   2.0000      -0.528227       -14.3738
  64   2.0000      -0.516010       -14.0413
  65   2.0000      -0.511246       -13.9117
  66   2.0000      -0.502701       -13.6792
  67   2.0000      -0.497087       -13.5264
  68   2.0000      -0.488882       -13.3032
  69   2.0000      -0.464425       -12.6376
  70   2.0000      -0.454137       -12.3577
  71   2.0000      -0.445517       -12.1231
  72   2.0000      -0.355770        -9.6810
  73   2.0000      -0.353307        -9.6140
  74   2.0000      -0.330152        -8.9839
  75   2.0000      -0.326032        -8.8718
  76   2.0000      -0.320005        -8.7078
  77   0.0000       0.072212         1.9650
  78   0.0000       0.100287         2.7290
  79   0.0000       0.123331         3.3560
  80   0.0000       0.130228         3.5437
  81   0.0000       0.132055         3.5934

MULLIKEN ATOMIC CHARGES
-----------------------
   0 C :   -0.262881
   1 C :    0.028272
   2 O :   -0.374351
   3 C :    0.462614
   4 O :   -0.416428
   5 C :   -0.275855
   6 C :    0.185757
   7 C :   -0.266033
   8 N :   -0.126835
   9 C :    0.213127
  10 S :   -0.440111
  11 N :   -0.218580
  12 C :    0.077918
  13 C :    0.010762
  14 C :   -0.178871
  15 C :   -0.135564
  16 C :   -0.272942
  17 C :    0.308543
  18 O :   -0.355477
  19 C :   -0.229318
  20 H :    0.109131
  21 H :    0.086042
  22 H :    0.090784
  23 H :    0.091931
  24 H :    0.118126
  25 H :    0.132502
  26 H :    0.130956
  27 H :    0.094836
  28 H :    0.199494
  29 H :    0.201216
  30 H :    0.151808
  31 H :    0.154384
  32 H :    0.164072
  33 H :    0.133384
  34 H :    0.241549
  35 H :    0.166037
Sum of atomic charges:   -0.0000000

LOEWDIN ATOMIC CHARGES
----------------------
   0 C :    0.105804
   1 C :   -0.018534
   2 O :    0.299961
   3 C :   -0.422899
   4 O :    0.108900
   5 C :   -0.100494
   6 C :   -0.054411
   7 C :    0.131813
   8 N :    0.407719
   9 C :   -0.455785
  10 S :   -0.034869
  11 N :    0.394156
  12 C :   -0.054630
  13 C :   -0.038430
  14 C :    0.016538
  15 C :    0.039818
  16 C :   -0.001042
  17 C :   -0.189943
  18 O :    0.396047
  19 C :    0.032946
  20 H :   -0.022945
  21 H :   -0.029467
  22 H :   -0.028641
  23 H :   -0.029243
  24 H :   -0.028199
  25 H :   -0.004440
  26 H :   -0.004144
  27 H :   -0.023405
  28 H :   -0.056834
  29 H :   -0.064661
  30 H :   -0.012310
  31 H :   -0.028033
  32 H :   -0.020084
  33 H :   -0.034509
  34 H :   -0.152887
  35 H :   -0.022863

  Mayer bond orders larger than 0.100000
B(  0-C ,  1-C ) :   0.9861 B(  0-C , 20-H ) :   0.9770 B(  0-C , 21-H ) :   0.9774
B(  0-C , 22-H ) :   0.9787 B(  1-C ,  2-O ) :   0.8772 B(  1-C , 23-H ) :   0.9712
B(  1-C , 24-H ) :   0.9715 B(  2-O ,  3-C ) :   1.1009 B(  3-C ,  4-O ) :   1.9991
B(  3-C ,  5-C ) :   1.0800 B(  5-C ,  6-C ) :   1.6236 B(  5-C , 12-C ) :   0.9496
B(  6-C ,  7-C ) :   0.9665 B(  6-C ,  8-N ) :   1.1598 B(  7-C , 25-H ) :   0.9614
B(  7-C , 26-H ) :   0.9578 B(  7-C , 27-H ) :   0.9899 B(  8-N ,  9-C ) :   1.1851
B(  8-N , 28-H ) :   0.9461 B(  9-C , 10-S ) :   1.6056 B(  9-C , 11-N ) :   1.3110
B( 11-N , 12-C ) :   0.9622 B( 11-N , 29-H ) :   0.9483 B( 12-C , 13-C ) :   0.9648
B( 12-C , 30-H ) :   1.0015 B( 13-C , 14-C ) :   1.3512 B( 13-C , 19-C ) :   1.3751
B( 14-C , 15-C ) :   1.3947 B( 14-C , 31-H ) :   0.9727 B( 15-C , 16-C ) :   1.3564
B( 15-C , 32-H ) :   0.9703 B( 16-C , 17-C ) :   1.3328 B( 16-C , 33-H ) :   0.9841
B( 17-C , 18-O ) :   1.1072 B( 17-C , 19-C ) :   1.3672 B( 18-O , 34-H ) :   0.9789
B( 19-C , 35-H ) :   0.9589

MP2 TOTAL ENERGY:    -1274.331507254 Eh
FINAL SINGLE POINT ENERGY     -1274.331507253997

DIPOLE MOMENT
-------------
                                X             Y             Z
Electronic contribution:      9.28822      10.64304       8.29870
Nuclear contribution   :    -10.29323     -12.21064      -8.21008
                        -----------------------------------------
Total Dipole Moment    :     -1.00501      -1.56760       0.08862
                        -----------------------------------------
Magnitude (a.u.)       :      1.86421
Magnitude (Debye)      :      4.73845

Rotational constants in cm-1:     0.011976     0.008415     0.005951
Rotational constants in MHz :   359.027776   252.264098   178.419349

                             ****ORCA TERMINATED NORMALLY****
TOTAL RUN TIME: 0 days 1 hours 41 minutes 56 seconds 484 msec
