                         Program Version 4.2.0 -  RELEASE  -
|  1> ! ri-mp2 cc-pvtz cc-pvtz/c TightSCF NoKeepInts
|  2>
|  3> %scf
|  4>   MaxCore 4096
|  5> end
|  6> *xyz  0  1
|  7>     C       14.4178502   15.0160188   14.4888830
|  8>     C       15.7671419   14.7482843   15.1904845
|  9>     O       16.3741529   15.8894268   15.8518135
| 10>     C       16.1013995   17.2224205   15.6627854
| 11>     O       15.3839753   17.6531308   14.7779992
| 12>     C       16.8317155   18.0884958   16.6578082
| 13>     C       16.9406418   19.4299059   16.4699101
| 14>     C       16.1863522   20.2834116   15.4707884
| 15>     N       17.8268486   20.1949960   17.2318507
| 16>     C       18.7737741   19.6764890   18.0724296
| 17>     S       19.8556870   20.6375912   18.8734700
| 18>     N       18.7934061   18.3112158   18.2006654
| 19>     C       17.8086689   17.3822146   17.6151090
| 20>     C       17.1320943   16.5125898   18.6669855
| 21>     C       17.4361545   15.1423769   18.7676218
| 22>     C       16.8128032   14.3428821   19.7405637
| 23>     C       15.8810977   14.9194146   20.6209812
| 24>     C       15.5804558   16.2853462   20.5252843
| 25>     O       14.6829787   16.8447536   21.3754037
| 26>     C       16.2027005   17.0784296   19.5561320
| 27>     H       13.7220184   15.5371870   15.1583940
| 28>     H       13.9525469   14.0690360   14.1904113
| 29>     H       14.5531775   15.6150853   13.5798124
| 30>     H       15.6267187   13.9544009   15.9354158
| 31>     H       16.4687786   14.3630989   14.4394506
| 32>     H       16.4780159   20.0263059   14.4445266
| 33>     H       16.3581795   21.3577936   15.6052442
| 34>     H       15.1053826   20.1135789   15.5567736
| 35>     H       17.8370049   21.1972252   17.1302864
| 36>     H       19.4807889   17.9598868   18.8551743
| 37>     H       18.4676854   16.7771195   16.9766148
| 38>     H       18.1533972   14.6955472   18.0845002
| 39>     H       17.0520153   13.2832391   19.8104892
| 40>     H       15.3972754   14.3063906   21.3742161
| 41>     H       14.3808967   16.1496300   21.9789715
| 42>     H       15.9632194   18.1350813   19.5007499
| 43> *
| 44>
| 45>                          ****END OF INPUT****

CARTESIAN COORDINATES (ANGSTROEM)
---------------------------------
  C     14.417850   15.016019   14.488883
  C     15.767142   14.748284   15.190485
  O     16.374153   15.889427   15.851814
  C     16.101399   17.222420   15.662785
  O     15.383975   17.653131   14.777999
  C     16.831716   18.088496   16.657808
  C     16.940642   19.429906   16.469910
  C     16.186352   20.283412   15.470788
  N     17.826849   20.194996   17.231851
  C     18.773774   19.676489   18.072430
  S     19.855687   20.637591   18.873470
  N     18.793406   18.311216   18.200665
  C     17.808669   17.382215   17.615109
  C     17.132094   16.512590   18.666985
  C     17.436154   15.142377   18.767622
  C     16.812803   14.342882   19.740564
  C     15.881098   14.919415   20.620981
  C     15.580456   16.285346   20.525284
  O     14.682979   16.844754   21.375404
  C     16.202700   17.078430   19.556132
  H     13.722018   15.537187   15.158394
  H     13.952547   14.069036   14.190411
  H     14.553177   15.615085   13.579812
  H     15.626719   13.954401   15.935416
  H     16.468779   14.363099   14.439451
  H     16.478016   20.026306   14.444527
  H     16.358179   21.357794   15.605244
  H     15.105383   20.113579   15.556774
  H     17.837005   21.197225   17.130286
  H     19.480789   17.959887   18.855174
  H     18.467685   16.777120   16.976615
  H     18.153397   14.695547   18.084500
  H     17.052015   13.283239   19.810489
  H     15.397275   14.306391   21.374216
  H     14.380897   16.149630   21.978972
  H     15.963219   18.135081   19.500750

 Total Charge           Charge          ....    0
 Multiplicity           Mult            ....    1
 Number of Electrons    NEL             ....  154
 Basis Dimension        Dim             ....  828

ORBITAL ENERGIES
----------------

  NO   OCC          E(Eh)            E(eV)
   0   2.0000     -91.887640     -2500.3898
   1   2.0000     -20.598225      -560.5062
   2   2.0000     -20.595803      -560.4403
   3   2.0000     -20.539451      -558.9069
   4   2.0000     -15.627797      -425.2540
   5   2.0000     -15.605671      -424.6519
   6   2.0000     -11.398146      -310.1593
   7   2.0000     -11.382166      -309.7245
   8   2.0000     -11.335886      -308.4652
   9   2.0000     -11.312851      -307.8383
  10   2.0000     -11.305929      -307.6500
  11   2.0000     -11.303391      -307.5809
  12   2.0000     -11.259854      -306.3962
  13   2.0000     -11.258538      -306.3604
  14   2.0000     -11.254452      -306.2492
  15   2.0000     -11.250536      -306.1426
  16   2.0000     -11.242672      -305.9287
  17   2.0000     -11.237942      -305.7999
  18   2.0000     -11.237857      -305.7976
  19   2.0000     -11.222877      -305.3900
  20   2.0000      -8.892726      -241.9834
  21   2.0000      -6.574304      -178.8959
  22   2.0000      -6.572302      -178.8414
  23   2.0000      -6.571715      -178.8255
  24   2.0000      -1.442654       -39.2566
  25   2.0000      -1.415449       -38.5163
  26   2.0000      -1.353755       -36.8375
  27   2.0000      -1.339149       -36.4401
  28   2.0000      -1.237038       -33.6615
  29   2.0000      -1.156472       -31.4692
  30   2.0000      -1.119313       -30.4581
  31   2.0000      -1.041631       -28.3442
  32   2.0000      -1.036626       -28.2080
  33   2.0000      -1.014092       -27.5948
  34   2.0000      -0.994974       -27.0746
  35   2.0000      -0.982936       -26.7470
  36   2.0000      -0.920572       -25.0500
  37   2.0000      -0.897995       -24.4357
  38   2.0000      -0.845820       -23.0159
  39   2.0000      -0.837277       -22.7835
  40   2.0000      -0.833294       -22.6751
  41   2.0000      -0.817417       -22.2430
  42   2.0000      -0.744746       -20.2656
  43   2.0000      -0.731333       -19.9006
  44   2.0000      -0.717579       -19.5263
  45   2.0000      -0.694357       -18.8944
  46   2.0000      -0.686339       -18.6762
  47   2.0000      -0.675193       -18.3729
  48   2.0000      -0.672055       -18.2875
  49   2.0000      -0.659234       -17.9387
  50   2.0000      -0.647990       -17.6327
  51   2.0000      -0.641527       -17.4568
  52   2.0000      -0.633924       -17.2499
  53   2.0000      -0.606779       -16.5113
  54   2.0000      -0.604324       -16.4445
  55   2.0000      -0.599927       -16.3248
  56   2.0000      -0.598003       -16.2725
  57   2.0000      -0.577296       -15.7090
  58   2.0000      -0.574392       -15.6300
  59   2.0000      -0.568616       -15.4728
  60   2.0000      -0.560095       -15.2410
  61   2.0000      -0.540328       -14.7031
  62   2.0000      -0.535247       -14.5648
  63   2.0000      -0.524505       -14.2725
  64   2.0000      -0.521447       -14.1893
  65   2.0000      -0.511684       -13.9236
  66   2.0000      -0.502004       -13.6602
  67   2.0000      -0.496762       -13.5176
  68   2.0000      -0.483379       -13.1534
  69   2.0000      -0.461758       -12.5651
  70   2.0000      -0.451882       -12.2963
  71   2.0000      -0.439915       -11.9707
  72   2.0000      -0.351606        -9.5677
  73   2.0000      -0.348785        -9.4909
  74   2.0000      -0.326928        -8.8962
  75   2.0000      -0.320306        -8.7160
  76   2.0000      -0.316842        -8.6217
  77   0.0000       0.079377         2.1599
  78   0.0000       0.106047         2.8857
  79   0.0000       0.125181         3.4064
  80   0.0000       0.133715         3.6386
  81   0.0000       0.137694         3.7468

MULLIKEN ATOMIC CHARGES
-----------------------
   0 C :   -0.291686
   1 C :    0.051674
   2 O :   -0.356070
   3 C :    0.434972
   4 O :   -0.433451
   5 C :   -0.214905
   6 C :    0.173651
   7 C :   -0.268216
   8 N :   -0.126352
   9 C :    0.210898
  10 S :   -0.444311
  11 N :   -0.215423
  12 C :    0.059695
  13 C :    0.050414
  14 C :   -0.180766
  15 C :   -0.134406
  16 C :   -0.276454
  17 C :    0.317111
  18 O :   -0.357043
  19 C :   -0.250200
  20 H :    0.103488
  21 H :    0.095458
  22 H :    0.118663
  23 H :    0.096529
  24 H :    0.087345
  25 H :    0.128811
  26 H :    0.094220
  27 H :    0.132483
  28 H :    0.199493
  29 H :    0.200247
  30 H :    0.150854
  31 H :    0.150634
  32 H :    0.160323
  33 H :    0.129524
  34 H :    0.240437
  35 H :    0.162363
Sum of atomic charges:    0.0000000

LOEWDIN ATOMIC CHARGES
----------------------
   0 C :    0.102621
   1 C :   -0.007971
   2 O :    0.297267
   3 C :   -0.412712
   4 O :    0.105228
   5 C :   -0.093468
   6 C :   -0.057098
   7 C :    0.129986
   8 N :    0.406825
   9 C :   -0.456926
  10 S :   -0.038316
  11 N :    0.394645
  12 C :   -0.055114
  13 C :   -0.038485
  14 C :    0.016719
  15 C :    0.038559
  16 C :   -0.000983
  17 C :   -0.189521
  18 O :    0.394941
  19 C :    0.033220
  20 H :   -0.025223
  21 H :   -0.028150
  22 H :   -0.025329
  23 H :   -0.025857
  24 H :   -0.030074
  25 H :   -0.005516
  26 H :   -0.023974
  27 H :   -0.004773
  28 H :   -0.057389
  29 H :   -0.064579
  30 H :   -0.014552
  31 H :   -0.029678
  32 H :   -0.021622
  33 H :   -0.035639
  34 H :   -0.154128
  35 H :   -0.022931

  Mayer bond orders larger than 0.100000
B(  0-C ,  1-C ) :   0.9775 B(  0-C , 20-H ) :   0.9753 B(  0-C , 21-H ) :   0.9738
B(  0-C , 22-H ) :   0.9725 B(  1-C ,  2-O ) :   0.9021 B(  1-C , 23-H ) :   0.9779
B(  1-C , 24-H ) :   0.9798 B(  2-O ,  3-C ) :   1.1599 B(  3-C ,  4-O ) :   1.9679
B(  3-C ,  5-C ) :   1.0651 B(  5-C ,  6-C ) :   1.6445 B(  5-C , 12-C ) :   0.9584
B(  6-C ,  7-C ) :   0.9655 B(  6-C ,  8-N ) :   1.1509 B(  7-C , 25-H ) :   0.9588
B(  7-C , 26-H ) :   0.9908 B(  7-C , 27-H ) :   0.9618 B(  8-N ,  9-C ) :   1.1889
B(  8-N , 28-H ) :   0.9466 B(  9-C , 10-S ) :   1.6032 B(  9-C , 11-N ) :   1.3106
B( 11-N , 12-C ) :   0.9667 B( 11-N , 29-H ) :   0.9486 B( 12-C , 13-C ) :   0.9649
B( 12-C , 30-H ) :   1.0009 B( 13-C , 14-C ) :   1.3525 B( 13-C , 19-C ) :   1.3818
B( 14-C , 15-C ) :   1.3947 B( 14-C , 31-H ) :   0.9720 B( 15-C , 16-C ) :   1.3602
B( 15-C , 32-H ) :   0.9707 B( 16-C , 17-C ) :   1.3339 B( 16-C , 33-H ) :   0.9853
B( 17-C , 18-O ) :   1.1039 B( 17-C , 19-C ) :   1.3646 B( 18-O , 34-H ) :   0.9800
B( 19-C , 35-H ) :   0.9597

MP2 TOTAL ENERGY:    -1274.333012063 Eh
FINAL SINGLE POINT ENERGY     -1274.333012062663

DIPOLE MOMENT
-------------
                                X             Y             Z
Electronic contribution:      9.68017       9.82649       9.88608
Nuclear contribution   :    -10.72050     -11.62649     -10.30225
                        -----------------------------------------
Total Dipole Moment    :     -1.04033      -1.79999      -0.41617
                        -----------------------------------------
Magnitude (a.u.)       :      2.12025
Magnitude (Debye)      :      5.38925

Rotational constants in cm-1:     0.010819     0.008709     0.005801
Rotational constants in MHz :   324.333965   261.084331   173.896235

                             ****ORCA TERMINATED NORMALLY****
TOTAL RUN TIME: 0 days 1 hours 51 minutes 27 seconds 123 msec
