                         Program Version 4.2.0 -  RELEASE  -
|  1> ! ri-mp2 cc-pvtz cc-pvtz/c TightSCF NoKeepInts
|  2>
|  3> %scf
|  4>   MaxCore 4096
|  5> end
|  6> *xyz  0  1
|  7>     C       14.8101383   15.0470493   14.0257600
|  8>     C       15.4181089   14.8567539   15.4324266
|  9>     O       16.2757541   15.9410923   15.8655070
| 10>     C       16.0279019   17.2813116   15.7045167
| 11>     O       15.2380522   17.7337852   14.8955874
| 12>     C       16.7832484   18.1148262   16.7077728
| 13>     C       16.8875413   19.4611836   16.5577064
| 14>     C       16.1107947   20.3423820   15.6007787
| 15>     N       17.7939184   20.2031006   17.3188177
| 16>     C       18.7651772   19.6592345   18.1145251
| 17>     S       19.8694398   20.5957614   18.9141416
| 18>     N       18.7897070   18.2904722   18.1977266
| 19>     C       17.7873595   17.3795801   17.6135822
| 20>     C       17.1420031   16.4766508   18.6571031
| 21>     C       17.4505754   15.1046466   18.7068027
| 22>     C       16.8549517   14.2738999   19.6708644
| 23>     C       15.9467191   14.8207351   20.5937323
| 24>     C       15.6417711   16.1883331   20.5488488
| 25>     O       14.7668215   16.7190398   21.4398271
| 26>     C       16.2360195   17.0124291   19.5880257
| 27>     H       13.9758082   15.7589491   14.0433027
| 28>     H       14.4177407   14.0942643   13.6507807
| 29>     H       15.5664183   15.4061391   13.3166437
| 30>     H       14.5973866   14.7382938   16.1520273
| 31>     H       16.0006573   13.9268092   15.4473268
| 32>     H       15.0311679   20.1881365   15.7248239
| 33>     H       16.3594888   20.0972125   14.5603853
| 34>     H       16.3056655   21.4116172   15.7445721
| 35>     H       17.8003765   21.2081138   17.2493949
| 36>     H       19.4969323   17.9192809   18.8193272
| 37>     H       18.4265326   16.7950419   16.9367757
| 38>     H       18.1497126   14.6808824   17.9908547
| 39>     H       17.0979763   13.2132179   19.7015572
| 40>     H       15.4847407   14.1836132   21.3406988
| 41>     H       14.4869156   16.0064180   22.0336374
| 42>     H       15.9934769   18.0697432   19.5718386
| 43> *
| 44>
| 45>                          ****END OF INPUT****

CARTESIAN COORDINATES (ANGSTROEM)
---------------------------------
  C     14.810138   15.047049   14.025760
  C     15.418109   14.856754   15.432427
  O     16.275754   15.941092   15.865507
  C     16.027902   17.281312   15.704517
  O     15.238052   17.733785   14.895587
  C     16.783248   18.114826   16.707773
  C     16.887541   19.461184   16.557706
  C     16.110795   20.342382   15.600779
  N     17.793918   20.203101   17.318818
  C     18.765177   19.659235   18.114525
  S     19.869440   20.595761   18.914142
  N     18.789707   18.290472   18.197727
  C     17.787360   17.379580   17.613582
  C     17.142003   16.476651   18.657103
  C     17.450575   15.104647   18.706803
  C     16.854952   14.273900   19.670864
  C     15.946719   14.820735   20.593732
  C     15.641771   16.188333   20.548849
  O     14.766822   16.719040   21.439827
  C     16.236020   17.012429   19.588026
  H     13.975808   15.758949   14.043303
  H     14.417741   14.094264   13.650781
  H     15.566418   15.406139   13.316644
  H     14.597387   14.738294   16.152027
  H     16.000657   13.926809   15.447327
  H     15.031168   20.188136   15.724824
  H     16.359489   20.097213   14.560385
  H     16.305665   21.411617   15.744572
  H     17.800376   21.208114   17.249395
  H     19.496932   17.919281   18.819327
  H     18.426533   16.795042   16.936776
  H     18.149713   14.680882   17.990855
  H     17.097976   13.213218   19.701557
  H     15.484741   14.183613   21.340699
  H     14.486916   16.006418   22.033637
  H     15.993477   18.069743   19.571839

 Total Charge           Charge          ....    0
 Multiplicity           Mult            ....    1
 Number of Electrons    NEL             ....  154
 Basis Dimension        Dim             ....  828

ORBITAL ENERGIES
----------------

  NO   OCC          E(Eh)            E(eV)
   0   2.0000     -91.888130     -2500.4031
   1   2.0000     -20.596804      -560.4675
   2   2.0000     -20.596234      -560.4520
   3   2.0000     -20.540742      -558.9420
   4   2.0000     -15.628384      -425.2700
   5   2.0000     -15.606080      -424.6630
   6   2.0000     -11.397227      -310.1343
   7   2.0000     -11.382651      -309.7377
   8   2.0000     -11.336459      -308.4807
   9   2.0000     -11.313327      -307.8513
  10   2.0000     -11.306378      -307.6622
  11   2.0000     -11.302138      -307.5468
  12   2.0000     -11.260289      -306.4080
  13   2.0000     -11.258261      -306.3528
  14   2.0000     -11.254842      -306.2598
  15   2.0000     -11.251056      -306.1568
  16   2.0000     -11.243074      -305.9396
  17   2.0000     -11.238293      -305.8095
  18   2.0000     -11.238204      -305.8071
  19   2.0000     -11.220937      -305.3372
  20   2.0000      -8.893209      -241.9965
  21   2.0000      -6.574784      -178.9090
  22   2.0000      -6.572784      -178.8546
  23   2.0000      -6.572196      -178.8385
  24   2.0000      -1.443944       -39.2917
  25   2.0000      -1.415882       -38.5281
  26   2.0000      -1.354347       -36.8537
  27   2.0000      -1.339628       -36.4531
  28   2.0000      -1.237463       -33.6731
  29   2.0000      -1.156890       -31.4806
  30   2.0000      -1.119796       -30.4712
  31   2.0000      -1.042014       -28.3546
  32   2.0000      -1.035673       -28.1821
  33   2.0000      -1.014506       -27.6061
  34   2.0000      -0.995125       -27.0787
  35   2.0000      -0.983265       -26.7560
  36   2.0000      -0.921006       -25.0618
  37   2.0000      -0.895385       -24.3647
  38   2.0000      -0.846262       -23.0280
  39   2.0000      -0.837628       -22.7930
  40   2.0000      -0.833689       -22.6858
  41   2.0000      -0.818632       -22.2761
  42   2.0000      -0.747641       -20.3443
  43   2.0000      -0.731597       -19.9078
  44   2.0000      -0.718332       -19.5468
  45   2.0000      -0.694903       -18.9093
  46   2.0000      -0.687739       -18.7143
  47   2.0000      -0.678042       -18.4505
  48   2.0000      -0.668301       -18.1854
  49   2.0000      -0.656671       -17.8689
  50   2.0000      -0.648373       -17.6431
  51   2.0000      -0.644559       -17.5394
  52   2.0000      -0.633938       -17.2503
  53   2.0000      -0.606634       -16.5073
  54   2.0000      -0.601181       -16.3590
  55   2.0000      -0.598698       -16.2914
  56   2.0000      -0.596112       -16.2210
  57   2.0000      -0.582725       -15.8567
  58   2.0000      -0.574911       -15.6441
  59   2.0000      -0.569178       -15.4881
  60   2.0000      -0.561807       -15.2876
  61   2.0000      -0.539562       -14.6822
  62   2.0000      -0.535482       -14.5712
  63   2.0000      -0.523707       -14.2508
  64   2.0000      -0.521272       -14.1845
  65   2.0000      -0.511905       -13.9296
  66   2.0000      -0.501443       -13.6450
  67   2.0000      -0.497168       -13.5286
  68   2.0000      -0.483032       -13.1440
  69   2.0000      -0.462727       -12.5914
  70   2.0000      -0.453552       -12.3418
  71   2.0000      -0.438998       -11.9458
  72   2.0000      -0.352015        -9.5788
  73   2.0000      -0.349198        -9.5022
  74   2.0000      -0.327366        -8.9081
  75   2.0000      -0.320703        -8.7268
  76   2.0000      -0.317363        -8.6359
  77   0.0000       0.077452         2.1076
  78   0.0000       0.105961         2.8834
  79   0.0000       0.124807         3.3962
  80   0.0000       0.133240         3.6257
  81   0.0000       0.136927         3.7260

MULLIKEN ATOMIC CHARGES
-----------------------
   0 C :   -0.283973
   1 C :    0.049828
   2 O :   -0.362465
   3 C :    0.438445
   4 O :   -0.434553
   5 C :   -0.214028
   6 C :    0.173044
   7 C :   -0.267747
   8 N :   -0.125646
   9 C :    0.211194
  10 S :   -0.443282
  11 N :   -0.215740
  12 C :    0.061942
  13 C :    0.049588
  14 C :   -0.186610
  15 C :   -0.131563
  16 C :   -0.277120
  17 C :    0.316858
  18 O :   -0.356867
  19 C :   -0.250587
  20 H :    0.118354
  21 H :    0.093554
  22 H :    0.098514
  23 H :    0.089238
  24 H :    0.096960
  25 H :    0.133338
  26 H :    0.128307
  27 H :    0.094520
  28 H :    0.199528
  29 H :    0.200257
  30 H :    0.151218
  31 H :    0.152165
  32 H :    0.160253
  33 H :    0.129925
  34 H :    0.240510
  35 H :    0.162640
Sum of atomic charges:   -0.0000000

LOEWDIN ATOMIC CHARGES
----------------------
   0 C :    0.102445
   1 C :   -0.010007
   2 O :    0.296409
   3 C :   -0.412681
   4 O :    0.107045
   5 C :   -0.094441
   6 C :   -0.056460
   7 C :    0.130358
   8 N :    0.407016
   9 C :   -0.456821
  10 S :   -0.037544
  11 N :    0.394546
  12 C :   -0.054872
  13 C :   -0.038613
  14 C :    0.016597
  15 C :    0.038774
  16 C :   -0.001292
  17 C :   -0.189712
  18 O :    0.394991
  19 C :    0.032862
  20 H :   -0.026094
  21 H :   -0.029663
  22 H :   -0.025629
  23 H :   -0.028846
  24 H :   -0.025048
  25 H :   -0.004597
  26 H :   -0.005410
  27 H :   -0.023867
  28 H :   -0.057350
  29 H :   -0.064543
  30 H :   -0.014023
  31 H :   -0.029521
  32 H :   -0.021481
  33 H :   -0.035603
  34 H :   -0.154055
  35 H :   -0.022870

  Mayer bond orders larger than 0.100000
B(  0-C ,  1-C ) :   0.9778 B(  0-C , 20-H ) :   0.9725 B(  0-C , 21-H ) :   0.9762
B(  0-C , 22-H ) :   0.9752 B(  1-C ,  2-O ) :   0.8996 B(  1-C , 23-H ) :   0.9751
B(  1-C , 24-H ) :   0.9825 B(  2-O ,  3-C ) :   1.1362 B(  3-C ,  4-O ) :   1.9649
B(  3-C ,  5-C ) :   1.0807 B(  5-C ,  6-C ) :   1.6371 B(  5-C , 12-C ) :   0.9562
B(  6-C ,  7-C ) :   0.9658 B(  6-C ,  8-N ) :   1.1518 B(  7-C , 25-H ) :   0.9610
B(  7-C , 26-H ) :   0.9590 B(  7-C , 27-H ) :   0.9911 B(  8-N ,  9-C ) :   1.1879
B(  8-N , 28-H ) :   0.9464 B(  9-C , 10-S ) :   1.6044 B(  9-C , 11-N ) :   1.3102
B( 11-N , 12-C ) :   0.9651 B( 11-N , 29-H ) :   0.9484 B( 12-C , 13-C ) :   0.9638
B( 12-C , 30-H ) :   1.0010 B( 13-C , 14-C ) :   1.3513 B( 13-C , 19-C ) :   1.3816
B( 14-C , 15-C ) :   1.3937 B( 14-C , 31-H ) :   0.9718 B( 15-C , 16-C ) :   1.3600
B( 15-C , 32-H ) :   0.9708 B( 16-C , 17-C ) :   1.3341 B( 16-C , 33-H ) :   0.9851
B( 17-C , 18-O ) :   1.1044 B( 17-C , 19-C ) :   1.3646 B( 18-O , 34-H ) :   0.9799
B( 19-C , 35-H ) :   0.9597

MP2 TOTAL ENERGY:    -1274.333373671 Eh
FINAL SINGLE POINT ENERGY     -1274.333373670635

DIPOLE MOMENT
-------------
                                X             Y             Z
Electronic contribution:      9.33250       9.59953      10.54359
Nuclear contribution   :    -10.40934     -11.34583     -10.89779
                        -----------------------------------------
Total Dipole Moment    :     -1.07684      -1.74630      -0.35421
                        -----------------------------------------
Magnitude (a.u.)       :      2.08197
Magnitude (Debye)      :      5.29196

Rotational constants in cm-1:     0.010710     0.008774     0.005777
Rotational constants in MHz :   321.063832   263.051881   173.175961

                             ****ORCA TERMINATED NORMALLY****
TOTAL RUN TIME: 0 days 1 hours 36 minutes 3 seconds 71 msec
