                         Program Version 4.2.0 -  RELEASE  -
|  1> ! ri-mp2 cc-pvtz cc-pvtz/c TightSCF NoKeepInts
|  2>
|  3> %scf
|  4>   MaxCore 4096
|  5> end
|  6> *xyz  0  1
|  7>     C       14.6058897   16.0335108   16.4005470
|  8>     C       15.0882450   16.1743147   14.9401214
|  9>     O       16.5054134   15.9116154   14.8036308
| 10>     C       17.5442089   16.4820936   15.5017739
| 11>     O       18.6637909   16.0089125   15.4396300
| 12>     C       17.2297356   17.6082851   16.4292324
| 13>     C       16.8754930   18.8174082   15.9296388
| 14>     C       16.5477678   19.1584038   14.4897873
| 15>     N       16.8961563   19.9581989   16.7340056
| 16>     C       17.5055565   20.0227772   17.9591930
| 17>     S       17.6052115   21.4375089   18.8093769
| 18>     N       18.0567199   18.8564403   18.4295935
| 19>     C       17.8896776   17.5275003   17.8078111
| 20>     C       17.2715572   16.4680062   18.7083565
| 21>     C       17.7624681   15.1502686   18.6832865
| 22>     C       17.1835803   14.1567539   19.4901745
| 23>     C       16.1030202   14.4834790   20.3272988
| 24>     C       15.6092855   15.7950266   20.3513276
| 25>     O       14.5594994   16.1108286   21.1505504
| 26>     C       16.1874383   16.7824347   19.5470943
| 27>     H       15.1103248   15.1977202   16.9028128
| 28>     H       13.5276783   15.8337576   16.4218945
| 29>     H       14.7729606   16.9481635   16.9794719
| 30>     H       14.5506372   15.4403648   14.3256229
| 31>     H       14.8241828   17.1652432   14.5569445
| 32>     H       16.8115214   18.3546732   13.7920053
| 33>     H       17.1097943   20.0425110   14.1616389
| 34>     H       15.4804008   19.3788804   14.3684761
| 35>     H       16.5361129   20.8308880   16.3808823
| 36>     H       18.5026873   18.9293935   19.3355770
| 37>     H       18.9435731   17.2772000   17.6139687
| 38>     H       18.5912204   14.8940670   18.0258861
| 39>     H       17.5708389   13.1395815   19.4609065
| 40>     H       15.6517826   13.7184234   20.9504871
| 41>     H       14.3270784   15.3154476   21.6531478
| 42>     H       15.7854911   17.7899181   19.5758475
| 43> *
| 44>
| 45>                          ****END OF INPUT****

CARTESIAN COORDINATES (ANGSTROEM)
---------------------------------
  C     14.605890   16.033511   16.400547
  C     15.088245   16.174315   14.940121
  O     16.505413   15.911615   14.803631
  C     17.544209   16.482094   15.501774
  O     18.663791   16.008913   15.439630
  C     17.229736   17.608285   16.429232
  C     16.875493   18.817408   15.929639
  C     16.547768   19.158404   14.489787
  N     16.896156   19.958199   16.734006
  C     17.505557   20.022777   17.959193
  S     17.605211   21.437509   18.809377
  N     18.056720   18.856440   18.429593
  C     17.889678   17.527500   17.807811
  C     17.271557   16.468006   18.708357
  C     17.762468   15.150269   18.683287
  C     17.183580   14.156754   19.490174
  C     16.103020   14.483479   20.327299
  C     15.609286   15.795027   20.351328
  O     14.559499   16.110829   21.150550
  C     16.187438   16.782435   19.547094
  H     15.110325   15.197720   16.902813
  H     13.527678   15.833758   16.421895
  H     14.772961   16.948163   16.979472
  H     14.550637   15.440365   14.325623
  H     14.824183   17.165243   14.556945
  H     16.811521   18.354673   13.792005
  H     17.109794   20.042511   14.161639
  H     15.480401   19.378880   14.368476
  H     16.536113   20.830888   16.380882
  H     18.502687   18.929393   19.335577
  H     18.943573   17.277200   17.613969
  H     18.591220   14.894067   18.025886
  H     17.570839   13.139582   19.460907
  H     15.651783   13.718423   20.950487
  H     14.327078   15.315448   21.653148
  H     15.785491   17.789918   19.575847

 Total Charge           Charge          ....    0
 Multiplicity           Mult            ....    1
 Number of Electrons    NEL             ....  154
 Basis Dimension        Dim             ....  828

ORBITAL ENERGIES
----------------

  NO   OCC          E(Eh)            E(eV)
   0   2.0000     -91.889757     -2500.4474
   1   2.0000     -20.601775      -560.6028
   2   2.0000     -20.599343      -560.5366
   3   2.0000     -20.549903      -559.1913
   4   2.0000     -15.627298      -425.2404
   5   2.0000     -15.609760      -424.7632
   6   2.0000     -11.401279      -310.2446
   7   2.0000     -11.385699      -309.8206
   8   2.0000     -11.332565      -308.3748
   9   2.0000     -11.316676      -307.9424
  10   2.0000     -11.311006      -307.7881
  11   2.0000     -11.310543      -307.7755
  12   2.0000     -11.268413      -306.6291
  13   2.0000     -11.265288      -306.5441
  14   2.0000     -11.264479      -306.5221
  15   2.0000     -11.257233      -306.3249
  16   2.0000     -11.245848      -306.0151
  17   2.0000     -11.241384      -305.8936
  18   2.0000     -11.238941      -305.8271
  19   2.0000     -11.231020      -305.6116
  20   2.0000      -8.894868      -242.0417
  21   2.0000      -6.576452      -178.9543
  22   2.0000      -6.574436      -178.8995
  23   2.0000      -6.573855      -178.8837
  24   2.0000      -1.445787       -39.3419
  25   2.0000      -1.419076       -38.6150
  26   2.0000      -1.360028       -37.0083
  27   2.0000      -1.341068       -36.4923
  28   2.0000      -1.239556       -33.7300
  29   2.0000      -1.161104       -31.5952
  30   2.0000      -1.126545       -30.6549
  31   2.0000      -1.048494       -28.5310
  32   2.0000      -1.038138       -28.2492
  33   2.0000      -1.019237       -27.7349
  34   2.0000      -1.007127       -27.4053
  35   2.0000      -0.990444       -26.9513
  36   2.0000      -0.927211       -25.2307
  37   2.0000      -0.898488       -24.4491
  38   2.0000      -0.853990       -23.2383
  39   2.0000      -0.841705       -22.9040
  40   2.0000      -0.836480       -22.7618
  41   2.0000      -0.830329       -22.5944
  42   2.0000      -0.746856       -20.3230
  43   2.0000      -0.739481       -20.1223
  44   2.0000      -0.732192       -19.9239
  45   2.0000      -0.696694       -18.9580
  46   2.0000      -0.688884       -18.7455
  47   2.0000      -0.680203       -18.5093
  48   2.0000      -0.674619       -18.3573
  49   2.0000      -0.663319       -18.0498
  50   2.0000      -0.653665       -17.7871
  51   2.0000      -0.650051       -17.6888
  52   2.0000      -0.638555       -17.3760
  53   2.0000      -0.617679       -16.8079
  54   2.0000      -0.611977       -16.6527
  55   2.0000      -0.607342       -16.5266
  56   2.0000      -0.602921       -16.4063
  57   2.0000      -0.588935       -16.0257
  58   2.0000      -0.577703       -15.7201
  59   2.0000      -0.570771       -15.5315
  60   2.0000      -0.564089       -15.3496
  61   2.0000      -0.556375       -15.1397
  62   2.0000      -0.540336       -14.7033
  63   2.0000      -0.533308       -14.5121
  64   2.0000      -0.521646       -14.1947
  65   2.0000      -0.512699       -13.9513
  66   2.0000      -0.503834       -13.7100
  67   2.0000      -0.501656       -13.6507
  68   2.0000      -0.485769       -13.2184
  69   2.0000      -0.465846       -12.6763
  70   2.0000      -0.455126       -12.3846
  71   2.0000      -0.451826       -12.2948
  72   2.0000      -0.356971        -9.7137
  73   2.0000      -0.349817        -9.5190
  74   2.0000      -0.329341        -8.9618
  75   2.0000      -0.324738        -8.8366
  76   2.0000      -0.319947        -8.7062
  77   0.0000       0.086380         2.3505
  78   0.0000       0.105273         2.8646
  79   0.0000       0.113829         3.0974
  80   0.0000       0.127219         3.4618
  81   0.0000       0.129948         3.5361

MULLIKEN ATOMIC CHARGES
-----------------------
   0 C :   -0.325654
   1 C :    0.030349
   2 O :   -0.324817
   3 C :    0.428026
   4 O :   -0.383088
   5 C :   -0.239841
   6 C :    0.170916
   7 C :   -0.342090
   8 N :   -0.141640
   9 C :    0.208531
  10 S :   -0.443319
  11 N :   -0.229080
  12 C :    0.079625
  13 C :    0.018200
  14 C :   -0.228789
  15 C :   -0.129959
  16 C :   -0.277957
  17 C :    0.318195
  18 O :   -0.356236
  19 C :   -0.254658
  20 H :    0.125150
  21 H :    0.113889
  22 H :    0.110078
  23 H :    0.130642
  24 H :    0.084449
  25 H :    0.133023
  26 H :    0.136685
  27 H :    0.122830
  28 H :    0.197543
  29 H :    0.204349
  30 H :    0.169757
  31 H :    0.178565
  32 H :    0.164919
  33 H :    0.132252
  34 H :    0.241269
  35 H :    0.177886
Sum of atomic charges:   -0.0000000

LOEWDIN ATOMIC CHARGES
----------------------
   0 C :    0.102943
   1 C :   -0.016633
   2 O :    0.298054
   3 C :   -0.415178
   4 O :    0.120021
   5 C :   -0.078837
   6 C :   -0.093096
   7 C :    0.122648
   8 N :    0.402471
   9 C :   -0.457380
  10 S :   -0.038664
  11 N :    0.396692
  12 C :   -0.047761
  13 C :   -0.042852
  14 C :    0.019033
  15 C :    0.044054
  16 C :   -0.000606
  17 C :   -0.191180
  18 O :    0.395698
  19 C :    0.029319
  20 H :   -0.019772
  21 H :   -0.025066
  22 H :   -0.034877
  23 H :   -0.018631
  24 H :   -0.038348
  25 H :   -0.008140
  26 H :   -0.009323
  27 H :   -0.018788
  28 H :   -0.057134
  29 H :   -0.063465
  30 H :   -0.003118
  31 H :   -0.021382
  32 H :   -0.018442
  33 H :   -0.034788
  34 H :   -0.153230
  35 H :   -0.024241

  Mayer bond orders larger than 0.100000
B(  0-C ,  1-C ) :   0.9505 B(  0-C , 20-H ) :   0.9686 B(  0-C , 21-H ) :   0.9772
B(  0-C , 22-H ) :   0.9727 B(  1-C ,  2-O ) :   0.9054 B(  1-C , 23-H ) :   0.9830
B(  1-C , 24-H ) :   0.9731 B(  2-O ,  3-C ) :   1.1796 B(  3-C ,  4-O ) :   2.0896
B(  3-C ,  5-C ) :   0.9204 B(  5-C ,  6-C ) :   1.7146 B(  5-C , 12-C ) :   0.9328
B(  6-C ,  7-C ) :   0.9376 B(  6-C ,  8-N ) :   1.1036 B(  7-C , 25-H ) :   0.9768
B(  7-C , 26-H ) :   0.9724 B(  7-C , 27-H ) :   0.9666 B(  8-N ,  9-C ) :   1.1994
B(  8-N , 28-H ) :   0.9515 B(  9-C , 10-S ) :   1.6083 B(  9-C , 11-N ) :   1.2904
B( 11-N , 12-C ) :   0.9793 B( 11-N , 29-H ) :   0.9470 B( 12-C , 13-C ) :   0.9688
B( 12-C , 30-H ) :   0.9885 B( 13-C , 14-C ) :   1.3876 B( 13-C , 19-C ) :   1.3442
B( 14-C , 15-C ) :   1.3964 B( 14-C , 31-H ) :   0.9585 B( 15-C , 16-C ) :   1.3597
B( 15-C , 32-H ) :   0.9698 B( 16-C , 17-C ) :   1.3312 B( 16-C , 33-H ) :   0.9847
B( 17-C , 18-O ) :   1.1095 B( 17-C , 19-C ) :   1.3649 B( 18-O , 34-H ) :   0.9794
B( 19-C , 35-H ) :   0.9557

MP2 TOTAL ENERGY:    -1274.326295784 Eh
FINAL SINGLE POINT ENERGY     -1274.326295783965

DIPOLE MOMENT
-------------
                                X             Y             Z
Electronic contribution:      8.52387       6.77221       6.70530
Nuclear contribution   :    -10.15328      -7.97146      -7.25723
                        -----------------------------------------
Total Dipole Moment    :     -1.62941      -1.19925      -0.55192
                        -----------------------------------------
Magnitude (a.u.)       :      2.09709
Magnitude (Debye)      :      5.33039

Rotational constants in cm-1:     0.011671     0.009261     0.006489
Rotational constants in MHz :   349.899063   277.646816   194.525382

                             ****ORCA TERMINATED NORMALLY****
TOTAL RUN TIME: 0 days 2 hours 4 minutes 28 seconds 9 msec
