                         Program Version 4.2.0 -  RELEASE  -
|  1> ! ri-mp2 cc-pvtz cc-pvtz/c TightSCF NoKeepInts
|  2>
|  3> %scf
|  4>   MaxCore 4096
|  5> end
|  6> *xyz  0  1
|  7>     C       14.5123274   15.0140651   15.4124088
|  8>     C       15.1329050   15.7915347   14.2294763
|  9>     O       15.9221724   16.9045042   14.6988301
| 10>     C       16.9005862   16.7241947   15.6340871
| 11>     O       17.5290707   15.6822001   15.7228803
| 12>     C       17.0661937   17.8581398   16.6052843
| 13>     C       16.8207813   19.1540906   16.2768364
| 14>     C       16.1479058   19.6876740   15.0274790
| 15>     N       17.2403391   20.1924030   17.1125097
| 16>     C       18.0902151   20.0377321   18.1743361
| 17>     S       18.6291391   21.3291485   19.0560261
| 18>     N       18.4886052   18.7554519   18.4551574
| 19>     C       17.9648117   17.5380211   17.8059723
| 20>     C       17.3328903   16.5579595   18.7857363
| 21>     C       17.7732969   15.2237438   18.8501024
| 22>     C       17.1858012   14.3198073   19.7510096
| 23>     C       16.1496271   14.7542814   20.5953500
| 24>     C       15.7072699   16.0828435   20.5315066
| 25>     O       14.7034597   16.5035870   21.3418345
| 26>     C       16.2936386   16.9800084   19.6330996
| 27>     H       15.2744752   14.4766139   15.9902941
| 28>     H       13.7951879   14.2713728   15.0426566
| 29>     H       13.9792229   15.6940925   16.0884216
| 30>     H       15.7624662   15.1109818   13.6404313
| 31>     H       14.3340541   16.1645552   13.5758851
| 32>     H       15.1037473   19.3545466   14.9773647
| 33>     H       16.6613435   19.3314204   14.1255698
| 34>     H       16.1426952   20.7834899   14.9810787
| 35>     H       16.9740681   21.1417649   16.9060002
| 36>     H       19.0980289   18.6659884   19.2583603
| 37>     H       18.8923510   17.1228603   17.3853766
| 38>     H       18.5635522   14.8833417   18.1850085
| 39>     H       17.5307009   13.2880249   19.7872477
| 40>     H       15.6920950   14.0591018   21.2912785
| 41>     H       14.4524724   15.7555768   21.9042150
| 42>     H       15.9395026   18.0048776   19.5988880
| 43> *
| 44>
| 45>                          ****END OF INPUT****

CARTESIAN COORDINATES (ANGSTROEM)
---------------------------------
  C     14.512327   15.014065   15.412409
  C     15.132905   15.791535   14.229476
  O     15.922172   16.904504   14.698830
  C     16.900586   16.724195   15.634087
  O     17.529071   15.682200   15.722880
  C     17.066194   17.858140   16.605284
  C     16.820781   19.154091   16.276836
  C     16.147906   19.687674   15.027479
  N     17.240339   20.192403   17.112510
  C     18.090215   20.037732   18.174336
  S     18.629139   21.329148   19.056026
  N     18.488605   18.755452   18.455157
  C     17.964812   17.538021   17.805972
  C     17.332890   16.557959   18.785736
  C     17.773297   15.223744   18.850102
  C     17.185801   14.319807   19.751010
  C     16.149627   14.754281   20.595350
  C     15.707270   16.082843   20.531507
  O     14.703460   16.503587   21.341834
  C     16.293639   16.980008   19.633100
  H     15.274475   14.476614   15.990294
  H     13.795188   14.271373   15.042657
  H     13.979223   15.694092   16.088422
  H     15.762466   15.110982   13.640431
  H     14.334054   16.164555   13.575885
  H     15.103747   19.354547   14.977365
  H     16.661344   19.331420   14.125570
  H     16.142695   20.783490   14.981079
  H     16.974068   21.141765   16.906000
  H     19.098029   18.665988   19.258360
  H     18.892351   17.122860   17.385377
  H     18.563552   14.883342   18.185008
  H     17.530701   13.288025   19.787248
  H     15.692095   14.059102   21.291279
  H     14.452472   15.755577   21.904215
  H     15.939503   18.004878   19.598888

 Total Charge           Charge          ....    0
 Multiplicity           Mult            ....    1
 Number of Electrons    NEL             ....  154
 Basis Dimension        Dim             ....  828

ORBITAL ENERGIES
----------------

  NO   OCC          E(Eh)            E(eV)
   0   2.0000     -91.888084     -2500.4019
   1   2.0000     -20.597864      -560.4964
   2   2.0000     -20.592619      -560.3537
   3   2.0000     -20.546161      -559.0895
   4   2.0000     -15.628532      -425.2740
   5   2.0000     -15.605881      -424.6576
   6   2.0000     -11.395885      -310.0978
   7   2.0000     -11.382712      -309.7393
   8   2.0000     -11.337824      -308.5179
   9   2.0000     -11.308724      -307.7260
  10   2.0000     -11.304403      -307.6084
  11   2.0000     -11.302764      -307.5638
  12   2.0000     -11.260446      -306.4123
  13   2.0000     -11.258571      -306.3613
  14   2.0000     -11.255834      -306.2868
  15   2.0000     -11.248844      -306.0966
  16   2.0000     -11.238976      -305.8281
  17   2.0000     -11.235052      -305.7213
  18   2.0000     -11.231789      -305.6325
  19   2.0000     -11.226626      -305.4920
  20   2.0000      -8.893166      -241.9954
  21   2.0000      -6.574743      -178.9079
  22   2.0000      -6.572740      -178.8534
  23   2.0000      -6.572152      -178.8374
  24   2.0000      -1.451353       -39.4933
  25   2.0000      -1.412374       -38.4326
  26   2.0000      -1.356028       -36.8994
  27   2.0000      -1.339796       -36.4577
  28   2.0000      -1.237054       -33.6620
  29   2.0000      -1.153234       -31.3811
  30   2.0000      -1.120872       -30.5005
  31   2.0000      -1.042511       -28.3682
  32   2.0000      -1.032859       -28.1055
  33   2.0000      -1.010728       -27.5033
  34   2.0000      -0.998903       -27.1815
  35   2.0000      -0.983933       -26.7742
  36   2.0000      -0.921371       -25.0718
  37   2.0000      -0.896254       -24.3883
  38   2.0000      -0.847750       -23.0684
  39   2.0000      -0.835640       -22.7389
  40   2.0000      -0.828960       -22.5571
  41   2.0000      -0.816027       -22.2052
  42   2.0000      -0.748566       -20.3695
  43   2.0000      -0.734734       -19.9931
  44   2.0000      -0.726523       -19.7697
  45   2.0000      -0.691005       -18.8032
  46   2.0000      -0.685839       -18.6626
  47   2.0000      -0.678331       -18.4583
  48   2.0000      -0.669593       -18.2206
  49   2.0000      -0.657226       -17.8840
  50   2.0000      -0.652719       -17.7614
  51   2.0000      -0.644822       -17.5465
  52   2.0000      -0.631738       -17.1905
  53   2.0000      -0.615736       -16.7550
  54   2.0000      -0.603232       -16.4148
  55   2.0000      -0.598887       -16.2965
  56   2.0000      -0.595928       -16.2160
  57   2.0000      -0.578326       -15.7371
  58   2.0000      -0.573947       -15.6179
  59   2.0000      -0.563539       -15.3347
  60   2.0000      -0.555654       -15.1201
  61   2.0000      -0.547199       -14.8900
  62   2.0000      -0.537181       -14.6174
  63   2.0000      -0.529497       -14.4084
  64   2.0000      -0.516459       -14.0536
  65   2.0000      -0.509156       -13.8548
  66   2.0000      -0.498350       -13.5608
  67   2.0000      -0.494075       -13.4445
  68   2.0000      -0.480378       -13.0717
  69   2.0000      -0.463595       -12.6151
  70   2.0000      -0.458992       -12.4898
  71   2.0000      -0.449807       -12.2399
  72   2.0000      -0.352986        -9.6052
  73   2.0000      -0.345367        -9.3979
  74   2.0000      -0.327178        -8.9030
  75   2.0000      -0.317245        -8.6327
  76   2.0000      -0.315381        -8.5820
  77   0.0000       0.076423         2.0796
  78   0.0000       0.110034         2.9942
  79   0.0000       0.121118         3.2958
  80   0.0000       0.135163         3.6780
  81   0.0000       0.141546         3.8517

MULLIKEN ATOMIC CHARGES
-----------------------
   0 C :   -0.312699
   1 C :    0.041827
   2 O :   -0.362511
   3 C :    0.437338
   4 O :   -0.421792
   5 C :   -0.171070
   6 C :    0.153552
   7 C :   -0.279752
   8 N :   -0.128161
   9 C :    0.208017
  10 S :   -0.442262
  11 N :   -0.211437
  12 C :    0.043376
  13 C :    0.032961
  14 C :   -0.175262
  15 C :   -0.134394
  16 C :   -0.277338
  17 C :    0.314619
  18 O :   -0.358823
  19 C :   -0.251902
  20 H :    0.127106
  21 H :    0.098992
  22 H :    0.096767
  23 H :    0.102632
  24 H :    0.106222
  25 H :    0.127308
  26 H :    0.126500
  27 H :    0.101101
  28 H :    0.198802
  29 H :    0.199803
  30 H :    0.155883
  31 H :    0.161103
  32 H :    0.160731
  33 H :    0.128712
  34 H :    0.240043
  35 H :    0.164010
Sum of atomic charges:   -0.0000000

LOEWDIN ATOMIC CHARGES
----------------------
   0 C :    0.106035
   1 C :   -0.015234
   2 O :    0.297801
   3 C :   -0.415368
   4 O :    0.107891
   5 C :   -0.092457
   6 C :   -0.064537
   7 C :    0.125568
   8 N :    0.405483
   9 C :   -0.458255
  10 S :   -0.037630
  11 N :    0.396395
  12 C :   -0.048199
  13 C :   -0.040755
  14 C :    0.024354
  15 C :    0.040345
  16 C :   -0.001146
  17 C :   -0.192562
  18 O :    0.393217
  19 C :    0.029681
  20 H :   -0.023717
  21 H :   -0.025886
  22 H :   -0.028586
  23 H :   -0.028531
  24 H :   -0.024995
  25 H :   -0.009671
  26 H :   -0.008662
  27 H :   -0.021300
  28 H :   -0.058674
  29 H :   -0.063286
  30 H :   -0.008040
  31 H :   -0.023820
  32 H :   -0.020945
  33 H :   -0.036050
  34 H :   -0.154755
  35 H :   -0.023709

  Mayer bond orders larger than 0.100000
B(  0-C ,  1-C ) :   0.9590 B(  0-C , 20-H ) :   0.9710 B(  0-C , 21-H ) :   0.9764
B(  0-C , 22-H ) :   0.9752 B(  1-C ,  2-O ) :   0.9024 B(  1-C , 23-H ) :   0.9821
B(  1-C , 24-H ) :   0.9836 B(  2-O ,  3-C ) :   1.1124 B(  3-C ,  4-O ) :   1.9902
B(  3-C ,  5-C ) :   1.0386 B(  5-C ,  6-C ) :   1.6559 B(  5-C , 12-C ) :   0.9496
B(  6-C ,  7-C ) :   0.9559 B(  6-C ,  8-N ) :   1.1381 B(  7-C , 25-H ) :   0.9638
B(  7-C , 26-H ) :   0.9650 B(  7-C , 27-H ) :   0.9905 B(  8-N ,  9-C ) :   1.1852
B(  8-N , 28-H ) :   0.9470 B(  9-C , 10-S ) :   1.6087 B(  9-C , 11-N ) :   1.3054
B( 11-N , 12-C ) :   0.9777 B( 11-N , 29-H ) :   0.9485 B( 12-C , 13-C ) :   0.9712
B( 12-C , 30-H ) :   0.9964 B( 13-C , 14-C ) :   1.3766 B( 13-C , 19-C ) :   1.3656
B( 14-C , 15-C ) :   1.3964 B( 14-C , 31-H ) :   0.9629 B( 15-C , 16-C ) :   1.3590
B( 15-C , 32-H ) :   0.9709 B( 16-C , 17-C ) :   1.3332 B( 16-C , 33-H ) :   0.9858
B( 17-C , 18-O ) :   1.1039 B( 17-C , 19-C ) :   1.3667 B( 18-O , 34-H ) :   0.9805
B( 19-C , 35-H ) :   0.9600

MP2 TOTAL ENERGY:    -1274.337277278 Eh
FINAL SINGLE POINT ENERGY     -1274.337277277920

DIPOLE MOMENT
-------------
                                X             Y             Z
Electronic contribution:      9.43023      10.00372       9.21947
Nuclear contribution   :    -10.86471     -11.30136     -10.28687
                        -----------------------------------------
Total Dipole Moment    :     -1.43448      -1.29764      -1.06740
                        -----------------------------------------
Magnitude (a.u.)       :      2.20929
Magnitude (Debye)      :      5.61556

Rotational constants in cm-1:     0.010485     0.009258     0.005856
Rotational constants in MHz :   314.332907   277.536517   175.559045

                             ****ORCA TERMINATED NORMALLY****
TOTAL RUN TIME: 0 days 1 hours 37 minutes 40 seconds 999 msec
