                         Program Version 4.2.0 -  RELEASE  -
|  1> ! ri-mp2 cc-pvtz cc-pvtz/c TightSCF NoKeepInts
|  2>
|  3> %scf
|  4>   MaxCore 4096
|  5> end
|  6> *xyz  0  1
|  7>     C       14.4583537   15.9383418   15.7692038
|  8>     C       15.7043860   15.0452775   15.9716467
|  9>     O       16.9306288   15.6564742   15.4962156
| 10>     C       17.0146594   16.9839501   15.1859199
| 11>     O       16.9869757   17.3330158   14.0199145
| 12>     C       17.0837671   17.9220217   16.3638865
| 13>     C       16.9394961   19.2578124   16.1619405
| 14>     C       16.3329679   19.9393913   14.9524782
| 15>     N       17.3389611   20.1847159   17.1265475
| 16>     C       18.1093245   19.8795480   18.2147903
| 17>     S       18.6565478   21.0412833   19.2568974
| 18>     N       18.4271723   18.5560301   18.3820690
| 19>     C       17.8756342   17.4378734   17.5934363
| 20>     C       17.1929484   16.4069480   18.4769619
| 21>     C       17.8108485   15.1712398   18.7443807
| 22>     C       17.1816820   14.2251863   19.5712101
| 23>     C       15.9303145   14.5209197   20.1393296
| 24>     C       15.3204904   15.7572635   19.8851032
| 25>     O       14.1128768   16.0457338   20.4313288
| 26>     C       15.9485029   16.6969375   19.0618170
| 27>     H       14.5001579   16.8371915   16.3957570
| 28>     H       13.5523828   15.3859975   16.0468761
| 29>     H       14.3569918   16.2405258   14.7186865
| 30>     H       15.7886312   14.7803461   17.0302178
| 31>     H       15.5547115   14.1052342   15.4251035
| 32>     H       15.4632161   19.3814523   14.5832306
| 33>     H       17.0618543   19.9878562   14.1329421
| 34>     H       15.9948901   20.9607222   15.1638503
| 35>     H       17.1434764   21.1639351   16.9916538
| 36>     H       18.9789027   18.3583247   19.2074853
| 37>     H       18.8108538   17.0304968   17.1832312
| 38>     H       18.7774399   14.9405338   18.3035269
| 39>     H       17.6639644   13.2693299   19.7701609
| 40>     H       15.4411821   13.7928897   20.7785182
| 41>     H       13.8736298   15.3117267   21.0175627
| 42>     H       15.4681771   17.6534734   18.8841195
| 43> *
| 44>
| 45>                          ****END OF INPUT****

CARTESIAN COORDINATES (ANGSTROEM)
---------------------------------
  C     14.458354   15.938342   15.769204
  C     15.704386   15.045277   15.971647
  O     16.930629   15.656474   15.496216
  C     17.014659   16.983950   15.185920
  O     16.986976   17.333016   14.019914
  C     17.083767   17.922022   16.363886
  C     16.939496   19.257812   16.161941
  C     16.332968   19.939391   14.952478
  N     17.338961   20.184716   17.126548
  C     18.109324   19.879548   18.214790
  S     18.656548   21.041283   19.256897
  N     18.427172   18.556030   18.382069
  C     17.875634   17.437873   17.593436
  C     17.192948   16.406948   18.476962
  C     17.810848   15.171240   18.744381
  C     17.181682   14.225186   19.571210
  C     15.930314   14.520920   20.139330
  C     15.320490   15.757263   19.885103
  O     14.112877   16.045734   20.431329
  C     15.948503   16.696938   19.061817
  H     14.500158   16.837191   16.395757
  H     13.552383   15.385998   16.046876
  H     14.356992   16.240526   14.718687
  H     15.788631   14.780346   17.030218
  H     15.554711   14.105234   15.425104
  H     15.463216   19.381452   14.583231
  H     17.061854   19.987856   14.132942
  H     15.994890   20.960722   15.163850
  H     17.143476   21.163935   16.991654
  H     18.978903   18.358325   19.207485
  H     18.810854   17.030497   17.183231
  H     18.777440   14.940534   18.303527
  H     17.663964   13.269330   19.770161
  H     15.441182   13.792890   20.778518
  H     13.873630   15.311727   21.017563
  H     15.468177   17.653473   18.884120

 Total Charge           Charge          ....    0
 Multiplicity           Mult            ....    1
 Number of Electrons    NEL             ....  154
 Basis Dimension        Dim             ....  828

ORBITAL ENERGIES
----------------

  NO   OCC          E(Eh)            E(eV)
   0   2.0000     -91.891030     -2500.4821
   1   2.0000     -20.604446      -560.6755
   2   2.0000     -20.579466      -559.9957
   3   2.0000     -20.547150      -559.1164
   4   2.0000     -15.630427      -425.3255
   5   2.0000     -15.609648      -424.7601
   6   2.0000     -11.392365      -310.0020
   7   2.0000     -11.385357      -309.8113
   8   2.0000     -11.337437      -308.5073
   9   2.0000     -11.322410      -308.0984
  10   2.0000     -11.313127      -307.8458
  11   2.0000     -11.297636      -307.4243
  12   2.0000     -11.267804      -306.6125
  13   2.0000     -11.263339      -306.4910
  14   2.0000     -11.258456      -306.3582
  15   2.0000     -11.253459      -306.2222
  16   2.0000     -11.252326      -306.1913
  17   2.0000     -11.246705      -306.0384
  18   2.0000     -11.246311      -306.0277
  19   2.0000     -11.230213      -305.5896
  20   2.0000      -8.896082      -242.0747
  21   2.0000      -6.577649      -178.9869
  22   2.0000      -6.575656      -178.9327
  23   2.0000      -6.575060      -178.9165
  24   2.0000      -1.441003       -39.2117
  25   2.0000      -1.424174       -38.7537
  26   2.0000      -1.350184       -36.7404
  27   2.0000      -1.342737       -36.5377
  28   2.0000      -1.241334       -33.7784
  29   2.0000      -1.165209       -31.7070
  30   2.0000      -1.122963       -30.5574
  31   2.0000      -1.048949       -28.5433
  32   2.0000      -1.030827       -28.0502
  33   2.0000      -1.023081       -27.8394
  34   2.0000      -1.001894       -27.2629
  35   2.0000      -0.988207       -26.8905
  36   2.0000      -0.926191       -25.2029
  37   2.0000      -0.895782       -24.3755
  38   2.0000      -0.850053       -23.1311
  39   2.0000      -0.844807       -22.9884
  40   2.0000      -0.841813       -22.9069
  41   2.0000      -0.823513       -22.4089
  42   2.0000      -0.746914       -20.3246
  43   2.0000      -0.738759       -20.1026
  44   2.0000      -0.717351       -19.5201
  45   2.0000      -0.702436       -19.1143
  46   2.0000      -0.690037       -18.7769
  47   2.0000      -0.677331       -18.4311
  48   2.0000      -0.672171       -18.2907
  49   2.0000      -0.660582       -17.9754
  50   2.0000      -0.654376       -17.8065
  51   2.0000      -0.645295       -17.5594
  52   2.0000      -0.638139       -17.3647
  53   2.0000      -0.625658       -17.0250
  54   2.0000      -0.614140       -16.7116
  55   2.0000      -0.606328       -16.4990
  56   2.0000      -0.602929       -16.4065
  57   2.0000      -0.582913       -15.8619
  58   2.0000      -0.573096       -15.5947
  59   2.0000      -0.567357       -15.4386
  60   2.0000      -0.547219       -14.8906
  61   2.0000      -0.543983       -14.8025
  62   2.0000      -0.540519       -14.7083
  63   2.0000      -0.533682       -14.5222
  64   2.0000      -0.530780       -14.4433
  65   2.0000      -0.516384       -14.0515
  66   2.0000      -0.504731       -13.7344
  67   2.0000      -0.492673       -13.4063
  68   2.0000      -0.480656       -13.0793
  69   2.0000      -0.468883       -12.7589
  70   2.0000      -0.451668       -12.2905
  71   2.0000      -0.444177       -12.0867
  72   2.0000      -0.358036        -9.7427
  73   2.0000      -0.354120        -9.6361
  74   2.0000      -0.332162        -9.0386
  75   2.0000      -0.328562        -8.9406
  76   2.0000      -0.320777        -8.7288
  77   0.0000       0.072845         1.9822
  78   0.0000       0.097760         2.6602
  79   0.0000       0.120649         3.2830
  80   0.0000       0.126662         3.4467
  81   0.0000       0.129678         3.5287

MULLIKEN ATOMIC CHARGES
-----------------------
   0 C :   -0.330125
   1 C :    0.033451
   2 O :   -0.377322
   3 C :    0.484134
   4 O :   -0.388344
   5 C :   -0.308374
   6 C :    0.184607
   7 C :   -0.270378
   8 N :   -0.126936
   9 C :    0.208875
  10 S :   -0.439211
  11 N :   -0.212089
  12 C :    0.061093
  13 C :    0.003799
  14 C :   -0.152893
  15 C :   -0.134416
  16 C :   -0.272784
  17 C :    0.311518
  18 O :   -0.357522
  19 C :   -0.254887
  20 H :    0.102200
  21 H :    0.113265
  22 H :    0.120182
  23 H :    0.105397
  24 H :    0.120478
  25 H :    0.124359
  26 H :    0.138901
  27 H :    0.094115
  28 H :    0.199178
  29 H :    0.200516
  30 H :    0.151239
  31 H :    0.152873
  32 H :    0.164242
  33 H :    0.134618
  34 H :    0.242410
  35 H :    0.173831
Sum of atomic charges:   -0.0000000

LOEWDIN ATOMIC CHARGES
----------------------
   0 C :    0.104144
   1 C :   -0.010819
   2 O :    0.283419
   3 C :   -0.426617
   4 O :    0.124184
   5 C :   -0.102415
   6 C :   -0.059056
   7 C :    0.129742
   8 N :    0.407627
   9 C :   -0.457309
  10 S :   -0.034036
  11 N :    0.395249
  12 C :   -0.054762
  13 C :   -0.042382
  14 C :    0.018912
  15 C :    0.042699
  16 C :    0.000370
  17 C :   -0.191947
  18 O :    0.396714
  19 C :    0.034887
  20 H :   -0.034580
  21 H :   -0.021316
  22 H :   -0.024619
  23 H :   -0.033497
  24 H :   -0.025128
  25 H :   -0.006908
  26 H :   -0.003905
  27 H :   -0.023010
  28 H :   -0.056418
  29 H :   -0.063943
  30 H :   -0.011060
  31 H :   -0.026728
  32 H :   -0.018896
  33 H :   -0.033558
  34 H :   -0.152162
  35 H :   -0.022873

  Mayer bond orders larger than 0.100000
B(  0-C ,  1-C ) :   0.9634 B(  0-C , 20-H ) :   0.9701 B(  0-C , 21-H ) :   0.9758
B(  0-C , 22-H ) :   0.9723 B(  1-C ,  2-O ) :   0.8969 B(  1-C , 23-H ) :   0.9686
B(  1-C , 24-H ) :   0.9847 B(  2-O ,  3-C ) :   1.1134 B(  3-C ,  4-O ) :   2.0652
B(  3-C ,  5-C ) :   1.0212 B(  5-C ,  6-C ) :   1.6320 B(  5-C , 12-C ) :   0.9650
B(  6-C ,  7-C ) :   0.9616 B(  6-C ,  8-N ) :   1.1524 B(  7-C , 25-H ) :   0.9688
B(  7-C , 26-H ) :   0.9547 B(  7-C , 27-H ) :   0.9871 B(  8-N ,  9-C ) :   1.1882
B(  8-N , 28-H ) :   0.9476 B(  9-C , 10-S ) :   1.6101 B(  9-C , 11-N ) :   1.3053
B( 11-N , 12-C ) :   0.9645 B( 11-N , 29-H ) :   0.9485 B( 12-C , 13-C ) :   0.9657
B( 12-C , 30-H ) :   1.0036 B( 13-C , 14-C ) :   1.3539 B( 13-C , 19-C ) :   1.3627
B( 14-C , 15-C ) :   1.3963 B( 14-C , 31-H ) :   0.9721 B( 15-C , 16-C ) :   1.3593
B( 15-C , 32-H ) :   0.9701 B( 16-C , 17-C ) :   1.3302 B( 16-C , 33-H ) :   0.9837
B( 17-C , 18-O ) :   1.1075 B( 17-C , 19-C ) :   1.3648 B( 18-O , 34-H ) :   0.9785
B( 19-C , 35-H ) :   0.9570

MP2 TOTAL ENERGY:    -1274.321583120 Eh
FINAL SINGLE POINT ENERGY     -1274.321583120270

DIPOLE MOMENT
-------------
                                X             Y             Z
Electronic contribution:      9.29699       7.71882       6.15200
Nuclear contribution   :    -10.52103      -9.32393      -5.79424
                        -----------------------------------------
Total Dipole Moment    :     -1.22403      -1.60511       0.35776
                        -----------------------------------------
Magnitude (a.u.)       :      2.05003
Magnitude (Debye)      :      5.21076

Rotational constants in cm-1:     0.012302     0.009009     0.006362
Rotational constants in MHz :   368.816741   270.075318   190.713724

                             ****ORCA TERMINATED NORMALLY****
TOTAL RUN TIME: 0 days 1 hours 51 minutes 41 seconds 207 msec
