                         Program Version 4.2.0 -  RELEASE  -
|  1> ! ri-mp2 cc-pvtz cc-pvtz/c TightSCF NoKeepInts
|  2>
|  3> %scf
|  4>   MaxCore 4096
|  5> end
|  6> *xyz  0  1
|  7>     C       15.3744157   15.0628077   13.4284973
|  8>     C       14.5388416   15.7201288   14.5474533
|  9>     O       15.2923600   16.7776715   15.1732901
| 10>     C       16.3431543   16.5010718   16.0036289
| 11>     O       16.7786608   15.3729649   16.1649630
| 12>     C       16.8381485   17.6749904   16.8022323
| 13>     C       16.7752177   18.9551920   16.3475319
| 14>     C       16.0290387   19.4818836   15.1370761
| 15>     N       17.4878998   19.9742714   16.9849197
| 16>     C       18.4531036   19.7695884   17.9333060
| 17>     S       19.3370031   21.0177914   18.5628656
| 18>     N       18.6646872   18.4698132   18.3163835
| 19>     C       17.8418034   17.3155389   17.9062659
| 20>     C       17.2166214   16.5776365   19.0829319
| 21>     C       17.4341300   15.1997789   19.2633097
| 22>     C       16.8594822   14.5218972   20.3515565
| 23>     C       16.0618432   15.2284251   21.2680553
| 24>     C       15.8420733   16.6012752   21.0895767
| 25>     O       15.0693386   17.2850423   21.9709099
| 26>     C       16.4150607   17.2730585   20.0049930
| 27>     H       15.7467346   15.8196342   12.7273068
| 28>     H       14.7604918   14.3493982   12.8656542
| 29>     H       16.2327446   14.5139369   13.8341568
| 30>     H       13.6258603   16.1419990   14.1081425
| 31>     H       14.2420212   14.9673972   15.2906327
| 32>     H       14.9474190   19.3427875   15.2580914
| 33>     H       16.3397584   18.9538205   14.2269106
| 34>     H       16.2013011   20.5507805   14.9615926
| 35>     H       17.3589426   20.9314739   16.6987135
| 36>     H       19.3664015   18.3475681   19.0355387
| 37>     H       18.6082500   16.6927763   17.4223467
| 38>     H       18.0384006   14.6500466   18.5455157
| 39>     H       17.0290948   13.4540502   20.4768533
| 40>     H       15.6148610   14.7084986   22.1087420
| 41>     H       14.7852689   16.6586635   22.6532968
| 42>     H       16.2365658   18.3363410   19.8847591
| 43> *
| 44>
| 45>                          ****END OF INPUT****

CARTESIAN COORDINATES (ANGSTROEM)
---------------------------------
  C     15.374416   15.062808   13.428497
  C     14.538842   15.720129   14.547453
  O     15.292360   16.777672   15.173290
  C     16.343154   16.501072   16.003629
  O     16.778661   15.372965   16.164963
  C     16.838148   17.674990   16.802232
  C     16.775218   18.955192   16.347532
  C     16.029039   19.481884   15.137076
  N     17.487900   19.974271   16.984920
  C     18.453104   19.769588   17.933306
  S     19.337003   21.017791   18.562866
  N     18.664687   18.469813   18.316384
  C     17.841803   17.315539   17.906266
  C     17.216621   16.577637   19.082932
  C     17.434130   15.199779   19.263310
  C     16.859482   14.521897   20.351557
  C     16.061843   15.228425   21.268055
  C     15.842073   16.601275   21.089577
  O     15.069339   17.285042   21.970910
  C     16.415061   17.273059   20.004993
  H     15.746735   15.819634   12.727307
  H     14.760492   14.349398   12.865654
  H     16.232745   14.513937   13.834157
  H     13.625860   16.141999   14.108142
  H     14.242021   14.967397   15.290633
  H     14.947419   19.342787   15.258091
  H     16.339758   18.953820   14.226911
  H     16.201301   20.550780   14.961593
  H     17.358943   20.931474   16.698714
  H     19.366401   18.347568   19.035539
  H     18.608250   16.692776   17.422347
  H     18.038401   14.650047   18.545516
  H     17.029095   13.454050   20.476853
  H     15.614861   14.708499   22.108742
  H     14.785269   16.658663   22.653297
  H     16.236566   18.336341   19.884759

 Total Charge           Charge          ....    0
 Multiplicity           Mult            ....    1
 Number of Electrons    NEL             ....  154
 Basis Dimension        Dim             ....  828

ORBITAL ENERGIES
----------------

  NO   OCC          E(Eh)            E(eV)
   0   2.0000     -91.887620     -2500.3893
   1   2.0000     -20.603795      -560.6578
   2   2.0000     -20.590986      -560.3092
   3   2.0000     -20.545800      -559.0797
   4   2.0000     -15.628009      -425.2597
   5   2.0000     -15.605332      -424.6427
   6   2.0000     -11.397302      -310.1364
   7   2.0000     -11.382129      -309.7235
   8   2.0000     -11.337592      -308.5116
   9   2.0000     -11.306985      -307.6787
  10   2.0000     -11.303934      -307.5957
  11   2.0000     -11.302720      -307.5626
  12   2.0000     -11.260918      -306.4252
  13   2.0000     -11.258772      -306.3668
  14   2.0000     -11.254324      -306.2457
  15   2.0000     -11.247119      -306.0497
  16   2.0000     -11.237300      -305.7825
  17   2.0000     -11.233389      -305.6760
  18   2.0000     -11.230237      -305.5903
  19   2.0000     -11.225669      -305.4660
  20   2.0000      -8.892708      -241.9829
  21   2.0000      -6.574286      -178.8954
  22   2.0000      -6.572282      -178.8409
  23   2.0000      -6.571695      -178.8249
  24   2.0000      -1.453086       -39.5405
  25   2.0000      -1.410729       -38.3879
  26   2.0000      -1.357983       -36.9526
  27   2.0000      -1.339476       -36.4490
  28   2.0000      -1.236648       -33.6509
  29   2.0000      -1.151699       -31.3393
  30   2.0000      -1.120316       -30.4854
  31   2.0000      -1.042209       -28.3600
  32   2.0000      -1.034258       -28.1436
  33   2.0000      -1.009169       -27.4609
  34   2.0000      -0.997841       -27.1526
  35   2.0000      -0.982909       -26.7463
  36   2.0000      -0.920474       -25.0474
  37   2.0000      -0.894068       -24.3288
  38   2.0000      -0.847430       -23.0597
  39   2.0000      -0.834584       -22.7102
  40   2.0000      -0.827334       -22.5129
  41   2.0000      -0.817778       -22.2529
  42   2.0000      -0.752911       -20.4878
  43   2.0000      -0.733930       -19.9713
  44   2.0000      -0.725536       -19.7429
  45   2.0000      -0.690281       -18.7835
  46   2.0000      -0.685243       -18.6464
  47   2.0000      -0.679813       -18.4986
  48   2.0000      -0.670119       -18.2349
  49   2.0000      -0.660492       -17.9729
  50   2.0000      -0.645958       -17.5774
  51   2.0000      -0.640058       -17.4169
  52   2.0000      -0.631013       -17.1707
  53   2.0000      -0.609941       -16.5974
  54   2.0000      -0.601831       -16.3767
  55   2.0000      -0.597505       -16.2589
  56   2.0000      -0.594115       -16.1667
  57   2.0000      -0.585944       -15.9443
  58   2.0000      -0.572233       -15.5713
  59   2.0000      -0.566414       -15.4129
  60   2.0000      -0.560232       -15.2447
  61   2.0000      -0.546616       -14.8742
  62   2.0000      -0.537012       -14.6128
  63   2.0000      -0.524773       -14.2798
  64   2.0000      -0.514889       -14.0108
  65   2.0000      -0.510029       -13.8786
  66   2.0000      -0.500595       -13.6219
  67   2.0000      -0.493621       -13.4321
  68   2.0000      -0.480210       -13.0672
  69   2.0000      -0.463987       -12.6257
  70   2.0000      -0.456070       -12.4103
  71   2.0000      -0.452437       -12.3114
  72   2.0000      -0.352735        -9.5984
  73   2.0000      -0.343827        -9.3560
  74   2.0000      -0.326712        -8.8903
  75   2.0000      -0.316784        -8.6201
  76   2.0000      -0.313640        -8.5346
  77   0.0000       0.078169         2.1271
  78   0.0000       0.112460         3.0602
  79   0.0000       0.120958         3.2914
  80   0.0000       0.136420         3.7122
  81   0.0000       0.140850         3.8327

MULLIKEN ATOMIC CHARGES
-----------------------
   0 C :   -0.300807
   1 C :    0.036259
   2 O :   -0.345239
   3 C :    0.418715
   4 O :   -0.430301
   5 C :   -0.165257
   6 C :    0.166850
   7 C :   -0.282407
   8 N :   -0.129190
   9 C :    0.207657
  10 S :   -0.443128
  11 N :   -0.210660
  12 C :    0.040331
  13 C :    0.031614
  14 C :   -0.165911
  15 C :   -0.134352
  16 C :   -0.276858
  17 C :    0.314469
  18 O :   -0.359051
  19 C :   -0.250113
  20 H :    0.088924
  21 H :    0.096437
  22 H :    0.124975
  23 H :    0.107670
  24 H :    0.100434
  25 H :    0.131301
  26 H :    0.123423
  27 H :    0.101869
  28 H :    0.198795
  29 H :    0.199900
  30 H :    0.154973
  31 H :    0.158230
  32 H :    0.159539
  33 H :    0.127958
  34 H :    0.239787
  35 H :    0.163166
Sum of atomic charges:   -0.0000000

LOEWDIN ATOMIC CHARGES
----------------------
   0 C :    0.104357
   1 C :   -0.014886
   2 O :    0.303237
   3 C :   -0.412890
   4 O :    0.105670
   5 C :   -0.089999
   6 C :   -0.064392
   7 C :    0.124694
   8 N :    0.405286
   9 C :   -0.458768
  10 S :   -0.038177
  11 N :    0.396505
  12 C :   -0.048149
  13 C :   -0.040403
  14 C :    0.024733
  15 C :    0.040858
  16 C :   -0.001079
  17 C :   -0.192286
  18 O :    0.393120
  19 C :    0.030061
  20 H :   -0.031528
  21 H :   -0.027312
  22 H :   -0.025289
  23 H :   -0.024970
  24 H :   -0.026723
  25 H :   -0.008888
  26 H :   -0.010450
  27 H :   -0.021308
  28 H :   -0.058858
  29 H :   -0.063076
  30 H :   -0.008581
  31 H :   -0.024263
  32 H :   -0.021202
  33 H :   -0.036235
  34 H :   -0.154973
  35 H :   -0.023837

  Mayer bond orders larger than 0.100000
B(  0-C ,  1-C ) :   0.9646 B(  0-C , 20-H ) :   0.9769 B(  0-C , 21-H ) :   0.9768
B(  0-C , 22-H ) :   0.9719 B(  1-C ,  2-O ) :   0.9048 B(  1-C , 23-H ) :   0.9849
B(  1-C , 24-H ) :   0.9777 B(  2-O ,  3-C ) :   1.1469 B(  3-C ,  4-O ) :   1.9586
B(  3-C ,  5-C ) :   1.0607 B(  5-C ,  6-C ) :   1.6529 B(  5-C , 12-C ) :   0.9485
B(  6-C ,  7-C ) :   0.9530 B(  6-C ,  8-N ) :   1.1347 B(  7-C , 25-H ) :   0.9628
B(  7-C , 26-H ) :   0.9660 B(  7-C , 27-H ) :   0.9915 B(  8-N ,  9-C ) :   1.1860
B(  8-N , 28-H ) :   0.9469 B(  9-C , 10-S ) :   1.6073 B(  9-C , 11-N ) :   1.3062
B( 11-N , 12-C ) :   0.9766 B( 11-N , 29-H ) :   0.9484 B( 12-C , 13-C ) :   0.9750
B( 12-C , 30-H ) :   0.9973 B( 13-C , 14-C ) :   1.3751 B( 13-C , 19-C ) :   1.3677
B( 14-C , 15-C ) :   1.3972 B( 14-C , 31-H ) :   0.9642 B( 15-C , 16-C ) :   1.3588
B( 15-C , 32-H ) :   0.9713 B( 16-C , 17-C ) :   1.3333 B( 16-C , 33-H ) :   0.9861
B( 17-C , 18-O ) :   1.1031 B( 17-C , 19-C ) :   1.3675 B( 18-O , 34-H ) :   0.9808
B( 19-C , 35-H ) :   0.9600

MP2 TOTAL ENERGY:    -1274.340295340 Eh
FINAL SINGLE POINT ENERGY     -1274.340295340200

DIPOLE MOMENT
-------------
                                X             Y             Z
Electronic contribution:      8.45202       9.37150      12.98690
Nuclear contribution   :    -10.05218     -10.52093     -14.00295
                        -----------------------------------------
Total Dipole Moment    :     -1.60015      -1.14943      -1.01605
                        -----------------------------------------
Magnitude (a.u.)       :      2.21676
Magnitude (Debye)      :      5.63456

Rotational constants in cm-1:     0.010020     0.008803     0.005453
Rotational constants in MHz :   300.398185   263.906828   163.477234

                             ****ORCA TERMINATED NORMALLY****
TOTAL RUN TIME: 0 days 1 hours 34 minutes 5 seconds 640 msec
