                         Program Version 4.2.0 -  RELEASE  -
|  1> ! ri-mp2 cc-pvtz cc-pvtz/c TightSCF NoKeepInts
|  2>
|  3> %scf
|  4>   MaxCore 4096
|  5> end
|  6> *xyz  0  1
|  7>     C       14.6813150   15.0086508   14.2380581
|  8>     C       15.5165156   14.8528833   15.5268989
|  9>     O       16.4244634   15.9502029   15.7933998
| 10>     C       16.1431604   17.2836062   15.6333397
| 11>     O       15.3721162   17.7186116   14.7971011
| 12>     C       16.8376338   18.1307346   16.6683929
| 13>     C       16.9106018   19.4803663   16.5309158
| 14>     C       16.1484567   20.3463522   15.5487820
| 15>     N       17.7650112   20.2410983   17.3324788
| 16>     C       18.7162513   19.7179799   18.1655014
| 17>     S       19.7599061   20.6782739   19.0166481
| 18>     N       18.7741022   18.3497955   18.2423998
| 19>     C       17.8234017   17.4161266   17.6099526
| 20>     C       17.1592610   16.4873324   18.6184707
| 21>     C       17.5101682   15.1259047   18.6774069
| 22>     C       16.8946671   14.2700433   19.6063333
| 23>     C       15.9236468   14.7810395   20.4847255
| 24>     C       15.5764941   16.1382173   20.4310474
| 25>     O       14.6406384   16.6343518   21.2789566
| 26>     C       16.1903735   16.9872575   19.5049113
| 27>     H       13.8791533   15.7453784   14.3690099
| 28>     H       14.2098995   14.0545287   13.9739153
| 29>     H       15.3132460   15.3200750   13.3968428
| 30>     H       14.8273403   14.7456307   16.3749276
| 31>     H       16.1007882   13.9260162   15.4643839
| 32>     H       15.0692675   20.1634110   15.6302007
| 33>     H       16.4433522   20.1133511   14.5176754
| 34>     H       16.3097852   21.4194692   15.7046813
| 35>     H       17.7474599   21.2463682   17.2687630
| 36>     H       19.4647336   17.9936210   18.8908656
| 37>     H       18.5057364   16.8543816   16.9563001
| 38>     H       18.2580803   14.7297807   17.9956325
| 39>     H       17.1712234   13.2178089   19.6447353
| 40>     H       15.4462783   14.1245237   21.2047884
| 41>     H       14.3586041   15.9107392   21.8583489
| 42>     H       15.9138673   18.0360877   19.4812084
| 43> *
| 44>
| 45>                          ****END OF INPUT****

CARTESIAN COORDINATES (ANGSTROEM)
---------------------------------
  C     14.681315   15.008651   14.238058
  C     15.516516   14.852883   15.526899
  O     16.424463   15.950203   15.793400
  C     16.143160   17.283606   15.633340
  O     15.372116   17.718612   14.797101
  C     16.837634   18.130735   16.668393
  C     16.910602   19.480366   16.530916
  C     16.148457   20.346352   15.548782
  N     17.765011   20.241098   17.332479
  C     18.716251   19.717980   18.165501
  S     19.759906   20.678274   19.016648
  N     18.774102   18.349795   18.242400
  C     17.823402   17.416127   17.609953
  C     17.159261   16.487332   18.618471
  C     17.510168   15.125905   18.677407
  C     16.894667   14.270043   19.606333
  C     15.923647   14.781040   20.484725
  C     15.576494   16.138217   20.431047
  O     14.640638   16.634352   21.278957
  C     16.190373   16.987257   19.504911
  H     13.879153   15.745378   14.369010
  H     14.209900   14.054529   13.973915
  H     15.313246   15.320075   13.396843
  H     14.827340   14.745631   16.374928
  H     16.100788   13.926016   15.464384
  H     15.069268   20.163411   15.630201
  H     16.443352   20.113351   14.517675
  H     16.309785   21.419469   15.704681
  H     17.747460   21.246368   17.268763
  H     19.464734   17.993621   18.890866
  H     18.505736   16.854382   16.956300
  H     18.258080   14.729781   17.995632
  H     17.171223   13.217809   19.644735
  H     15.446278   14.124524   21.204788
  H     14.358604   15.910739   21.858349
  H     15.913867   18.036088   19.481208

 Total Charge           Charge          ....    0
 Multiplicity           Mult            ....    1
 Number of Electrons    NEL             ....  154
 Basis Dimension        Dim             ....  828

ORBITAL ENERGIES
----------------

  NO   OCC          E(Eh)            E(eV)
   0   2.0000     -91.888384     -2500.4101
   1   2.0000     -20.597183      -560.4778
   2   2.0000     -20.594209      -560.3969
   3   2.0000     -20.541349      -558.9585
   4   2.0000     -15.628655      -425.2773
   5   2.0000     -15.606352      -424.6704
   6   2.0000     -11.396844      -310.1239
   7   2.0000     -11.382927      -309.7452
   8   2.0000     -11.336622      -308.4852
   9   2.0000     -11.314397      -307.8804
  10   2.0000     -11.306648      -307.6695
  11   2.0000     -11.301700      -307.5349
  12   2.0000     -11.261193      -306.4327
  13   2.0000     -11.257945      -306.3442
  14   2.0000     -11.255851      -306.2873
  15   2.0000     -11.251252      -306.1621
  16   2.0000     -11.244094      -305.9674
  17   2.0000     -11.239281      -305.8364
  18   2.0000     -11.239077      -305.8308
  19   2.0000     -11.220258      -305.3187
  20   2.0000      -8.893461      -242.0034
  21   2.0000      -6.575035      -178.9158
  22   2.0000      -6.573036      -178.8614
  23   2.0000      -6.572447      -178.8454
  24   2.0000      -1.443124       -39.2694
  25   2.0000      -1.416837       -38.5541
  26   2.0000      -1.354002       -36.8443
  27   2.0000      -1.339843       -36.4590
  28   2.0000      -1.237715       -33.6799
  29   2.0000      -1.157787       -31.5050
  30   2.0000      -1.120037       -30.4778
  31   2.0000      -1.042649       -28.3719
  32   2.0000      -1.034983       -28.1633
  33   2.0000      -1.015502       -27.6332
  34   2.0000      -0.995391       -27.0860
  35   2.0000      -0.983557       -26.7639
  36   2.0000      -0.921440       -25.0737
  37   2.0000      -0.894346       -24.3364
  38   2.0000      -0.846594       -23.0370
  39   2.0000      -0.838380       -22.8135
  40   2.0000      -0.834617       -22.7111
  41   2.0000      -0.819363       -22.2960
  42   2.0000      -0.747255       -20.3339
  43   2.0000      -0.732199       -19.9241
  44   2.0000      -0.717840       -19.5334
  45   2.0000      -0.695642       -18.9294
  46   2.0000      -0.687803       -18.7161
  47   2.0000      -0.677719       -18.4417
  48   2.0000      -0.668146       -18.1812
  49   2.0000      -0.658836       -17.9278
  50   2.0000      -0.648239       -17.6395
  51   2.0000      -0.644625       -17.5411
  52   2.0000      -0.634485       -17.2652
  53   2.0000      -0.607427       -16.5289
  54   2.0000      -0.601365       -16.3640
  55   2.0000      -0.599457       -16.3120
  56   2.0000      -0.596352       -16.2276
  57   2.0000      -0.581212       -15.8156
  58   2.0000      -0.575404       -15.6575
  59   2.0000      -0.569296       -15.4913
  60   2.0000      -0.562032       -15.2937
  61   2.0000      -0.539932       -14.6923
  62   2.0000      -0.535033       -14.5590
  63   2.0000      -0.524086       -14.2611
  64   2.0000      -0.522009       -14.2046
  65   2.0000      -0.512342       -13.9415
  66   2.0000      -0.500235       -13.6121
  67   2.0000      -0.497072       -13.5260
  68   2.0000      -0.483549       -13.1580
  69   2.0000      -0.462977       -12.5982
  70   2.0000      -0.452944       -12.3252
  71   2.0000      -0.438957       -11.9446
  72   2.0000      -0.352248        -9.5851
  73   2.0000      -0.350057        -9.5255
  74   2.0000      -0.327673        -8.9164
  75   2.0000      -0.321746        -8.7552
  76   2.0000      -0.317638        -8.6434
  77   0.0000       0.076289         2.0759
  78   0.0000       0.104893         2.8543
  79   0.0000       0.124878         3.3981
  80   0.0000       0.132730         3.6118
  81   0.0000       0.136869         3.7244

MULLIKEN ATOMIC CHARGES
-----------------------
   0 C :   -0.278836
   1 C :    0.045282
   2 O :   -0.370026
   3 C :    0.442165
   4 O :   -0.430866
   5 C :   -0.221967
   6 C :    0.175518
   7 C :   -0.267031
   8 N :   -0.125910
   9 C :    0.211336
  10 S :   -0.442924
  11 N :   -0.216389
  12 C :    0.068359
  13 C :    0.042338
  14 C :   -0.186297
  15 C :   -0.131682
  16 C :   -0.277787
  17 C :    0.316531
  18 O :   -0.356533
  19 C :   -0.250585
  20 H :    0.112627
  21 H :    0.093292
  22 H :    0.102083
  23 H :    0.093202
  24 H :    0.096933
  25 H :    0.132945
  26 H :    0.128979
  27 H :    0.094547
  28 H :    0.199531
  29 H :    0.200307
  30 H :    0.151448
  31 H :    0.153776
  32 H :    0.161038
  33 H :    0.130656
  34 H :    0.240665
  35 H :    0.163275
Sum of atomic charges:   -0.0000000

LOEWDIN ATOMIC CHARGES
----------------------
   0 C :    0.102583
   1 C :   -0.011683
   2 O :    0.294041
   3 C :   -0.412462
   4 O :    0.109373
   5 C :   -0.095714
   6 C :   -0.056182
   7 C :    0.130525
   8 N :    0.407086
   9 C :   -0.456649
  10 S :   -0.037261
  11 N :    0.394482
  12 C :   -0.054784
  13 C :   -0.038734
  14 C :    0.017020
  15 C :    0.038704
  16 C :   -0.001533
  17 C :   -0.189919
  18 O :    0.395158
  19 C :    0.032514
  20 H :   -0.026613
  21 H :   -0.029559
  22 H :   -0.024566
  23 H :   -0.029213
  24 H :   -0.024937
  25 H :   -0.004678
  26 H :   -0.005166
  27 H :   -0.023831
  28 H :   -0.057309
  29 H :   -0.064584
  30 H :   -0.013648
  31 H :   -0.029101
  32 H :   -0.021280
  33 H :   -0.035450
  34 H :   -0.153887
  35 H :   -0.022744

  Mayer bond orders larger than 0.100000
B(  0-C ,  1-C ) :   0.9818 B(  0-C , 20-H ) :   0.9729 B(  0-C , 21-H ) :   0.9755
B(  0-C , 22-H ) :   0.9747 B(  1-C ,  2-O ) :   0.8971 B(  1-C , 23-H ) :   0.9731
B(  1-C , 24-H ) :   0.9815 B(  2-O ,  3-C ) :   1.1175 B(  3-C ,  4-O ) :   1.9739
B(  3-C ,  5-C ) :   1.0805 B(  5-C ,  6-C ) :   1.6359 B(  5-C , 12-C ) :   0.9575
B(  6-C ,  7-C ) :   0.9654 B(  6-C ,  8-N ) :   1.1515 B(  7-C , 25-H ) :   0.9609
B(  7-C , 26-H ) :   0.9590 B(  7-C , 27-H ) :   0.9910 B(  8-N ,  9-C ) :   1.1876
B(  8-N , 28-H ) :   0.9464 B(  9-C , 10-S ) :   1.6046 B(  9-C , 11-N ) :   1.3103
B( 11-N , 12-C ) :   0.9652 B( 11-N , 29-H ) :   0.9485 B( 12-C , 13-C ) :   0.9617
B( 12-C , 30-H ) :   1.0008 B( 13-C , 14-C ) :   1.3515 B( 13-C , 19-C ) :   1.3814
B( 14-C , 15-C ) :   1.3929 B( 14-C , 31-H ) :   0.9718 B( 15-C , 16-C ) :   1.3595
B( 15-C , 32-H ) :   0.9706 B( 16-C , 17-C ) :   1.3337 B( 16-C , 33-H ) :   0.9849
B( 17-C , 18-O ) :   1.1051 B( 17-C , 19-C ) :   1.3646 B( 18-O , 34-H ) :   0.9797
B( 19-C , 35-H ) :   0.9596

MP2 TOTAL ENERGY:    -1274.331800007 Eh
FINAL SINGLE POINT ENERGY     -1274.331800006765

DIPOLE MOMENT
-------------
                                X             Y             Z
Electronic contribution:      9.52131       9.81771       9.98435
Nuclear contribution   :    -10.57767     -11.57073     -10.27470
                        -----------------------------------------
Total Dipole Moment    :     -1.05637      -1.75302      -0.29035
                        -----------------------------------------
Magnitude (a.u.)       :      2.06720
Magnitude (Debye)      :      5.25440

Rotational constants in cm-1:     0.011059     0.008688     0.005821
Rotational constants in MHz :   331.540182   260.451055   174.510497

                             ****ORCA TERMINATED NORMALLY****
TOTAL RUN TIME: 0 days 1 hours 43 minutes 15 seconds 698 msec
