                         Program Version 4.2.0 -  RELEASE  -
|  1> ! ri-mp2 cc-pvtz cc-pvtz/c TightSCF NoKeepInts
|  2>
|  3> %scf
|  4>   MaxCore 4096
|  5> end
|  6> *xyz  0  1
|  7>     C       14.8278301   14.5686292   15.7150035
|  8>     C       14.2069678   15.9759863   15.7493364
|  9>     O       15.1598906   16.8603211   16.3563109
| 10>     C       16.1642192   17.4721630   15.6545817
| 11>     O       16.3086071   17.4304185   14.4459144
| 12>     C       16.9553276   18.3104449   16.5946668
| 13>     C       17.0562561   19.6544353   16.4991658
| 14>     C       16.4367595   20.4958390   15.4050545
| 15>     N       17.8632802   20.3745482   17.3900022
| 16>     C       18.6681991   19.7924260   18.3382195
| 17>     S       19.4862836   20.6765094   19.4723458
| 18>     N       18.7356758   18.4215835   18.3323025
| 19>     C       17.9066726   17.5345647   17.4999219
| 20>     C       17.2860905   16.4169844   18.3085585
| 21>     C       17.7621866   15.1059928   18.1276287
| 22>     C       17.2095030   14.0437224   18.8555798
| 23>     C       16.1750387   14.3038116   19.7701422
| 24>     C       15.6750498   15.6060526   19.9221402
| 25>     O       14.6616774   15.8482617   20.7896645
| 26>     C       16.2289601   16.6616159   19.1955102
| 27>     H       15.7673726   14.5589508   15.1500943
| 28>     H       14.1373164   13.8494676   15.2579429
| 29>     H       15.0320093   14.2337469   16.7408616
| 30>     H       13.9482141   16.3160943   14.7385580
| 31>     H       13.2914211   15.9383343   16.3572003
| 32>     H       15.3450191   20.5093443   15.4752320
| 33>     H       16.6974510   20.0770345   14.4217718
| 34>     H       16.7970302   21.5327630   15.4161358
| 35>     H       17.8115893   21.3809745   17.4264570
| 36>     H       19.2636472   18.0223823   19.0993830
| 37>     H       18.6136511   17.0711132   16.7980572
| 38>     H       18.5619910   14.9111779   17.4168304
| 39>     H       17.5852333   13.0314911   18.7112820
| 40>     H       15.7599651   13.4907144   20.3523874
| 41>     H       14.5713704   15.0594613   21.3439757
| 42>     H       15.8292437   17.6626389   19.3097804
| 43> *
| 44>
| 45>                          ****END OF INPUT****

CARTESIAN COORDINATES (ANGSTROEM)
---------------------------------
  C     14.827830   14.568629   15.715003
  C     14.206968   15.975986   15.749336
  O     15.159891   16.860321   16.356311
  C     16.164219   17.472163   15.654582
  O     16.308607   17.430418   14.445914
  C     16.955328   18.310445   16.594667
  C     17.056256   19.654435   16.499166
  C     16.436760   20.495839   15.405054
  N     17.863280   20.374548   17.390002
  C     18.668199   19.792426   18.338219
  S     19.486284   20.676509   19.472346
  N     18.735676   18.421583   18.332303
  C     17.906673   17.534565   17.499922
  C     17.286091   16.416984   18.308558
  C     17.762187   15.105993   18.127629
  C     17.209503   14.043722   18.855580
  C     16.175039   14.303812   19.770142
  C     15.675050   15.606053   19.922140
  O     14.661677   15.848262   20.789664
  C     16.228960   16.661616   19.195510
  H     15.767373   14.558951   15.150094
  H     14.137316   13.849468   15.257943
  H     15.032009   14.233747   16.740862
  H     13.948214   16.316094   14.738558
  H     13.291421   15.938334   16.357200
  H     15.345019   20.509344   15.475232
  H     16.697451   20.077034   14.421772
  H     16.797030   21.532763   15.416136
  H     17.811589   21.380974   17.426457
  H     19.263647   18.022382   19.099383
  H     18.613651   17.071113   16.798057
  H     18.561991   14.911178   17.416830
  H     17.585233   13.031491   18.711282
  H     15.759965   13.490714   20.352387
  H     14.571370   15.059461   21.343976
  H     15.829244   17.662639   19.309780

 Total Charge           Charge          ....    0
 Multiplicity           Mult            ....    1
 Number of Electrons    NEL             ....  154
 Basis Dimension        Dim             ....  828

ORBITAL ENERGIES
----------------

  NO   OCC          E(Eh)            E(eV)
   0   2.0000     -91.885093     -2500.3205
   1   2.0000     -20.601916      -560.6066
   2   2.0000     -20.598192      -560.5053
   3   2.0000     -20.557711      -559.4038
   4   2.0000     -15.621537      -425.0836
   5   2.0000     -15.605342      -424.6429
   6   2.0000     -11.400096      -310.2124
   7   2.0000     -11.380926      -309.6907
   8   2.0000     -11.322354      -308.0969
   9   2.0000     -11.314924      -307.8947
  10   2.0000     -11.308713      -307.7257
  11   2.0000     -11.297285      -307.4147
  12   2.0000     -11.260302      -306.4084
  13   2.0000     -11.256958      -306.3174
  14   2.0000     -11.256041      -306.2924
  15   2.0000     -11.252675      -306.2009
  16   2.0000     -11.246888      -306.0434
  17   2.0000     -11.241815      -305.9053
  18   2.0000     -11.239540      -305.8434
  19   2.0000     -11.224030      -305.4214
  20   2.0000      -8.890210      -241.9149
  21   2.0000      -6.571797      -178.8277
  22   2.0000      -6.569784      -178.7729
  23   2.0000      -6.569210      -178.7573
  24   2.0000      -1.453465       -39.5508
  25   2.0000      -1.418934       -38.6111
  26   2.0000      -1.364500       -37.1299
  27   2.0000      -1.333240       -36.2793
  28   2.0000      -1.234416       -33.5902
  29   2.0000      -1.161586       -31.6084
  30   2.0000      -1.123226       -30.5645
  31   2.0000      -1.045941       -28.4615
  32   2.0000      -1.039302       -28.2809
  33   2.0000      -1.019216       -27.7343
  34   2.0000      -0.996964       -27.1288
  35   2.0000      -0.982516       -26.7356
  36   2.0000      -0.921667       -25.0798
  37   2.0000      -0.896078       -24.3835
  38   2.0000      -0.844748       -22.9868
  39   2.0000      -0.837625       -22.7929
  40   2.0000      -0.835915       -22.7464
  41   2.0000      -0.816851       -22.2277
  42   2.0000      -0.755025       -20.5453
  43   2.0000      -0.734429       -19.9848
  44   2.0000      -0.729079       -19.8393
  45   2.0000      -0.698325       -19.0024
  46   2.0000      -0.691111       -18.8061
  47   2.0000      -0.680075       -18.5058
  48   2.0000      -0.677186       -18.4272
  49   2.0000      -0.663872       -18.0649
  50   2.0000      -0.649673       -17.6785
  51   2.0000      -0.635429       -17.2909
  52   2.0000      -0.629954       -17.1419
  53   2.0000      -0.616105       -16.7651
  54   2.0000      -0.610901       -16.6235
  55   2.0000      -0.602884       -16.4053
  56   2.0000      -0.598978       -16.2990
  57   2.0000      -0.576983       -15.7005
  58   2.0000      -0.572436       -15.5768
  59   2.0000      -0.566626       -15.4187
  60   2.0000      -0.562606       -15.3093
  61   2.0000      -0.547251       -14.8915
  62   2.0000      -0.536859       -14.6087
  63   2.0000      -0.532317       -14.4851
  64   2.0000      -0.523580       -14.2473
  65   2.0000      -0.510187       -13.8829
  66   2.0000      -0.504202       -13.7200
  67   2.0000      -0.498528       -13.5656
  68   2.0000      -0.481762       -13.1094
  69   2.0000      -0.468162       -12.7393
  70   2.0000      -0.455594       -12.3974
  71   2.0000      -0.452478       -12.3126
  72   2.0000      -0.350484        -9.5372
  73   2.0000      -0.346891        -9.4394
  74   2.0000      -0.327168        -8.9027
  75   2.0000      -0.323196        -8.7946
  76   2.0000      -0.314050        -8.5457
  77   0.0000       0.094457         2.5703
  78   0.0000       0.101069         2.7502
  79   0.0000       0.122596         3.3360
  80   0.0000       0.130917         3.5624
  81   0.0000       0.136562         3.7160

MULLIKEN ATOMIC CHARGES
-----------------------
   0 C :   -0.297837
   1 C :    0.022370
   2 O :   -0.328680
   3 C :    0.355305
   4 O :   -0.408697
   5 C :   -0.105800
   6 C :    0.154162
   7 C :   -0.303504
   8 N :   -0.140885
   9 C :    0.221939
  10 S :   -0.448935
  11 N :   -0.211394
  12 C :    0.045947
  13 C :    0.012163
  14 C :   -0.199254
  15 C :   -0.143544
  16 C :   -0.270251
  17 C :    0.298151
  18 O :   -0.357286
  19 C :   -0.190279
  20 H :    0.103565
  21 H :    0.103797
  22 H :    0.102907
  23 H :    0.107114
  24 H :    0.113865
  25 H :    0.123214
  26 H :    0.142844
  27 H :    0.100693
  28 H :    0.195984
  29 H :    0.199424
  30 H :    0.148736
  31 H :    0.155629
  32 H :    0.162413
  33 H :    0.135042
  34 H :    0.240692
  35 H :    0.160391
Sum of atomic charges:   -0.0000000

LOEWDIN ATOMIC CHARGES
----------------------
   0 C :    0.103355
   1 C :   -0.020658
   2 O :    0.321968
   3 C :   -0.407404
   4 O :    0.110188
   5 C :   -0.081268
   6 C :   -0.088518
   7 C :    0.127551
   8 N :    0.399549
   9 C :   -0.449914
  10 S :   -0.043174
  11 N :    0.393236
  12 C :   -0.061044
  13 C :   -0.044226
  14 C :    0.012949
  15 C :    0.039765
  16 C :    0.002585
  17 C :   -0.192335
  18 O :    0.396797
  19 C :    0.045470
  20 H :   -0.027661
  21 H :   -0.027645
  22 H :   -0.025769
  23 H :   -0.030686
  24 H :   -0.022026
  25 H :   -0.014062
  26 H :   -0.002619
  27 H :   -0.019138
  28 H :   -0.059590
  29 H :   -0.064585
  30 H :   -0.010752
  31 H :   -0.028734
  32 H :   -0.020189
  33 H :   -0.035722
  34 H :   -0.154960
  35 H :   -0.020732

  Mayer bond orders larger than 0.100000
B(  0-C ,  1-C ) :   0.9626 B(  0-C , 20-H ) :   0.9771 B(  0-C , 21-H ) :   0.9778
B(  0-C , 22-H ) :   0.9721 B(  1-C ,  2-O ) :   0.9033 B(  1-C , 23-H ) :   0.9800
B(  1-C , 24-H ) :   0.9827 B(  2-O ,  3-C ) :   1.1951 B(  3-C ,  4-O ) :   2.0241
B(  3-C ,  5-C ) :   0.9446 B(  5-C ,  6-C ) :   1.7154 B(  5-C , 12-C ) :   0.9566
B(  6-C ,  7-C ) :   0.9279 B(  6-C ,  8-N ) :   1.1323 B(  7-C , 25-H ) :   0.9737
B(  7-C , 26-H ) :   0.9636 B(  7-C , 27-H ) :   0.9909 B(  8-N ,  9-C ) :   1.2017
B(  8-N , 28-H ) :   0.9496 B(  9-C , 10-S ) :   1.5979 B(  9-C , 11-N ) :   1.2951
B( 11-N , 12-C ) :   0.9858 B( 11-N , 29-H ) :   0.9462 B( 12-C , 13-C ) :   0.9672
B( 12-C , 30-H ) :   0.9989 B( 13-C , 14-C ) :   1.3578 B( 13-C , 19-C ) :   1.3585
B( 14-C , 15-C ) :   1.3849 B( 14-C , 31-H ) :   0.9711 B( 15-C , 16-C ) :   1.3662
B( 15-C , 32-H ) :   0.9717 B( 16-C , 17-C ) :   1.3244 B( 16-C , 33-H ) :   0.9840
B( 17-C , 18-O ) :   1.0992 B( 17-C , 19-C ) :   1.3748 B( 18-O , 34-H ) :   0.9795
B( 19-C , 35-H ) :   0.9595

MP2 TOTAL ENERGY:    -1274.334376718 Eh
FINAL SINGLE POINT ENERGY     -1274.334376717729

DIPOLE MOMENT
-------------
                                X             Y             Z
Electronic contribution:      8.82736       9.88761       8.31876
Nuclear contribution   :    -10.24442     -11.49060      -8.78852
                        -----------------------------------------
Total Dipole Moment    :     -1.41706      -1.60298      -0.46976
                        -----------------------------------------
Magnitude (a.u.)       :      2.19050
Magnitude (Debye)      :      5.56781

Rotational constants in cm-1:     0.013131     0.008410     0.006030
Rotational constants in MHz :   393.645832   252.119973   180.774216

                             ****ORCA TERMINATED NORMALLY****
TOTAL RUN TIME: 0 days 2 hours 3 minutes 3 seconds 252 msec
