                         Program Version 4.2.0 -  RELEASE  -
|  1> ! ri-mp2 cc-pvtz cc-pvtz/c TightSCF NoKeepInts
|  2>
|  3> %scf
|  4>   MaxCore 4096
|  5> end
|  6> *xyz  0  1
|  7>     C       14.1314553   15.2511294   14.1766821
|  8>     C       14.8963571   15.8502837   15.3681155
|  9>     O       16.1645603   16.3086186   14.8778513
| 10>     C       17.1732857   16.3651370   15.7875502
| 11>     O       17.8940517   15.4056824   15.9940974
| 12>     C       17.2136011   17.6184236   16.6112183
| 13>     C       16.9225132   18.8378363   16.0884412
| 14>     C       16.3251523   19.1433657   14.7289347
| 15>     N       17.2289480   20.0055232   16.7914233
| 16>     C       18.0205806   20.0506804   17.9076328
| 17>     S       18.4307474   21.4814936   18.6282387
| 18>     N       18.4731394   18.8461868   18.3846674
| 19>     C       18.0546069   17.5206850   17.8880535
| 20>     C       17.4174031   16.6432262   18.9569509
| 21>     C       17.8927115   15.3404260   19.1906872
| 22>     C       17.2991692   14.5284529   20.1716101
| 23>     C       16.2210587   15.0237164   20.9250997
| 24>     C       15.7432209   16.3205582   20.6917270
| 25>     O       14.6978210   16.7989498   21.4123332
| 26>     C       16.3352408   17.1259678   19.7135145
| 27>     H       14.6965023   14.4201938   13.7354024
| 28>     H       13.9675659   16.0086115   13.4002663
| 29>     H       13.1546753   14.8693298   14.4977391
| 30>     H       14.3319830   16.6764129   15.8201423
| 31>     H       15.0393092   15.0671529   16.1264847
| 32>     H       16.8772674   18.6260638   13.9337229
| 33>     H       16.3501087   20.2128310   14.4860895
| 34>     H       15.2786830   18.8197721   14.6785693
| 35>     H       16.9271581   20.8995743   16.4380631
| 36>     H       19.0419583   18.9062000   19.2199675
| 37>     H       19.0265454   17.1093713   17.5777326
| 38>     H       18.7167742   14.9511157   18.5967768
| 39>     H       17.6725276   13.5197540   20.3398153
| 40>     H       15.7590685   14.3991535   21.6824809
| 41>     H       14.4579927   16.1201167   22.0610648
| 42>     H       15.9532564   18.1280037   19.5488535
| 43> *
| 44>
| 45>                          ****END OF INPUT****

CARTESIAN COORDINATES (ANGSTROEM)
---------------------------------
  C     14.131455   15.251129   14.176682
  C     14.896357   15.850284   15.368116
  O     16.164560   16.308619   14.877851
  C     17.173286   16.365137   15.787550
  O     17.894052   15.405682   15.994097
  C     17.213601   17.618424   16.611218
  C     16.922513   18.837836   16.088441
  C     16.325152   19.143366   14.728935
  N     17.228948   20.005523   16.791423
  C     18.020581   20.050680   17.907633
  S     18.430747   21.481494   18.628239
  N     18.473139   18.846187   18.384667
  C     18.054607   17.520685   17.888054
  C     17.417403   16.643226   18.956951
  C     17.892711   15.340426   19.190687
  C     17.299169   14.528453   20.171610
  C     16.221059   15.023716   20.925100
  C     15.743221   16.320558   20.691727
  O     14.697821   16.798950   21.412333
  C     16.335241   17.125968   19.713514
  H     14.696502   14.420194   13.735402
  H     13.967566   16.008612   13.400266
  H     13.154675   14.869330   14.497739
  H     14.331983   16.676413   15.820142
  H     15.039309   15.067153   16.126485
  H     16.877267   18.626064   13.933723
  H     16.350109   20.212831   14.486090
  H     15.278683   18.819772   14.678569
  H     16.927158   20.899574   16.438063
  H     19.041958   18.906200   19.219967
  H     19.026545   17.109371   17.577733
  H     18.716774   14.951116   18.596777
  H     17.672528   13.519754   20.339815
  H     15.759068   14.399153   21.682481
  H     14.457993   16.120117   22.061065
  H     15.953256   18.128004   19.548853

 Total Charge           Charge          ....    0
 Multiplicity           Mult            ....    1
 Number of Electrons    NEL             ....  154
 Basis Dimension        Dim             ....  828

ORBITAL ENERGIES
----------------

  NO   OCC          E(Eh)            E(eV)
   0   2.0000     -91.890062     -2500.4557
   1   2.0000     -20.594858      -560.4146
   2   2.0000     -20.588739      -560.2481
   3   2.0000     -20.553138      -559.2793
   4   2.0000     -15.631057      -425.3427
   5   2.0000     -15.607631      -424.7052
   6   2.0000     -11.393519      -310.0334
   7   2.0000     -11.384882      -309.7984
   8   2.0000     -11.340476      -308.5900
   9   2.0000     -11.311079      -307.7901
  10   2.0000     -11.305966      -307.6510
  11   2.0000     -11.305655      -307.6425
  12   2.0000     -11.263193      -306.4871
  13   2.0000     -11.260646      -306.4178
  14   2.0000     -11.258282      -306.3534
  15   2.0000     -11.250986      -306.1549
  16   2.0000     -11.241073      -305.8851
  17   2.0000     -11.237360      -305.7841
  18   2.0000     -11.234265      -305.6999
  19   2.0000     -11.233764      -305.6863
  20   2.0000      -8.895137      -242.0490
  21   2.0000      -6.576710      -178.9614
  22   2.0000      -6.574710      -178.9069
  23   2.0000      -6.574118      -178.8908
  24   2.0000      -1.453841       -39.5610
  25   2.0000      -1.414601       -38.4933
  26   2.0000      -1.360728       -37.0273
  27   2.0000      -1.341993       -36.5175
  28   2.0000      -1.238980       -33.7144
  29   2.0000      -1.155578       -31.4449
  30   2.0000      -1.122971       -30.5576
  31   2.0000      -1.045138       -28.4397
  32   2.0000      -1.038298       -28.2535
  33   2.0000      -1.013234       -27.5715
  34   2.0000      -1.001912       -27.2634
  35   2.0000      -0.986715       -26.8499
  36   2.0000      -0.923246       -25.1228
  37   2.0000      -0.880433       -23.9578
  38   2.0000      -0.852048       -23.1854
  39   2.0000      -0.840578       -22.8733
  40   2.0000      -0.832111       -22.6429
  41   2.0000      -0.830814       -22.6076
  42   2.0000      -0.760714       -20.7001
  43   2.0000      -0.737191       -20.0600
  44   2.0000      -0.729010       -19.8374
  45   2.0000      -0.692869       -18.8539
  46   2.0000      -0.689084       -18.7509
  47   2.0000      -0.681922       -18.5560
  48   2.0000      -0.673330       -18.3223
  49   2.0000      -0.657443       -17.8899
  50   2.0000      -0.649132       -17.6638
  51   2.0000      -0.645005       -17.5515
  52   2.0000      -0.636163       -17.3109
  53   2.0000      -0.616794       -16.7838
  54   2.0000      -0.605473       -16.4758
  55   2.0000      -0.601833       -16.3767
  56   2.0000      -0.598167       -16.2769
  57   2.0000      -0.580482       -15.7957
  58   2.0000      -0.575868       -15.6702
  59   2.0000      -0.563850       -15.3431
  60   2.0000      -0.561238       -15.2721
  61   2.0000      -0.553660       -15.0659
  62   2.0000      -0.540165       -14.6986
  63   2.0000      -0.521457       -14.1896
  64   2.0000      -0.518893       -14.1198
  65   2.0000      -0.512106       -13.9351
  66   2.0000      -0.504013       -13.7149
  67   2.0000      -0.496675       -13.5152
  68   2.0000      -0.483328       -13.1520
  69   2.0000      -0.466282       -12.6882
  70   2.0000      -0.462115       -12.5748
  71   2.0000      -0.453329       -12.3357
  72   2.0000      -0.355619        -9.6769
  73   2.0000      -0.347535        -9.4569
  74   2.0000      -0.329102        -8.9553
  75   2.0000      -0.319410        -8.6916
  76   2.0000      -0.317865        -8.6495
  77   0.0000       0.072553         1.9743
  78   0.0000       0.107509         2.9255
  79   0.0000       0.117811         3.2058
  80   0.0000       0.133535         3.6337
  81   0.0000       0.138735         3.7752

MULLIKEN ATOMIC CHARGES
-----------------------
   0 C :   -0.257858
   1 C :    0.023348
   2 O :   -0.364017
   3 C :    0.458963
   4 O :   -0.382890
   5 C :   -0.238897
   6 C :    0.165829
   7 C :   -0.290219
   8 N :   -0.128980
   9 C :    0.205804
  10 S :   -0.439600
  11 N :   -0.212312
  12 C :    0.048722
  13 C :    0.030022
  14 C :   -0.181225
  15 C :   -0.132762
  16 C :   -0.277860
  17 C :    0.313647
  18 O :   -0.358642
  19 C :   -0.253689
  20 H :    0.107981
  21 H :    0.092656
  22 H :    0.089524
  23 H :    0.093659
  24 H :    0.108114
  25 H :    0.134261
  26 H :    0.108534
  27 H :    0.119516
  28 H :    0.198560
  29 H :    0.199990
  30 H :    0.157680
  31 H :    0.164770
  32 H :    0.161865
  33 H :    0.129527
  34 H :    0.240570
  35 H :    0.165410
Sum of atomic charges:   -0.0000000

LOEWDIN ATOMIC CHARGES
----------------------
   0 C :    0.111286
   1 C :   -0.024770
   2 O :    0.300268
   3 C :   -0.425749
   4 O :    0.127078
   5 C :   -0.097258
   6 C :   -0.066861
   7 C :    0.126730
   8 N :    0.405657
   9 C :   -0.458238
  10 S :   -0.035617
  11 N :    0.396171
  12 C :   -0.049153
  13 C :   -0.042046
  14 C :    0.024012
  15 C :    0.041791
  16 C :   -0.001023
  17 C :   -0.193044
  18 O :    0.393168
  19 C :    0.027928
  20 H :   -0.021084
  21 H :   -0.028618
  22 H :   -0.024996
  23 H :   -0.037791
  24 H :   -0.024581
  25 H :   -0.006307
  26 H :   -0.019333
  27 H :   -0.012213
  28 H :   -0.058255
  29 H :   -0.063241
  30 H :   -0.007001
  31 H :   -0.022871
  32 H :   -0.020171
  33 H :   -0.035695
  34 H :   -0.154178
  35 H :   -0.023995

  Mayer bond orders larger than 0.100000
B(  0-C ,  1-C ) :   0.9799 B(  0-C , 20-H ) :   0.9768 B(  0-C , 21-H ) :   0.9787
B(  0-C , 22-H ) :   0.9755 B(  1-C ,  2-O ) :   0.8916 B(  1-C , 23-H ) :   0.9727
B(  1-C , 24-H ) :   0.9733 B(  2-O ,  3-C ) :   1.0951 B(  3-C ,  4-O ) :   2.0700
B(  3-C ,  5-C ) :   0.9974 B(  5-C ,  6-C ) :   1.6653 B(  5-C , 12-C ) :   0.9528
B(  6-C ,  7-C ) :   0.9489 B(  6-C ,  8-N ) :   1.1375 B(  7-C , 25-H ) :   0.9651
B(  7-C , 26-H ) :   0.9888 B(  7-C , 27-H ) :   0.9676 B(  8-N ,  9-C ) :   1.1839
B(  8-N , 28-H ) :   0.9473 B(  9-C , 10-S ) :   1.6123 B(  9-C , 11-N ) :   1.3030
B( 11-N , 12-C ) :   0.9808 B( 11-N , 29-H ) :   0.9487 B( 12-C , 13-C ) :   0.9723
B( 12-C , 30-H ) :   0.9944 B( 13-C , 14-C ) :   1.3802 B( 13-C , 19-C ) :   1.3618
B( 14-C , 15-C ) :   1.3963 B( 14-C , 31-H ) :   0.9616 B( 15-C , 16-C ) :   1.3598
B( 15-C , 32-H ) :   0.9706 B( 16-C , 17-C ) :   1.3323 B( 16-C , 33-H ) :   0.9856
B( 17-C , 18-O ) :   1.1049 B( 17-C , 19-C ) :   1.3675 B( 18-O , 34-H ) :   0.9801
B( 19-C , 35-H ) :   0.9597

MP2 TOTAL ENERGY:    -1274.327259595 Eh
FINAL SINGLE POINT ENERGY     -1274.327259595382

DIPOLE MOMENT
-------------
                                X             Y             Z
Electronic contribution:     10.66590       9.25403      10.21932
Nuclear contribution   :    -12.18708     -10.40355     -10.78922
                        -----------------------------------------
Total Dipole Moment    :     -1.52118      -1.14952      -0.56989
                        -----------------------------------------
Magnitude (a.u.)       :      1.99001
Magnitude (Debye)      :      5.05822

Rotational constants in cm-1:     0.009796     0.009410     0.005871
Rotational constants in MHz :   293.664705   282.107521   176.011477

                             ****ORCA TERMINATED NORMALLY****
TOTAL RUN TIME: 0 days 1 hours 48 minutes 6 seconds 952 msec
