                         Program Version 4.2.0 -  RELEASE  -
|  1> ! ri-mp2 cc-pvtz cc-pvtz/c TightSCF NoKeepInts
|  2>
|  3> %scf
|  4>   MaxCore 4096
|  5> end
|  6> *xyz  0  1
|  7>     C       14.3093259   14.8883421   14.8302229
|  8>     C       15.1839019   15.8494432   13.9981812
|  9>     O       15.6800358   16.9063207   14.8429391
| 10>     C       16.6416682   16.6553738   15.7813402
| 11>     O       17.1920567   15.5704594   15.8782296
| 12>     C       16.9673155   17.8087565   16.6911016
| 13>     C       16.7805180   19.1105419   16.3430095
| 14>     C       16.0229314   19.6638010   15.1516214
| 15>     N       17.3456133   20.1393281   17.1014516
| 16>     C       18.2790950   19.9563383   18.0852041
| 17>     S       18.9854588   21.2315976   18.8664852
| 18>     N       18.6139872   18.6581113   18.3731198
| 19>     C       17.9494541   17.4629313   17.8188345
| 20>     C       17.3517326   16.5615886   18.8914689
| 21>     C       17.7198114   15.2067884   18.9774845
| 22>     C       17.1687707   14.3779640   19.9691514
| 23>     C       16.2430260   14.9090857   20.8836268
| 24>     C       15.8733260   16.2585415   20.7990832
| 25>     O       14.9768605   16.7729412   21.6783692
| 26>     C       16.4232338   17.0808215   19.8104725
| 27>     H       14.9035712   14.3571105   15.5840596
| 28>     H       13.8445553   14.1369365   14.1806303
| 29>     H       13.5105335   15.4375115   15.3437195
| 30>     H       16.0155303   15.3014378   13.5343719
| 31>     H       14.5735785   16.2843755   13.1964331
| 32>     H       16.4535934   19.2973503   14.2114814
| 33>     H       16.0391508   20.7595698   15.1067356
| 34>     H       14.9697372   19.3578554   15.1860010
| 35>     H       17.1254965   21.0988507   16.8879020
| 36>     H       19.2873207   18.5487473   19.1209062
| 37>     H       18.8044661   16.9718004   17.3318190
| 38>     H       18.4237975   14.7919832   18.2599461
| 39>     H       17.4556990   13.3292954   20.0213005
| 40>     H       15.8137847   14.2721544   21.6497441
| 41>     H       14.7304869   16.0624732   22.2892982
| 42>     H       16.1275756   18.1234718   19.7622542
| 43> *
| 44>
| 45>                          ****END OF INPUT****

CARTESIAN COORDINATES (ANGSTROEM)
---------------------------------
  C     14.309326   14.888342   14.830223
  C     15.183902   15.849443   13.998181
  O     15.680036   16.906321   14.842939
  C     16.641668   16.655374   15.781340
  O     17.192057   15.570459   15.878230
  C     16.967316   17.808757   16.691102
  C     16.780518   19.110542   16.343010
  C     16.022931   19.663801   15.151621
  N     17.345613   20.139328   17.101452
  C     18.279095   19.956338   18.085204
  S     18.985459   21.231598   18.866485
  N     18.613987   18.658111   18.373120
  C     17.949454   17.462931   17.818835
  C     17.351733   16.561589   18.891469
  C     17.719811   15.206788   18.977484
  C     17.168771   14.377964   19.969151
  C     16.243026   14.909086   20.883627
  C     15.873326   16.258541   20.799083
  O     14.976861   16.772941   21.678369
  C     16.423234   17.080821   19.810472
  H     14.903571   14.357110   15.584060
  H     13.844555   14.136936   14.180630
  H     13.510533   15.437511   15.343719
  H     16.015530   15.301438   13.534372
  H     14.573578   16.284375   13.196433
  H     16.453593   19.297350   14.211481
  H     16.039151   20.759570   15.106736
  H     14.969737   19.357855   15.186001
  H     17.125497   21.098851   16.887902
  H     19.287321   18.548747   19.120906
  H     18.804466   16.971800   17.331819
  H     18.423797   14.791983   18.259946
  H     17.455699   13.329295   20.021300
  H     15.813785   14.272154   21.649744
  H     14.730487   16.062473   22.289298
  H     16.127576   18.123472   19.762254

 Total Charge           Charge          ....    0
 Multiplicity           Mult            ....    1
 Number of Electrons    NEL             ....  154
 Basis Dimension        Dim             ....  828

ORBITAL ENERGIES
----------------

  NO   OCC          E(Eh)            E(eV)
   0   2.0000     -91.887735     -2500.3924
   1   2.0000     -20.604291      -560.6713
   2   2.0000     -20.591170      -560.3142
   3   2.0000     -20.544743      -559.0509
   4   2.0000     -15.628303      -425.2678
   5   2.0000     -15.605425      -424.6452
   6   2.0000     -11.397106      -310.1310
   7   2.0000     -11.382196      -309.7253
   8   2.0000     -11.338325      -308.5315
   9   2.0000     -11.307161      -307.6835
  10   2.0000     -11.303908      -307.5950
  11   2.0000     -11.301715      -307.5353
  12   2.0000     -11.261606      -306.4439
  13   2.0000     -11.258646      -306.3633
  14   2.0000     -11.254452      -306.2492
  15   2.0000     -11.247284      -306.0542
  16   2.0000     -11.237478      -305.7873
  17   2.0000     -11.233608      -305.6820
  18   2.0000     -11.230404      -305.5948
  19   2.0000     -11.225463      -305.4604
  20   2.0000      -8.892821      -241.9860
  21   2.0000      -6.574399      -178.8985
  22   2.0000      -6.572395      -178.8440
  23   2.0000      -6.571808      -178.8280
  24   2.0000      -1.453595       -39.5543
  25   2.0000      -1.410918       -38.3930
  26   2.0000      -1.357078       -36.9280
  27   2.0000      -1.339714       -36.4555
  28   2.0000      -1.236868       -33.6569
  29   2.0000      -1.151859       -31.3437
  30   2.0000      -1.120254       -30.4837
  31   2.0000      -1.042087       -28.3566
  32   2.0000      -1.033784       -28.1307
  33   2.0000      -1.009345       -27.4657
  34   2.0000      -0.998119       -27.1602
  35   2.0000      -0.982928       -26.7468
  36   2.0000      -0.920613       -25.0511
  37   2.0000      -0.894332       -24.3360
  38   2.0000      -0.847586       -23.0640
  39   2.0000      -0.834580       -22.7101
  40   2.0000      -0.827504       -22.5175
  41   2.0000      -0.816082       -22.2067
  42   2.0000      -0.752851       -20.4861
  43   2.0000      -0.735780       -20.0216
  44   2.0000      -0.725635       -19.7455
  45   2.0000      -0.690326       -18.7847
  46   2.0000      -0.685741       -18.6600
  47   2.0000      -0.679296       -18.4846
  48   2.0000      -0.669438       -18.2163
  49   2.0000      -0.652880       -17.7658
  50   2.0000      -0.652591       -17.7579
  51   2.0000      -0.643683       -17.5155
  52   2.0000      -0.630057       -17.1447
  53   2.0000      -0.612338       -16.6626
  54   2.0000      -0.602412       -16.3925
  55   2.0000      -0.597748       -16.2655
  56   2.0000      -0.594448       -16.1758
  57   2.0000      -0.580488       -15.7959
  58   2.0000      -0.573293       -15.6001
  59   2.0000      -0.564513       -15.3612
  60   2.0000      -0.558629       -15.2011
  61   2.0000      -0.546416       -14.8687
  62   2.0000      -0.537521       -14.6267
  63   2.0000      -0.527415       -14.3517
  64   2.0000      -0.514845       -14.0097
  65   2.0000      -0.508310       -13.8318
  66   2.0000      -0.498807       -13.5732
  67   2.0000      -0.493651       -13.4329
  68   2.0000      -0.481449       -13.1009
  69   2.0000      -0.464387       -12.6366
  70   2.0000      -0.458406       -12.4739
  71   2.0000      -0.450728       -12.2649
  72   2.0000      -0.352954        -9.6044
  73   2.0000      -0.344093        -9.3632
  74   2.0000      -0.326821        -8.8932
  75   2.0000      -0.316879        -8.6227
  76   2.0000      -0.313764        -8.5379
  77   0.0000       0.077753         2.1158
  78   0.0000       0.112242         3.0543
  79   0.0000       0.121811         3.3147
  80   0.0000       0.136459         3.7132
  81   0.0000       0.141696         3.8557

MULLIKEN ATOMIC CHARGES
-----------------------
   0 C :   -0.296866
   1 C :    0.033584
   2 O :   -0.348678
   3 C :    0.428271
   4 O :   -0.430965
   5 C :   -0.174110
   6 C :    0.163187
   7 C :   -0.278604
   8 N :   -0.128573
   9 C :    0.207510
  10 S :   -0.442931
  11 N :   -0.210770
  12 C :    0.041708
  13 C :    0.032684
  14 C :   -0.166995
  15 C :   -0.134568
  16 C :   -0.276751
  17 C :    0.314636
  18 O :   -0.359115
  19 C :   -0.251593
  20 H :    0.122910
  21 H :    0.094633
  22 H :    0.094317
  23 H :    0.102299
  24 H :    0.107032
  25 H :    0.124154
  26 H :    0.101161
  27 H :    0.129536
  28 H :    0.198828
  29 H :    0.199926
  30 H :    0.154980
  31 H :    0.158547
  32 H :    0.159735
  33 H :    0.128031
  34 H :    0.239842
  35 H :    0.163007
Sum of atomic charges:   -0.0000000

LOEWDIN ATOMIC CHARGES
----------------------
   0 C :    0.106243
   1 C :   -0.016745
   2 O :    0.304302
   3 C :   -0.413319
   4 O :    0.102918
   5 C :   -0.090528
   6 C :   -0.063271
   7 C :    0.124760
   8 N :    0.405447
   9 C :   -0.458887
  10 S :   -0.037989
  11 N :    0.396672
  12 C :   -0.048299
  13 C :   -0.040425
  14 C :    0.024786
  15 C :    0.040620
  16 C :   -0.001051
  17 C :   -0.192355
  18 O :    0.393083
  19 C :    0.029944
  20 H :   -0.023869
  21 H :   -0.026952
  22 H :   -0.029228
  23 H :   -0.028620
  24 H :   -0.025847
  25 H :   -0.009715
  26 H :   -0.021516
  27 H :   -0.009233
  28 H :   -0.058832
  29 H :   -0.062999
  30 H :   -0.008686
  31 H :   -0.024172
  32 H :   -0.021189
  33 H :   -0.036209
  34 H :   -0.154949
  35 H :   -0.023885

  Mayer bond orders larger than 0.100000
B(  0-C ,  1-C ) :   0.9645 B(  0-C , 20-H ) :   0.9731 B(  0-C , 21-H ) :   0.9762
B(  0-C , 22-H ) :   0.9764 B(  1-C ,  2-O ) :   0.8961 B(  1-C , 23-H ) :   0.9779
B(  1-C , 24-H ) :   0.9840 B(  2-O ,  3-C ) :   1.1512 B(  3-C ,  4-O ) :   1.9641
B(  3-C ,  5-C ) :   1.0553 B(  5-C ,  6-C ) :   1.6501 B(  5-C , 12-C ) :   0.9535
B(  6-C ,  7-C ) :   0.9542 B(  6-C ,  8-N ) :   1.1377 B(  7-C , 25-H ) :   0.9652
B(  7-C , 26-H ) :   0.9913 B(  7-C , 27-H ) :   0.9634 B(  8-N ,  9-C ) :   1.1850
B(  8-N , 28-H ) :   0.9469 B(  9-C , 10-S ) :   1.6075 B(  9-C , 11-N ) :   1.3071
B( 11-N , 12-C ) :   0.9768 B( 11-N , 29-H ) :   0.9485 B( 12-C , 13-C ) :   0.9733
B( 12-C , 30-H ) :   0.9978 B( 13-C , 14-C ) :   1.3747 B( 13-C , 19-C ) :   1.3672
B( 14-C , 15-C ) :   1.3971 B( 14-C , 31-H ) :   0.9640 B( 15-C , 16-C ) :   1.3586
B( 15-C , 32-H ) :   0.9712 B( 16-C , 17-C ) :   1.3336 B( 16-C , 33-H ) :   0.9860
B( 17-C , 18-O ) :   1.1031 B( 17-C , 19-C ) :   1.3673 B( 18-O , 34-H ) :   0.9807
B( 19-C , 35-H ) :   0.9602

MP2 TOTAL ENERGY:    -1274.342360118 Eh
FINAL SINGLE POINT ENERGY     -1274.342360117767

DIPOLE MOMENT
-------------
                                X             Y             Z
Electronic contribution:      9.96125       9.96894      10.62564
Nuclear contribution   :    -11.38280     -11.18010     -11.80955
                        -----------------------------------------
Total Dipole Moment    :     -1.42156      -1.21116      -1.18392
                        -----------------------------------------
Magnitude (a.u.)       :      2.21120
Magnitude (Debye)      :      5.62042

Rotational constants in cm-1:     0.009904     0.009235     0.005601
Rotational constants in MHz :   296.906415   276.866787   167.907714

                             ****ORCA TERMINATED NORMALLY****
TOTAL RUN TIME: 0 days 1 hours 35 minutes 16 seconds 624 msec
