                         Program Version 4.2.0 -  RELEASE  -
|  1> ! ri-mp2 cc-pvtz cc-pvtz/c TightSCF NoKeepInts
|  2>
|  3> %scf
|  4>   MaxCore 4096
|  5> end
|  6> *xyz  0  1
|  7>     C       15.1381753   14.0432978   15.4273334
|  8>     C       15.0648136   15.4951420   15.9272230
|  9>     O       16.2625519   16.1598085   15.4920944
| 10>     C       16.1960718   17.5117833   15.3471432
| 11>     O       15.5633018   18.0045720   14.4308870
| 12>     C       16.8348274   18.2733757   16.4798719
| 13>     C       16.9299520   19.6278767   16.4286070
| 14>     C       16.2031686   20.5646708   15.4854969
| 15>     N       17.7684439   20.3259939   17.3005777
| 16>     C       18.7044408   19.7399840   18.1082696
| 17>     S       19.7429357   20.6310418   19.0371371
| 18>     N       18.7532400   18.3695491   18.0888853
| 19>     C       17.7948496   17.4897594   17.3941156
| 20>     C       17.1254289   16.5040674   18.3410190
| 21>     C       17.4913720   15.1453600   18.3352928
| 22>     C       16.8674958   14.2354734   19.2052641
| 23>     C       15.8757791   14.6897911   20.0916398
| 24>     C       15.5174047   16.0449284   20.1059624
| 25>     O       14.5602343   16.4862249   20.9599410
| 26>     C       16.1376074   16.9477180   19.2365257
| 27>     H       14.2342738   13.4918160   15.7127462
| 28>     H       16.0056758   13.5301228   15.8602402
| 29>     H       15.2277568   14.0157971   14.3340383
| 30>     H       14.1795224   15.9736857   15.4855861
| 31>     H       14.9664274   15.5258977   17.0193210
| 32>     H       15.1279095   20.3451750   15.4729438
| 33>     H       16.5740426   20.4441642   14.4594459
| 34>     H       16.3152458   21.6209271   15.7571643
| 35>     H       17.7618947   21.3335312   17.3020139
| 36>     H       19.4367254   17.9645280   18.7161528
| 37>     H       18.4801043   16.9650392   16.7129634
| 38>     H       18.2541843   14.7923222   17.6459984
| 39>     H       17.1536207   13.1850025   19.1916332
| 40>     H       15.3921263   13.9907864   20.7663007
| 41>     H       14.2929396   15.7365493   21.5130625
| 42>     H       15.8524560   17.9942375   19.2651020
| 43> *
| 44>
| 45>                          ****END OF INPUT****

CARTESIAN COORDINATES (ANGSTROEM)
---------------------------------
  C     15.138175   14.043298   15.427333
  C     15.064814   15.495142   15.927223
  O     16.262552   16.159809   15.492094
  C     16.196072   17.511783   15.347143
  O     15.563302   18.004572   14.430887
  C     16.834827   18.273376   16.479872
  C     16.929952   19.627877   16.428607
  C     16.203169   20.564671   15.485497
  N     17.768444   20.325994   17.300578
  C     18.704441   19.739984   18.108270
  S     19.742936   20.631042   19.037137
  N     18.753240   18.369549   18.088885
  C     17.794850   17.489759   17.394116
  C     17.125429   16.504067   18.341019
  C     17.491372   15.145360   18.335293
  C     16.867496   14.235473   19.205264
  C     15.875779   14.689791   20.091640
  C     15.517405   16.044928   20.105962
  O     14.560234   16.486225   20.959941
  C     16.137607   16.947718   19.236526
  H     14.234274   13.491816   15.712746
  H     16.005676   13.530123   15.860240
  H     15.227757   14.015797   14.334038
  H     14.179522   15.973686   15.485586
  H     14.966427   15.525898   17.019321
  H     15.127909   20.345175   15.472944
  H     16.574043   20.444164   14.459446
  H     16.315246   21.620927   15.757164
  H     17.761895   21.333531   17.302014
  H     19.436725   17.964528   18.716153
  H     18.480104   16.965039   16.712963
  H     18.254184   14.792322   17.645998
  H     17.153621   13.185002   19.191633
  H     15.392126   13.990786   20.766301
  H     14.292940   15.736549   21.513063
  H     15.852456   17.994238   19.265102

 Total Charge           Charge          ....    0
 Multiplicity           Mult            ....    1
 Number of Electrons    NEL             ....  154
 Basis Dimension        Dim             ....  828

ORBITAL ENERGIES
----------------

  NO   OCC          E(Eh)            E(eV)
   0   2.0000     -91.891010     -2500.4815
   1   2.0000     -20.602031      -560.6098
   2   2.0000     -20.583604      -560.1083
   3   2.0000     -20.545572      -559.0734
   4   2.0000     -15.631406      -425.3522
   5   2.0000     -15.609149      -424.7465
   6   2.0000     -11.391451      -309.9771
   7   2.0000     -11.385418      -309.8130
   8   2.0000     -11.339702      -308.5690
   9   2.0000     -11.320053      -308.0343
  10   2.0000     -11.310720      -307.7803
  11   2.0000     -11.293921      -307.3232
  12   2.0000     -11.265847      -306.5593
  13   2.0000     -11.261243      -306.4340
  14   2.0000     -11.259019      -306.3735
  15   2.0000     -11.253126      -306.2131
  16   2.0000     -11.249801      -306.1227
  17   2.0000     -11.244539      -305.9795
  18   2.0000     -11.244050      -305.9662
  19   2.0000     -11.225791      -305.4693
  20   2.0000      -8.896063      -242.0742
  21   2.0000      -6.577629      -178.9864
  22   2.0000      -6.575636      -178.9322
  23   2.0000      -6.575039      -178.9159
  24   2.0000      -1.448574       -39.4177
  25   2.0000      -1.421761       -38.6881
  26   2.0000      -1.353192       -36.8222
  27   2.0000      -1.342809       -36.5397
  28   2.0000      -1.240851       -33.7653
  29   2.0000      -1.163080       -31.6490
  30   2.0000      -1.122833       -30.5538
  31   2.0000      -1.047112       -28.4934
  32   2.0000      -1.034693       -28.1554
  33   2.0000      -1.021028       -27.7836
  34   2.0000      -0.998713       -27.1764
  35   2.0000      -0.986955       -26.8564
  36   2.0000      -0.925067       -25.1724
  37   2.0000      -0.878096       -23.8942
  38   2.0000      -0.849286       -23.1102
  39   2.0000      -0.842509       -22.9258
  40   2.0000      -0.839623       -22.8473
  41   2.0000      -0.828625       -22.5480
  42   2.0000      -0.762678       -20.7535
  43   2.0000      -0.738177       -20.0868
  44   2.0000      -0.724726       -19.7208
  45   2.0000      -0.700675       -19.0663
  46   2.0000      -0.690509       -18.7897
  47   2.0000      -0.678429       -18.4610
  48   2.0000      -0.673809       -18.3353
  49   2.0000      -0.654396       -17.8070
  50   2.0000      -0.649891       -17.6844
  51   2.0000      -0.641426       -17.4541
  52   2.0000      -0.630460       -17.1557
  53   2.0000      -0.621225       -16.9044
  54   2.0000      -0.612138       -16.6571
  55   2.0000      -0.604385       -16.4461
  56   2.0000      -0.602403       -16.3922
  57   2.0000      -0.581583       -15.8257
  58   2.0000      -0.571569       -15.5532
  59   2.0000      -0.566736       -15.4217
  60   2.0000      -0.556609       -15.1461
  61   2.0000      -0.543343       -14.7851
  62   2.0000      -0.534791       -14.5524
  63   2.0000      -0.528846       -14.3906
  64   2.0000      -0.516686       -14.0597
  65   2.0000      -0.514589       -14.0027
  66   2.0000      -0.504256       -13.7215
  67   2.0000      -0.498602       -13.5677
  68   2.0000      -0.488026       -13.2799
  69   2.0000      -0.464961       -12.6522
  70   2.0000      -0.457790       -12.4571
  71   2.0000      -0.445608       -12.1256
  72   2.0000      -0.356144        -9.6912
  73   2.0000      -0.354398        -9.6437
  74   2.0000      -0.330712        -8.9991
  75   2.0000      -0.327199        -8.9035
  76   2.0000      -0.320572        -8.7232
  77   0.0000       0.071083         1.9343
  78   0.0000       0.099106         2.6968
  79   0.0000       0.122780         3.3410
  80   0.0000       0.129100         3.5130
  81   0.0000       0.131530         3.5791

MULLIKEN ATOMIC CHARGES
-----------------------
   0 C :   -0.263996
   1 C :    0.009261
   2 O :   -0.376381
   3 C :    0.488842
   4 O :   -0.406776
   5 C :   -0.296027
   6 C :    0.184783
   7 C :   -0.265138
   8 N :   -0.127251
   9 C :    0.210249
  10 S :   -0.438796
  11 N :   -0.214800
  12 C :    0.067240
  13 C :   -0.020859
  14 C :   -0.152690
  15 C :   -0.137476
  16 C :   -0.270515
  17 C :    0.306977
  18 O :   -0.356427
  19 C :   -0.225170
  20 H :    0.087301
  21 H :    0.089956
  22 H :    0.106496
  23 H :    0.111619
  24 H :    0.116703
  25 H :    0.131168
  26 H :    0.132549
  27 H :    0.094259
  28 H :    0.199929
  29 H :    0.200980
  30 H :    0.152005
  31 H :    0.155568
  32 H :    0.165170
  33 H :    0.133992
  34 H :    0.241581
  35 H :    0.165674
Sum of atomic charges:   -0.0000000

LOEWDIN ATOMIC CHARGES
----------------------
   0 C :    0.109428
   1 C :   -0.020858
   2 O :    0.297624
   3 C :   -0.423231
   4 O :    0.113805
   5 C :   -0.102404
   6 C :   -0.053461
   7 C :    0.131506
   8 N :    0.407869
   9 C :   -0.457073
  10 S :   -0.033927
  11 N :    0.394650
  12 C :   -0.054813
  13 C :   -0.041360
  14 C :    0.018877
  15 C :    0.041776
  16 C :   -0.000387
  17 C :   -0.191377
  18 O :    0.396516
  19 C :    0.032004
  20 H :   -0.026163
  21 H :   -0.030984
  22 H :   -0.023764
  23 H :   -0.029106
  24 H :   -0.033479
  25 H :   -0.004589
  26 H :   -0.003967
  27 H :   -0.023444
  28 H :   -0.056643
  29 H :   -0.064137
  30 H :   -0.011958
  31 H :   -0.027903
  32 H :   -0.019804
  33 H :   -0.034105
  34 H :   -0.152713
  35 H :   -0.022406

  Mayer bond orders larger than 0.100000
B(  0-C ,  1-C ) :   0.9808 B(  0-C , 20-H ) :   0.9762 B(  0-C , 21-H ) :   0.9790
B(  0-C , 22-H ) :   0.9783 B(  1-C ,  2-O ) :   0.8796 B(  1-C , 23-H ) :   0.9764
B(  1-C , 24-H ) :   0.9647 B(  2-O ,  3-C ) :   1.1058 B(  3-C ,  4-O ) :   2.0299
B(  3-C ,  5-C ) :   1.0652 B(  5-C ,  6-C ) :   1.6263 B(  5-C , 12-C ) :   0.9535
B(  6-C ,  7-C ) :   0.9672 B(  6-C ,  8-N ) :   1.1567 B(  7-C , 25-H ) :   0.9625
B(  7-C , 26-H ) :   0.9565 B(  7-C , 27-H ) :   0.9896 B(  8-N ,  9-C ) :   1.1856
B(  8-N , 28-H ) :   0.9462 B(  9-C , 10-S ) :   1.6088 B(  9-C , 11-N ) :   1.3091
B( 11-N , 12-C ) :   0.9648 B( 11-N , 29-H ) :   0.9486 B( 12-C , 13-C ) :   0.9649
B( 12-C , 30-H ) :   1.0020 B( 13-C , 14-C ) :   1.3573 B( 13-C , 19-C ) :   1.3769
B( 14-C , 15-C ) :   1.3903 B( 14-C , 31-H ) :   0.9716 B( 15-C , 16-C ) :   1.3581
B( 15-C , 32-H ) :   0.9693 B( 16-C , 17-C ) :   1.3316 B( 16-C , 33-H ) :   0.9839
B( 17-C , 18-O ) :   1.1075 B( 17-C , 19-C ) :   1.3668 B( 18-O , 34-H ) :   0.9788
B( 19-C , 35-H ) :   0.9593

MP2 TOTAL ENERGY:    -1274.330282435 Eh
FINAL SINGLE POINT ENERGY     -1274.330282434919

DIPOLE MOMENT
-------------
                                X             Y             Z
Electronic contribution:      9.06982      11.12458       6.55986
Nuclear contribution   :    -10.19315     -12.63719      -6.35676
                        -----------------------------------------
Total Dipole Moment    :     -1.12333      -1.51261       0.20309
                        -----------------------------------------
Magnitude (a.u.)       :      1.89502
Magnitude (Debye)      :      4.81677

Rotational constants in cm-1:     0.012434     0.008406     0.006020
Rotational constants in MHz :   372.754558   252.016491   180.463308

                             ****ORCA TERMINATED NORMALLY****
TOTAL RUN TIME: 0 days 1 hours 44 minutes 56 seconds 857 msec
