                         Program Version 4.2.0 -  RELEASE  -
|  1> ! ri-mp2 cc-pvtz cc-pvtz/c TightSCF NoKeepInts
|  2>
|  3> %scf
|  4>   MaxCore 4096
|  5> end
|  6> *xyz  0  1
|  7>     C       13.7902749   15.8528645   14.9338760
|  8>     C       15.2226906   15.5399915   14.4685125
|  9>     O       16.0267862   16.6988828   14.7495899
| 10>     C       17.0283688   16.6009607   15.6695717
| 11>     O       17.7045660   15.5923799   15.7848375
| 12>     C       17.1165649   17.7527805   16.6302607
| 13>     C       16.7799177   19.0243365   16.2868042
| 14>     C       16.0652858   19.4938019   15.0347613
| 15>     N       17.1299947   20.1003804   17.1065150
| 16>     C       17.9973770   20.0203288   18.1623031
| 17>     S       18.4511117   21.3581768   19.0224053
| 18>     N       18.4880065   18.7732723   18.4551668
| 19>     C       18.0438162   17.5132167   17.8283945
| 20>     C       17.4919717   16.5070587   18.8297127
| 21>     C       18.0345452   15.2125475   18.9193929
| 22>     C       17.5238580   14.2861027   19.8439990
| 23>     C       16.4622202   14.6579289   20.6866616
| 24>     C       15.9182431   15.9467244   20.5976365
| 25>     O       14.8899972   16.3067917   21.4065730
| 26>     C       16.4284465   16.8664568   19.6758617
| 27>     H       13.7678811   16.0427243   16.0144775
| 28>     H       13.1243794   15.0076085   14.7212843
| 29>     H       13.3984065   16.7374416   14.4167538
| 30>     H       15.5946291   14.6432345   14.9834253
| 31>     H       15.2249781   15.3412366   13.3890226
| 32>     H       16.5952295   19.1590045   14.1341410
| 33>     H       15.9872476   20.5860523   14.9724828
| 34>     H       15.0453095   19.0914540   14.9967589
| 35>     H       16.7958926   21.0258071   16.8901173
| 36>     H       19.1089708   18.7377543   19.2537437
| 37>     H       18.9948256   17.1579876   17.4053557
| 38>     H       18.8451484   14.9196733   18.2562034
| 39>     H       17.9475563   13.2849934   19.8998205
| 40>     H       16.0638465   13.9450093   21.4007887
| 41>     H       14.7015840   15.5545633   21.9874984
| 42>     H       15.9970720   17.8604715   19.6232897
| 43> *
| 44>
| 45>                          ****END OF INPUT****

CARTESIAN COORDINATES (ANGSTROEM)
---------------------------------
  C     13.790275   15.852864   14.933876
  C     15.222691   15.539991   14.468512
  O     16.026786   16.698883   14.749590
  C     17.028369   16.600961   15.669572
  O     17.704566   15.592380   15.784837
  C     17.116565   17.752781   16.630261
  C     16.779918   19.024337   16.286804
  C     16.065286   19.493802   15.034761
  N     17.129995   20.100380   17.106515
  C     17.997377   20.020329   18.162303
  S     18.451112   21.358177   19.022405
  N     18.488007   18.773272   18.455167
  C     18.043816   17.513217   17.828394
  C     17.491972   16.507059   18.829713
  C     18.034545   15.212547   18.919393
  C     17.523858   14.286103   19.843999
  C     16.462220   14.657929   20.686662
  C     15.918243   15.946724   20.597636
  O     14.889997   16.306792   21.406573
  C     16.428446   16.866457   19.675862
  H     13.767881   16.042724   16.014478
  H     13.124379   15.007608   14.721284
  H     13.398407   16.737442   14.416754
  H     15.594629   14.643235   14.983425
  H     15.224978   15.341237   13.389023
  H     16.595229   19.159005   14.134141
  H     15.987248   20.586052   14.972483
  H     15.045310   19.091454   14.996759
  H     16.795893   21.025807   16.890117
  H     19.108971   18.737754   19.253744
  H     18.994826   17.157988   17.405356
  H     18.845148   14.919673   18.256203
  H     17.947556   13.284993   19.899821
  H     16.063847   13.945009   21.400789
  H     14.701584   15.554563   21.987498
  H     15.997072   17.860471   19.623290

 Total Charge           Charge          ....    0
 Multiplicity           Mult            ....    1
 Number of Electrons    NEL             ....  154
 Basis Dimension        Dim             ....  828

ORBITAL ENERGIES
----------------

  NO   OCC          E(Eh)            E(eV)
   0   2.0000     -91.888411     -2500.4108
   1   2.0000     -20.597880      -560.4968
   2   2.0000     -20.592715      -560.3563
   3   2.0000     -20.546934      -559.1105
   4   2.0000     -15.629083      -425.2890
   5   2.0000     -15.606063      -424.6626
   6   2.0000     -11.395229      -310.0799
   7   2.0000     -11.382997      -309.7471
   8   2.0000     -11.338540      -308.5374
   9   2.0000     -11.308741      -307.7265
  10   2.0000     -11.304567      -307.6129
  11   2.0000     -11.300274      -307.4961
  12   2.0000     -11.260678      -306.4186
  13   2.0000     -11.259396      -306.3837
  14   2.0000     -11.255852      -306.2873
  15   2.0000     -11.248718      -306.0932
  16   2.0000     -11.238922      -305.8266
  17   2.0000     -11.235114      -305.7230
  18   2.0000     -11.232855      -305.6615
  19   2.0000     -11.231744      -305.6313
  20   2.0000      -8.893491      -242.0042
  21   2.0000      -6.575068      -178.9167
  22   2.0000      -6.573065      -178.8622
  23   2.0000      -6.572477      -178.8462
  24   2.0000      -1.453679       -39.5566
  25   2.0000      -1.412467       -38.4352
  26   2.0000      -1.357356       -36.9355
  27   2.0000      -1.340285       -36.4710
  28   2.0000      -1.237421       -33.6719
  29   2.0000      -1.153227       -31.3809
  30   2.0000      -1.121209       -30.5097
  31   2.0000      -1.044224       -28.4148
  32   2.0000      -1.036589       -28.2070
  33   2.0000      -1.010776       -27.5046
  34   2.0000      -0.999529       -27.1986
  35   2.0000      -0.984612       -26.7927
  36   2.0000      -0.921278       -25.0692
  37   2.0000      -0.890571       -24.2337
  38   2.0000      -0.847617       -23.0648
  39   2.0000      -0.835620       -22.7384
  40   2.0000      -0.828932       -22.5564
  41   2.0000      -0.818002       -22.2590
  42   2.0000      -0.761103       -20.7107
  43   2.0000      -0.736540       -20.0423
  44   2.0000      -0.726778       -19.7766
  45   2.0000      -0.691533       -18.8176
  46   2.0000      -0.684948       -18.6384
  47   2.0000      -0.679247       -18.4832
  48   2.0000      -0.674037       -18.3415
  49   2.0000      -0.660502       -17.9732
  50   2.0000      -0.650411       -17.6986
  51   2.0000      -0.643606       -17.5134
  52   2.0000      -0.633942       -17.2504
  53   2.0000      -0.604495       -16.4492
  54   2.0000      -0.599564       -16.3150
  55   2.0000      -0.596219       -16.2239
  56   2.0000      -0.592251       -16.1160
  57   2.0000      -0.583379       -15.8745
  58   2.0000      -0.573922       -15.6172
  59   2.0000      -0.565561       -15.3897
  60   2.0000      -0.560727       -15.2581
  61   2.0000      -0.557396       -15.1675
  62   2.0000      -0.542510       -14.7624
  63   2.0000      -0.523283       -14.2393
  64   2.0000      -0.516786       -14.0625
  65   2.0000      -0.510150       -13.8819
  66   2.0000      -0.501619       -13.6498
  67   2.0000      -0.494804       -13.4643
  68   2.0000      -0.481225       -13.0948
  69   2.0000      -0.464065       -12.6278
  70   2.0000      -0.456882       -12.4324
  71   2.0000      -0.454015       -12.3544
  72   2.0000      -0.353444        -9.6177
  73   2.0000      -0.345394        -9.3986
  74   2.0000      -0.327473        -8.9110
  75   2.0000      -0.317580        -8.6418
  76   2.0000      -0.315345        -8.5810
  77   0.0000       0.075411         2.0520
  78   0.0000       0.109721         2.9857
  79   0.0000       0.120192         3.2706
  80   0.0000       0.135336         3.6827
  81   0.0000       0.139616         3.7991

MULLIKEN ATOMIC CHARGES
-----------------------
   0 C :   -0.278425
   1 C :    0.026483
   2 O :   -0.353984
   3 C :    0.439032
   4 O :   -0.413953
   5 C :   -0.184656
   6 C :    0.154606
   7 C :   -0.282431
   8 N :   -0.128334
   9 C :    0.207598
  10 S :   -0.441784
  11 N :   -0.210157
  12 C :    0.042086
  13 C :    0.031833
  14 C :   -0.168353
  15 C :   -0.134343
  16 C :   -0.277439
  17 C :    0.313827
  18 O :   -0.359038
  19 C :   -0.253391
  20 H :    0.101381
  21 H :    0.102836
  22 H :    0.090653
  23 H :    0.109630
  24 H :    0.102078
  25 H :    0.127215
  26 H :    0.103103
  27 H :    0.127145
  28 H :    0.198840
  29 H :    0.199800
  30 H :    0.155575
  31 H :    0.159563
  32 H :    0.160451
  33 H :    0.128560
  34 H :    0.240121
  35 H :    0.163871
Sum of atomic charges:   -0.0000000

LOEWDIN ATOMIC CHARGES
----------------------
   0 C :    0.103136
   1 C :   -0.014349
   2 O :    0.305431
   3 C :   -0.417886
   4 O :    0.109262
   5 C :   -0.094202
   6 C :   -0.064569
   7 C :    0.125472
   8 N :    0.405612
   9 C :   -0.458465
  10 S :   -0.037240
  11 N :    0.396367
  12 C :   -0.048357
  13 C :   -0.040782
  14 C :    0.024922
  15 C :    0.041077
  16 C :   -0.001232
  17 C :   -0.192899
  18 O :    0.393017
  19 C :    0.028937
  20 H :   -0.025780
  21 H :   -0.024563
  22 H :   -0.030311
  23 H :   -0.025240
  24 H :   -0.028447
  25 H :   -0.008422
  26 H :   -0.021041
  27 H :   -0.010365
  28 H :   -0.058610
  29 H :   -0.063198
  30 H :   -0.007938
  31 H :   -0.023736
  32 H :   -0.020889
  33 H :   -0.036081
  34 H :   -0.154737
  35 H :   -0.023896

  Mayer bond orders larger than 0.100000
B(  0-C ,  1-C ) :   0.9694 B(  0-C , 20-H ) :   0.9759 B(  0-C , 21-H ) :   0.9776
B(  0-C , 22-H ) :   0.9789 B(  1-C ,  2-O ) :   0.8926 B(  1-C , 23-H ) :   0.9722
B(  1-C , 24-H ) :   0.9845 B(  2-O ,  3-C ) :   1.1230 B(  3-C ,  4-O ) :   2.0036
B(  3-C ,  5-C ) :   1.0329 B(  5-C ,  6-C ) :   1.6602 B(  5-C , 12-C ) :   0.9496
B(  6-C ,  7-C ) :   0.9561 B(  6-C ,  8-N ) :   1.1378 B(  7-C , 25-H ) :   0.9651
B(  7-C , 26-H ) :   0.9900 B(  7-C , 27-H ) :   0.9645 B(  8-N ,  9-C ) :   1.1849
B(  8-N , 28-H ) :   0.9468 B(  9-C , 10-S ) :   1.6090 B(  9-C , 11-N ) :   1.3057
B( 11-N , 12-C ) :   0.9778 B( 11-N , 29-H ) :   0.9486 B( 12-C , 13-C ) :   0.9718
B( 12-C , 30-H ) :   0.9962 B( 13-C , 14-C ) :   1.3774 B( 13-C , 19-C ) :   1.3647
B( 14-C , 15-C ) :   1.3972 B( 14-C , 31-H ) :   0.9635 B( 15-C , 16-C ) :   1.3589
B( 15-C , 32-H ) :   0.9710 B( 16-C , 17-C ) :   1.3333 B( 16-C , 33-H ) :   0.9859
B( 17-C , 18-O ) :   1.1037 B( 17-C , 19-C ) :   1.3670 B( 18-O , 34-H ) :   0.9805
B( 19-C , 35-H ) :   0.9603

MP2 TOTAL ENERGY:    -1274.335531974 Eh
FINAL SINGLE POINT ENERGY     -1274.335531974120

DIPOLE MOMENT
-------------
                                X             Y             Z
Electronic contribution:     10.87860       8.40921       9.88476
Nuclear contribution   :    -12.26265      -9.74756     -10.87541
                        -----------------------------------------
Total Dipole Moment    :     -1.38405      -1.33835      -0.99065
                        -----------------------------------------
Magnitude (a.u.)       :      2.16522
Magnitude (Debye)      :      5.50355

Rotational constants in cm-1:     0.009856     0.009349     0.005887
Rotational constants in MHz :   295.481319   280.282340   176.490089

                             ****ORCA TERMINATED NORMALLY****
TOTAL RUN TIME: 0 days 1 hours 59 minutes 52 seconds 634 msec
