                         Program Version 4.2.0 -  RELEASE  -
|  1> ! ri-mp2 cc-pvtz cc-pvtz/c TightSCF NoKeepInts
|  2>
|  3> %scf
|  4>   MaxCore 4096
|  5> end
|  6> *xyz  0  1
|  7>     C       14.8798553   14.5720356   14.9240760
|  8>     C       14.8133796   15.9791846   14.2899241
|  9>     O       15.7753886   16.9435138   14.7934556
| 10>     C       16.7637469   16.7086033   15.7124303
| 11>     O       17.3588977   15.6489299   15.8082270
| 12>     C       17.0222920   17.8532897   16.6527521
| 13>     C       16.8412521   19.1553013   16.3040828
| 14>     C       16.1631088   19.7063468   15.0648150
| 15>     N       17.3447023   20.1842507   17.1044700
| 16>     C       18.2198309   20.0035784   18.1410749
| 17>     S       18.8591711   21.2801594   18.9760807
| 18>     N       18.5553417   18.7069571   18.4362692
| 19>     C       17.9408656   17.5087336   17.8326602
| 20>     C       17.2903973   16.5875406   18.8566088
| 21>     C       17.6536930   15.2309435   18.9338220
| 22>     C       17.0517955   14.3823056   19.8779784
| 23>     C       16.0791417   14.8951643   20.7533393
| 24>     C       15.7137196   16.2462779   20.6771064
| 25>     O       14.7715784   16.7429347   21.5179674
| 26>     C       16.3140657   17.0882318   19.7354901
| 27>     H       15.7985864   14.0483386   14.6314949
| 28>     H       14.0330841   13.9637555   14.5843569
| 29>     H       14.8360982   14.6269778   16.0193512
| 30>     H       14.9493195   15.8778175   13.2054304
| 31>     H       13.8055409   16.3833151   14.4499877
| 32>     H       15.1000695   19.4357099   15.0516227
| 33>     H       16.6277550   19.3051975   14.1553121
| 34>     H       16.2212442   20.7995707   14.9974475
| 35>     H       17.1254060   21.1428721   16.8860416
| 36>     H       19.1860996   18.5988865   19.2204632
| 37>     H       18.8294191   17.0328641   17.3926010
| 38>     H       18.3947506   14.8305464   18.2458434
| 39>     H       17.3365650   13.3327195   19.9238119
| 40>     H       15.6108512   14.2429785   21.4829036
| 41>     H       14.4996784   16.0224801   22.1059942
| 42>     H       16.0203085   18.1316872   19.6927073
| 43> *
| 44>
| 45>                          ****END OF INPUT****

CARTESIAN COORDINATES (ANGSTROEM)
---------------------------------
  C     14.879855   14.572036   14.924076
  C     14.813380   15.979185   14.289924
  O     15.775389   16.943514   14.793456
  C     16.763747   16.708603   15.712430
  O     17.358898   15.648930   15.808227
  C     17.022292   17.853290   16.652752
  C     16.841252   19.155301   16.304083
  C     16.163109   19.706347   15.064815
  N     17.344702   20.184251   17.104470
  C     18.219831   20.003578   18.141075
  S     18.859171   21.280159   18.976081
  N     18.555342   18.706957   18.436269
  C     17.940866   17.508734   17.832660
  C     17.290397   16.587541   18.856609
  C     17.653693   15.230944   18.933822
  C     17.051795   14.382306   19.877978
  C     16.079142   14.895164   20.753339
  C     15.713720   16.246278   20.677106
  O     14.771578   16.742935   21.517967
  C     16.314066   17.088232   19.735490
  H     15.798586   14.048339   14.631495
  H     14.033084   13.963755   14.584357
  H     14.836098   14.626978   16.019351
  H     14.949319   15.877818   13.205430
  H     13.805541   16.383315   14.449988
  H     15.100070   19.435710   15.051623
  H     16.627755   19.305197   14.155312
  H     16.221244   20.799571   14.997447
  H     17.125406   21.142872   16.886042
  H     19.186100   18.598886   19.220463
  H     18.829419   17.032864   17.392601
  H     18.394751   14.830546   18.245843
  H     17.336565   13.332719   19.923812
  H     15.610851   14.242978   21.482904
  H     14.499678   16.022480   22.105994
  H     16.020308   18.131687   19.692707

 Total Charge           Charge          ....    0
 Multiplicity           Mult            ....    1
 Number of Electrons    NEL             ....  154
 Basis Dimension        Dim             ....  828

ORBITAL ENERGIES
----------------

  NO   OCC          E(Eh)            E(eV)
   0   2.0000     -91.887208     -2500.3780
   1   2.0000     -20.596611      -560.4623
   2   2.0000     -20.592153      -560.3410
   3   2.0000     -20.545236      -559.0643
   4   2.0000     -15.627343      -425.2416
   5   2.0000     -15.604986      -424.6332
   6   2.0000     -11.397816      -310.1503
   7   2.0000     -11.381705      -309.7119
   8   2.0000     -11.336465      -308.4809
   9   2.0000     -11.308195      -307.7116
  10   2.0000     -11.307256      -307.6861
  11   2.0000     -11.303387      -307.5808
  12   2.0000     -11.259626      -306.3900
  13   2.0000     -11.257809      -306.3406
  14   2.0000     -11.255251      -306.2710
  15   2.0000     -11.248325      -306.0825
  16   2.0000     -11.238479      -305.8146
  17   2.0000     -11.234444      -305.7048
  18   2.0000     -11.231184      -305.6161
  19   2.0000     -11.226347      -305.4844
  20   2.0000      -8.892301      -241.9718
  21   2.0000      -6.573882      -178.8844
  22   2.0000      -6.571876      -178.8298
  23   2.0000      -6.571291      -178.8139
  24   2.0000      -1.445260       -39.3275
  25   2.0000      -1.411905       -38.4199
  26   2.0000      -1.355935       -36.8969
  27   2.0000      -1.338847       -36.4319
  28   2.0000      -1.236163       -33.6377
  29   2.0000      -1.152457       -31.3599
  30   2.0000      -1.119483       -30.4627
  31   2.0000      -1.042269       -28.3616
  32   2.0000      -1.033995       -28.1364
  33   2.0000      -1.010102       -27.4863
  34   2.0000      -0.997931       -27.1551
  35   2.0000      -0.982727       -26.7414
  36   2.0000      -0.920700       -25.0535
  37   2.0000      -0.897239       -24.4151
  38   2.0000      -0.847386       -23.0585
  39   2.0000      -0.835296       -22.7296
  40   2.0000      -0.828397       -22.5418
  41   2.0000      -0.817943       -22.2574
  42   2.0000      -0.742725       -20.2106
  43   2.0000      -0.727813       -19.8048
  44   2.0000      -0.724633       -19.7183
  45   2.0000      -0.689475       -18.7616
  46   2.0000      -0.683952       -18.6113
  47   2.0000      -0.677001       -18.4221
  48   2.0000      -0.673554       -18.3283
  49   2.0000      -0.664009       -18.0686
  50   2.0000      -0.647762       -17.6265
  51   2.0000      -0.643088       -17.4993
  52   2.0000      -0.631937       -17.1959
  53   2.0000      -0.614319       -16.7165
  54   2.0000      -0.602920       -16.4063
  55   2.0000      -0.598206       -16.2780
  56   2.0000      -0.595485       -16.2040
  57   2.0000      -0.574459       -15.6318
  58   2.0000      -0.573551       -15.6071
  59   2.0000      -0.566540       -15.4163
  60   2.0000      -0.556537       -15.1441
  61   2.0000      -0.544733       -14.8229
  62   2.0000      -0.538127       -14.6432
  63   2.0000      -0.525753       -14.3065
  64   2.0000      -0.515307       -14.0222
  65   2.0000      -0.510293       -13.8858
  66   2.0000      -0.499194       -13.5838
  67   2.0000      -0.493668       -13.4334
  68   2.0000      -0.479241       -13.0408
  69   2.0000      -0.463181       -12.6038
  70   2.0000      -0.454031       -12.3548
  71   2.0000      -0.447251       -12.1703
  72   2.0000      -0.351887        -9.5753
  73   2.0000      -0.344760        -9.3814
  74   2.0000      -0.326380        -8.8812
  75   2.0000      -0.316397        -8.6096
  76   2.0000      -0.314843        -8.5673
  77   0.0000       0.077599         2.1116
  78   0.0000       0.110977         3.0198
  79   0.0000       0.121996         3.3197
  80   0.0000       0.135448         3.6857
  81   0.0000       0.138983         3.7819

MULLIKEN ATOMIC CHARGES
-----------------------
   0 C :   -0.299583
   1 C :    0.054406
   2 O :   -0.363100
   3 C :    0.423615
   4 O :   -0.413646
   5 C :   -0.167473
   6 C :    0.156909
   7 C :   -0.280969
   8 N :   -0.128855
   9 C :    0.207608
  10 S :   -0.443854
  11 N :   -0.211582
  12 C :    0.044608
  13 C :    0.031406
  14 C :   -0.174389
  15 C :   -0.134513
  16 C :   -0.277868
  17 C :    0.314505
  18 O :   -0.358799
  19 C :   -0.252565
  20 H :    0.121245
  21 H :    0.098254
  22 H :    0.106388
  23 H :    0.093171
  24 H :    0.090378
  25 H :    0.127090
  26 H :    0.126386
  27 H :    0.101909
  28 H :    0.198585
  29 H :    0.199850
  30 H :    0.156679
  31 H :    0.161011
  32 H :    0.160444
  33 H :    0.128587
  34 H :    0.239914
  35 H :    0.164249
Sum of atomic charges:    0.0000000

LOEWDIN ATOMIC CHARGES
----------------------
   0 C :    0.104429
   1 C :   -0.008523
   2 O :    0.290885
   3 C :   -0.414550
   4 O :    0.115504
   5 C :   -0.092321
   6 C :   -0.065046
   7 C :    0.124675
   8 N :    0.405153
   9 C :   -0.458726
  10 S :   -0.038838
  11 N :    0.396437
  12 C :   -0.048389
  13 C :   -0.040850
  14 C :    0.024159
  15 C :    0.040231
  16 C :   -0.001559
  17 C :   -0.192692
  18 O :    0.393151
  19 C :    0.029535
  20 H :   -0.023850
  21 H :   -0.026625
  22 H :   -0.024770
  23 H :   -0.028176
  24 H :   -0.028706
  25 H :   -0.009892
  26 H :   -0.008851
  27 H :   -0.021498
  28 H :   -0.058962
  29 H :   -0.063323
  30 H :   -0.008435
  31 H :   -0.023827
  32 H :   -0.021038
  33 H :   -0.036171
  34 H :   -0.154865
  35 H :   -0.023676

  Mayer bond orders larger than 0.100000
B(  0-C ,  1-C ) :   0.9761 B(  0-C , 20-H ) :   0.9718 B(  0-C , 21-H ) :   0.9726
B(  0-C , 22-H ) :   0.9735 B(  1-C ,  2-O ) :   0.9053 B(  1-C , 23-H ) :   0.9789
B(  1-C , 24-H ) :   0.9782 B(  2-O ,  3-C ) :   1.1192 B(  3-C ,  4-O ) :   1.9962
B(  3-C ,  5-C ) :   1.0257 B(  5-C ,  6-C ) :   1.6640 B(  5-C , 12-C ) :   0.9479
B(  6-C ,  7-C ) :   0.9539 B(  6-C ,  8-N ) :   1.1345 B(  7-C , 25-H ) :   0.9644
B(  7-C , 26-H ) :   0.9650 B(  7-C , 27-H ) :   0.9915 B(  8-N ,  9-C ) :   1.1868
B(  8-N , 28-H ) :   0.9471 B(  9-C , 10-S ) :   1.6068 B(  9-C , 11-N ) :   1.3060
B( 11-N , 12-C ) :   0.9761 B( 11-N , 29-H ) :   0.9486 B( 12-C , 13-C ) :   0.9712
B( 12-C , 30-H ) :   0.9972 B( 13-C , 14-C ) :   1.3759 B( 13-C , 19-C ) :   1.3659
B( 14-C , 15-C ) :   1.3968 B( 14-C , 31-H ) :   0.9631 B( 15-C , 16-C ) :   1.3587
B( 15-C , 32-H ) :   0.9711 B( 16-C , 17-C ) :   1.3331 B( 16-C , 33-H ) :   0.9859
B( 17-C , 18-O ) :   1.1039 B( 17-C , 19-C ) :   1.3669 B( 18-O , 34-H ) :   0.9806
B( 19-C , 35-H ) :   0.9599

MP2 TOTAL ENERGY:    -1274.328833615 Eh
FINAL SINGLE POINT ENERGY     -1274.328833614515

DIPOLE MOMENT
-------------
                                X             Y             Z
Electronic contribution:      9.24242      10.50452      10.22756
Nuclear contribution   :    -10.80889     -11.79127     -11.30919
                        -----------------------------------------
Total Dipole Moment    :     -1.56647      -1.28675      -1.08163
                        -----------------------------------------
Magnitude (a.u.)       :      2.29771
Magnitude (Debye)      :      5.84031

Rotational constants in cm-1:     0.010227     0.009186     0.005693
Rotational constants in MHz :   306.590678   275.397907   170.658933

                             ****ORCA TERMINATED NORMALLY****
TOTAL RUN TIME: 0 days 1 hours 54 minutes 33 seconds 722 msec
