                         Program Version 4.2.0 -  RELEASE  -
|  1> ! ri-mp2 cc-pvtz cc-pvtz/c TightSCF NoKeepInts
|  2>
|  3> %scf
|  4>   MaxCore 4096
|  5> end
|  6> *xyz  0  1
|  7>     C       14.4771353   16.4978681   16.2325373
|  8>     C       15.1327293   15.8933192   14.9714438
|  9>     O       16.5663598   15.6909620   15.0531430
| 10>     C       17.5680828   16.5234924   15.4948555
| 11>     O       18.7304285   16.2832913   15.2276130
| 12>     C       17.2252048   17.5994996   16.4608047
| 13>     C       16.8815680   18.8129567   15.9701106
| 14>     C       16.4954706   19.1224117   14.5372466
| 15>     N       16.9061862   19.9488567   16.7811328
| 16>     C       17.5215066   19.9997428   18.0046592
| 17>     S       17.6277183   21.4055671   18.8689392
| 18>     N       18.0690269   18.8261827   18.4640057
| 19>     C       17.8916164   17.5024270   17.8326182
| 20>     C       17.2867555   16.4285648   18.7239139
| 21>     C       17.7622165   15.1069261   18.6519048
| 22>     C       17.1979049   14.1005630   19.4532486
| 23>     C       16.1476226   14.4184778   20.3313956
| 24>     C       15.6684080   15.7338495   20.4009824
| 25>     O       14.6475105   16.0410404   21.2400161
| 26>     C       16.2316203   16.7340790   19.6019272
| 27>     H       14.8948415   16.0508733   17.1427035
| 28>     H       13.4021246   16.2800171   16.2277926
| 29>     H       14.5748831   17.5858247   16.2821072
| 30>     H       14.6679692   14.9187812   14.7723457
| 31>     H       14.9038769   16.5368009   14.1123459
| 32>     H       16.9962213   18.4567581   13.8227091
| 33>     H       16.7804437   20.1441406   14.2555962
| 34>     H       15.4134743   19.0248608   14.3905414
| 35>     H       16.5443642   20.8244902   16.4376451
| 36>     H       18.5193858   18.8902006   19.3684193
| 37>     H       18.9433451   17.2542503   17.6242130
| 38>     H       18.5682053   14.8584042   17.9642221
| 39>     H       17.5729915   13.0804633   19.3887917
| 40>     H       15.7079615   13.6436371   20.9507673
| 41>     H       14.4211519   15.2360467   21.7298584
| 42>     H       15.8406884   17.7443728   19.6654433
| 43> *
| 44>
| 45>                          ****END OF INPUT****

CARTESIAN COORDINATES (ANGSTROEM)
---------------------------------
  C     14.477135   16.497868   16.232537
  C     15.132729   15.893319   14.971444
  O     16.566360   15.690962   15.053143
  C     17.568083   16.523492   15.494855
  O     18.730428   16.283291   15.227613
  C     17.225205   17.599500   16.460805
  C     16.881568   18.812957   15.970111
  C     16.495471   19.122412   14.537247
  N     16.906186   19.948857   16.781133
  C     17.521507   19.999743   18.004659
  S     17.627718   21.405567   18.868939
  N     18.069027   18.826183   18.464006
  C     17.891616   17.502427   17.832618
  C     17.286756   16.428565   18.723914
  C     17.762216   15.106926   18.651905
  C     17.197905   14.100563   19.453249
  C     16.147623   14.418478   20.331396
  C     15.668408   15.733849   20.400982
  O     14.647510   16.041040   21.240016
  C     16.231620   16.734079   19.601927
  H     14.894841   16.050873   17.142703
  H     13.402125   16.280017   16.227793
  H     14.574883   17.585825   16.282107
  H     14.667969   14.918781   14.772346
  H     14.903877   16.536801   14.112346
  H     16.996221   18.456758   13.822709
  H     16.780444   20.144141   14.255596
  H     15.413474   19.024861   14.390541
  H     16.544364   20.824490   16.437645
  H     18.519386   18.890201   19.368419
  H     18.943345   17.254250   17.624213
  H     18.568205   14.858404   17.964222
  H     17.572992   13.080463   19.388792
  H     15.707961   13.643637   20.950767
  H     14.421152   15.236047   21.729858
  H     15.840688   17.744373   19.665443

 Total Charge           Charge          ....    0
 Multiplicity           Mult            ....    1
 Number of Electrons    NEL             ....  154
 Basis Dimension        Dim             ....  828

ORBITAL ENERGIES
----------------

  NO   OCC          E(Eh)            E(eV)
   0   2.0000     -91.888570     -2500.4151
   1   2.0000     -20.600136      -560.5582
   2   2.0000     -20.599894      -560.5516
   3   2.0000     -20.551693      -559.2400
   4   2.0000     -15.625367      -425.1879
   5   2.0000     -15.609277      -424.7500
   6   2.0000     -11.401071      -310.2389
   7   2.0000     -11.384576      -309.7901
   8   2.0000     -11.326283      -308.2038
   9   2.0000     -11.317818      -307.9735
  10   2.0000     -11.313422      -307.8539
  11   2.0000     -11.311953      -307.8139
  12   2.0000     -11.267626      -306.6077
  13   2.0000     -11.265964      -306.5625
  14   2.0000     -11.260077      -306.4023
  15   2.0000     -11.258765      -306.3666
  16   2.0000     -11.246687      -306.0379
  17   2.0000     -11.242252      -305.9172
  18   2.0000     -11.241070      -305.8851
  19   2.0000     -11.234005      -305.6928
  20   2.0000      -8.893681      -242.0094
  21   2.0000      -6.575267      -178.9221
  22   2.0000      -6.573251      -178.8673
  23   2.0000      -6.572673      -178.8515
  24   2.0000      -1.444679       -39.3117
  25   2.0000      -1.419855       -38.6362
  26   2.0000      -1.359270       -36.9876
  27   2.0000      -1.338735       -36.4288
  28   2.0000      -1.237915       -33.6854
  29   2.0000      -1.162052       -31.6210
  30   2.0000      -1.126436       -30.6519
  31   2.0000      -1.049051       -28.5461
  32   2.0000      -1.040774       -28.3209
  33   2.0000      -1.020135       -27.7593
  34   2.0000      -1.006118       -27.3779
  35   2.0000      -0.990243       -26.9459
  36   2.0000      -0.926795       -25.2194
  37   2.0000      -0.901458       -24.5299
  38   2.0000      -0.852098       -23.1868
  39   2.0000      -0.841651       -22.9025
  40   2.0000      -0.837456       -22.7883
  41   2.0000      -0.828819       -22.5533
  42   2.0000      -0.747491       -20.3403
  43   2.0000      -0.736941       -20.0532
  44   2.0000      -0.732213       -19.9245
  45   2.0000      -0.697434       -18.9782
  46   2.0000      -0.688818       -18.7437
  47   2.0000      -0.677104       -18.4249
  48   2.0000      -0.673897       -18.3377
  49   2.0000      -0.665651       -18.1133
  50   2.0000      -0.655576       -17.8391
  51   2.0000      -0.651073       -17.7166
  52   2.0000      -0.638732       -17.3808
  53   2.0000      -0.615222       -16.7410
  54   2.0000      -0.609909       -16.5965
  55   2.0000      -0.604550       -16.4506
  56   2.0000      -0.600868       -16.3504
  57   2.0000      -0.591338       -16.0911
  58   2.0000      -0.579438       -15.7673
  59   2.0000      -0.577080       -15.7031
  60   2.0000      -0.564000       -15.3472
  61   2.0000      -0.559278       -15.2187
  62   2.0000      -0.543386       -14.7863
  63   2.0000      -0.530644       -14.4396
  64   2.0000      -0.518196       -14.1008
  65   2.0000      -0.513000       -13.9594
  66   2.0000      -0.504484       -13.7277
  67   2.0000      -0.501934       -13.6583
  68   2.0000      -0.488492       -13.2925
  69   2.0000      -0.462494       -12.5851
  70   2.0000      -0.455566       -12.3966
  71   2.0000      -0.452964       -12.3258
  72   2.0000      -0.354098        -9.6355
  73   2.0000      -0.349880        -9.5207
  74   2.0000      -0.328236        -8.9317
  75   2.0000      -0.325716        -8.8632
  76   2.0000      -0.317869        -8.6496
  77   0.0000       0.091155         2.4804
  78   0.0000       0.105851         2.8803
  79   0.0000       0.114113         3.1052
  80   0.0000       0.126428         3.4403
  81   0.0000       0.129635         3.5276

MULLIKEN ATOMIC CHARGES
-----------------------
   0 C :   -0.330732
   1 C :    0.039698
   2 O :   -0.329511
   3 C :    0.419871
   4 O :   -0.378754
   5 C :   -0.182700
   6 C :    0.135375
   7 C :   -0.329963
   8 N :   -0.143638
   9 C :    0.213704
  10 S :   -0.445093
  11 N :   -0.232643
  12 C :    0.064232
  13 C :    0.017211
  14 C :   -0.217992
  15 C :   -0.132393
  16 C :   -0.276324
  17 C :    0.322499
  18 O :   -0.356012
  19 C :   -0.260445
  20 H :    0.128133
  21 H :    0.117085
  22 H :    0.105767
  23 H :    0.127365
  24 H :    0.086590
  25 H :    0.132265
  26 H :    0.125568
  27 H :    0.121235
  28 H :    0.197531
  29 H :    0.205016
  30 H :    0.171099
  31 H :    0.170982
  32 H :    0.164393
  33 H :    0.132624
  34 H :    0.241285
  35 H :    0.176674
Sum of atomic charges:   -0.0000000

LOEWDIN ATOMIC CHARGES
----------------------
   0 C :    0.101677
   1 C :   -0.014319
   2 O :    0.296779
   3 C :   -0.417861
   4 O :    0.123979
   5 C :   -0.078116
   6 C :   -0.097091
   7 C :    0.126927
   8 N :    0.401896
   9 C :   -0.455242
  10 S :   -0.040004
  11 N :    0.396747
  12 C :   -0.049144
  13 C :   -0.043667
  14 C :    0.018279
  15 C :    0.045886
  16 C :   -0.000387
  17 C :   -0.191185
  18 O :    0.396149
  19 C :    0.028326
  20 H :   -0.021942
  21 H :   -0.023847
  22 H :   -0.035883
  23 H :   -0.017097
  24 H :   -0.036097
  25 H :   -0.006632
  26 H :   -0.011729
  27 H :   -0.018700
  28 H :   -0.059195
  29 H :   -0.064152
  30 H :   -0.003185
  31 H :   -0.021926
  32 H :   -0.018195
  33 H :   -0.034675
  34 H :   -0.153115
  35 H :   -0.023259

  Mayer bond orders larger than 0.100000
B(  0-C ,  1-C ) :   0.9520 B(  0-C , 20-H ) :   0.9656 B(  0-C , 21-H ) :   0.9790
B(  0-C , 22-H ) :   0.9751 B(  1-C ,  2-O ) :   0.9118 B(  1-C , 23-H ) :   0.9804
B(  1-C , 24-H ) :   0.9778 B(  2-O ,  3-C ) :   1.1554 B(  3-C ,  4-O ) :   2.1009
B(  3-C ,  5-C ) :   0.9169 B(  5-C ,  6-C ) :   1.7346 B(  5-C , 12-C ) :   0.9378
B(  6-C ,  7-C ) :   0.9329 B(  6-C ,  8-N ) :   1.0894 B(  7-C , 25-H ) :   0.9742
B(  7-C , 26-H ) :   0.9820 B(  7-C , 27-H ) :   0.9665 B(  8-N ,  9-C ) :   1.2030
B(  8-N , 28-H ) :   0.9505 B(  9-C , 10-S ) :   1.6057 B(  9-C , 11-N ) :   1.2879
B( 11-N , 12-C ) :   0.9718 B( 11-N , 29-H ) :   0.9461 B( 12-C , 13-C ) :   0.9666
B( 12-C , 30-H ) :   0.9885 B( 13-C , 14-C ) :   1.3832 B( 13-C , 19-C ) :   1.3487
B( 14-C , 15-C ) :   1.4008 B( 14-C , 31-H ) :   0.9624 B( 15-C , 16-C ) :   1.3608
B( 15-C , 32-H ) :   0.9695 B( 16-C , 17-C ) :   1.3316 B( 16-C , 33-H ) :   0.9845
B( 17-C , 18-O ) :   1.1100 B( 17-C , 19-C ) :   1.3612 B( 18-O , 34-H ) :   0.9792
B( 19-C , 35-H ) :   0.9567

MP2 TOTAL ENERGY:    -1274.316558327 Eh
FINAL SINGLE POINT ENERGY     -1274.316558327024

DIPOLE MOMENT
-------------
                                X             Y             Z
Electronic contribution:      9.01541       6.11125       7.36053
Nuclear contribution   :    -10.73830      -7.51903      -7.90909
                        -----------------------------------------
Total Dipole Moment    :     -1.72290      -1.40778      -0.54856
                        -----------------------------------------
Magnitude (a.u.)       :      2.29153
Magnitude (Debye)      :      5.82462

Rotational constants in cm-1:     0.011542     0.009237     0.006462
Rotational constants in MHz :   346.010472   276.922716   193.732517

                             ****ORCA TERMINATED NORMALLY****
TOTAL RUN TIME: 0 days 2 hours 8 minutes 57 seconds 187 msec
