                         Program Version 4.2.0 -  RELEASE  -
|  1> ! ri-mp2 cc-pvtz cc-pvtz/c TightSCF NoKeepInts
|  2>
|  3> %scf
|  4>   MaxCore 4096
|  5> end
|  6> *xyz  0  1
|  7>     C       15.0927581   15.1084204   13.8087551
|  8>     C       15.2452410   14.9314698   15.3359305
|  9>     O       16.0767646   15.9503419   15.9359919
| 10>     C       15.8702454   17.2981353   15.7936496
| 11>     O       15.0546299   17.7731668   15.0235107
| 12>     C       16.6997775   18.1034006   16.7600346
| 13>     C       16.8365061   19.4464682   16.6076727
| 14>     C       16.0362452   20.3538407   15.6957043
| 15>     N       17.8046694   20.1576842   17.3204163
| 16>     C       18.8018293   19.5812553   18.0591717
| 17>     S       19.9767598   20.4806294   18.7984383
| 18>     N       18.7898285   18.2119300   18.1365088
| 19>     C       17.7288129   17.3342821   17.6075122
| 20>     C       17.1153463   16.4474446   18.6834084
| 21>     C       17.3744605   15.0645638   18.7063505
| 22>     C       16.8103712   14.2494894   19.7022573
| 23>     C       15.9838989   14.8229249   20.6839556
| 24>     C       15.7283292   16.2012014   20.6653588
| 25>     O       14.9324755   16.7575283   21.6131029
| 26>     C       16.2912520   17.0097323   19.6729634
| 27>     H       14.3684793   15.8938781   13.5620792
| 28>     H       14.7295753   14.1783126   13.3554602
| 29>     H       16.0550869   15.3592976   13.3458381
| 30>     H       14.2503309   14.9442332   15.8003730
| 31>     H       15.6938710   13.9507553   15.5393214
| 32>     H       14.9605455   20.2279807   15.8741245
| 33>     H       16.2248514   20.1084018   14.6428411
| 34>     H       16.2670680   21.4165573   15.8345763
| 35>     H       17.8374071   21.1623837   17.2538857
| 36>     H       19.5187175   17.8167891   18.7169823
| 37>     H       18.3117143   16.7333830   16.8952104
| 38>     H       18.0098327   14.6202362   17.9449506
| 39>     H       17.0140699   13.1801947   19.7115660
| 40>     H       15.5463095   14.1978496   21.4553452
| 41>     H       14.6605527   16.0503775   22.2170436
| 42>     H       16.0883867   18.0754602   19.6777088
| 43> *
| 44>
| 45>                          ****END OF INPUT****

CARTESIAN COORDINATES (ANGSTROEM)
---------------------------------
  C     15.092758   15.108420   13.808755
  C     15.245241   14.931470   15.335930
  O     16.076765   15.950342   15.935992
  C     15.870245   17.298135   15.793650
  O     15.054630   17.773167   15.023511
  C     16.699777   18.103401   16.760035
  C     16.836506   19.446468   16.607673
  C     16.036245   20.353841   15.695704
  N     17.804669   20.157684   17.320416
  C     18.801829   19.581255   18.059172
  S     19.976760   20.480629   18.798438
  N     18.789828   18.211930   18.136509
  C     17.728813   17.334282   17.607512
  C     17.115346   16.447445   18.683408
  C     17.374460   15.064564   18.706350
  C     16.810371   14.249489   19.702257
  C     15.983899   14.822925   20.683956
  C     15.728329   16.201201   20.665359
  O     14.932476   16.757528   21.613103
  C     16.291252   17.009732   19.672963
  H     14.368479   15.893878   13.562079
  H     14.729575   14.178313   13.355460
  H     16.055087   15.359298   13.345838
  H     14.250331   14.944233   15.800373
  H     15.693871   13.950755   15.539321
  H     14.960546   20.227981   15.874124
  H     16.224851   20.108402   14.642841
  H     16.267068   21.416557   15.834576
  H     17.837407   21.162384   17.253886
  H     19.518718   17.816789   18.716982
  H     18.311714   16.733383   16.895210
  H     18.009833   14.620236   17.944951
  H     17.014070   13.180195   19.711566
  H     15.546309   14.197850   21.455345
  H     14.660553   16.050377   22.217044
  H     16.088387   18.075460   19.677709

 Total Charge           Charge          ....    0
 Multiplicity           Mult            ....    1
 Number of Electrons    NEL             ....  154
 Basis Dimension        Dim             ....  828

ORBITAL ENERGIES
----------------

  NO   OCC          E(Eh)            E(eV)
   0   2.0000     -91.888207     -2500.4052
   1   2.0000     -20.599138      -560.5310
   2   2.0000     -20.595554      -560.4335
   3   2.0000     -20.541096      -558.9516
   4   2.0000     -15.628502      -425.2731
   5   2.0000     -15.606184      -424.6658
   6   2.0000     -11.396812      -310.1230
   7   2.0000     -11.382748      -309.7403
   8   2.0000     -11.336696      -308.4872
   9   2.0000     -11.312589      -307.8312
  10   2.0000     -11.306562      -307.6672
  11   2.0000     -11.301500      -307.5294
  12   2.0000     -11.259705      -306.3922
  13   2.0000     -11.258811      -306.3678
  14   2.0000     -11.254114      -306.2400
  15   2.0000     -11.251220      -306.1613
  16   2.0000     -11.242403      -305.9213
  17   2.0000     -11.237705      -305.7935
  18   2.0000     -11.237656      -305.7922
  19   2.0000     -11.221815      -305.3611
  20   2.0000      -8.893284      -241.9986
  21   2.0000      -6.574859      -178.9110
  22   2.0000      -6.572859      -178.8566
  23   2.0000      -6.572270      -178.8406
  24   2.0000      -1.446715       -39.3671
  25   2.0000      -1.415201       -38.5096
  26   2.0000      -1.354752       -36.8647
  27   2.0000      -1.339757       -36.4566
  28   2.0000      -1.237560       -33.6757
  29   2.0000      -1.156393       -31.4671
  30   2.0000      -1.120056       -30.4783
  31   2.0000      -1.041798       -28.3488
  32   2.0000      -1.035952       -28.1897
  33   2.0000      -1.013853       -27.5883
  34   2.0000      -0.995215       -27.0812
  35   2.0000      -0.983411       -26.7600
  36   2.0000      -0.920958       -25.0605
  37   2.0000      -0.895675       -24.3726
  38   2.0000      -0.846231       -23.0271
  39   2.0000      -0.837177       -22.7807
  40   2.0000      -0.833085       -22.6694
  41   2.0000      -0.818096       -22.2615
  42   2.0000      -0.750367       -20.4185
  43   2.0000      -0.731613       -19.9082
  44   2.0000      -0.720002       -19.5922
  45   2.0000      -0.694553       -18.8997
  46   2.0000      -0.688058       -18.7230
  47   2.0000      -0.679086       -18.4789
  48   2.0000      -0.669283       -18.2121
  49   2.0000      -0.652299       -17.7500
  50   2.0000      -0.648701       -17.6521
  51   2.0000      -0.644927       -17.5494
  52   2.0000      -0.633063       -17.2265
  53   2.0000      -0.607138       -16.5211
  54   2.0000      -0.604148       -16.4397
  55   2.0000      -0.598900       -16.2969
  56   2.0000      -0.597887       -16.2693
  57   2.0000      -0.580226       -15.7888
  58   2.0000      -0.573380       -15.6025
  59   2.0000      -0.569269       -15.4906
  60   2.0000      -0.561948       -15.2914
  61   2.0000      -0.539513       -14.6809
  62   2.0000      -0.536233       -14.5916
  63   2.0000      -0.523477       -14.2445
  64   2.0000      -0.520882       -14.1739
  65   2.0000      -0.512131       -13.9358
  66   2.0000      -0.502474       -13.6730
  67   2.0000      -0.497118       -13.5273
  68   2.0000      -0.483169       -13.1477
  69   2.0000      -0.462691       -12.5905
  70   2.0000      -0.455514       -12.3952
  71   2.0000      -0.440950       -11.9989
  72   2.0000      -0.352253        -9.5853
  73   2.0000      -0.348661        -9.4875
  74   2.0000      -0.327382        -8.9085
  75   2.0000      -0.320002        -8.7077
  76   2.0000      -0.317393        -8.6367
  77   0.0000       0.078033         2.1234
  78   0.0000       0.106620         2.9013
  79   0.0000       0.124461         3.3868
  80   0.0000       0.133481         3.6322
  81   0.0000       0.136755         3.7213

MULLIKEN ATOMIC CHARGES
-----------------------
   0 C :   -0.296191
   1 C :    0.049432
   2 O :   -0.351573
   3 C :    0.440788
   4 O :   -0.437972
   5 C :   -0.216214
   6 C :    0.172377
   7 C :   -0.268575
   8 N :   -0.125501
   9 C :    0.210780
  10 S :   -0.443110
  11 N :   -0.215018
  12 C :    0.057287
  13 C :    0.051047
  14 C :   -0.180041
  15 C :   -0.133204
  16 C :   -0.276123
  17 C :    0.316830
  18 O :   -0.357083
  19 C :   -0.249600
  20 H :    0.127006
  21 H :    0.094469
  22 H :    0.092435
  23 H :    0.088389
  24 H :    0.101231
  25 H :    0.133819
  26 H :    0.127782
  27 H :    0.094661
  28 H :    0.199531
  29 H :    0.200319
  30 H :    0.150883
  31 H :    0.149554
  32 H :    0.159622
  33 H :    0.129397
  34 H :    0.240413
  35 H :    0.162152
Sum of atomic charges:    0.0000000

LOEWDIN ATOMIC CHARGES
----------------------
   0 C :    0.103426
   1 C :   -0.010565
   2 O :    0.300773
   3 C :   -0.412868
   4 O :    0.103031
   5 C :   -0.093675
   6 C :   -0.056665
   7 C :    0.130483
   8 N :    0.407011
   9 C :   -0.456878
  10 S :   -0.037418
  11 N :    0.394612
  12 C :   -0.054964
  13 C :   -0.038693
  14 C :    0.016551
  15 C :    0.038988
  16 C :   -0.000855
  17 C :   -0.189525
  18 O :    0.394900
  19 C :    0.033205
  20 H :   -0.026112
  21 H :   -0.029259
  22 H :   -0.028248
  23 H :   -0.028485
  24 H :   -0.024746
  25 H :   -0.004421
  26 H :   -0.005541
  27 H :   -0.023795
  28 H :   -0.057317
  29 H :   -0.064452
  30 H :   -0.014323
  31 H :   -0.029811
  32 H :   -0.021614
  33 H :   -0.035648
  34 H :   -0.154146
  35 H :   -0.022955

  Mayer bond orders larger than 0.100000
B(  0-C ,  1-C ) :   0.9698 B(  0-C , 20-H ) :   0.9715 B(  0-C , 21-H ) :   0.9778
B(  0-C , 22-H ) :   0.9756 B(  1-C ,  2-O ) :   0.9051 B(  1-C , 23-H ) :   0.9777
B(  1-C , 24-H ) :   0.9838 B(  2-O ,  3-C ) :   1.1587 B(  3-C ,  4-O ) :   1.9541
B(  3-C ,  5-C ) :   1.0779 B(  5-C ,  6-C ) :   1.6384 B(  5-C , 12-C ) :   0.9539
B(  6-C ,  7-C ) :   0.9659 B(  6-C ,  8-N ) :   1.1535 B(  7-C , 25-H ) :   0.9611
B(  7-C , 26-H ) :   0.9589 B(  7-C , 27-H ) :   0.9911 B(  8-N ,  9-C ) :   1.1878
B(  8-N , 28-H ) :   0.9464 B(  9-C , 10-S ) :   1.6047 B(  9-C , 11-N ) :   1.3099
B( 11-N , 12-C ) :   0.9667 B( 11-N , 29-H ) :   0.9484 B( 12-C , 13-C ) :   0.9663
B( 12-C , 30-H ) :   1.0007 B( 13-C , 14-C ) :   1.3530 B( 13-C , 19-C ) :   1.3816
B( 14-C , 15-C ) :   1.3953 B( 14-C , 31-H ) :   0.9722 B( 15-C , 16-C ) :   1.3604
B( 15-C , 32-H ) :   0.9710 B( 16-C , 17-C ) :   1.3342 B( 16-C , 33-H ) :   0.9853
B( 17-C , 18-O ) :   1.1039 B( 17-C , 19-C ) :   1.3648 B( 18-O , 34-H ) :   0.9800
B( 19-C , 35-H ) :   0.9598

MP2 TOTAL ENERGY:    -1274.337483384 Eh
FINAL SINGLE POINT ENERGY     -1274.337483384365

DIPOLE MOMENT
-------------
                                X             Y             Z
Electronic contribution:      8.86789       9.19812      11.12936
Nuclear contribution   :     -9.96279     -10.89987     -11.52692
                        -----------------------------------------
Total Dipole Moment    :     -1.09490      -1.70175      -0.39756
                        -----------------------------------------
Magnitude (a.u.)       :      2.06224
Magnitude (Debye)      :      5.24179

Rotational constants in cm-1:     0.010357     0.008910     0.005764
Rotational constants in MHz :   310.506244   267.112059   172.813651

                             ****ORCA TERMINATED NORMALLY****
TOTAL RUN TIME: 0 days 1 hours 35 minutes 43 seconds 442 msec
