                         Program Version 4.2.0 -  RELEASE  -
|  1> ! ri-mp2 cc-pvtz cc-pvtz/c TightSCF NoKeepInts
|  2>
|  3> %scf
|  4>   MaxCore 4096
|  5> end
|  6> *xyz  0  1
|  7>     C       14.4817560   15.5536245   16.2915379
|  8>     C       15.0542006   16.2993101   15.0729474
|  9>     O       16.4337125   15.9115148   14.9109876
| 10>     C       17.5149316   16.5443994   15.4740440
| 11>     O       18.6446235   16.1246583   15.3069146
| 12>     C       17.2317824   17.6576952   16.4259064
| 13>     C       16.9409952   18.8875892   15.9364765
| 14>     C       16.6173582   19.2468093   14.4992682
| 15>     N       17.0235621   20.0214175   16.7464216
| 16>     C       17.6465421   20.0475016   17.9663033
| 17>     S       17.8275309   21.4501589   18.8230505
| 18>     N       18.1419973   18.8515331   18.4245981
| 19>     C       17.8991897   17.5366035   17.7975875
| 20>     C       17.2507598   16.4970472   18.6990237
| 21>     C       17.6599084   15.1532887   18.6275306
| 22>     C       17.0528544   14.1779899   19.4359035
| 23>     C       16.0270197   14.5496364   20.3217433
| 24>     C       15.6147762   15.8874319   20.3922397
| 25>     O       14.6174961   16.2468053   21.2388482
| 26>     C       16.2197560   16.8566684   19.5854033
| 27>     H       14.9464014   15.9004871   17.2203046
| 28>     H       14.6561703   14.4738621   16.2025159
| 29>     H       13.4007893   15.7201991   16.3721236
| 30>     H       14.4953034   15.9810525   14.1832770
| 31>     H       14.9150287   17.3787865   15.1822657
| 32>     H       16.7756064   18.4130843   13.8045934
| 33>     H       17.2607733   20.0647258   14.1494998
| 34>     H       15.5752829   19.5739446   14.3985007
| 35>     H       16.7075603   20.9136503   16.3999139
| 36>     H       18.6015643   18.8963796   19.3256247
| 37>     H       18.9376776   17.2388758   17.5876345
| 38>     H       18.4468969   14.8632837   17.9338382
| 39>     H       17.3764898   13.1404242   19.3709969
| 40>     H       15.5546208   13.7989380   20.9467411
| 41>     H       14.3564393   15.4554763   21.7337351
| 42>     H       15.8796425   17.8851470   19.6496988
| 43> *
| 44>
| 45>                          ****END OF INPUT****

CARTESIAN COORDINATES (ANGSTROEM)
---------------------------------
  C     14.481756   15.553624   16.291538
  C     15.054201   16.299310   15.072947
  O     16.433712   15.911515   14.910988
  C     17.514932   16.544399   15.474044
  O     18.644624   16.124658   15.306915
  C     17.231782   17.657695   16.425906
  C     16.940995   18.887589   15.936476
  C     16.617358   19.246809   14.499268
  N     17.023562   20.021417   16.746422
  C     17.646542   20.047502   17.966303
  S     17.827531   21.450159   18.823051
  N     18.141997   18.851533   18.424598
  C     17.899190   17.536603   17.797587
  C     17.250760   16.497047   18.699024
  C     17.659908   15.153289   18.627531
  C     17.052854   14.177990   19.435903
  C     16.027020   14.549636   20.321743
  C     15.614776   15.887432   20.392240
  O     14.617496   16.246805   21.238848
  C     16.219756   16.856668   19.585403
  H     14.946401   15.900487   17.220305
  H     14.656170   14.473862   16.202516
  H     13.400789   15.720199   16.372124
  H     14.495303   15.981053   14.183277
  H     14.915029   17.378786   15.182266
  H     16.775606   18.413084   13.804593
  H     17.260773   20.064726   14.149500
  H     15.575283   19.573945   14.398501
  H     16.707560   20.913650   16.399914
  H     18.601564   18.896380   19.325625
  H     18.937678   17.238876   17.587634
  H     18.446897   14.863284   17.933838
  H     17.376490   13.140424   19.370997
  H     15.554621   13.798938   20.946741
  H     14.356439   15.455476   21.733735
  H     15.879642   17.885147   19.649699

 Total Charge           Charge          ....    0
 Multiplicity           Mult            ....    1
 Number of Electrons    NEL             ....  154
 Basis Dimension        Dim             ....  828

ORBITAL ENERGIES
----------------

  NO   OCC          E(Eh)            E(eV)
   0   2.0000     -91.889814     -2500.4490
   1   2.0000     -20.604297      -560.6714
   2   2.0000     -20.600163      -560.5589
   3   2.0000     -20.551391      -559.2318
   4   2.0000     -15.627045      -425.2335
   5   2.0000     -15.610150      -424.7738
   6   2.0000     -11.401334      -310.2461
   7   2.0000     -11.385844      -309.8246
   8   2.0000     -11.332609      -308.3760
   9   2.0000     -11.317970      -307.9776
  10   2.0000     -11.312154      -307.8194
  11   2.0000     -11.307034      -307.6800
  12   2.0000     -11.269289      -306.6529
  13   2.0000     -11.266083      -306.5657
  14   2.0000     -11.265118      -306.5394
  15   2.0000     -11.258617      -306.3625
  16   2.0000     -11.246742      -306.0394
  17   2.0000     -11.242518      -305.9245
  18   2.0000     -11.240424      -305.8675
  19   2.0000     -11.228019      -305.5299
  20   2.0000      -8.894920      -242.0431
  21   2.0000      -6.576503      -178.9558
  22   2.0000      -6.574488      -178.9009
  23   2.0000      -6.573908      -178.8851
  24   2.0000      -1.448849       -39.4252
  25   2.0000      -1.419884       -38.6370
  26   2.0000      -1.362983       -37.0887
  27   2.0000      -1.340975       -36.4898
  28   2.0000      -1.239675       -33.7333
  29   2.0000      -1.162248       -31.6264
  30   2.0000      -1.127333       -30.6763
  31   2.0000      -1.049503       -28.5584
  32   2.0000      -1.038405       -28.2564
  33   2.0000      -1.020386       -27.7661
  34   2.0000      -1.007089       -27.4043
  35   2.0000      -0.990551       -26.9543
  36   2.0000      -0.927364       -25.2349
  37   2.0000      -0.891687       -24.2640
  38   2.0000      -0.854698       -23.2575
  39   2.0000      -0.842412       -22.9232
  40   2.0000      -0.837421       -22.7874
  41   2.0000      -0.834253       -22.7012
  42   2.0000      -0.753275       -20.4977
  43   2.0000      -0.740763       -20.1572
  44   2.0000      -0.732535       -19.9333
  45   2.0000      -0.697676       -18.9847
  46   2.0000      -0.690926       -18.8011
  47   2.0000      -0.682966       -18.5844
  48   2.0000      -0.674833       -18.3631
  49   2.0000      -0.664773       -18.0894
  50   2.0000      -0.652944       -17.7675
  51   2.0000      -0.640012       -17.4156
  52   2.0000      -0.636824       -17.3289
  53   2.0000      -0.621421       -16.9097
  54   2.0000      -0.613451       -16.6928
  55   2.0000      -0.607941       -16.5429
  56   2.0000      -0.603383       -16.4189
  57   2.0000      -0.587753       -15.9936
  58   2.0000      -0.578458       -15.7406
  59   2.0000      -0.570211       -15.5162
  60   2.0000      -0.563496       -15.3335
  61   2.0000      -0.556866       -15.1531
  62   2.0000      -0.538897       -14.6641
  63   2.0000      -0.537430       -14.6242
  64   2.0000      -0.520556       -14.1651
  65   2.0000      -0.512292       -13.9402
  66   2.0000      -0.506998       -13.7961
  67   2.0000      -0.502576       -13.6758
  68   2.0000      -0.486526       -13.2391
  69   2.0000      -0.468162       -12.7393
  70   2.0000      -0.453647       -12.3444
  71   2.0000      -0.452113       -12.3026
  72   2.0000      -0.357399        -9.7253
  73   2.0000      -0.351738        -9.5713
  74   2.0000      -0.329420        -8.9640
  75   2.0000      -0.325768        -8.8646
  76   2.0000      -0.320186        -8.7127
  77   0.0000       0.089212         2.4276
  78   0.0000       0.104501         2.8436
  79   0.0000       0.114562         3.1174
  80   0.0000       0.125914         3.4263
  81   0.0000       0.129310         3.5187

MULLIKEN ATOMIC CHARGES
-----------------------
   0 C :   -0.284490
   1 C :    0.024168
   2 O :   -0.316974
   3 C :    0.424952
   4 O :   -0.383419
   5 C :   -0.198212
   6 C :    0.123504
   7 C :   -0.327717
   8 N :   -0.139623
   9 C :    0.211216
  10 S :   -0.443310
  11 N :   -0.231579
  12 C :    0.063846
  13 C :    0.001754
  14 C :   -0.210226
  15 C :   -0.136971
  16 C :   -0.268593
  17 C :    0.315072
  18 O :   -0.356325
  19 C :   -0.241458
  20 H :    0.110638
  21 H :    0.107310
  22 H :    0.096255
  23 H :    0.120084
  24 H :    0.088316
  25 H :    0.127544
  26 H :    0.138298
  27 H :    0.123173
  28 H :    0.196565
  29 H :    0.205580
  30 H :    0.169850
  31 H :    0.176536
  32 H :    0.164875
  33 H :    0.132890
  34 H :    0.241209
  35 H :    0.175260
Sum of atomic charges:    0.0000000

LOEWDIN ATOMIC CHARGES
----------------------
   0 C :    0.107844
   1 C :   -0.022850
   2 O :    0.308651
   3 C :   -0.416220
   4 O :    0.119977
   5 C :   -0.081873
   6 C :   -0.097433
   7 C :    0.123452
   8 N :    0.402411
   9 C :   -0.456663
  10 S :   -0.038443
  11 N :    0.396667
  12 C :   -0.048897
  13 C :   -0.045034
  14 C :    0.019047
  15 C :    0.046335
  16 C :    0.000214
  17 C :   -0.190649
  18 O :    0.396353
  19 C :    0.026536
  20 H :   -0.029066
  21 H :   -0.023120
  22 H :   -0.026781
  23 H :   -0.022928
  24 H :   -0.038519
  25 H :   -0.008099
  26 H :   -0.008589
  27 H :   -0.017483
  28 H :   -0.057095
  29 H :   -0.063584
  30 H :   -0.003474
  31 H :   -0.021590
  32 H :   -0.018120
  33 H :   -0.034560
  34 H :   -0.152969
  35 H :   -0.023448

  Mayer bond orders larger than 0.100000
B(  0-C ,  1-C ) :   0.9739 B(  0-C , 20-H ) :   0.9678 B(  0-C , 21-H ) :   0.9769
B(  0-C , 22-H ) :   0.9766 B(  1-C ,  2-O ) :   0.8991 B(  1-C , 23-H ) :   0.9826
B(  1-C , 24-H ) :   0.9638 B(  2-O ,  3-C ) :   1.1754 B(  3-C ,  4-O ) :   2.0952
B(  3-C ,  5-C ) :   0.9116 B(  5-C ,  6-C ) :   1.7305 B(  5-C , 12-C ) :   0.9366
B(  6-C ,  7-C ) :   0.9362 B(  6-C ,  8-N ) :   1.1034 B(  7-C , 25-H ) :   0.9778
B(  7-C , 26-H ) :   0.9718 B(  7-C , 27-H ) :   0.9670 B(  8-N ,  9-C ) :   1.2002
B(  8-N , 28-H ) :   0.9515 B(  9-C , 10-S ) :   1.6085 B(  9-C , 11-N ) :   1.2904
B( 11-N , 12-C ) :   0.9752 B( 11-N , 29-H ) :   0.9459 B( 12-C , 13-C ) :   0.9732
B( 12-C , 30-H ) :   0.9884 B( 13-C , 14-C ) :   1.3879 B( 13-C , 19-C ) :   1.3474
B( 14-C , 15-C ) :   1.3980 B( 14-C , 31-H ) :   0.9588 B( 15-C , 16-C ) :   1.3596
B( 15-C , 32-H ) :   0.9694 B( 16-C , 17-C ) :   1.3327 B( 16-C , 33-H ) :   0.9842
B( 17-C , 18-O ) :   1.1101 B( 17-C , 19-C ) :   1.3621 B( 18-O , 34-H ) :   0.9793
B( 19-C , 35-H ) :   0.9578

MP2 TOTAL ENERGY:    -1274.328891323 Eh
FINAL SINGLE POINT ENERGY     -1274.328891322639

DIPOLE MOMENT
-------------
                                X             Y             Z
Electronic contribution:      9.04654       7.70086       6.85056
Nuclear contribution   :    -10.71931      -8.87760      -7.35107
                        -----------------------------------------
Total Dipole Moment    :     -1.67277      -1.17674      -0.50050
                        -----------------------------------------
Magnitude (a.u.)       :      2.10556
Magnitude (Debye)      :      5.35191

Rotational constants in cm-1:     0.011622     0.009171     0.006359
Rotational constants in MHz :   348.412921   274.935928   190.649040

                             ****ORCA TERMINATED NORMALLY****
TOTAL RUN TIME: 0 days 1 hours 44 minutes 57 seconds 92 msec
