                         Program Version 4.2.0 -  RELEASE  -
|  1> ! ri-mp2 cc-pvtz cc-pvtz/c TightSCF NoKeepInts
|  2>
|  3> %scf
|  4>   MaxCore 4096
|  5> end
|  6> *xyz  0  1
|  7>     C       14.9600370   14.9209488   14.0013642
|  8>     C       15.0549007   15.1316797   15.5260752
|  9>     O       16.1316667   16.0397056   15.8224034
| 10>     C       15.9411349   17.3909800   15.7295601
| 11>     O       15.1141461   17.8854845   14.9829594
| 12>     C       16.7644069   18.1577056   16.7302959
| 13>     C       16.9051937   19.5045868   16.6276953
| 14>     C       16.1160844   20.4436118   15.7386309
| 15>     N       17.8679198   20.1868882   17.3751310
| 16>     C       18.8552557   19.5807449   18.1035633
| 17>     S       20.0238118   20.4492039   18.8884137
| 18>     N       18.8388556   18.2093465   18.1313919
| 19>     C       17.7821584   17.3543302   17.5583629
| 20>     C       17.1526884   16.4294604   18.5922152
| 21>     C       17.3998022   15.0445764   18.5598343
| 22>     C       16.8174740   14.1934341   19.5141385
| 23>     C       15.9846540   14.7324881   20.5098402
| 24>     C       15.7409770   16.1125552   20.5464795
| 25>     O       14.9384570   16.6356346   21.5073749
| 26>     C       16.3215359   16.9569328   19.5949166
| 27>     H       14.6603694   15.8426793   13.4880725
| 28>     H       14.2151245   14.1506644   13.7684010
| 29>     H       15.9258999   14.5972004   13.5946139
| 30>     H       14.1037983   15.5124426   15.9227442
| 31>     H       15.2602990   14.1656230   16.0048100
| 32>     H       15.0386166   20.3205546   15.9080154
| 33>     H       16.3081525   20.2272339   14.6799937
| 34>     H       16.3543862   21.5000847   15.9090319
| 35>     H       17.9043881   21.1932426   17.3449907
| 36>     H       19.5611872   17.7912609   18.7039871
| 37>     H       18.3704778   16.7783445   16.8299556
| 38>     H       18.0397581   14.6268856   17.7870743
| 39>     H       17.0126257   13.1229547   19.4809256
| 40>     H       15.5333433   14.0795154   21.2496255
| 41>     H       14.6602874   15.9077531   22.0832722
| 42>     H       16.1271258   18.0232623   19.6418398
| 43> *
| 44>
| 45>                          ****END OF INPUT****

CARTESIAN COORDINATES (ANGSTROEM)
---------------------------------
  C     14.960037   14.920949   14.001364
  C     15.054901   15.131680   15.526075
  O     16.131667   16.039706   15.822403
  C     15.941135   17.390980   15.729560
  O     15.114146   17.885485   14.982959
  C     16.764407   18.157706   16.730296
  C     16.905194   19.504587   16.627695
  C     16.116084   20.443612   15.738631
  N     17.867920   20.186888   17.375131
  C     18.855256   19.580745   18.103563
  S     20.023812   20.449204   18.888414
  N     18.838856   18.209346   18.131392
  C     17.782158   17.354330   17.558363
  C     17.152688   16.429460   18.592215
  C     17.399802   15.044576   18.559834
  C     16.817474   14.193434   19.514139
  C     15.984654   14.732488   20.509840
  C     15.740977   16.112555   20.546479
  O     14.938457   16.635635   21.507375
  C     16.321536   16.956933   19.594917
  H     14.660369   15.842679   13.488072
  H     14.215124   14.150664   13.768401
  H     15.925900   14.597200   13.594614
  H     14.103798   15.512443   15.922744
  H     15.260299   14.165623   16.004810
  H     15.038617   20.320555   15.908015
  H     16.308152   20.227234   14.679994
  H     16.354386   21.500085   15.909032
  H     17.904388   21.193243   17.344991
  H     19.561187   17.791261   18.703987
  H     18.370478   16.778344   16.829956
  H     18.039758   14.626886   17.787074
  H     17.012626   13.122955   19.480926
  H     15.533343   14.079515   21.249626
  H     14.660287   15.907753   22.083272
  H     16.127126   18.023262   19.641840

 Total Charge           Charge          ....    0
 Multiplicity           Mult            ....    1
 Number of Electrons    NEL             ....  154
 Basis Dimension        Dim             ....  828

ORBITAL ENERGIES
----------------

  NO   OCC          E(Eh)            E(eV)
   0   2.0000     -91.889130     -2500.4304
   1   2.0000     -20.596865      -560.4692
   2   2.0000     -20.596634      -560.4629
   3   2.0000     -20.543163      -559.0079
   4   2.0000     -15.629582      -425.3026
   5   2.0000     -15.607141      -424.6919
   6   2.0000     -11.395594      -310.0899
   7   2.0000     -11.383741      -309.7673
   8   2.0000     -11.337747      -308.5158
   9   2.0000     -11.314070      -307.8715
  10   2.0000     -11.307626      -307.6962
  11   2.0000     -11.298308      -307.4426
  12   2.0000     -11.261124      -306.4308
  13   2.0000     -11.258901      -306.3703
  14   2.0000     -11.255548      -306.2790
  15   2.0000     -11.252127      -306.1859
  16   2.0000     -11.243857      -305.9609
  17   2.0000     -11.239202      -305.8342
  18   2.0000     -11.238971      -305.8280
  19   2.0000     -11.220016      -305.3122
  20   2.0000      -8.894197      -242.0234
  21   2.0000      -6.575768      -178.9357
  22   2.0000      -6.573771      -178.8814
  23   2.0000      -6.573180      -178.8653
  24   2.0000      -1.449932       -39.4547
  25   2.0000      -1.416523       -38.5456
  26   2.0000      -1.355054       -36.8729
  27   2.0000      -1.340666       -36.4814
  28   2.0000      -1.238473       -33.7006
  29   2.0000      -1.157834       -31.5063
  30   2.0000      -1.121218       -30.5099
  31   2.0000      -1.043020       -28.3820
  32   2.0000      -1.035019       -28.1643
  33   2.0000      -1.015302       -27.6278
  34   2.0000      -0.995839       -27.0982
  35   2.0000      -0.984338       -26.7852
  36   2.0000      -0.922044       -25.0901
  37   2.0000      -0.890440       -24.2301
  38   2.0000      -0.847068       -23.0499
  39   2.0000      -0.838367       -22.8131
  40   2.0000      -0.834482       -22.7074
  41   2.0000      -0.820144       -22.3173
  42   2.0000      -0.756615       -20.5885
  43   2.0000      -0.733326       -19.9548
  44   2.0000      -0.721997       -19.6465
  45   2.0000      -0.695712       -18.9313
  46   2.0000      -0.688979       -18.7481
  47   2.0000      -0.679938       -18.5021
  48   2.0000      -0.670881       -18.2556
  49   2.0000      -0.650383       -17.6978
  50   2.0000      -0.648073       -17.6350
  51   2.0000      -0.644876       -17.5480
  52   2.0000      -0.632454       -17.2099
  53   2.0000      -0.608106       -16.5474
  54   2.0000      -0.605030       -16.4637
  55   2.0000      -0.599878       -16.3235
  56   2.0000      -0.599128       -16.3031
  57   2.0000      -0.580335       -15.7917
  58   2.0000      -0.573637       -15.6094
  59   2.0000      -0.569894       -15.5076
  60   2.0000      -0.563572       -15.3356
  61   2.0000      -0.540697       -14.7131
  62   2.0000      -0.535819       -14.5804
  63   2.0000      -0.524358       -14.2685
  64   2.0000      -0.519190       -14.1279
  65   2.0000      -0.513266       -13.9667
  66   2.0000      -0.500839       -13.6285
  67   2.0000      -0.497670       -13.5423
  68   2.0000      -0.485837       -13.2203
  69   2.0000      -0.463652       -12.6166
  70   2.0000      -0.455143       -12.3851
  71   2.0000      -0.444386       -12.0924
  72   2.0000      -0.353167        -9.6102
  73   2.0000      -0.350045        -9.5252
  74   2.0000      -0.328275        -8.9328
  75   2.0000      -0.321485        -8.7481
  76   2.0000      -0.318341        -8.6625
  77   0.0000       0.075601         2.0572
  78   0.0000       0.104606         2.8465
  79   0.0000       0.125168         3.4060
  80   0.0000       0.132575         3.6076
  81   0.0000       0.136946         3.7265

MULLIKEN ATOMIC CHARGES
-----------------------
   0 C :   -0.285835
   1 C :    0.042133
   2 O :   -0.354972
   3 C :    0.432881
   4 O :   -0.433671
   5 C :   -0.216139
   6 C :    0.174718
   7 C :   -0.268491
   8 N :   -0.125756
   9 C :    0.210306
  10 S :   -0.441411
  11 N :   -0.215571
  12 C :    0.063578
  13 C :    0.041339
  14 C :   -0.181840
  15 C :   -0.132867
  16 C :   -0.276779
  17 C :    0.316540
  18 O :   -0.356771
  19 C :   -0.249217
  20 H :    0.121354
  21 H :    0.091555
  22 H :    0.089606
  23 H :    0.091245
  24 H :    0.105832
  25 H :    0.133901
  26 H :    0.128625
  27 H :    0.094977
  28 H :    0.199738
  29 H :    0.200541
  30 H :    0.152699
  31 H :    0.152633
  32 H :    0.161392
  33 H :    0.130255
  34 H :    0.240637
  35 H :    0.162837
Sum of atomic charges:   -0.0000000

LOEWDIN ATOMIC CHARGES
----------------------
   0 C :    0.104737
   1 C :   -0.015312
   2 O :    0.304259
   3 C :   -0.414120
   4 O :    0.102008
   5 C :   -0.095664
   6 C :   -0.055772
   7 C :    0.131167
   8 N :    0.407282
   9 C :   -0.456600
  10 S :   -0.036120
  11 N :    0.394595
  12 C :   -0.054619
  13 C :   -0.039266
  14 C :    0.017294
  15 C :    0.038494
  16 C :   -0.000944
  17 C :   -0.189727
  18 O :    0.395058
  19 C :    0.032832
  20 H :   -0.025769
  21 H :   -0.029287
  22 H :   -0.030039
  23 H :   -0.028558
  24 H :   -0.025619
  25 H :   -0.004325
  26 H :   -0.005073
  27 H :   -0.023572
  28 H :   -0.057148
  29 H :   -0.064351
  30 H :   -0.013388
  31 H :   -0.028970
  32 H :   -0.021358
  33 H :   -0.035438
  34 H :   -0.153913
  35 H :   -0.022775

  Mayer bond orders larger than 0.100000
B(  0-C ,  1-C ) :   0.9743 B(  0-C , 20-H ) :   0.9730 B(  0-C , 21-H ) :   0.9774
B(  0-C , 22-H ) :   0.9761 B(  1-C ,  2-O ) :   0.8966 B(  1-C , 23-H ) :   0.9747
B(  1-C , 24-H ) :   0.9820 B(  2-O ,  3-C ) :   1.1412 B(  3-C ,  4-O ) :   1.9578
B(  3-C ,  5-C ) :   1.0752 B(  5-C ,  6-C ) :   1.6338 B(  5-C , 12-C ) :   0.9550
B(  6-C ,  7-C ) :   0.9659 B(  6-C ,  8-N ) :   1.1533 B(  7-C , 25-H ) :   0.9609
B(  7-C , 26-H ) :   0.9588 B(  7-C , 27-H ) :   0.9909 B(  8-N ,  9-C ) :   1.1870
B(  8-N , 28-H ) :   0.9463 B(  9-C , 10-S ) :   1.6066 B(  9-C , 11-N ) :   1.3094
B( 11-N , 12-C ) :   0.9670 B( 11-N , 29-H ) :   0.9484 B( 12-C , 13-C ) :   0.9626
B( 12-C , 30-H ) :   1.0011 B( 13-C , 14-C ) :   1.3539 B( 13-C , 19-C ) :   1.3801
B( 14-C , 15-C ) :   1.3928 B( 14-C , 31-H ) :   0.9715 B( 15-C , 16-C ) :   1.3598
B( 15-C , 32-H ) :   0.9705 B( 16-C , 17-C ) :   1.3339 B( 16-C , 33-H ) :   0.9850
B( 17-C , 18-O ) :   1.1045 B( 17-C , 19-C ) :   1.3646 B( 18-O , 34-H ) :   0.9798
B( 19-C , 35-H ) :   0.9597

MP2 TOTAL ENERGY:    -1274.339092440 Eh
FINAL SINGLE POINT ENERGY     -1274.339092439919

DIPOLE MOMENT
-------------
                                X             Y             Z
Electronic contribution:      9.58913       9.39648      10.45739
Nuclear contribution   :    -10.73983     -10.99923     -10.72025
                        -----------------------------------------
Total Dipole Moment    :     -1.15070      -1.60274      -0.26286
                        -----------------------------------------
Magnitude (a.u.)       :      1.99048
Magnitude (Debye)      :      5.05939

Rotational constants in cm-1:     0.010802     0.008734     0.005796
Rotational constants in MHz :   323.843997   261.849813   173.764246

                             ****ORCA TERMINATED NORMALLY****
TOTAL RUN TIME: 0 days 1 hours 50 minutes 14 seconds 135 msec
