                         Program Version 4.2.0 -  RELEASE  -
|  1> ! ri-mp2 cc-pvtz cc-pvtz/c TightSCF NoKeepInts
|  2>
|  3> %scf
|  4>   MaxCore 4096
|  5> end
|  6> *xyz  0  1
|  7>     C       14.1726036   15.3588591   13.8383063
|  8>     C       14.9593101   15.4537161   15.1560932
|  9>     O       16.0510684   16.3594402   14.9402521
| 10>     C       17.0466091   16.3553471   15.8676534
| 11>     O       17.6633476   15.3391247   16.1369944
| 12>     C       17.1648464   17.6193043   16.6693797
| 13>     C       16.9140993   18.8450593   16.1387628
| 14>     C       16.2787139   19.1657178   14.8000847
| 15>     N       17.2948905   20.0062508   16.8160092
| 16>     C       18.1197397   20.0301839   17.9082351
| 17>     S       18.6180123   21.4501063   18.5943539
| 18>     N       18.5292293   18.8127568   18.3903768
| 19>     C       18.0353909   17.5016877   17.9261733
| 20>     C       17.3931106   16.6737916   19.0313661
| 21>     C       17.8454914   15.3708291   19.3066034
| 22>     C       17.2509601   14.6082683   20.3259038
| 23>     C       16.1956647   15.1538997   21.0769160
| 24>     C       15.7413651   16.4513332   20.8030133
| 25>     O       14.7191360   16.9787225   21.5228067
| 26>     C       16.3345436   17.2074926   19.7869664
| 27>     H       14.8172593   14.9902698   13.0304274
| 28>     H       13.7809298   16.3416946   13.5485450
| 29>     H       13.3268261   14.6685610   13.9438995
| 30>     H       14.3139967   15.8142094   15.9681335
| 31>     H       15.3335461   14.4552694   15.4227345
| 32>     H       16.8102877   18.6595711   13.9842139
| 33>     H       16.2885543   20.2381448   14.5701203
| 34>     H       15.2326712   18.8359339   14.7773487
| 35>     H       17.0223022   20.9082232   16.4594087
| 36>     H       19.1211258   18.8577281   19.2103404
| 37>     H       18.9784751   17.0421318   17.5957877
| 38>     H       18.6515582   14.9427216   18.7150917
| 39>     H       17.6057020   13.5987079   20.5257060
| 40>     H       15.7329626   14.5678085   21.8639501
| 41>     H       14.4707758   16.3260068   22.1945464
| 42>     H       15.9718946   18.2111273   19.5914956
| 43> *
| 44>
| 45>                          ****END OF INPUT****

CARTESIAN COORDINATES (ANGSTROEM)
---------------------------------
  C     14.172604   15.358859   13.838306
  C     14.959310   15.453716   15.156093
  O     16.051068   16.359440   14.940252
  C     17.046609   16.355347   15.867653
  O     17.663348   15.339125   16.136994
  C     17.164846   17.619304   16.669380
  C     16.914099   18.845059   16.138763
  C     16.278714   19.165718   14.800085
  N     17.294891   20.006251   16.816009
  C     18.119740   20.030184   17.908235
  S     18.618012   21.450106   18.594354
  N     18.529229   18.812757   18.390377
  C     18.035391   17.501688   17.926173
  C     17.393111   16.673792   19.031366
  C     17.845491   15.370829   19.306603
  C     17.250960   14.608268   20.325904
  C     16.195665   15.153900   21.076916
  C     15.741365   16.451333   20.803013
  O     14.719136   16.978722   21.522807
  C     16.334544   17.207493   19.786966
  H     14.817259   14.990270   13.030427
  H     13.780930   16.341695   13.548545
  H     13.326826   14.668561   13.943899
  H     14.313997   15.814209   15.968133
  H     15.333546   14.455269   15.422734
  H     16.810288   18.659571   13.984214
  H     16.288554   20.238145   14.570120
  H     15.232671   18.835934   14.777349
  H     17.022302   20.908223   16.459409
  H     19.121126   18.857728   19.210340
  H     18.978475   17.042132   17.595788
  H     18.651558   14.942722   18.715092
  H     17.605702   13.598708   20.525706
  H     15.732963   14.567808   21.863950
  H     14.470776   16.326007   22.194546
  H     15.971895   18.211127   19.591496

 Total Charge           Charge          ....    0
 Multiplicity           Mult            ....    1
 Number of Electrons    NEL             ....  154
 Basis Dimension        Dim             ....  828

ORBITAL ENERGIES
----------------

  NO   OCC          E(Eh)            E(eV)
   0   2.0000     -91.889169     -2500.4314
   1   2.0000     -20.593238      -560.3705
   2   2.0000     -20.591429      -560.3213
   3   2.0000     -20.550181      -559.1988
   4   2.0000     -15.630171      -425.3186
   5   2.0000     -15.606634      -424.6781
   6   2.0000     -11.393620      -310.0362
   7   2.0000     -11.383804      -309.7691
   8   2.0000     -11.339688      -308.5686
   9   2.0000     -11.309275      -307.7410
  10   2.0000     -11.304825      -307.6199
  11   2.0000     -11.301700      -307.5349
  12   2.0000     -11.260714      -306.4196
  13   2.0000     -11.260258      -306.4072
  14   2.0000     -11.256462      -306.3039
  15   2.0000     -11.249206      -306.1064
  16   2.0000     -11.239403      -305.8397
  17   2.0000     -11.235654      -305.7377
  18   2.0000     -11.234207      -305.6983
  19   2.0000     -11.232193      -305.6435
  20   2.0000      -8.894244      -242.0247
  21   2.0000      -6.575818      -178.9371
  22   2.0000      -6.573818      -178.8827
  23   2.0000      -6.573227      -178.8666
  24   2.0000      -1.454177       -39.5702
  25   2.0000      -1.412984       -38.4492
  26   2.0000      -1.358304       -36.9613
  27   2.0000      -1.341091       -36.4929
  28   2.0000      -1.238063       -33.6894
  29   2.0000      -1.153792       -31.3963
  30   2.0000      -1.121833       -30.5266
  31   2.0000      -1.044597       -28.4249
  32   2.0000      -1.037148       -28.2222
  33   2.0000      -1.011368       -27.5207
  34   2.0000      -1.000071       -27.2133
  35   2.0000      -0.985179       -26.8081
  36   2.0000      -0.921789       -25.0832
  37   2.0000      -0.883380       -24.0380
  38   2.0000      -0.848868       -23.0989
  39   2.0000      -0.837227       -22.7821
  40   2.0000      -0.829478       -22.5713
  41   2.0000      -0.826186       -22.4817
  42   2.0000      -0.761042       -20.7090
  43   2.0000      -0.736575       -20.0432
  44   2.0000      -0.727482       -19.7958
  45   2.0000      -0.691150       -18.8071
  46   2.0000      -0.687583       -18.7101
  47   2.0000      -0.680812       -18.5258
  48   2.0000      -0.673841       -18.3361
  49   2.0000      -0.653752       -17.7895
  50   2.0000      -0.650629       -17.7045
  51   2.0000      -0.640436       -17.4272
  52   2.0000      -0.629498       -17.1295
  53   2.0000      -0.622880       -16.9494
  54   2.0000      -0.604405       -16.4467
  55   2.0000      -0.600040       -16.3279
  56   2.0000      -0.596548       -16.2329
  57   2.0000      -0.577978       -15.7276
  58   2.0000      -0.574411       -15.6305
  59   2.0000      -0.563276       -15.3275
  60   2.0000      -0.560261       -15.2455
  61   2.0000      -0.548919       -14.9368
  62   2.0000      -0.536714       -14.6047
  63   2.0000      -0.526427       -14.3248
  64   2.0000      -0.517540       -14.0830
  65   2.0000      -0.510698       -13.8968
  66   2.0000      -0.505035       -13.7427
  67   2.0000      -0.495262       -13.4768
  68   2.0000      -0.480946       -13.0872
  69   2.0000      -0.463016       -12.5993
  70   2.0000      -0.461864       -12.5680
  71   2.0000      -0.452024       -12.3002
  72   2.0000      -0.354308        -9.6412
  73   2.0000      -0.345908        -9.4126
  74   2.0000      -0.328180        -8.9302
  75   2.0000      -0.318341        -8.6625
  76   2.0000      -0.315937        -8.5971
  77   0.0000       0.072552         1.9742
  78   0.0000       0.109310         2.9745
  79   0.0000       0.119826         3.2606
  80   0.0000       0.134668         3.6645
  81   0.0000       0.137860         3.7514

MULLIKEN ATOMIC CHARGES
-----------------------
   0 C :   -0.266040
   1 C :    0.032074
   2 O :   -0.365008
   3 C :    0.460284
   4 O :   -0.401082
   5 C :   -0.206535
   6 C :    0.153556
   7 C :   -0.282756
   8 N :   -0.127861
   9 C :    0.206831
  10 S :   -0.440569
  11 N :   -0.210716
  12 C :    0.041299
  13 C :    0.033731
  14 C :   -0.171702
  15 C :   -0.133720
  16 C :   -0.277442
  17 C :    0.313506
  18 O :   -0.359059
  19 C :   -0.253986
  20 H :    0.103180
  21 H :    0.090447
  22 H :    0.092752
  23 H :    0.089776
  24 H :    0.112461
  25 H :    0.128939
  26 H :    0.104142
  27 H :    0.123786
  28 H :    0.199001
  29 H :    0.199900
  30 H :    0.156220
  31 H :    0.160721
  32 H :    0.160727
  33 H :    0.128723
  34 H :    0.240254
  35 H :    0.164167
Sum of atomic charges:   -0.0000000

LOEWDIN ATOMIC CHARGES
----------------------
   0 C :    0.109070
   1 C :   -0.020779
   2 O :    0.300449
   3 C :   -0.419989
   4 O :    0.118861
   5 C :   -0.096374
   6 C :   -0.064379
   7 C :    0.125733
   8 N :    0.405878
   9 C :   -0.458360
  10 S :   -0.036281
  11 N :    0.396234
  12 C :   -0.048571
  13 C :   -0.041077
  14 C :    0.024773
  15 C :    0.041400
  16 C :   -0.001155
  17 C :   -0.192977
  18 O :    0.392982
  19 C :    0.028532
  20 H :   -0.023467
  21 H :   -0.030192
  22 H :   -0.024168
  23 H :   -0.033733
  24 H :   -0.025468
  25 H :   -0.007562
  26 H :   -0.020667
  27 H :   -0.010657
  28 H :   -0.058373
  29 H :   -0.063215
  30 H :   -0.007653
  31 H :   -0.023556
  32 H :   -0.020690
  33 H :   -0.035987
  34 H :   -0.154574
  35 H :   -0.024008

  Mayer bond orders larger than 0.100000
B(  0-C ,  1-C ) :   0.9768 B(  0-C , 20-H ) :   0.9770 B(  0-C , 21-H ) :   0.9794
B(  0-C , 22-H ) :   0.9760 B(  1-C ,  2-O ) :   0.8989 B(  1-C , 23-H ) :   0.9714
B(  1-C , 24-H ) :   0.9767 B(  2-O ,  3-C ) :   1.0829 B(  3-C ,  4-O ) :   2.0313
B(  3-C ,  5-C ) :   1.0328 B(  5-C ,  6-C ) :   1.6584 B(  5-C , 12-C ) :   0.9506
B(  6-C ,  7-C ) :   0.9534 B(  6-C ,  8-N ) :   1.1396 B(  7-C , 25-H ) :   0.9651
B(  7-C , 26-H ) :   0.9903 B(  7-C , 27-H ) :   0.9651 B(  8-N ,  9-C ) :   1.1837
B(  8-N , 28-H ) :   0.9469 B(  9-C , 10-S ) :   1.6105 B(  9-C , 11-N ) :   1.3055
B( 11-N , 12-C ) :   0.9775 B( 11-N , 29-H ) :   0.9485 B( 12-C , 13-C ) :   0.9718
B( 12-C , 30-H ) :   0.9963 B( 13-C , 14-C ) :   1.3785 B( 13-C , 19-C ) :   1.3631
B( 14-C , 15-C ) :   1.3974 B( 14-C , 31-H ) :   0.9630 B( 15-C , 16-C ) :   1.3591
B( 15-C , 32-H ) :   0.9709 B( 16-C , 17-C ) :   1.3331 B( 16-C , 33-H ) :   0.9858
B( 17-C , 18-O ) :   1.1040 B( 17-C , 19-C ) :   1.3676 B( 18-O , 34-H ) :   0.9804
B( 19-C , 35-H ) :   0.9602

MP2 TOTAL ENERGY:    -1274.330122924 Eh
FINAL SINGLE POINT ENERGY     -1274.330122924352

DIPOLE MOMENT
-------------
                                X             Y             Z
Electronic contribution:     10.54456       9.53472      11.19894
Nuclear contribution   :    -12.02392     -10.81278     -11.93153
                        -----------------------------------------
Total Dipole Moment    :     -1.47936      -1.27806      -0.73258
                        -----------------------------------------
Magnitude (a.u.)       :      2.08773
Magnitude (Debye)      :      5.30659

Rotational constants in cm-1:     0.009653     0.009259     0.005681
Rotational constants in MHz :   289.398204   277.577333   170.314348

                             ****ORCA TERMINATED NORMALLY****
TOTAL RUN TIME: 0 days 1 hours 40 minutes 11 seconds 115 msec
