                         Program Version 4.2.0 -  RELEASE  -
|  1> ! ri-mp2 cc-pvtz cc-pvtz/c TightSCF NoKeepInts
|  2>
|  3> %scf
|  4>   MaxCore 4096
|  5> end
|  6> *xyz  0  1
|  7>     C       15.5005707   13.8891741   15.7400436
|  8>     C       15.2719680   15.3143916   15.2100142
|  9>     O       16.5175194   16.0233311   15.2889639
| 10>     C       16.4509815   17.3784032   15.1583887
| 11>     O       15.9708396   17.8829473   14.1588258
| 12>     C       16.8401015   18.1019049   16.4209596
| 13>     C       16.9370912   19.4589650   16.3641676
| 14>     C       16.2832556   20.4063747   15.3784983
| 15>     N       17.7046499   20.1455611   17.3086837
| 16>     C       18.6464272   19.5651828   18.1121429
| 17>     S       19.6502778   20.4586644   19.0763184
| 18>     N       18.7393003   18.2000739   18.0446381
| 19>     C       17.7763070   17.3173316   17.3606021
| 20>     C       16.9931656   16.5649572   18.4299985
| 21>     C       17.3070866   15.2238026   18.7170368
| 22>     C       16.5986056   14.5184028   19.7042960
| 23>     C       15.5701725   15.1609812   20.4142626
| 24>     C       15.2608887   16.4997535   20.1377885
| 25>     O       14.2712662   17.1244182   20.8243221
| 26>     C       15.9675480   17.1990486   19.1545000
| 27>     H       16.2952964   13.3882637   15.1733956
| 28>     H       14.5842646   13.2940097   15.6455506
| 29>     H       15.7852622   13.9084101   16.7979396
| 30>     H       14.9185537   15.2848954   14.1703430
| 31>     H       14.5083175   15.8104872   15.8246967
| 32>     H       15.2366673   20.1259771   15.2041249
| 33>     H       16.7986751   20.3731030   14.4099381
| 34>     H       16.2847845   21.4474952   15.7220960
| 35>     H       17.6752254   21.1522691   17.3371709
| 36>     H       19.4313880   17.7971088   18.6631748
| 37>     H       18.3793053   16.6179672   16.7639225
| 38>     H       18.1013388   14.7244478   18.1682425
| 39>     H       16.8481400   13.4803334   19.9175409
| 40>     H       15.0207059   14.6208898   21.1783479
| 41>     H       13.9407234   16.5024621   21.4899219
| 42>     H       15.7203287   18.2382108   18.9671425
| 43> *
| 44>
| 45>                          ****END OF INPUT****

CARTESIAN COORDINATES (ANGSTROEM)
---------------------------------
  C     15.500571   13.889174   15.740044
  C     15.271968   15.314392   15.210014
  O     16.517519   16.023331   15.288964
  C     16.450982   17.378403   15.158389
  O     15.970840   17.882947   14.158826
  C     16.840101   18.101905   16.420960
  C     16.937091   19.458965   16.364168
  C     16.283256   20.406375   15.378498
  N     17.704650   20.145561   17.308684
  C     18.646427   19.565183   18.112143
  S     19.650278   20.458664   19.076318
  N     18.739300   18.200074   18.044638
  C     17.776307   17.317332   17.360602
  C     16.993166   16.564957   18.429998
  C     17.307087   15.223803   18.717037
  C     16.598606   14.518403   19.704296
  C     15.570172   15.160981   20.414263
  C     15.260889   16.499754   20.137788
  O     14.271266   17.124418   20.824322
  C     15.967548   17.199049   19.154500
  H     16.295296   13.388264   15.173396
  H     14.584265   13.294010   15.645551
  H     15.785262   13.908410   16.797940
  H     14.918554   15.284895   14.170343
  H     14.508317   15.810487   15.824697
  H     15.236667   20.125977   15.204125
  H     16.798675   20.373103   14.409938
  H     16.284785   21.447495   15.722096
  H     17.675225   21.152269   17.337171
  H     19.431388   17.797109   18.663175
  H     18.379305   16.617967   16.763922
  H     18.101339   14.724448   18.168243
  H     16.848140   13.480333   19.917541
  H     15.020706   14.620890   21.178348
  H     13.940723   16.502462   21.489922
  H     15.720329   18.238211   18.967143

 Total Charge           Charge          ....    0
 Multiplicity           Mult            ....    1
 Number of Electrons    NEL             ....  154
 Basis Dimension        Dim             ....  828

ORBITAL ENERGIES
----------------

  NO   OCC          E(Eh)            E(eV)
   0   2.0000     -91.891181     -2500.4862
   1   2.0000     -20.598945      -560.5258
   2   2.0000     -20.585778      -560.1675
   3   2.0000     -20.544715      -559.0501
   4   2.0000     -15.632416      -425.3797
   5   2.0000     -15.608594      -424.7314
   6   2.0000     -11.390909      -309.9624
   7   2.0000     -11.385250      -309.8084
   8   2.0000     -11.342653      -308.6493
   9   2.0000     -11.316347      -307.9335
  10   2.0000     -11.310872      -307.7845
  11   2.0000     -11.296642      -307.3973
  12   2.0000     -11.261840      -306.4502
  13   2.0000     -11.257671      -306.3368
  14   2.0000     -11.257564      -306.3339
  15   2.0000     -11.254935      -306.2623
  16   2.0000     -11.245285      -305.9998
  17   2.0000     -11.240500      -305.8696
  18   2.0000     -11.240088      -305.8583
  19   2.0000     -11.226149      -305.4790
  20   2.0000      -8.896204      -242.0780
  21   2.0000      -6.577768      -178.9902
  22   2.0000      -6.575775      -178.9359
  23   2.0000      -6.575177      -178.9197
  24   2.0000      -1.449899       -39.4537
  25   2.0000      -1.418546       -38.6006
  26   2.0000      -1.353277       -36.8245
  27   2.0000      -1.344344       -36.5815
  28   2.0000      -1.241665       -33.7874
  29   2.0000      -1.159770       -31.5589
  30   2.0000      -1.123003       -30.5585
  31   2.0000      -1.044617       -28.4255
  32   2.0000      -1.036197       -28.1963
  33   2.0000      -1.017632       -27.6912
  34   2.0000      -0.999135       -27.1878
  35   2.0000      -0.986404       -26.8414
  36   2.0000      -0.925062       -25.1722
  37   2.0000      -0.881063       -23.9749
  38   2.0000      -0.849979       -23.1291
  39   2.0000      -0.839901       -22.8549
  40   2.0000      -0.835925       -22.7467
  41   2.0000      -0.823617       -22.4118
  42   2.0000      -0.763647       -20.7799
  43   2.0000      -0.733328       -19.9549
  44   2.0000      -0.722579       -19.6624
  45   2.0000      -0.699104       -19.0236
  46   2.0000      -0.690444       -18.7879
  47   2.0000      -0.678340       -18.4586
  48   2.0000      -0.673637       -18.3306
  49   2.0000      -0.660836       -17.9823
  50   2.0000      -0.648895       -17.6573
  51   2.0000      -0.643793       -17.5185
  52   2.0000      -0.631036       -17.1714
  53   2.0000      -0.610463       -16.6115
  54   2.0000      -0.609875       -16.5955
  55   2.0000      -0.603485       -16.4217
  56   2.0000      -0.601634       -16.3713
  57   2.0000      -0.580107       -15.7855
  58   2.0000      -0.572905       -15.5895
  59   2.0000      -0.565581       -15.3903
  60   2.0000      -0.553122       -15.0512
  61   2.0000      -0.543236       -14.7822
  62   2.0000      -0.541052       -14.7228
  63   2.0000      -0.526311       -14.3217
  64   2.0000      -0.517634       -14.0855
  65   2.0000      -0.512923       -13.9573
  66   2.0000      -0.507904       -13.8208
  67   2.0000      -0.499729       -13.5983
  68   2.0000      -0.486262       -13.2319
  69   2.0000      -0.463749       -12.6193
  70   2.0000      -0.456873       -12.4321
  71   2.0000      -0.443580       -12.0704
  72   2.0000      -0.359236        -9.7753
  73   2.0000      -0.351968        -9.5775
  74   2.0000      -0.330337        -8.9889
  75   2.0000      -0.324070        -8.8184
  76   2.0000      -0.318869        -8.6769
  77   0.0000       0.069102         1.8804
  78   0.0000       0.103515         2.8168
  79   0.0000       0.123786         3.3684
  80   0.0000       0.130897         3.5619
  81   0.0000       0.134540         3.6610

MULLIKEN ATOMIC CHARGES
-----------------------
   0 C :   -0.279971
   1 C :    0.042426
   2 O :   -0.368414
   3 C :    0.453784
   4 O :   -0.410106
   5 C :   -0.254482
   6 C :    0.169323
   7 C :   -0.264743
   8 N :   -0.124053
   9 C :    0.206403
  10 S :   -0.436714
  11 N :   -0.207473
  12 C :    0.053935
  13 C :    0.082570
  14 C :   -0.226084
  15 C :   -0.116669
  16 C :   -0.281371
  17 C :    0.315085
  18 O :   -0.356764
  19 C :   -0.261146
  20 H :    0.097462
  21 H :    0.094617
  22 H :    0.104513
  23 H :    0.114408
  24 H :    0.082373
  25 H :    0.131152
  26 H :    0.134243
  27 H :    0.094872
  28 H :    0.200476
  29 H :    0.195598
  30 H :    0.155602
  31 H :    0.158269
  32 H :    0.164135
  33 H :    0.131602
  34 H :    0.241424
  35 H :    0.163717
Sum of atomic charges:   -0.0000000

LOEWDIN ATOMIC CHARGES
----------------------
   0 C :    0.109582
   1 C :   -0.021254
   2 O :    0.293238
   3 C :   -0.423012
   4 O :    0.110243
   5 C :   -0.102792
   6 C :   -0.046724
   7 C :    0.131838
   8 N :    0.409460
   9 C :   -0.458974
  10 S :   -0.031808
  11 N :    0.395886
  12 C :   -0.051628
  13 C :   -0.038220
  14 C :    0.012316
  15 C :    0.041026
  16 C :   -0.001533
  17 C :   -0.189044
  18 O :    0.395478
  19 C :    0.031659
  20 H :   -0.027248
  21 H :   -0.025220
  22 H :   -0.029180
  23 H :   -0.028181
  24 H :   -0.031807
  25 H :   -0.004262
  26 H :   -0.003247
  27 H :   -0.022690
  28 H :   -0.056706
  29 H :   -0.064788
  30 H :   -0.008563
  31 H :   -0.030109
  32 H :   -0.020732
  33 H :   -0.035052
  34 H :   -0.153304
  35 H :   -0.024649

  Mayer bond orders larger than 0.100000
B(  0-C ,  1-C ) :   0.9745 B(  0-C , 20-H ) :   0.9769 B(  0-C , 21-H ) :   0.9784
B(  0-C , 22-H ) :   0.9730 B(  1-C ,  2-O ) :   0.8984 B(  1-C , 23-H ) :   0.9824
B(  1-C , 24-H ) :   0.9692 B(  2-O ,  3-C ) :   1.0912 B(  3-C ,  4-O ) :   2.0227
B(  3-C ,  5-C ) :   1.0734 B(  5-C ,  6-C ) :   1.6083 B(  5-C , 12-C ) :   0.9606
B(  6-C ,  7-C ) :   0.9733 B(  6-C ,  8-N ) :   1.1459 B(  7-C , 25-H ) :   0.9638
B(  7-C , 26-H ) :   0.9537 B(  7-C , 27-H ) :   0.9881 B(  8-N ,  9-C ) :   1.1832
B(  8-N , 28-H ) :   0.9470 B(  9-C , 10-S ) :   1.6118 B(  9-C , 11-N ) :   1.3090
B( 11-N , 12-C ) :   0.9593 B( 11-N , 29-H ) :   0.9526 B( 12-C , 13-C ) :   0.9590
B( 12-C , 30-H ) :   0.9979 B( 13-C , 14-C ) :   1.3416 B( 13-C , 19-C ) :   1.3785
B( 14-C , 15-C ) :   1.3781 B( 14-C , 31-H ) :   0.9711 B( 15-C , 16-C ) :   1.3683
B( 15-C , 32-H ) :   0.9693 B( 16-C , 17-C ) :   1.3266 B( 16-C , 33-H ) :   0.9848
B( 17-C , 18-O ) :   1.1073 B( 17-C , 19-C ) :   1.3748 B( 18-O , 34-H ) :   0.9793
B( 19-C , 35-H ) :   0.9579

MP2 TOTAL ENERGY:    -1274.330763667 Eh
FINAL SINGLE POINT ENERGY     -1274.330763666796

DIPOLE MOMENT
-------------
                                X             Y             Z
Electronic contribution:      8.50854      11.29314       6.07842
Nuclear contribution   :     -9.74623     -12.70825      -5.94938
                        -----------------------------------------
Total Dipole Moment    :     -1.23768      -1.41511       0.12904
                        -----------------------------------------
Magnitude (a.u.)       :      1.88442
Magnitude (Debye)      :      4.78982

Rotational constants in cm-1:     0.011358     0.009010     0.006201
Rotational constants in MHz :   340.510412   270.118692   185.916159

                             ****ORCA TERMINATED NORMALLY****
TOTAL RUN TIME: 0 days 1 hours 42 minutes 21 seconds 693 msec
