                         Program Version 4.2.0 -  RELEASE  -
|  1> ! ri-mp2 cc-pvtz cc-pvtz/c TightSCF NoKeepInts
|  2>
|  3> %scf
|  4>   MaxCore 4096
|  5> end
|  6> *xyz  0  1
|  7>     C       14.6035064   14.6591794   14.7403388
|  8>     C       14.9971800   15.9604225   14.0048425
|  9>     O       15.6155461   16.9421037   14.8708194
| 10>     C       16.5744362   16.6607959   15.8065123
| 11>     O       17.1135564   15.5715931   15.9039905
| 12>     C       16.9434994   17.8135247   16.7018427
| 13>     C       16.7918731   19.1179549   16.3453141
| 14>     C       16.0400527   19.6864691   15.1572692
| 15>     N       17.3938725   20.1354417   17.0906167
| 16>     C       18.3307173   19.9331816   18.0672244
| 17>     S       19.0808052   21.1935120   18.8318410
| 18>     N       18.6302431   18.6281442   18.3624806
| 19>     C       17.9259898   17.4487369   17.8238188
| 20>     C       17.3122695   16.5741633   18.9095798
| 21>     C       17.6398342   15.2094546   19.0024653
| 22>     C       17.0743462   14.4053002   20.0062312
| 23>     C       16.1749128   14.9712777   20.9260378
| 24>     C       15.8455596   16.3307050   20.8347075
| 25>     O       14.9744914   16.8788017   21.7191515
| 26>     C       16.4096967   17.1283572   19.8340043
| 27>     H       15.4709912   14.0094814   14.9076210
| 28>     H       13.8834427   14.0898129   14.1405068
| 29>     H       14.1380311   14.8811534   15.7087607
| 30>     H       15.6866789   15.7062322   13.1890794
| 31>     H       14.1007914   16.4052429   13.5540991
| 32>     H       16.4504735   19.3008348   14.2157415
| 33>     H       16.0897397   20.7808890   15.1044521
| 34>     H       14.9783062   19.4137429   15.2038608
| 35>     H       17.2000124   21.0993065   16.8713725
| 36>     H       19.3073247   18.5047762   19.1046543
| 37>     H       18.7619641   16.9289478   17.3334656
| 38>     H       18.3233215   14.7680534   18.2809518
| 39>     H       17.3298218   13.3488028   20.0635997
| 40>     H       15.7346454   14.3535177   21.7015343
| 41>     H       14.7136296   16.1809328   22.3385284
| 42>     H       16.1454371   18.1791539   19.7806835
| 43> *
| 44>
| 45>                          ****END OF INPUT****

CARTESIAN COORDINATES (ANGSTROEM)
---------------------------------
  C     14.603506   14.659179   14.740339
  C     14.997180   15.960422   14.004843
  O     15.615546   16.942104   14.870819
  C     16.574436   16.660796   15.806512
  O     17.113556   15.571593   15.903991
  C     16.943499   17.813525   16.701843
  C     16.791873   19.117955   16.345314
  C     16.040053   19.686469   15.157269
  N     17.393873   20.135442   17.090617
  C     18.330717   19.933182   18.067224
  S     19.080805   21.193512   18.831841
  N     18.630243   18.628144   18.362481
  C     17.925990   17.448737   17.823819
  C     17.312269   16.574163   18.909580
  C     17.639834   15.209455   19.002465
  C     17.074346   14.405300   20.006231
  C     16.174913   14.971278   20.926038
  C     15.845560   16.330705   20.834708
  O     14.974491   16.878802   21.719151
  C     16.409697   17.128357   19.834004
  H     15.470991   14.009481   14.907621
  H     13.883443   14.089813   14.140507
  H     14.138031   14.881153   15.708761
  H     15.686679   15.706232   13.189079
  H     14.100791   16.405243   13.554099
  H     16.450474   19.300835   14.215742
  H     16.089740   20.780889   15.104452
  H     14.978306   19.413743   15.203861
  H     17.200012   21.099307   16.871372
  H     19.307325   18.504776   19.104654
  H     18.761964   16.928948   17.333466
  H     18.323321   14.768053   18.280952
  H     17.329822   13.348803   20.063600
  H     15.734645   14.353518   21.701534
  H     14.713630   16.180933   22.338528
  H     16.145437   18.179154   19.780683

 Total Charge           Charge          ....    0
 Multiplicity           Mult            ....    1
 Number of Electrons    NEL             ....  154
 Basis Dimension        Dim             ....  828

ORBITAL ENERGIES
----------------

  NO   OCC          E(Eh)            E(eV)
   0   2.0000     -91.887140     -2500.3762
   1   2.0000     -20.602371      -560.6190
   2   2.0000     -20.591015      -560.3100
   3   2.0000     -20.544050      -559.0320
   4   2.0000     -15.627471      -425.2451
   5   2.0000     -15.604870      -424.6301
   6   2.0000     -11.397989      -310.1551
   7   2.0000     -11.381542      -309.7075
   8   2.0000     -11.337275      -308.5029
   9   2.0000     -11.306960      -307.6780
  10   2.0000     -11.305574      -307.6403
  11   2.0000     -11.303288      -307.5781
  12   2.0000     -11.261036      -306.4284
  13   2.0000     -11.258001      -306.3458
  14   2.0000     -11.254156      -306.2412
  15   2.0000     -11.247063      -306.0481
  16   2.0000     -11.237269      -305.7816
  17   2.0000     -11.233347      -305.6749
  18   2.0000     -11.230115      -305.5870
  19   2.0000     -11.224745      -305.4408
  20   2.0000      -8.892233      -241.9699
  21   2.0000      -6.573813      -178.8826
  22   2.0000      -6.571808      -178.8280
  23   2.0000      -6.571222      -178.8121
  24   2.0000      -1.449199       -39.4347
  25   2.0000      -1.410763       -38.3888
  26   2.0000      -1.356854       -36.9219
  27   2.0000      -1.339033       -36.4370
  28   2.0000      -1.236258       -33.6403
  29   2.0000      -1.151460       -31.3328
  30   2.0000      -1.119315       -30.4581
  31   2.0000      -1.041742       -28.3472
  32   2.0000      -1.033735       -28.1293
  33   2.0000      -1.009034       -27.4572
  34   2.0000      -0.997542       -27.1445
  35   2.0000      -0.982250       -26.7284
  36   2.0000      -0.920289       -25.0423
  37   2.0000      -0.896542       -24.3961
  38   2.0000      -0.847304       -23.0563
  39   2.0000      -0.834445       -22.7064
  40   2.0000      -0.827266       -22.5110
  41   2.0000      -0.816730       -22.2244
  42   2.0000      -0.745943       -20.2981
  43   2.0000      -0.732507       -19.9325
  44   2.0000      -0.725119       -19.7315
  45   2.0000      -0.689106       -18.7515
  46   2.0000      -0.684678       -18.6310
  47   2.0000      -0.678685       -18.4680
  48   2.0000      -0.670011       -18.2319
  49   2.0000      -0.659049       -17.9336
  50   2.0000      -0.649727       -17.6800
  51   2.0000      -0.642566       -17.4851
  52   2.0000      -0.630325       -17.1520
  53   2.0000      -0.612812       -16.6755
  54   2.0000      -0.602280       -16.3889
  55   2.0000      -0.597424       -16.2567
  56   2.0000      -0.594336       -16.1727
  57   2.0000      -0.578346       -15.7376
  58   2.0000      -0.572965       -15.5912
  59   2.0000      -0.566229       -15.4079
  60   2.0000      -0.558140       -15.1878
  61   2.0000      -0.543573       -14.7914
  62   2.0000      -0.537926       -14.6377
  63   2.0000      -0.524059       -14.2604
  64   2.0000      -0.514176       -13.9914
  65   2.0000      -0.510210       -13.8835
  66   2.0000      -0.500245       -13.6123
  67   2.0000      -0.493357       -13.4249
  68   2.0000      -0.479787       -13.0557
  69   2.0000      -0.464406       -12.6371
  70   2.0000      -0.455345       -12.3906
  71   2.0000      -0.448010       -12.1910
  72   2.0000      -0.352139        -9.5822
  73   2.0000      -0.343791        -9.3550
  74   2.0000      -0.326283        -8.8786
  75   2.0000      -0.316264        -8.6060
  76   2.0000      -0.313540        -8.5319
  77   0.0000       0.078548         2.1374
  78   0.0000       0.112543         3.0625
  79   0.0000       0.122054         3.3213
  80   0.0000       0.136555         3.7159
  81   0.0000       0.141215         3.8427

MULLIKEN ATOMIC CHARGES
-----------------------
   0 C :   -0.303329
   1 C :    0.046897
   2 O :   -0.350260
   3 C :    0.429969
   4 O :   -0.428447
   5 C :   -0.177773
   6 C :    0.163212
   7 C :   -0.279674
   8 N :   -0.128681
   9 C :    0.207492
  10 S :   -0.444004
  11 N :   -0.210846
  12 C :    0.044400
  13 C :    0.031365
  14 C :   -0.166867
  15 C :   -0.134395
  16 C :   -0.277077
  17 C :    0.314644
  18 O :   -0.359130
  19 C :   -0.251976
  20 H :    0.128251
  21 H :    0.095101
  22 H :    0.099591
  23 H :    0.090313
  24 H :    0.103063
  25 H :    0.124059
  26 H :    0.101691
  27 H :    0.129435
  28 H :    0.198657
  29 H :    0.199843
  30 H :    0.155486
  31 H :    0.158464
  32 H :    0.159514
  33 H :    0.127968
  34 H :    0.239796
  35 H :    0.163245
Sum of atomic charges:   -0.0000000

LOEWDIN ATOMIC CHARGES
----------------------
   0 C :    0.104871
   1 C :   -0.010717
   2 O :    0.297229
   3 C :   -0.413701
   4 O :    0.108914
   5 C :   -0.090305
   6 C :   -0.063779
   7 C :    0.124241
   8 N :    0.405220
   9 C :   -0.459081
  10 S :   -0.038834
  11 N :    0.396709
  12 C :   -0.048324
  13 C :   -0.040396
  14 C :    0.024809
  15 C :    0.040647
  16 C :   -0.001274
  17 C :   -0.192501
  18 O :    0.393032
  19 C :    0.029817
  20 H :   -0.024957
  21 H :   -0.028200
  22 H :   -0.026066
  23 H :   -0.030051
  24 H :   -0.024819
  25 H :   -0.009822
  26 H :   -0.021694
  27 H :   -0.009378
  28 H :   -0.059023
  29 H :   -0.063059
  30 H :   -0.008906
  31 H :   -0.024220
  32 H :   -0.021254
  33 H :   -0.036276
  34 H :   -0.154995
  35 H :   -0.023856

  Mayer bond orders larger than 0.100000
B(  0-C ,  1-C ) :   0.9655 B(  0-C , 20-H ) :   0.9719 B(  0-C , 21-H ) :   0.9763
B(  0-C , 22-H ) :   0.9751 B(  1-C ,  2-O ) :   0.9015 B(  1-C , 23-H ) :   0.9805
B(  1-C , 24-H ) :   0.9830 B(  2-O ,  3-C ) :   1.1560 B(  3-C ,  4-O ) :   1.9704
B(  3-C ,  5-C ) :   1.0469 B(  5-C ,  6-C ) :   1.6534 B(  5-C , 12-C ) :   0.9520
B(  6-C ,  7-C ) :   0.9534 B(  6-C ,  8-N ) :   1.1366 B(  7-C , 25-H ) :   0.9653
B(  7-C , 26-H ) :   0.9919 B(  7-C , 27-H ) :   0.9635 B(  8-N ,  9-C ) :   1.1859
B(  8-N , 28-H ) :   0.9470 B(  9-C , 10-S ) :   1.6064 B(  9-C , 11-N ) :   1.3072
B( 11-N , 12-C ) :   0.9769 B( 11-N , 29-H ) :   0.9486 B( 12-C , 13-C ) :   0.9726
B( 12-C , 30-H ) :   0.9980 B( 13-C , 14-C ) :   1.3755 B( 13-C , 19-C ) :   1.3672
B( 14-C , 15-C ) :   1.3972 B( 14-C , 31-H ) :   0.9639 B( 15-C , 16-C ) :   1.3586
B( 15-C , 32-H ) :   0.9713 B( 16-C , 17-C ) :   1.3335 B( 16-C , 33-H ) :   0.9861
B( 17-C , 18-O ) :   1.1031 B( 17-C , 19-C ) :   1.3672 B( 18-O , 34-H ) :   0.9808
B( 19-C , 35-H ) :   0.9601

MP2 TOTAL ENERGY:    -1274.336267155 Eh
FINAL SINGLE POINT ENERGY     -1274.336267154534

DIPOLE MOMENT
-------------
                                X             Y             Z
Electronic contribution:      9.59573      10.21924      10.84951
Nuclear contribution   :    -11.10791     -11.43442     -12.04094
                        -----------------------------------------
Total Dipole Moment    :     -1.51218      -1.21518      -1.19143
                        -----------------------------------------
Magnitude (a.u.)       :      2.27659
Magnitude (Debye)      :      5.78664

Rotational constants in cm-1:     0.009917     0.009201     0.005565
Rotational constants in MHz :   297.294462   275.844989   166.831218

                             ****ORCA TERMINATED NORMALLY****
TOTAL RUN TIME: 0 days 1 hours 34 minutes 48 seconds 800 msec
