                         Program Version 4.2.0 -  RELEASE  -
|  1> ! ri-mp2 cc-pvtz cc-pvtz/c TightSCF NoKeepInts
|  2>
|  3> %scf
|  4>   MaxCore 4096
|  5> end
|  6> *xyz  0  1
|  7>     C       14.6754782   14.9514414   15.5595616
|  8>     C       15.0129170   15.8560014   14.3506887
|  9>     O       15.9669441   16.8952694   14.6707573
| 10>     C       16.9493696   16.7272837   15.6041250
| 11>     O       17.5943103   15.6957863   15.6914759
| 12>     C       17.0945351   17.8612032   16.5775350
| 13>     C       16.8534632   19.1559614   16.2427009
| 14>     C       16.2091520   19.6850140   14.9765900
| 15>     N       17.2525714   20.1957628   17.0864185
| 16>     C       18.0784338   20.0429506   18.1674512
| 17>     S       18.5939917   21.3356684   19.0610996
| 18>     N       18.4729374   18.7614635   18.4579739
| 19>     C       17.9674416   17.5426641   17.7968007
| 20>     C       17.3134957   16.5603286   18.7596240
| 21>     C       17.7472934   15.2240275   18.8249046
| 22>     C       17.1372161   14.3167908   19.7072550
| 23>     C       16.0846750   14.7499622   20.5317706
| 24>     C       15.6486605   16.0805407   20.4667039
| 25>     O       14.6286040   16.4998921   21.2571769
| 26>     C       16.2574088   16.9809672   19.5866338
| 27>     H       15.5088489   14.2846734   15.8130582
| 28>     H       13.8114419   14.3177248   15.3263555
| 29>     H       14.4251742   15.5517084   16.4434728
| 30>     H       15.4236482   15.2247003   13.5516835
| 31>     H       14.0940083   16.3187490   13.9685890
| 32>     H       15.1621551   19.3639990   14.9110982
| 33>     H       16.7339692   19.3135827   14.0873618
| 34>     H       16.2191109   20.7802979   14.9193445
| 35>     H       16.9895903   21.1445710   16.8731794
| 36>     H       19.0648989   18.6736153   19.2743126
| 37>     H       18.9048631   17.1291815   17.3968554
| 38>     H       18.5501702   14.8846120   18.1744977
| 39>     H       17.4775104   13.2834927   19.7443807
| 40>     H       15.6097013   14.0521936   21.2132943
| 41>     H       14.3656292   15.7507107   21.8125287
| 42>     H       15.9073810   18.0072084   19.5507404
| 43> *
| 44>
| 45>                          ****END OF INPUT****

CARTESIAN COORDINATES (ANGSTROEM)
---------------------------------
  C     14.675478   14.951441   15.559562
  C     15.012917   15.856001   14.350689
  O     15.966944   16.895269   14.670757
  C     16.949370   16.727284   15.604125
  O     17.594310   15.695786   15.691476
  C     17.094535   17.861203   16.577535
  C     16.853463   19.155961   16.242701
  C     16.209152   19.685014   14.976590
  N     17.252571   20.195763   17.086419
  C     18.078434   20.042951   18.167451
  S     18.593992   21.335668   19.061100
  N     18.472937   18.761464   18.457974
  C     17.967442   17.542664   17.796801
  C     17.313496   16.560329   18.759624
  C     17.747293   15.224027   18.824905
  C     17.137216   14.316791   19.707255
  C     16.084675   14.749962   20.531771
  C     15.648660   16.080541   20.466704
  O     14.628604   16.499892   21.257177
  C     16.257409   16.980967   19.586634
  H     15.508849   14.284673   15.813058
  H     13.811442   14.317725   15.326355
  H     14.425174   15.551708   16.443473
  H     15.423648   15.224700   13.551683
  H     14.094008   16.318749   13.968589
  H     15.162155   19.363999   14.911098
  H     16.733969   19.313583   14.087362
  H     16.219111   20.780298   14.919344
  H     16.989590   21.144571   16.873179
  H     19.064899   18.673615   19.274313
  H     18.904863   17.129181   17.396855
  H     18.550170   14.884612   18.174498
  H     17.477510   13.283493   19.744381
  H     15.609701   14.052194   21.213294
  H     14.365629   15.750711   21.812529
  H     15.907381   18.007208   19.550740

 Total Charge           Charge          ....    0
 Multiplicity           Mult            ....    1
 Number of Electrons    NEL             ....  154
 Basis Dimension        Dim             ....  828

ORBITAL ENERGIES
----------------

  NO   OCC          E(Eh)            E(eV)
   0   2.0000     -91.888123     -2500.4029
   1   2.0000     -20.593362      -560.3739
   2   2.0000     -20.593300      -560.3722
   3   2.0000     -20.547184      -559.1173
   4   2.0000     -15.628483      -425.2726
   5   2.0000     -15.605955      -424.6596
   6   2.0000     -11.395698      -310.0927
   7   2.0000     -11.382802      -309.7418
   8   2.0000     -11.337433      -308.5072
   9   2.0000     -11.309448      -307.7457
  10   2.0000     -11.304968      -307.6238
  11   2.0000     -11.304394      -307.6082
  12   2.0000     -11.259798      -306.3947
  13   2.0000     -11.258555      -306.3608
  14   2.0000     -11.256398      -306.3022
  15   2.0000     -11.249475      -306.1138
  16   2.0000     -11.239619      -305.8456
  17   2.0000     -11.235689      -305.7386
  18   2.0000     -11.232310      -305.6467
  19   2.0000     -11.227284      -305.5099
  20   2.0000      -8.893206      -241.9964
  21   2.0000      -6.574784      -178.9090
  22   2.0000      -6.572781      -178.8545
  23   2.0000      -6.572193      -178.8385
  24   2.0000      -1.448494       -39.4155
  25   2.0000      -1.413066       -38.4515
  26   2.0000      -1.355384       -36.8819
  27   2.0000      -1.339711       -36.4554
  28   2.0000      -1.237024       -33.6611
  29   2.0000      -1.153779       -31.3959
  30   2.0000      -1.120840       -30.4996
  31   2.0000      -1.042728       -28.3741
  32   2.0000      -1.032743       -28.1024
  33   2.0000      -1.011324       -27.5195
  34   2.0000      -0.999169       -27.1888
  35   2.0000      -0.984223       -26.7821
  36   2.0000      -0.921662       -25.0797
  37   2.0000      -0.897343       -24.4180
  38   2.0000      -0.847944       -23.0737
  39   2.0000      -0.836185       -22.7537
  40   2.0000      -0.829585       -22.5742
  41   2.0000      -0.817185       -22.2367
  42   2.0000      -0.744950       -20.2711
  43   2.0000      -0.732151       -19.9228
  44   2.0000      -0.726643       -19.7730
  45   2.0000      -0.691026       -18.8038
  46   2.0000      -0.685684       -18.6584
  47   2.0000      -0.677437       -18.4340
  48   2.0000      -0.670359       -18.2414
  49   2.0000      -0.660658       -17.9774
  50   2.0000      -0.651486       -17.7278
  51   2.0000      -0.644935       -17.5496
  52   2.0000      -0.632045       -17.1988
  53   2.0000      -0.619997       -16.8710
  54   2.0000      -0.603733       -16.4284
  55   2.0000      -0.599348       -16.3091
  56   2.0000      -0.596633       -16.2352
  57   2.0000      -0.577111       -15.7040
  58   2.0000      -0.574073       -15.6213
  59   2.0000      -0.563609       -15.3366
  60   2.0000      -0.553985       -15.0747
  61   2.0000      -0.546516       -14.8715
  62   2.0000      -0.537736       -14.6326
  63   2.0000      -0.527279       -14.3480
  64   2.0000      -0.516869       -14.0647
  65   2.0000      -0.509663       -13.8686
  66   2.0000      -0.499744       -13.5987
  67   2.0000      -0.494539       -13.4571
  68   2.0000      -0.479592       -13.0504
  69   2.0000      -0.463498       -12.6124
  70   2.0000      -0.457606       -12.4521
  71   2.0000      -0.449033       -12.2188
  72   2.0000      -0.352786        -9.5998
  73   2.0000      -0.345913        -9.4128
  74   2.0000      -0.327239        -8.9046
  75   2.0000      -0.317287        -8.6338
  76   2.0000      -0.316045        -8.6000
  77   0.0000       0.075715         2.0603
  78   0.0000       0.109202         2.9715
  79   0.0000       0.121368         3.3026
  80   0.0000       0.134480         3.6594
  81   0.0000       0.140585         3.8255

MULLIKEN ATOMIC CHARGES
-----------------------
   0 C :   -0.320372
   1 C :    0.055207
   2 O :   -0.370358
   3 C :    0.448071
   4 O :   -0.415890
   5 C :   -0.180379
   6 C :    0.150534
   7 C :   -0.279764
   8 N :   -0.127568
   9 C :    0.208373
  10 S :   -0.442258
  11 N :   -0.211841
  12 C :    0.043997
  13 C :    0.033757
  14 C :   -0.177819
  15 C :   -0.133396
  16 C :   -0.277726
  17 C :    0.315246
  18 O :   -0.358679
  19 C :   -0.255256
  20 H :    0.127735
  21 H :    0.102419
  22 H :    0.100927
  23 H :    0.098464
  24 H :    0.099579
  25 H :    0.126127
  26 H :    0.127438
  27 H :    0.101482
  28 H :    0.198676
  29 H :    0.199694
  30 H :    0.156402
  31 H :    0.162277
  32 H :    0.160851
  33 H :    0.129003
  34 H :    0.240146
  35 H :    0.164901
Sum of atomic charges:    0.0000000

LOEWDIN ATOMIC CHARGES
----------------------
   0 C :    0.105827
   1 C :   -0.011547
   2 O :    0.292436
   3 C :   -0.417044
   4 O :    0.112816
   5 C :   -0.093950
   6 C :   -0.065278
   7 C :    0.125654
   8 N :    0.405428
   9 C :   -0.458072
  10 S :   -0.037704
  11 N :    0.396290
  12 C :   -0.048267
  13 C :   -0.040943
  14 C :    0.024526
  15 C :    0.040680
  16 C :   -0.001234
  17 C :   -0.193002
  18 O :    0.393301
  19 C :    0.029144
  20 H :   -0.023711
  21 H :   -0.025458
  22 H :   -0.027031
  23 H :   -0.028566
  24 H :   -0.026249
  25 H :   -0.009799
  26 H :   -0.008187
  27 H :   -0.021230
  28 H :   -0.058663
  29 H :   -0.063433
  30 H :   -0.007899
  31 H :   -0.023689
  32 H :   -0.020839
  33 H :   -0.035977
  34 H :   -0.154646
  35 H :   -0.023682

  Mayer bond orders larger than 0.100000
B(  0-C ,  1-C ) :   0.9592 B(  0-C , 20-H ) :   0.9712 B(  0-C , 21-H ) :   0.9757
B(  0-C , 22-H ) :   0.9725 B(  1-C ,  2-O ) :   0.9048 B(  1-C , 23-H ) :   0.9836
B(  1-C , 24-H ) :   0.9819 B(  2-O ,  3-C ) :   1.0957 B(  3-C ,  4-O ) :   1.9998
B(  3-C ,  5-C ) :   1.0323 B(  5-C ,  6-C ) :   1.6623 B(  5-C , 12-C ) :   0.9463
B(  6-C ,  7-C ) :   0.9555 B(  6-C ,  8-N ) :   1.1402 B(  7-C , 25-H ) :   0.9644
B(  7-C , 26-H ) :   0.9651 B(  7-C , 27-H ) :   0.9903 B(  8-N ,  9-C ) :   1.1851
B(  8-N , 28-H ) :   0.9470 B(  9-C , 10-S ) :   1.6089 B(  9-C , 11-N ) :   1.3047
B( 11-N , 12-C ) :   0.9781 B( 11-N , 29-H ) :   0.9485 B( 12-C , 13-C ) :   0.9700
B( 12-C , 30-H ) :   0.9964 B( 13-C , 14-C ) :   1.3792 B( 13-C , 19-C ) :   1.3632
B( 14-C , 15-C ) :   1.3960 B( 14-C , 31-H ) :   0.9623 B( 15-C , 16-C ) :   1.3592
B( 15-C , 32-H ) :   0.9708 B( 16-C , 17-C ) :   1.3332 B( 16-C , 33-H ) :   0.9856
B( 17-C , 18-O ) :   1.1045 B( 17-C , 19-C ) :   1.3658 B( 18-O , 34-H ) :   0.9804
B( 19-C , 35-H ) :   0.9598

MP2 TOTAL ENERGY:    -1274.331887873 Eh
FINAL SINGLE POINT ENERGY     -1274.331887872769

DIPOLE MOMENT
-------------
                                X             Y             Z
Electronic contribution:      9.26745      10.04638       8.79114
Nuclear contribution   :    -10.75539     -11.35080      -9.77721
                        -----------------------------------------
Total Dipole Moment    :     -1.48794      -1.30442      -0.98607
                        -----------------------------------------
Magnitude (a.u.)       :      2.21084
Magnitude (Debye)      :      5.61952

Rotational constants in cm-1:     0.010731     0.009228     0.005927
Rotational constants in MHz :   321.696883   276.663085   177.685119

                             ****ORCA TERMINATED NORMALLY****
TOTAL RUN TIME: 0 days 1 hours 40 minutes 27 seconds 38 msec
