                         Program Version 4.2.0 -  RELEASE  -
|  1> ! ri-mp2 cc-pvtz cc-pvtz/c TightSCF NoKeepInts
|  2>
|  3> %scf
|  4>   MaxCore 4096
|  5> end
|  6> *xyz  0  1
|  7>     C       14.7379111   14.3555623   15.1296896
|  8>     C       15.1761726   15.4954748   16.0633724
|  9>     O       16.3627841   16.0777378   15.4947093
| 10>     C       16.3660159   17.4275072   15.3131858
| 11>     O       15.8864678   17.9033807   14.3007272
| 12>     C       16.8835379   18.2170565   16.4890399
| 13>     C       16.9139474   19.5750553   16.4348202
| 14>     C       16.1810916   20.4733776   15.4592420
| 15>     N       17.6698538   20.3187164   17.3436171
| 16>     C       18.6016956   19.7857963   18.1912580
| 17>     S       19.5509555   20.7324841   19.1596732
| 18>     N       18.7263151   18.4204105   18.1761700
| 19>     C       17.8412436   17.4892901   17.4517347
| 20>     C       17.1995850   16.4743878   18.3850387
| 21>     C       17.6974389   15.1604769   18.4621907
| 22>     C       17.1074951   14.2251084   19.3289822
| 23>     C       16.0171824   14.6093446   20.1286103
| 24>     C       15.5280308   15.9212943   20.0618121
| 25>     O       14.4759851   16.2951995   20.8321201
| 26>     C       16.1152897   16.8497028   19.1964837
| 27>     H       13.8307501   13.8714238   15.5108498
| 28>     H       15.5263024   13.5969406   15.0494338
| 29>     H       14.5258376   14.7420040   14.1245643
| 30>     H       14.3675104   16.2357036   16.1401601
| 31>     H       15.3741395   15.0913178   17.0622770
| 32>     H       15.1365602   20.1562033   15.3465821
| 33>     H       16.6467506   20.4253477   14.4663108
| 34>     H       16.1673377   21.5245029   15.7707477
| 35>     H       17.6103954   21.3245381   17.3392241
| 36>     H       19.4053458   18.0539383   18.8314118
| 37>     H       18.5816054   17.0003596   16.8022846
| 38>     H       18.5387750   14.8614871   17.8420831
| 39>     H       17.4959311   13.2090938   19.3799977
| 40>     H       15.5592595   13.8901624   20.8001057
| 41>     H       14.2509986   15.5459112   21.4044907
| 42>     H       15.7305013   17.8637019   19.1649999
| 43> *
| 44>
| 45>                          ****END OF INPUT****

CARTESIAN COORDINATES (ANGSTROEM)
---------------------------------
  C     14.737911   14.355562   15.129690
  C     15.176173   15.495475   16.063372
  O     16.362784   16.077738   15.494709
  C     16.366016   17.427507   15.313186
  O     15.886468   17.903381   14.300727
  C     16.883538   18.217057   16.489040
  C     16.913947   19.575055   16.434820
  C     16.181092   20.473378   15.459242
  N     17.669854   20.318716   17.343617
  C     18.601696   19.785796   18.191258
  S     19.550956   20.732484   19.159673
  N     18.726315   18.420410   18.176170
  C     17.841244   17.489290   17.451735
  C     17.199585   16.474388   18.385039
  C     17.697439   15.160477   18.462191
  C     17.107495   14.225108   19.328982
  C     16.017182   14.609345   20.128610
  C     15.528031   15.921294   20.061812
  O     14.475985   16.295199   20.832120
  C     16.115290   16.849703   19.196484
  H     13.830750   13.871424   15.510850
  H     15.526302   13.596941   15.049434
  H     14.525838   14.742004   14.124564
  H     14.367510   16.235704   16.140160
  H     15.374140   15.091318   17.062277
  H     15.136560   20.156203   15.346582
  H     16.646751   20.425348   14.466311
  H     16.167338   21.524503   15.770748
  H     17.610395   21.324538   17.339224
  H     19.405346   18.053938   18.831412
  H     18.581605   17.000360   16.802285
  H     18.538775   14.861487   17.842083
  H     17.495931   13.209094   19.379998
  H     15.559259   13.890162   20.800106
  H     14.250999   15.545911   21.404491
  H     15.730501   17.863702   19.165000

 Total Charge           Charge          ....    0
 Multiplicity           Mult            ....    1
 Number of Electrons    NEL             ....  154
 Basis Dimension        Dim             ....  828

ORBITAL ENERGIES
----------------

  NO   OCC          E(Eh)            E(eV)
   0   2.0000     -91.891312     -2500.4897
   1   2.0000     -20.603266      -560.6434
   2   2.0000     -20.580736      -560.0303
   3   2.0000     -20.546628      -559.1022
   4   2.0000     -15.631609      -425.3577
   5   2.0000     -15.609497      -424.7560
   6   2.0000     -11.391756      -309.9854
   7   2.0000     -11.385585      -309.8175
   8   2.0000     -11.340065      -308.5789
   9   2.0000     -11.321286      -308.0678
  10   2.0000     -11.311796      -307.8096
  11   2.0000     -11.294511      -307.3393
  12   2.0000     -11.266799      -306.5852
  13   2.0000     -11.262584      -306.4705
  14   2.0000     -11.259533      -306.3875
  15   2.0000     -11.253551      -306.2247
  16   2.0000     -11.251089      -306.1577
  17   2.0000     -11.245401      -306.0029
  18   2.0000     -11.245303      -306.0003
  19   2.0000     -11.221903      -305.3635
  20   2.0000      -8.896361      -242.0823
  21   2.0000      -6.577927      -178.9945
  22   2.0000      -6.575934      -178.9403
  23   2.0000      -6.575337      -178.9240
  24   2.0000      -1.447150       -39.3790
  25   2.0000      -1.422975       -38.7211
  26   2.0000      -1.352969       -36.8161
  27   2.0000      -1.343357       -36.5546
  28   2.0000      -1.241484       -33.7825
  29   2.0000      -1.164183       -31.6790
  30   2.0000      -1.123138       -30.5621
  31   2.0000      -1.048057       -28.5191
  32   2.0000      -1.032299       -28.0903
  33   2.0000      -1.022122       -27.8133
  34   2.0000      -0.999554       -27.1992
  35   2.0000      -0.987313       -26.8662
  36   2.0000      -0.925839       -25.1934
  37   2.0000      -0.876152       -23.8413
  38   2.0000      -0.850498       -23.1432
  39   2.0000      -0.843681       -22.9577
  40   2.0000      -0.840580       -22.8733
  41   2.0000      -0.831480       -22.6257
  42   2.0000      -0.760912       -20.7055
  43   2.0000      -0.738725       -20.1017
  44   2.0000      -0.723991       -19.7008
  45   2.0000      -0.702020       -19.1029
  46   2.0000      -0.691199       -18.8085
  47   2.0000      -0.677676       -18.4405
  48   2.0000      -0.672872       -18.3098
  49   2.0000      -0.656834       -17.8734
  50   2.0000      -0.649236       -17.6666
  51   2.0000      -0.645026       -17.5520
  52   2.0000      -0.638987       -17.3877
  53   2.0000      -0.613404       -16.6916
  54   2.0000      -0.609141       -16.5756
  55   2.0000      -0.604104       -16.4385
  56   2.0000      -0.597422       -16.2567
  57   2.0000      -0.582554       -15.8521
  58   2.0000      -0.572546       -15.5798
  59   2.0000      -0.567445       -15.4410
  60   2.0000      -0.564624       -15.3642
  61   2.0000      -0.543168       -14.7803
  62   2.0000      -0.538049       -14.6410
  63   2.0000      -0.530011       -14.4223
  64   2.0000      -0.517636       -14.0856
  65   2.0000      -0.509850       -13.8737
  66   2.0000      -0.504169       -13.7191
  67   2.0000      -0.495980       -13.4963
  68   2.0000      -0.488388       -13.2897
  69   2.0000      -0.465976       -12.6798
  70   2.0000      -0.454227       -12.3601
  71   2.0000      -0.445001       -12.1091
  72   2.0000      -0.357178        -9.7193
  73   2.0000      -0.355043        -9.6612
  74   2.0000      -0.331638        -9.0243
  75   2.0000      -0.328141        -8.9292
  76   2.0000      -0.321081        -8.7371
  77   0.0000       0.071232         1.9383
  78   0.0000       0.098187         2.6718
  79   0.0000       0.121544         3.3074
  80   0.0000       0.128377         3.4933
  81   0.0000       0.129707         3.5295

MULLIKEN ATOMIC CHARGES
-----------------------
   0 C :   -0.257856
   1 C :    0.026802
   2 O :   -0.375814
   3 C :    0.463662
   4 O :   -0.396194
   5 C :   -0.288595
   6 C :    0.187068
   7 C :   -0.265339
   8 N :   -0.127118
   9 C :    0.211420
  10 S :   -0.438823
  11 N :   -0.215136
  12 C :    0.065823
  13 C :   -0.022063
  14 C :   -0.158285
  15 C :   -0.136358
  16 C :   -0.271542
  17 C :    0.303018
  18 O :   -0.356403
  19 C :   -0.210764
  20 H :    0.084573
  21 H :    0.092852
  22 H :    0.107614
  23 H :    0.089478
  24 H :    0.118384
  25 H :    0.128221
  26 H :    0.134599
  27 H :    0.094050
  28 H :    0.199798
  29 H :    0.200924
  30 H :    0.151758
  31 H :    0.154060
  32 H :    0.163745
  33 H :    0.134323
  34 H :    0.242058
  35 H :    0.166061
Sum of atomic charges:   -0.0000000

LOEWDIN ATOMIC CHARGES
----------------------
   0 C :    0.107907
   1 C :   -0.018779
   2 O :    0.294207
   3 C :   -0.427856
   4 O :    0.118370
   5 C :   -0.103604
   6 C :   -0.053388
   7 C :    0.130815
   8 N :    0.408013
   9 C :   -0.457205
  10 S :   -0.033640
  11 N :    0.394808
  12 C :   -0.054745
  13 C :   -0.041156
  14 C :    0.016806
  15 C :    0.041582
  16 C :   -0.000164
  17 C :   -0.191193
  18 O :    0.396589
  19 C :    0.033837
  20 H :   -0.028819
  21 H :   -0.027602
  22 H :   -0.022958
  23 H :   -0.030970
  24 H :   -0.030641
  25 H :   -0.005276
  26 H :   -0.003833
  27 H :   -0.023326
  28 H :   -0.056423
  29 H :   -0.064122
  30 H :   -0.011659
  31 H :   -0.027367
  32 H :   -0.019181
  33 H :   -0.033802
  34 H :   -0.152330
  35 H :   -0.022895

  Mayer bond orders larger than 0.100000
B(  0-C ,  1-C ) :   0.9881 B(  0-C , 20-H ) :   0.9769 B(  0-C , 21-H ) :   0.9793
B(  0-C , 22-H ) :   0.9786 B(  1-C ,  2-O ) :   0.8769 B(  1-C , 23-H ) :   0.9720
B(  1-C , 24-H ) :   0.9681 B(  2-O ,  3-C ) :   1.1004 B(  3-C ,  4-O ) :   2.0437
B(  3-C ,  5-C ) :   1.0629 B(  5-C ,  6-C ) :   1.6206 B(  5-C , 12-C ) :   0.9539
B(  6-C ,  7-C ) :   0.9678 B(  6-C ,  8-N ) :   1.1586 B(  7-C , 25-H ) :   0.9646
B(  7-C , 26-H ) :   0.9550 B(  7-C , 27-H ) :   0.9887 B(  8-N ,  9-C ) :   1.1856
B(  8-N , 28-H ) :   0.9465 B(  9-C , 10-S ) :   1.6077 B(  9-C , 11-N ) :   1.3095
B( 11-N , 12-C ) :   0.9608 B( 11-N , 29-H ) :   0.9485 B( 12-C , 13-C ) :   0.9678
B( 12-C , 30-H ) :   1.0039 B( 13-C , 14-C ) :   1.3511 B( 13-C , 19-C ) :   1.3761
B( 14-C , 15-C ) :   1.3970 B( 14-C , 31-H ) :   0.9722 B( 15-C , 16-C ) :   1.3582
B( 15-C , 32-H ) :   0.9704 B( 16-C , 17-C ) :   1.3301 B( 16-C , 33-H ) :   0.9839
B( 17-C , 18-O ) :   1.1080 B( 17-C , 19-C ) :   1.3681 B( 18-O , 34-H ) :   0.9784
B( 19-C , 35-H ) :   0.9592

MP2 TOTAL ENERGY:    -1274.325208275 Eh
FINAL SINGLE POINT ENERGY     -1274.325208275414

DIPOLE MOMENT
-------------
                                X             Y             Z
Electronic contribution:      9.68731      10.46590       7.06008
Nuclear contribution   :    -10.80442     -11.95116      -6.72025
                        -----------------------------------------
Total Dipole Moment    :     -1.11711      -1.48526       0.33982
                        -----------------------------------------
Magnitude (a.u.)       :      1.88929
Magnitude (Debye)      :      4.80220

Rotational constants in cm-1:     0.012180     0.008539     0.005975
Rotational constants in MHz :   365.143142   255.981259   179.116346

                             ****ORCA TERMINATED NORMALLY****
TOTAL RUN TIME: 0 days 1 hours 45 minutes 44 seconds 972 msec
