                         Program Version 4.2.0 -  RELEASE  -
|  1> ! ri-mp2 cc-pvtz cc-pvtz/c TightSCF NoKeepInts
|  2>
|  3> %scf
|  4>   MaxCore 4096
|  5> end
|  6> *xyz  0  1
|  7>     C       14.5707415   16.1980028   16.3674254
|  8>     C       15.0738088   16.1470760   14.9071497
|  9>     O       16.4990529   15.9063319   14.7947175
| 10>     C       17.5363296   16.4633170   15.5074375
| 11>     O       18.6506652   15.9771169   15.4502594
| 12>     C       17.2338506   17.5892678   16.4390909
| 13>     C       16.8693685   18.7974191   15.9444139
| 14>     C       16.5099390   19.1344340   14.5115255
| 15>     N       16.8954634   19.9377461   16.7493026
| 16>     C       17.5173788   20.0030556   17.9681167
| 17>     S       17.6202576   21.4171016   18.8190847
| 18>     N       18.0764680   18.8378450   18.4319689
| 19>     C       17.9080658   17.5089992   17.8102883
| 20>     C       17.2954817   16.4499534   18.7145363
| 21>     C       17.8029838   15.1384055   18.7073891
| 22>     C       17.2280464   14.1457924   19.5182532
| 23>     C       16.1345119   14.4671677   20.3405595
| 24>     C       15.6235546   15.7723464   20.3455207
| 25>     O       14.5608944   16.0826047   21.1297876
| 26>     C       16.1977120   16.7587799   19.5372736
| 27>     H       15.0777681   15.4442931   16.9837161
| 28>     H       13.4960489   15.9810963   16.3985543
| 29>     H       14.7078026   17.1846520   16.8227247
| 30>     H       14.5550996   15.3297149   14.3892584
| 31>     H       14.7938466   17.0733242   14.3936980
| 32>     H       16.8095768   18.3513569   13.8047528
| 33>     H       17.0206041   20.0496647   14.1849137
| 34>     H       15.4312124   19.2988561   14.4035619
| 35>     H       16.5274341   20.8092277   16.4015358
| 36>     H       18.5299762   18.9110646   19.3341601
| 37>     H       18.9606814   17.2607749   17.6072425
| 38>     H       18.6411803   14.8862308   18.0605239
| 39>     H       17.6281020   13.1332858   19.5031314
| 40>     H       15.6862903   13.7026914   20.9666183
| 41>     H       14.3337872   15.2896313   21.6385787
| 42>     H       15.7830147   17.7613724   19.5509283
| 43> *
| 44>
| 45>                          ****END OF INPUT****

CARTESIAN COORDINATES (ANGSTROEM)
---------------------------------
  C     14.570741   16.198003   16.367425
  C     15.073809   16.147076   14.907150
  O     16.499053   15.906332   14.794718
  C     17.536330   16.463317   15.507437
  O     18.650665   15.977117   15.450259
  C     17.233851   17.589268   16.439091
  C     16.869369   18.797419   15.944414
  C     16.509939   19.134434   14.511525
  N     16.895463   19.937746   16.749303
  C     17.517379   20.003056   17.968117
  S     17.620258   21.417102   18.819085
  N     18.076468   18.837845   18.431969
  C     17.908066   17.508999   17.810288
  C     17.295482   16.449953   18.714536
  C     17.802984   15.138405   18.707389
  C     17.228046   14.145792   19.518253
  C     16.134512   14.467168   20.340560
  C     15.623555   15.772346   20.345521
  O     14.560894   16.082605   21.129788
  C     16.197712   16.758780   19.537274
  H     15.077768   15.444293   16.983716
  H     13.496049   15.981096   16.398554
  H     14.707803   17.184652   16.822725
  H     14.555100   15.329715   14.389258
  H     14.793847   17.073324   14.393698
  H     16.809577   18.351357   13.804753
  H     17.020604   20.049665   14.184914
  H     15.431212   19.298856   14.403562
  H     16.527434   20.809228   16.401536
  H     18.529976   18.911065   19.334160
  H     18.960681   17.260775   17.607243
  H     18.641180   14.886231   18.060524
  H     17.628102   13.133286   19.503131
  H     15.686290   13.702691   20.966618
  H     14.333787   15.289631   21.638579
  H     15.783015   17.761372   19.550928

 Total Charge           Charge          ....    0
 Multiplicity           Mult            ....    1
 Number of Electrons    NEL             ....  154
 Basis Dimension        Dim             ....  828

ORBITAL ENERGIES
----------------

  NO   OCC          E(Eh)            E(eV)
   0   2.0000     -91.889684     -2500.4454
   1   2.0000     -20.600983      -560.5812
   2   2.0000     -20.599195      -560.5326
   3   2.0000     -20.548902      -559.1641
   4   2.0000     -15.627456      -425.2447
   5   2.0000     -15.609553      -424.7575
   6   2.0000     -11.401147      -310.2410
   7   2.0000     -11.385577      -309.8173
   8   2.0000     -11.332189      -308.3645
   9   2.0000     -11.316448      -307.9362
  10   2.0000     -11.311720      -307.8075
  11   2.0000     -11.310483      -307.7739
  12   2.0000     -11.268317      -306.6265
  13   2.0000     -11.264644      -306.5265
  14   2.0000     -11.264088      -306.5114
  15   2.0000     -11.257027      -306.3193
  16   2.0000     -11.245768      -306.0129
  17   2.0000     -11.241249      -305.8899
  18   2.0000     -11.238871      -305.8252
  19   2.0000     -11.232802      -305.6601
  20   2.0000      -8.894794      -242.0396
  21   2.0000      -6.576378      -178.9523
  22   2.0000      -6.574363      -178.8975
  23   2.0000      -6.573782      -178.8817
  24   2.0000      -1.444437       -39.3051
  25   2.0000      -1.418935       -38.6112
  26   2.0000      -1.358660       -36.9710
  27   2.0000      -1.341013       -36.4908
  28   2.0000      -1.239415       -33.7262
  29   2.0000      -1.160952       -31.5911
  30   2.0000      -1.126358       -30.6498
  31   2.0000      -1.048336       -28.5267
  32   2.0000      -1.038923       -28.2705
  33   2.0000      -1.018968       -27.7275
  34   2.0000      -1.007092       -27.4044
  35   2.0000      -0.990389       -26.9499
  36   2.0000      -0.927194       -25.2302
  37   2.0000      -0.899807       -24.4850
  38   2.0000      -0.853771       -23.2323
  39   2.0000      -0.841534       -22.8993
  40   2.0000      -0.836331       -22.7577
  41   2.0000      -0.829402       -22.5692
  42   2.0000      -0.746019       -20.3002
  43   2.0000      -0.738403       -20.0930
  44   2.0000      -0.732146       -19.9227
  45   2.0000      -0.696450       -18.9514
  46   2.0000      -0.688344       -18.7308
  47   2.0000      -0.679323       -18.4853
  48   2.0000      -0.674420       -18.3519
  49   2.0000      -0.662741       -18.0341
  50   2.0000      -0.655601       -17.8398
  51   2.0000      -0.650855       -17.7107
  52   2.0000      -0.638948       -17.3867
  53   2.0000      -0.616356       -16.7719
  54   2.0000      -0.610970       -16.6253
  55   2.0000      -0.607166       -16.5218
  56   2.0000      -0.602927       -16.4065
  57   2.0000      -0.589142       -16.0314
  58   2.0000      -0.577708       -15.7202
  59   2.0000      -0.571567       -15.5531
  60   2.0000      -0.564035       -15.3482
  61   2.0000      -0.556774       -15.1506
  62   2.0000      -0.541886       -14.7455
  63   2.0000      -0.531754       -14.4697
  64   2.0000      -0.521977       -14.2037
  65   2.0000      -0.512944       -13.9579
  66   2.0000      -0.502640       -13.6775
  67   2.0000      -0.501317       -13.6415
  68   2.0000      -0.485711       -13.2169
  69   2.0000      -0.466266       -12.6877
  70   2.0000      -0.454704       -12.3731
  71   2.0000      -0.451216       -12.2782
  72   2.0000      -0.356091        -9.6897
  73   2.0000      -0.349912        -9.5216
  74   2.0000      -0.329248        -8.9593
  75   2.0000      -0.324548        -8.8314
  76   2.0000      -0.319674        -8.6988
  77   0.0000       0.085728         2.3328
  78   0.0000       0.105540         2.8719
  79   0.0000       0.113717         3.0944
  80   0.0000       0.128109         3.4860
  81   0.0000       0.130099         3.5402

MULLIKEN ATOMIC CHARGES
-----------------------
   0 C :   -0.328565
   1 C :    0.032613
   2 O :   -0.326959
   3 C :    0.428472
   4 O :   -0.383384
   5 C :   -0.232823
   6 C :    0.167208
   7 C :   -0.344407
   8 N :   -0.141803
   9 C :    0.207533
  10 S :   -0.443348
  11 N :   -0.226018
  12 C :    0.073518
  13 C :    0.012694
  14 C :   -0.220549
  15 C :   -0.130271
  16 C :   -0.277837
  17 C :    0.315560
  18 O :   -0.356597
  19 C :   -0.250331
  20 H :    0.126434
  21 H :    0.115880
  22 H :    0.110576
  23 H :    0.131852
  24 H :    0.084355
  25 H :    0.135108
  26 H :    0.135099
  27 H :    0.122803
  28 H :    0.198061
  29 H :    0.203669
  30 H :    0.169489
  31 H :    0.178108
  32 H :    0.164606
  33 H :    0.132261
  34 H :    0.241276
  35 H :    0.175716
Sum of atomic charges:   -0.0000000

LOEWDIN ATOMIC CHARGES
----------------------
   0 C :    0.101898
   1 C :   -0.014790
   2 O :    0.295820
   3 C :   -0.415655
   4 O :    0.119511
   5 C :   -0.079026
   6 C :   -0.091751
   7 C :    0.123660
   8 N :    0.402562
   9 C :   -0.457449
  10 S :   -0.038702
  11 N :    0.396704
  12 C :   -0.047842
  13 C :   -0.043675
  14 C :    0.019237
  15 C :    0.044211
  16 C :   -0.000547
  17 C :   -0.191720
  18 O :    0.395527
  19 C :    0.029639
  20 H :   -0.019927
  21 H :   -0.024353
  22 H :   -0.034836
  23 H :   -0.018190
  24 H :   -0.038313
  25 H :   -0.007787
  26 H :   -0.009691
  27 H :   -0.018702
  28 H :   -0.057268
  29 H :   -0.063450
  30 H :   -0.003249
  31 H :   -0.021184
  32 H :   -0.018443
  33 H :   -0.034778
  34 H :   -0.153295
  35 H :   -0.024147

  Mayer bond orders larger than 0.100000
B(  0-C ,  1-C ) :   0.9502 B(  0-C , 20-H ) :   0.9683 B(  0-C , 21-H ) :   0.9773
B(  0-C , 22-H ) :   0.9735 B(  1-C ,  2-O ) :   0.9070 B(  1-C , 23-H ) :   0.9819
B(  1-C , 24-H ) :   0.9732 B(  2-O ,  3-C ) :   1.1798 B(  3-C ,  4-O ) :   2.0876
B(  3-C ,  5-C ) :   0.9227 B(  5-C ,  6-C ) :   1.7201 B(  5-C , 12-C ) :   0.9358
B(  6-C ,  7-C ) :   0.9382 B(  6-C ,  8-N ) :   1.1001 B(  7-C , 25-H ) :   0.9764
B(  7-C , 26-H ) :   0.9741 B(  7-C , 27-H ) :   0.9660 B(  8-N ,  9-C ) :   1.1989
B(  8-N , 28-H ) :   0.9511 B(  9-C , 10-S ) :   1.6088 B(  9-C , 11-N ) :   1.2906
B( 11-N , 12-C ) :   0.9809 B( 11-N , 29-H ) :   0.9473 B( 12-C , 13-C ) :   0.9672
B( 12-C , 30-H ) :   0.9887 B( 13-C , 14-C ) :   1.3879 B( 13-C , 19-C ) :   1.3488
B( 14-C , 15-C ) :   1.3956 B( 14-C , 31-H ) :   0.9584 B( 15-C , 16-C ) :   1.3605
B( 15-C , 32-H ) :   0.9699 B( 16-C , 17-C ) :   1.3305 B( 16-C , 33-H ) :   0.9847
B( 17-C , 18-O ) :   1.1096 B( 17-C , 19-C ) :   1.3676 B( 18-O , 34-H ) :   0.9794
B( 19-C , 35-H ) :   0.9563

MP2 TOTAL ENERGY:    -1274.324760577 Eh
FINAL SINGLE POINT ENERGY     -1274.324760577356

DIPOLE MOMENT
-------------
                                X             Y             Z
Electronic contribution:      8.69070       6.42415       6.80637
Nuclear contribution   :    -10.33890      -7.61623      -7.35837
                        -----------------------------------------
Total Dipole Moment    :     -1.64821      -1.19208      -0.55201
                        -----------------------------------------
Magnitude (a.u.)       :      2.10769
Magnitude (Debye)      :      5.35731

Rotational constants in cm-1:     0.011601     0.009265     0.006519
Rotational constants in MHz :   347.794809   277.746730   195.424630

                             ****ORCA TERMINATED NORMALLY****
TOTAL RUN TIME: 0 days 2 hours 9 minutes 48 seconds 270 msec
