                         Program Version 4.2.0 -  RELEASE  -
|  1> ! ri-mp2 cc-pvtz cc-pvtz/c TightSCF NoKeepInts
|  2>
|  3> %scf
|  4>   MaxCore 4096
|  5> end
|  6> *xyz  0  1
|  7>     C       14.5497965   15.3504182   15.9011285
|  8>     C       15.1144690   15.7381728   14.5152966
|  9>     O       16.0600918   16.8201144   14.6331726
| 10>     C       17.0764589   16.7201639   15.5361671
| 11>     O       17.7590650   15.7135788   15.6273264
| 12>     C       17.1425815   17.8450798   16.5258296
| 13>     C       16.8548434   19.1294145   16.1916277
| 14>     C       16.2339930   19.6332907   14.9040566
| 15>     N       17.1777110   20.1790194   17.0552651
| 16>     C       17.9699787   20.0523390   18.1648161
| 17>     S       18.3945130   21.3580088   19.0869954
| 18>     N       18.4105744   18.7866331   18.4601882
| 19>     C       17.9863111   17.5526248   17.7704348
| 20>     C       17.3391349   16.5316596   18.6964434
| 21>     C       17.8337965   15.2172974   18.7717857
| 22>     C       17.2253327   14.2720947   19.6144915
| 23>     C       16.1125262   14.6446969   20.3879094
| 24>     C       15.6156854   15.9531830   20.3120394
| 25>     O       14.5367278   16.3135716   21.0516802
| 26>     C       16.2233128   16.8916101   19.4719049
| 27>     H       15.3194802   14.8927695   16.5363374
| 28>     H       13.7377741   14.6218547   15.7895687
| 29>     H       14.1485974   16.2299308   16.4200633
| 30>     H       15.6049216   14.8632579   14.0673291
| 31>     H       14.2936216   16.0426305   13.8534523
| 32>     H       15.1959537   19.2897272   14.8140819
| 33>     H       16.7887396   19.2639724   14.0322593
| 34>     H       16.2245054   20.7279963   14.8365739
| 35>     H       16.8805017   21.1171287   16.8394079
| 36>     H       18.9759717   18.7179188   19.2969573
| 37>     H       18.9545129   17.1848448   17.4002835
| 38>     H       18.6829660   14.9239198   18.1588390
| 39>     H       17.6133064   13.2560364   19.6599555
| 40>     H       15.6383737   13.9172125   21.0382585
| 41>     H       14.2856531   15.5480582   21.5900840
| 42>     H       15.8252175   17.8997700   19.4259892
| 43> *
| 44>
| 45>                          ****END OF INPUT****

CARTESIAN COORDINATES (ANGSTROEM)
---------------------------------
  C     14.549796   15.350418   15.901128
  C     15.114469   15.738173   14.515297
  O     16.060092   16.820114   14.633173
  C     17.076459   16.720164   15.536167
  O     17.759065   15.713579   15.627326
  C     17.142581   17.845080   16.525830
  C     16.854843   19.129414   16.191628
  C     16.233993   19.633291   14.904057
  N     17.177711   20.179019   17.055265
  C     17.969979   20.052339   18.164816
  S     18.394513   21.358009   19.086995
  N     18.410574   18.786633   18.460188
  C     17.986311   17.552625   17.770435
  C     17.339135   16.531660   18.696443
  C     17.833796   15.217297   18.771786
  C     17.225333   14.272095   19.614491
  C     16.112526   14.644697   20.387909
  C     15.615685   15.953183   20.312039
  O     14.536728   16.313572   21.051680
  C     16.223313   16.891610   19.471905
  H     15.319480   14.892769   16.536337
  H     13.737774   14.621855   15.789569
  H     14.148597   16.229931   16.420063
  H     15.604922   14.863258   14.067329
  H     14.293622   16.042631   13.853452
  H     15.195954   19.289727   14.814082
  H     16.788740   19.263972   14.032259
  H     16.224505   20.727996   14.836574
  H     16.880502   21.117129   16.839408
  H     18.975972   18.717919   19.296957
  H     18.954513   17.184845   17.400283
  H     18.682966   14.923920   18.158839
  H     17.613306   13.256036   19.659955
  H     15.638374   13.917212   21.038259
  H     14.285653   15.548058   21.590084
  H     15.825218   17.899770   19.425989

 Total Charge           Charge          ....    0
 Multiplicity           Mult            ....    1
 Number of Electrons    NEL             ....  154
 Basis Dimension        Dim             ....  828

ORBITAL ENERGIES
----------------

  NO   OCC          E(Eh)            E(eV)
   0   2.0000     -91.888753     -2500.4201
   1   2.0000     -20.594378      -560.4015
   2   2.0000     -20.591222      -560.3156
   3   2.0000     -20.548828      -559.1620
   4   2.0000     -15.629159      -425.2910
   5   2.0000     -15.606656      -424.6787
   6   2.0000     -11.394475      -310.0594
   7   2.0000     -11.383591      -309.7633
   8   2.0000     -11.337672      -308.5137
   9   2.0000     -11.310637      -307.7781
  10   2.0000     -11.305205      -307.6303
  11   2.0000     -11.302455      -307.5554
  12   2.0000     -11.259439      -306.3849
  13   2.0000     -11.259277      -306.3805
  14   2.0000     -11.257428      -306.3302
  15   2.0000     -11.250759      -306.1487
  16   2.0000     -11.240875      -305.8798
  17   2.0000     -11.236737      -305.7672
  18   2.0000     -11.233585      -305.6814
  19   2.0000     -11.227541      -305.5169
  20   2.0000      -8.893831      -242.0135
  21   2.0000      -6.575407      -178.9259
  22   2.0000      -6.573405      -178.8714
  23   2.0000      -6.572816      -178.8554
  24   2.0000      -1.450874       -39.4803
  25   2.0000      -1.414145       -38.4808
  26   2.0000      -1.355939       -36.8970
  27   2.0000      -1.340246       -36.4700
  28   2.0000      -1.237597       -33.6767
  29   2.0000      -1.155072       -31.4311
  30   2.0000      -1.121866       -30.5275
  31   2.0000      -1.043582       -28.3973
  32   2.0000      -1.031748       -28.0753
  33   2.0000      -1.012479       -27.5510
  34   2.0000      -1.000206       -27.2170
  35   2.0000      -0.985436       -26.8151
  36   2.0000      -0.922441       -25.1009
  37   2.0000      -0.895926       -24.3794
  38   2.0000      -0.848237       -23.0817
  39   2.0000      -0.837012       -22.7762
  40   2.0000      -0.830794       -22.6070
  41   2.0000      -0.816536       -22.2191
  42   2.0000      -0.748538       -20.3688
  43   2.0000      -0.734984       -19.9999
  44   2.0000      -0.727749       -19.8031
  45   2.0000      -0.692404       -18.8413
  46   2.0000      -0.686278       -18.6746
  47   2.0000      -0.677998       -18.4493
  48   2.0000      -0.670367       -18.2416
  49   2.0000      -0.659842       -17.9552
  50   2.0000      -0.653198       -17.7744
  51   2.0000      -0.645962       -17.5775
  52   2.0000      -0.633592       -17.2409
  53   2.0000      -0.615432       -16.7468
  54   2.0000      -0.604305       -16.4440
  55   2.0000      -0.600404       -16.3378
  56   2.0000      -0.597773       -16.2662
  57   2.0000      -0.579084       -15.7577
  58   2.0000      -0.574887       -15.6435
  59   2.0000      -0.563187       -15.3251
  60   2.0000      -0.553285       -15.0556
  61   2.0000      -0.548816       -14.9340
  62   2.0000      -0.535242       -14.5647
  63   2.0000      -0.534472       -14.5437
  64   2.0000      -0.518546       -14.1103
  65   2.0000      -0.510282       -13.8855
  66   2.0000      -0.497788       -13.5455
  67   2.0000      -0.493491       -13.4286
  68   2.0000      -0.481556       -13.1038
  69   2.0000      -0.464150       -12.6302
  70   2.0000      -0.458399       -12.4737
  71   2.0000      -0.449707       -12.2371
  72   2.0000      -0.353454        -9.6180
  73   2.0000      -0.347053        -9.4438
  74   2.0000      -0.327845        -8.9211
  75   2.0000      -0.317978        -8.6526
  76   2.0000      -0.317391        -8.6367
  77   0.0000       0.074725         2.0334
  78   0.0000       0.107416         2.9229
  79   0.0000       0.119772         3.2592
  80   0.0000       0.133624         3.6361
  81   0.0000       0.140938         3.8351

MULLIKEN ATOMIC CHARGES
-----------------------
   0 C :   -0.324147
   1 C :    0.044380
   2 O :   -0.373217
   3 C :    0.432981
   4 O :   -0.409182
   5 C :   -0.175176
   6 C :    0.151309
   7 C :   -0.279925
   8 N :   -0.127867
   9 C :    0.208364
  10 S :   -0.441294
  11 N :   -0.211920
  12 C :    0.051309
  13 C :    0.024753
  14 C :   -0.177508
  15 C :   -0.133129
  16 C :   -0.278571
  17 C :    0.315403
  18 O :   -0.358587
  19 C :   -0.251122
  20 H :    0.127269
  21 H :    0.106390
  22 H :    0.099021
  23 H :    0.106023
  24 H :    0.106290
  25 H :    0.125749
  26 H :    0.127449
  27 H :    0.101741
  28 H :    0.198639
  29 H :    0.199388
  30 H :    0.155966
  31 H :    0.162115
  32 H :    0.161524
  33 H :    0.129859
  34 H :    0.240351
  35 H :    0.165370
Sum of atomic charges:   -0.0000000

LOEWDIN ATOMIC CHARGES
----------------------
   0 C :    0.105641
   1 C :   -0.016878
   2 O :    0.293834
   3 C :   -0.419082
   4 O :    0.113905
   5 C :   -0.094081
   6 C :   -0.066496
   7 C :    0.126334
   8 N :    0.405498
   9 C :   -0.457512
  10 S :   -0.037026
  11 N :    0.396128
  12 C :   -0.048119
  13 C :   -0.041676
  14 C :    0.023795
  15 C :    0.040581
  16 C :   -0.001170
  17 C :   -0.192817
  18 O :    0.393574
  19 C :    0.030388
  20 H :   -0.022269
  21 H :   -0.024892
  22 H :   -0.028964
  23 H :   -0.027816
  24 H :   -0.024876
  25 H :   -0.009913
  26 H :   -0.007863
  27 H :   -0.020863
  28 H :   -0.058490
  29 H :   -0.063546
  30 H :   -0.007508
  31 H :   -0.023443
  32 H :   -0.020516
  33 H :   -0.035726
  34 H :   -0.154432
  35 H :   -0.023703

  Mayer bond orders larger than 0.100000
B(  0-C ,  1-C ) :   0.9562 B(  0-C , 20-H ) :   0.9682 B(  0-C , 21-H ) :   0.9766
B(  0-C , 22-H ) :   0.9741 B(  1-C ,  2-O ) :   0.9029 B(  1-C , 23-H ) :   0.9833
B(  1-C , 24-H ) :   0.9831 B(  2-O ,  3-C ) :   1.0844 B(  3-C ,  4-O ) :   2.0156
B(  3-C ,  5-C ) :   1.0271 B(  5-C ,  6-C ) :   1.6618 B(  5-C , 12-C ) :   0.9484
B(  6-C ,  7-C ) :   0.9554 B(  6-C ,  8-N ) :   1.1386 B(  7-C , 25-H ) :   0.9640
B(  7-C , 26-H ) :   0.9655 B(  7-C , 27-H ) :   0.9900 B(  8-N ,  9-C ) :   1.1852
B(  8-N , 28-H ) :   0.9471 B(  9-C , 10-S ) :   1.6104 B(  9-C , 11-N ) :   1.3036
B( 11-N , 12-C ) :   0.9794 B( 11-N , 29-H ) :   0.9486 B( 12-C , 13-C ) :   0.9657
B( 12-C , 30-H ) :   0.9956 B( 13-C , 14-C ) :   1.3795 B( 13-C , 19-C ) :   1.3652
B( 14-C , 15-C ) :   1.3953 B( 14-C , 31-H ) :   0.9627 B( 15-C , 16-C ) :   1.3596
B( 15-C , 32-H ) :   0.9708 B( 16-C , 17-C ) :   1.3322 B( 16-C , 33-H ) :   0.9854
B( 17-C , 18-O ) :   1.1050 B( 17-C , 19-C ) :   1.3658 B( 18-O , 34-H ) :   0.9803
B( 19-C , 35-H ) :   0.9597

MP2 TOTAL ENERGY:    -1274.333242547 Eh
FINAL SINGLE POINT ENERGY     -1274.333242547325

DIPOLE MOMENT
-------------
                                X             Y             Z
Electronic contribution:      9.26273       9.39797       7.80467
Nuclear contribution   :    -10.67950     -10.70320      -8.69247
                        -----------------------------------------
Total Dipole Moment    :     -1.41677      -1.30523      -0.88779
                        -----------------------------------------
Magnitude (a.u.)       :      2.12109
Magnitude (Debye)      :      5.39139

Rotational constants in cm-1:     0.011136     0.009222     0.006139
Rotational constants in MHz :   333.844633   276.466517   184.045606

                             ****ORCA TERMINATED NORMALLY****
TOTAL RUN TIME: 0 days 1 hours 45 minutes 14 seconds 251 msec
