                         Program Version 4.2.0 -  RELEASE  -
|  1> ! ri-mp2 cc-pvtz cc-pvtz/c TightSCF NoKeepInts
|  2>
|  3> %scf
|  4>   MaxCore 4096
|  5> end
|  6> *xyz  0  1
|  7>     C       14.3050905   15.4634443   15.0796040
|  8>     C       15.4141670   15.4633561   16.1474430
|  9>     O       16.6563510   15.8076744   15.5032477
| 10>     C       16.9303833   17.1182149   15.2425227
| 11>     O       17.0499507   17.5048234   14.0945598
| 12>     C       17.0342422   18.0044668   16.4540894
| 13>     C       16.8885836   19.3452800   16.3036593
| 14>     C       16.2366686   20.0599485   15.1382686
| 15>     N       17.3350105   20.2380779   17.2794691
| 16>     C       18.1571010   19.8930590   18.3175194
| 17>     S       18.7554896   21.0162555   19.3734230
| 18>     N       18.4796466   18.5635848   18.4230038
| 19>     C       17.8864443   17.4737757   17.6238452
| 20>     C       17.2646529   16.3908951   18.4931955
| 21>     C       17.7525054   15.0716526   18.4542965
| 22>     C       17.1752794   14.0743526   19.2580988
| 23>     C       16.1079584   14.4009588   20.1123120
| 24>     C       15.6286549   15.7171867   20.1617082
| 25>     O       14.5976833   16.0354014   20.9836719
| 26>     C       16.2033050   16.7074427   19.3586472
| 27>     H       14.1709468   16.4648680   14.6517665
| 28>     H       13.3501646   15.1473253   15.5166457
| 29>     H       14.5550606   14.7723075   14.2646732
| 30>     H       15.1532526   16.1671644   16.9462377
| 31>     H       15.4940500   14.4592326   16.5839260
| 32>     H       15.3900061   19.4831252   14.7454826
| 33>     H       16.9539050   20.1860388   14.3165801
| 34>     H       15.8546457   21.0511082   15.4100537
| 35>     H       17.1384598   21.2220731   17.1867055
| 36>     H       19.0753284   18.3366856   19.2096827
| 37>     H       18.8001479   17.0887072   17.1483694
| 38>     H       18.5740493   14.8159792   17.7894413
| 39>     H       17.5557261   13.0547712   19.2178808
| 40>     H       15.6597637   13.6335582   20.7352887
| 41>     H       14.3786555   15.2443914   21.4994234
| 42>     H       15.8236697   17.7228128   19.4132573
| 43> *
| 44>
| 45>                          ****END OF INPUT****

CARTESIAN COORDINATES (ANGSTROEM)
---------------------------------
  C     14.305090   15.463444   15.079604
  C     15.414167   15.463356   16.147443
  O     16.656351   15.807674   15.503248
  C     16.930383   17.118215   15.242523
  O     17.049951   17.504823   14.094560
  C     17.034242   18.004467   16.454089
  C     16.888584   19.345280   16.303659
  C     16.236669   20.059948   15.138269
  N     17.335010   20.238078   17.279469
  C     18.157101   19.893059   18.317519
  S     18.755490   21.016255   19.373423
  N     18.479647   18.563585   18.423004
  C     17.886444   17.473776   17.623845
  C     17.264653   16.390895   18.493195
  C     17.752505   15.071653   18.454297
  C     17.175279   14.074353   19.258099
  C     16.107958   14.400959   20.112312
  C     15.628655   15.717187   20.161708
  O     14.597683   16.035401   20.983672
  C     16.203305   16.707443   19.358647
  H     14.170947   16.464868   14.651767
  H     13.350165   15.147325   15.516646
  H     14.555061   14.772307   14.264673
  H     15.153253   16.167164   16.946238
  H     15.494050   14.459233   16.583926
  H     15.390006   19.483125   14.745483
  H     16.953905   20.186039   14.316580
  H     15.854646   21.051108   15.410054
  H     17.138460   21.222073   17.186705
  H     19.075328   18.336686   19.209683
  H     18.800148   17.088707   17.148369
  H     18.574049   14.815979   17.789441
  H     17.555726   13.054771   19.217881
  H     15.659764   13.633558   20.735289
  H     14.378656   15.244391   21.499423
  H     15.823670   17.722813   19.413257

 Total Charge           Charge          ....    0
 Multiplicity           Mult            ....    1
 Number of Electrons    NEL             ....  154
 Basis Dimension        Dim             ....  828

ORBITAL ENERGIES
----------------

  NO   OCC          E(Eh)            E(eV)
   0   2.0000     -91.891566     -2500.4966
   1   2.0000     -20.603330      -560.6451
   2   2.0000     -20.587250      -560.2075
   3   2.0000     -20.549626      -559.1838
   4   2.0000     -15.630445      -425.3260
   5   2.0000     -15.610702      -424.7888
   6   2.0000     -11.393076      -310.0213
   7   2.0000     -11.386182      -309.8338
   8   2.0000     -11.336654      -308.4860
   9   2.0000     -11.321319      -308.0688
  10   2.0000     -11.315126      -307.9002
  11   2.0000     -11.297203      -307.4125
  12   2.0000     -11.267692      -306.6095
  13   2.0000     -11.262204      -306.4601
  14   2.0000     -11.258949      -306.3716
  15   2.0000     -11.254953      -306.2628
  16   2.0000     -11.251422      -306.1667
  17   2.0000     -11.245953      -306.0179
  18   2.0000     -11.245612      -306.0087
  19   2.0000     -11.225445      -305.4599
  20   2.0000      -8.896617      -242.0893
  21   2.0000      -6.578183      -179.0015
  22   2.0000      -6.576190      -178.9472
  23   2.0000      -6.575592      -178.9310
  24   2.0000      -1.446892       -39.3719
  25   2.0000      -1.423108       -38.7247
  26   2.0000      -1.356660       -36.9166
  27   2.0000      -1.342831       -36.5403
  28   2.0000      -1.241639       -33.7867
  29   2.0000      -1.164425       -31.6856
  30   2.0000      -1.123738       -30.5785
  31   2.0000      -1.049004       -28.5448
  32   2.0000      -1.032166       -28.0867
  33   2.0000      -1.022487       -27.8233
  34   2.0000      -1.001712       -27.2580
  35   2.0000      -0.988752       -26.9053
  36   2.0000      -0.926545       -25.2126
  37   2.0000      -0.885060       -24.0837
  38   2.0000      -0.851581       -23.1727
  39   2.0000      -0.844094       -22.9690
  40   2.0000      -0.841558       -22.9000
  41   2.0000      -0.833242       -22.6737
  42   2.0000      -0.755982       -20.5713
  43   2.0000      -0.738295       -20.0900
  44   2.0000      -0.718898       -19.5622
  45   2.0000      -0.701696       -19.0941
  46   2.0000      -0.691343       -18.8124
  47   2.0000      -0.679185       -18.4816
  48   2.0000      -0.672413       -18.2973
  49   2.0000      -0.669953       -18.2304
  50   2.0000      -0.649765       -17.6810
  51   2.0000      -0.648357       -17.6427
  52   2.0000      -0.637004       -17.3338
  53   2.0000      -0.613161       -16.6849
  54   2.0000      -0.608801       -16.5663
  55   2.0000      -0.603187       -16.4136
  56   2.0000      -0.601123       -16.3574
  57   2.0000      -0.582124       -15.8404
  58   2.0000      -0.575705       -15.6657
  59   2.0000      -0.569394       -15.4940
  60   2.0000      -0.559595       -15.2274
  61   2.0000      -0.549136       -14.9428
  62   2.0000      -0.542965       -14.7748
  63   2.0000      -0.529041       -14.3959
  64   2.0000      -0.523179       -14.2364
  65   2.0000      -0.517102       -14.0710
  66   2.0000      -0.504686       -13.7332
  67   2.0000      -0.498091       -13.5537
  68   2.0000      -0.484008       -13.1705
  69   2.0000      -0.467246       -12.7144
  70   2.0000      -0.455453       -12.3935
  71   2.0000      -0.447900       -12.1880
  72   2.0000      -0.357760        -9.7351
  73   2.0000      -0.352905        -9.6030
  74   2.0000      -0.331188        -9.0121
  75   2.0000      -0.328517        -8.9394
  76   2.0000      -0.321597        -8.7511
  77   0.0000       0.075152         2.0450
  78   0.0000       0.095773         2.6061
  79   0.0000       0.120984         3.2921
  80   0.0000       0.127826         3.4783
  81   0.0000       0.128733         3.5030

MULLIKEN ATOMIC CHARGES
-----------------------
   0 C :   -0.262580
   1 C :    0.012064
   2 O :   -0.353302
   3 C :    0.436372
   4 O :   -0.376842
   5 C :   -0.251156
   6 C :    0.160754
   7 C :   -0.270717
   8 N :   -0.129320
   9 C :    0.208515
  10 S :   -0.437272
  11 N :   -0.208021
  12 C :    0.041412
  13 C :   -0.000139
  14 C :   -0.156917
  15 C :   -0.149707
  16 C :   -0.268599
  17 C :    0.307498
  18 O :   -0.355252
  19 C :   -0.235508
  20 H :    0.089212
  21 H :    0.092690
  22 H :    0.106247
  23 H :    0.102732
  24 H :    0.119511
  25 H :    0.121292
  26 H :    0.139650
  27 H :    0.095661
  28 H :    0.199726
  29 H :    0.199920
  30 H :    0.153823
  31 H :    0.152126
  32 H :    0.166461
  33 H :    0.135129
  34 H :    0.241677
  35 H :    0.172858
Sum of atomic charges:   -0.0000000

LOEWDIN ATOMIC CHARGES
----------------------
   0 C :    0.106458
   1 C :   -0.025968
   2 O :    0.299621
   3 C :   -0.426865
   4 O :    0.125961
   5 C :   -0.104451
   6 C :   -0.063038
   7 C :    0.129591
   8 N :    0.407060
   9 C :   -0.457353
  10 S :   -0.033039
  11 N :    0.395365
  12 C :   -0.053320
  13 C :   -0.043474
  14 C :    0.022154
  15 C :    0.042341
  16 C :    0.000758
  17 C :   -0.192254
  18 O :    0.396404
  19 C :    0.032642
  20 H :   -0.029947
  21 H :   -0.027693
  22 H :   -0.022936
  23 H :   -0.037480
  24 H :   -0.022000
  25 H :   -0.007975
  26 H :   -0.003922
  27 H :   -0.022220
  28 H :   -0.056325
  29 H :   -0.063321
  30 H :   -0.011177
  31 H :   -0.026253
  32 H :   -0.019172
  33 H :   -0.033783
  34 H :   -0.152429
  35 H :   -0.021959

  Mayer bond orders larger than 0.100000
B(  0-C ,  1-C ) :   0.9826 B(  0-C , 20-H ) :   0.9752 B(  0-C , 21-H ) :   0.9771
B(  0-C , 22-H ) :   0.9790 B(  1-C ,  2-O ) :   0.8816 B(  1-C , 23-H ) :   0.9598
B(  1-C , 24-H ) :   0.9774 B(  2-O ,  3-C ) :   1.1351 B(  3-C ,  4-O ) :   2.0921
B(  3-C ,  5-C ) :   0.9864 B(  5-C ,  6-C ) :   1.6554 B(  5-C , 12-C ) :   0.9589
B(  6-C ,  7-C ) :   0.9598 B(  6-C ,  8-N ) :   1.1462 B(  7-C , 25-H ) :   0.9717
B(  7-C , 26-H ) :   0.9542 B(  7-C , 27-H ) :   0.9856 B(  8-N ,  9-C ) :   1.1892
B(  8-N , 28-H ) :   0.9480 B(  9-C , 10-S ) :   1.6149 B(  9-C , 11-N ) :   1.2971
B( 11-N , 12-C ) :   0.9790 B( 11-N , 29-H ) :   0.9479 B( 12-C , 13-C ) :   0.9647
B( 12-C , 30-H ) :   1.0059 B( 13-C , 14-C ) :   1.3547 B( 13-C , 19-C ) :   1.3578
B( 14-C , 15-C ) :   1.3975 B( 14-C , 31-H ) :   0.9740 B( 15-C , 16-C ) :   1.3597
B( 15-C , 32-H ) :   0.9696 B( 16-C , 17-C ) :   1.3302 B( 16-C , 33-H ) :   0.9831
B( 17-C , 18-O ) :   1.1096 B( 17-C , 19-C ) :   1.3653 B( 18-O , 34-H ) :   0.9788
B( 19-C , 35-H ) :   0.9586

MP2 TOTAL ENERGY:    -1274.324750034 Eh
FINAL SINGLE POINT ENERGY     -1274.324750034377

DIPOLE MOMENT
-------------
                                X             Y             Z
Electronic contribution:     10.14093       8.30987       7.83626
Nuclear contribution   :    -11.43871      -9.88910      -7.55765
                        -----------------------------------------
Total Dipole Moment    :     -1.29778      -1.57923       0.27860
                        -----------------------------------------
Magnitude (a.u.)       :      2.06296
Magnitude (Debye)      :      5.24363

Rotational constants in cm-1:     0.011708     0.009077     0.006073
Rotational constants in MHz :   350.995179   272.122188   182.058301

                             ****ORCA TERMINATED NORMALLY****
TOTAL RUN TIME: 0 days 1 hours 57 minutes 49 seconds 548 msec
