                         Program Version 4.2.0 -  RELEASE  -
|  1> ! ri-mp2 cc-pvtz cc-pvtz/c TightSCF NoKeepInts
|  2>
|  3> %scf
|  4>   MaxCore 4096
|  5> end
|  6> *xyz  0  1
|  7>     C       14.6880468   14.4666451   16.2624274
|  8>     C       15.1482338   15.8951318   15.9286186
|  9>     O       16.4668315   15.8014341   15.3563517
| 10>     C       17.2735626   16.8976249   15.2196752
| 11>     O       18.0186513   17.0169957   14.2651121
| 12>     C       17.1822230   17.9249678   16.3015961
| 13>     C       17.1034152   19.2253785   15.9360905
| 14>     C       16.7011253   19.7334588   14.5682822
| 15>     N       17.4197435   20.2513653   16.8277152
| 16>     C       18.0642900   20.0544277   18.0200581
| 17>     S       18.5220949   21.3157156   18.9865184
| 18>     N       18.3332939   18.7515611   18.3619779
| 19>     C       17.8441943   17.5607543   17.6386416
| 20>     C       17.0950510   16.5751866   18.5220614
| 21>     C       17.4961476   15.2284460   18.5859971
| 22>     C       16.8148810   14.3201989   19.4137263
| 23>     C       15.7218024   14.7617178   20.1789399
| 24>     C       15.3222123   16.1037721   20.1184569
| 25>     O       14.2657699   16.5325078   20.8532773
| 26>     C       16.0058616   17.0073205   19.2986075
| 27>     H       15.3789759   13.9898055   16.9671211
| 28>     H       14.6461351   13.8530276   15.3539034
| 29>     H       13.6898881   14.4793398   16.7164320
| 30>     H       14.4582537   16.3536125   15.2081599
| 31>     H       15.1309662   16.4949071   16.8434853
| 32>     H       15.9311679   19.0955096   14.1172339
| 33>     H       17.5660760   19.7287807   13.8914465
| 34>     H       16.3018388   20.7542382   14.6009225
| 35>     H       17.2719664   21.2126323   16.5636070
| 36>     H       18.8021014   18.6365412   19.2520776
| 37>     H       18.8103934   17.1201455   17.3516000
| 38>     H       18.3362544   14.8827455   17.9883303
| 39>     H       17.1320752   13.2793622   19.4564639
| 40>     H       15.1907429   14.0624169   20.8166389
| 41>     H       13.9646799   15.7875454   21.3955120
| 42>     H       15.6880528   18.0447795   19.2709343
| 43> *
| 44>
| 45>                          ****END OF INPUT****

CARTESIAN COORDINATES (ANGSTROEM)
---------------------------------
  C     14.688047   14.466645   16.262427
  C     15.148234   15.895132   15.928619
  O     16.466832   15.801434   15.356352
  C     17.273563   16.897625   15.219675
  O     18.018651   17.016996   14.265112
  C     17.182223   17.924968   16.301596
  C     17.103415   19.225379   15.936090
  C     16.701125   19.733459   14.568282
  N     17.419743   20.251365   16.827715
  C     18.064290   20.054428   18.020058
  S     18.522095   21.315716   18.986518
  N     18.333294   18.751561   18.361978
  C     17.844194   17.560754   17.638642
  C     17.095051   16.575187   18.522061
  C     17.496148   15.228446   18.585997
  C     16.814881   14.320199   19.413726
  C     15.721802   14.761718   20.178940
  C     15.322212   16.103772   20.118457
  O     14.265770   16.532508   20.853277
  C     16.005862   17.007320   19.298607
  H     15.378976   13.989805   16.967121
  H     14.646135   13.853028   15.353903
  H     13.689888   14.479340   16.716432
  H     14.458254   16.353613   15.208160
  H     15.130966   16.494907   16.843485
  H     15.931168   19.095510   14.117234
  H     17.566076   19.728781   13.891447
  H     16.301839   20.754238   14.600922
  H     17.271966   21.212632   16.563607
  H     18.802101   18.636541   19.252078
  H     18.810393   17.120145   17.351600
  H     18.336254   14.882746   17.988330
  H     17.132075   13.279362   19.456464
  H     15.190743   14.062417   20.816639
  H     13.964680   15.787545   21.395512
  H     15.688053   18.044780   19.270934

 Total Charge           Charge          ....    0
 Multiplicity           Mult            ....    1
 Number of Electrons    NEL             ....  154
 Basis Dimension        Dim             ....  828

ORBITAL ENERGIES
----------------

  NO   OCC          E(Eh)            E(eV)
   0   2.0000     -91.890278     -2500.4616
   1   2.0000     -20.604966      -560.6896
   2   2.0000     -20.596958      -560.4717
   3   2.0000     -20.552073      -559.2503
   4   2.0000     -15.627108      -425.2352
   5   2.0000     -15.611061      -424.7986
   6   2.0000     -11.394909      -310.0712
   7   2.0000     -11.385649      -309.8193
   8   2.0000     -11.329335      -308.2869
   9   2.0000     -11.323408      -308.1256
  10   2.0000     -11.317028      -307.9520
  11   2.0000     -11.298721      -307.4538
  12   2.0000     -11.270582      -306.6881
  13   2.0000     -11.264107      -306.5119
  14   2.0000     -11.257018      -306.3190
  15   2.0000     -11.256640      -306.3087
  16   2.0000     -11.252963      -306.2087
  17   2.0000     -11.248173      -306.0783
  18   2.0000     -11.247998      -306.0736
  19   2.0000     -11.227597      -305.5184
  20   2.0000      -8.895352      -242.0548
  21   2.0000      -6.576925      -178.9672
  22   2.0000      -6.574924      -178.9128
  23   2.0000      -6.574334      -178.8967
  24   2.0000      -1.447555       -39.3900
  25   2.0000      -1.424741       -38.7692
  26   2.0000      -1.360714       -37.0269
  27   2.0000      -1.340266       -36.4705
  28   2.0000      -1.240128       -33.7456
  29   2.0000      -1.166718       -31.7480
  30   2.0000      -1.125357       -30.6225
  31   2.0000      -1.051334       -28.6083
  32   2.0000      -1.035930       -28.1891
  33   2.0000      -1.025021       -27.8922
  34   2.0000      -1.003206       -27.2986
  35   2.0000      -0.989300       -26.9202
  36   2.0000      -0.927314       -25.2335
  37   2.0000      -0.877575       -23.8800
  38   2.0000      -0.852542       -23.1988
  39   2.0000      -0.844521       -22.9806
  40   2.0000      -0.843581       -22.9550
  41   2.0000      -0.838001       -22.8032
  42   2.0000      -0.761169       -20.7125
  43   2.0000      -0.739915       -20.1341
  44   2.0000      -0.728948       -19.8357
  45   2.0000      -0.703683       -19.1482
  46   2.0000      -0.692978       -18.8569
  47   2.0000      -0.681267       -18.5382
  48   2.0000      -0.676461       -18.4074
  49   2.0000      -0.659337       -17.9415
  50   2.0000      -0.652481       -17.7549
  51   2.0000      -0.647997       -17.6329
  52   2.0000      -0.638965       -17.3871
  53   2.0000      -0.615448       -16.7472
  54   2.0000      -0.610361       -16.6088
  55   2.0000      -0.604379       -16.4460
  56   2.0000      -0.601462       -16.3666
  57   2.0000      -0.583374       -15.8744
  58   2.0000      -0.576708       -15.6930
  59   2.0000      -0.566376       -15.4119
  60   2.0000      -0.558630       -15.2011
  61   2.0000      -0.549465       -14.9517
  62   2.0000      -0.543083       -14.7780
  63   2.0000      -0.532553       -14.4915
  64   2.0000      -0.525298       -14.2941
  65   2.0000      -0.517327       -14.0772
  66   2.0000      -0.507586       -13.8121
  67   2.0000      -0.503094       -13.6899
  68   2.0000      -0.489097       -13.3090
  69   2.0000      -0.465727       -12.6731
  70   2.0000      -0.456131       -12.4120
  71   2.0000      -0.452662       -12.3175
  72   2.0000      -0.358498        -9.7552
  73   2.0000      -0.351572        -9.5668
  74   2.0000      -0.331865        -9.0305
  75   2.0000      -0.328914        -8.9502
  76   2.0000      -0.320098        -8.7103
  77   0.0000       0.083280         2.2662
  78   0.0000       0.095152         2.5892
  79   0.0000       0.119884         3.2622
  80   0.0000       0.125167         3.4060
  81   0.0000       0.128390         3.4937

MULLIKEN ATOMIC CHARGES
-----------------------
   0 C :   -0.269477
   1 C :    0.020027
   2 O :   -0.313755
   3 C :    0.397780
   4 O :   -0.370701
   5 C :   -0.221918
   6 C :    0.144750
   7 C :   -0.281820
   8 N :   -0.132763
   9 C :    0.212072
  10 S :   -0.440162
  11 N :   -0.214030
  12 C :    0.033392
  13 C :    0.002625
  14 C :   -0.181987
  15 C :   -0.153601
  16 C :   -0.264772
  17 C :    0.310212
  18 O :   -0.354200
  19 C :   -0.228148
  20 H :    0.102344
  21 H :    0.108079
  22 H :    0.088693
  23 H :    0.107160
  24 H :    0.102007
  25 H :    0.114532
  26 H :    0.143853
  27 H :    0.098533
  28 H :    0.197976
  29 H :    0.200641
  30 H :    0.160493
  31 H :    0.157905
  32 H :    0.170581
  33 H :    0.135612
  34 H :    0.241794
  35 H :    0.176275
Sum of atomic charges:   -0.0000000

LOEWDIN ATOMIC CHARGES
----------------------
   0 C :    0.111309
   1 C :   -0.022169
   2 O :    0.306597
   3 C :   -0.421169
   4 O :    0.128059
   5 C :   -0.097987
   6 C :   -0.081038
   7 C :    0.129435
   8 N :    0.404938
   9 C :   -0.454910
  10 S :   -0.035648
  11 N :    0.395412
  12 C :   -0.054189
  13 C :   -0.044142
  14 C :    0.019954
  15 C :    0.045818
  16 C :    0.003086
  17 C :   -0.191325
  18 O :    0.397179
  19 C :    0.032570
  20 H :   -0.027882
  21 H :   -0.026167
  22 H :   -0.025541
  23 H :   -0.034498
  24 H :   -0.040807
  25 H :   -0.010302
  26 H :   -0.003524
  27 H :   -0.020562
  28 H :   -0.057711
  29 H :   -0.063841
  30 H :   -0.009453
  31 H :   -0.025863
  32 H :   -0.018789
  33 H :   -0.033500
  34 H :   -0.152133
  35 H :   -0.021208

  Mayer bond orders larger than 0.100000
B(  0-C ,  1-C ) :   0.9810 B(  0-C , 20-H ) :   0.9730 B(  0-C , 21-H ) :   0.9793
B(  0-C , 22-H ) :   0.9765 B(  1-C ,  2-O ) :   0.8952 B(  1-C , 23-H ) :   0.9813
B(  1-C , 24-H ) :   0.9560 B(  2-O ,  3-C ) :   1.1840 B(  3-C ,  4-O ) :   2.1323
B(  3-C ,  5-C ) :   0.9265 B(  5-C ,  6-C ) :   1.6996 B(  5-C , 12-C ) :   0.9560
B(  6-C ,  7-C ) :   0.9440 B(  6-C ,  8-N ) :   1.1276 B(  7-C , 25-H ) :   0.9771
B(  7-C , 26-H ) :   0.9567 B(  7-C , 27-H ) :   0.9851 B(  8-N ,  9-C ) :   1.1977
B(  8-N , 28-H ) :   0.9492 B(  9-C , 10-S ) :   1.6131 B(  9-C , 11-N ) :   1.2881
B( 11-N , 12-C ) :   0.9818 B( 11-N , 29-H ) :   0.9468 B( 12-C , 13-C ) :   0.9647
B( 12-C , 30-H ) :   1.0041 B( 13-C , 14-C ) :   1.3681 B( 13-C , 19-C ) :   1.3443
B( 14-C , 15-C ) :   1.3871 B( 14-C , 31-H ) :   0.9702 B( 15-C , 16-C ) :   1.3595
B( 15-C , 32-H ) :   0.9697 B( 16-C , 17-C ) :   1.3296 B( 16-C , 33-H ) :   0.9830
B( 17-C , 18-O ) :   1.1116 B( 17-C , 19-C ) :   1.3653 B( 18-O , 34-H ) :   0.9785
B( 19-C , 35-H ) :   0.9583

MP2 TOTAL ENERGY:    -1274.325874433 Eh
FINAL SINGLE POINT ENERGY     -1274.325874433473

DIPOLE MOMENT
-------------
                                X             Y             Z
Electronic contribution:      9.09062      10.35262       5.58460
Nuclear contribution   :    -10.71128     -11.84328      -5.33488
                        -----------------------------------------
Total Dipole Moment    :     -1.62066      -1.49066       0.24972
                        -----------------------------------------
Magnitude (a.u.)       :      2.21606
Magnitude (Debye)      :      5.63279

Rotational constants in cm-1:     0.012563     0.008766     0.006067
Rotational constants in MHz :   376.620570   262.798671   181.870524

                             ****ORCA TERMINATED NORMALLY****
TOTAL RUN TIME: 0 days 1 hours 46 minutes 36 seconds 309 msec
