                         Program Version 4.2.0 -  RELEASE  -
|  1> ! ri-mp2 cc-pvtz cc-pvtz/c TightSCF NoKeepInts
|  2>
|  3> %scf
|  4>   MaxCore 4096
|  5> end
|  6> *xyz  0  1
|  7>     C       13.7358940   16.4451191   14.7285990
|  8>     C       14.8892442   15.9968149   15.6435789
|  9>     O       16.1266323   16.1544368   14.9201311
| 10>     C       17.2742466   16.5145359   15.5735062
| 11>     O       18.3122321   15.9016629   15.4047356
| 12>     C       17.1599425   17.6343334   16.5586440
| 13>     C       16.6987349   18.8545061   16.1886098
| 14>     C       16.0688716   19.2503542   14.8696607
| 15>     N       16.8638958   19.9619485   17.0227011
| 16>     C       17.6827590   19.9844269   18.1205130
| 17>     S       17.9210465   21.3628919   19.0021667
| 18>     N       18.3146258   18.8070286   18.4357814
| 19>     C       18.0580198   17.5045727   17.7896822
| 20>     C       17.5935584   16.4095063   18.7383234
| 21>     C       18.1706081   15.1284853   18.6786769
| 22>     C       17.7313374   14.1068537   19.5370895
| 23>     C       16.7041940   14.3681465   20.4602131
| 24>     C       16.1227910   15.6422952   20.5166666
| 25>     O       15.1238722   15.8946145   21.3993523
| 26>     C       16.5609886   16.6571453   19.6597370
| 27>     H       12.7725817   16.3196147   15.2379647
| 28>     H       13.7175173   15.8399340   13.8133871
| 29>     H       13.8345260   17.4962169   14.4409161
| 30>     H       14.8655556   16.6024401   16.5585546
| 31>     H       14.7597622   14.9453281   15.9325961
| 32>     H       16.2179207   18.5021868   14.0829544
| 33>     H       16.5094244   20.1808407   14.4890917
| 34>     H       14.9917732   19.4164991   14.9850230
| 35>     H       16.4361127   20.8420348   16.7810569
| 36>     H       18.9089375   18.8478439   19.2544197
| 37>     H       19.0630967   17.2744945   17.4053314
| 38>     H       18.9561178   14.9221627   17.9542433
| 39>     H       18.1843945   13.1183740   19.4810723
| 40>     H       16.3613309   13.5812686   21.1240079
| 41>     H       14.9970943   15.0945559   21.9315520
| 42>     H       16.0973596   17.6365264   19.7174605
| 43> *
| 44>
| 45>                          ****END OF INPUT****

CARTESIAN COORDINATES (ANGSTROEM)
---------------------------------
  C     13.735894   16.445119   14.728599
  C     14.889244   15.996815   15.643579
  O     16.126632   16.154437   14.920131
  C     17.274247   16.514536   15.573506
  O     18.312232   15.901663   15.404736
  C     17.159942   17.634333   16.558644
  C     16.698735   18.854506   16.188610
  C     16.068872   19.250354   14.869661
  N     16.863896   19.961948   17.022701
  C     17.682759   19.984427   18.120513
  S     17.921046   21.362892   19.002167
  N     18.314626   18.807029   18.435781
  C     18.058020   17.504573   17.789682
  C     17.593558   16.409506   18.738323
  C     18.170608   15.128485   18.678677
  C     17.731337   14.106854   19.537089
  C     16.704194   14.368146   20.460213
  C     16.122791   15.642295   20.516667
  O     15.123872   15.894614   21.399352
  C     16.560989   16.657145   19.659737
  H     12.772582   16.319615   15.237965
  H     13.717517   15.839934   13.813387
  H     13.834526   17.496217   14.440916
  H     14.865556   16.602440   16.558555
  H     14.759762   14.945328   15.932596
  H     16.217921   18.502187   14.082954
  H     16.509424   20.180841   14.489092
  H     14.991773   19.416499   14.985023
  H     16.436113   20.842035   16.781057
  H     18.908938   18.847844   19.254420
  H     19.063097   17.274494   17.405331
  H     18.956118   14.922163   17.954243
  H     18.184394   13.118374   19.481072
  H     16.361331   13.581269   21.124008
  H     14.997094   15.094556   21.931552
  H     16.097360   17.636526   19.717461

 Total Charge           Charge          ....    0
 Multiplicity           Mult            ....    1
 Number of Electrons    NEL             ....  154
 Basis Dimension        Dim             ....  828

ORBITAL ENERGIES
----------------

  NO   OCC          E(Eh)            E(eV)
   0   2.0000     -91.889714     -2500.4462
   1   2.0000     -20.599012      -560.5276
   2   2.0000     -20.598665      -560.5182
   3   2.0000     -20.552684      -559.2670
   4   2.0000     -15.628120      -425.2628
   5   2.0000     -15.609000      -424.7425
   6   2.0000     -11.397806      -310.1501
   7   2.0000     -11.385455      -309.8140
   8   2.0000     -11.335487      -308.4543
   9   2.0000     -11.315715      -307.9163
  10   2.0000     -11.308890      -307.7305
  11   2.0000     -11.306136      -307.6556
  12   2.0000     -11.264705      -306.5282
  13   2.0000     -11.264293      -306.5170
  14   2.0000     -11.263187      -306.4869
  15   2.0000     -11.255797      -306.2858
  16   2.0000     -11.245028      -305.9928
  17   2.0000     -11.241306      -305.8915
  18   2.0000     -11.238129      -305.8050
  19   2.0000     -11.237842      -305.7972
  20   2.0000      -8.894820      -242.0403
  21   2.0000      -6.576401      -178.9530
  22   2.0000      -6.574389      -178.8982
  23   2.0000      -6.573806      -178.8823
  24   2.0000      -1.450411       -39.4677
  25   2.0000      -1.418388       -38.5963
  26   2.0000      -1.362431       -37.0736
  27   2.0000      -1.341315       -36.4990
  28   2.0000      -1.239378       -33.7252
  29   2.0000      -1.160053       -31.5667
  30   2.0000      -1.125345       -30.6222
  31   2.0000      -1.047346       -28.4997
  32   2.0000      -1.042043       -28.3554
  33   2.0000      -1.017814       -27.6961
  34   2.0000      -1.005452       -27.3597
  35   2.0000      -0.988946       -26.9106
  36   2.0000      -0.925702       -25.1896
  37   2.0000      -0.885166       -24.0866
  38   2.0000      -0.853673       -23.2296
  39   2.0000      -0.842628       -22.9291
  40   2.0000      -0.836665       -22.7668
  41   2.0000      -0.834975       -22.7208
  42   2.0000      -0.759711       -20.6728
  43   2.0000      -0.738507       -20.0958
  44   2.0000      -0.731743       -19.9117
  45   2.0000      -0.696094       -18.9417
  46   2.0000      -0.688229       -18.7277
  47   2.0000      -0.684751       -18.6330
  48   2.0000      -0.674418       -18.3518
  49   2.0000      -0.662752       -18.0344
  50   2.0000      -0.651758       -17.7352
  51   2.0000      -0.640188       -17.4204
  52   2.0000      -0.639296       -17.3961
  53   2.0000      -0.620342       -16.8804
  54   2.0000      -0.609822       -16.5941
  55   2.0000      -0.605953       -16.4888
  56   2.0000      -0.601977       -16.3806
  57   2.0000      -0.583871       -15.8879
  58   2.0000      -0.576481       -15.6868
  59   2.0000      -0.570185       -15.5155
  60   2.0000      -0.561570       -15.2811
  61   2.0000      -0.557292       -15.1647
  62   2.0000      -0.543912       -14.8006
  63   2.0000      -0.533301       -14.5119
  64   2.0000      -0.522315       -14.2129
  65   2.0000      -0.514529       -14.0011
  66   2.0000      -0.500770       -13.6266
  67   2.0000      -0.500076       -13.6078
  68   2.0000      -0.488286       -13.2869
  69   2.0000      -0.468339       -12.7441
  70   2.0000      -0.462605       -12.5881
  71   2.0000      -0.450953       -12.2711
  72   2.0000      -0.356628        -9.7043
  73   2.0000      -0.350987        -9.5508
  74   2.0000      -0.329147        -8.9565
  75   2.0000      -0.323159        -8.7936
  76   2.0000      -0.319790        -8.7019
  77   0.0000       0.081709         2.2234
  78   0.0000       0.103817         2.8250
  79   0.0000       0.117667         3.2019
  80   0.0000       0.130955         3.5635
  81   0.0000       0.131789         3.5861

MULLIKEN ATOMIC CHARGES
-----------------------
   0 C :   -0.273822
   1 C :    0.019130
   2 O :   -0.338772
   3 C :    0.439090
   4 O :   -0.376130
   5 C :   -0.249578
   6 C :    0.180732
   7 C :   -0.349370
   8 N :   -0.137412
   9 C :    0.205595
  10 S :   -0.442700
  11 N :   -0.218255
  12 C :    0.060193
  13 C :    0.025308
  14 C :   -0.211053
  15 C :   -0.128404
  16 C :   -0.276861
  17 C :    0.313540
  18 O :   -0.356666
  19 C :   -0.254005
  20 H :    0.098163
  21 H :    0.107052
  22 H :    0.092342
  23 H :    0.102287
  24 H :    0.119309
  25 H :    0.141823
  26 H :    0.137388
  27 H :    0.123703
  28 H :    0.198524
  29 H :    0.201381
  30 H :    0.165202
  31 H :    0.174221
  32 H :    0.164122
  33 H :    0.131095
  34 H :    0.241239
  35 H :    0.171590
Sum of atomic charges:   -0.0000000

LOEWDIN ATOMIC CHARGES
----------------------
   0 C :    0.108470
   1 C :   -0.017249
   2 O :    0.301096
   3 C :   -0.416312
   4 O :    0.125713
   5 C :   -0.088086
   6 C :   -0.084561
   7 C :    0.125256
   8 N :    0.403682
   9 C :   -0.457488
  10 S :   -0.037992
  11 N :    0.396011
  12 C :   -0.049502
  13 C :   -0.043986
  14 C :    0.021061
  15 C :    0.044063
  16 C :   -0.000118
  17 C :   -0.192027
  18 O :    0.394413
  19 C :    0.026960
  20 H :   -0.023347
  21 H :   -0.023637
  22 H :   -0.032712
  23 H :   -0.037040
  24 H :   -0.026258
  25 H :   -0.010158
  26 H :   -0.011062
  27 H :   -0.018081
  28 H :   -0.056489
  29 H :   -0.063480
  30 H :   -0.004823
  31 H :   -0.021450
  32 H :   -0.018944
  33 H :   -0.034989
  34 H :   -0.153333
  35 H :   -0.023598

  Mayer bond orders larger than 0.100000
B(  0-C ,  1-C ) :   0.9753 B(  0-C , 20-H ) :   0.9761 B(  0-C , 21-H ) :   0.9778
B(  0-C , 22-H ) :   0.9781 B(  1-C ,  2-O ) :   0.9029 B(  1-C , 23-H ) :   0.9596
B(  1-C , 24-H ) :   0.9814 B(  2-O ,  3-C ) :   1.1438 B(  3-C ,  4-O ) :   2.0963
B(  3-C ,  5-C ) :   0.9371 B(  5-C ,  6-C ) :   1.7068 B(  5-C , 12-C ) :   0.9446
B(  6-C ,  7-C ) :   0.9352 B(  6-C ,  8-N ) :   1.1131 B(  7-C , 25-H ) :   0.9733
B(  7-C , 26-H ) :   0.9757 B(  7-C , 27-H ) :   0.9659 B(  8-N ,  9-C ) :   1.1948
B(  8-N , 28-H ) :   0.9506 B(  9-C , 10-S ) :   1.6107 B(  9-C , 11-N ) :   1.2939
B( 11-N , 12-C ) :   0.9870 B( 11-N , 29-H ) :   0.9482 B( 12-C , 13-C ) :   0.9696
B( 12-C , 30-H ) :   0.9914 B( 13-C , 14-C ) :   1.3844 B( 13-C , 19-C ) :   1.3548
B( 14-C , 15-C ) :   1.3936 B( 14-C , 31-H ) :   0.9596 B( 15-C , 16-C ) :   1.3618
B( 15-C , 32-H ) :   0.9699 B( 16-C , 17-C ) :   1.3310 B( 16-C , 33-H ) :   0.9851
B( 17-C , 18-O ) :   1.1080 B( 17-C , 19-C ) :   1.3664 B( 18-O , 34-H ) :   0.9795
B( 19-C , 35-H ) :   0.9572

MP2 TOTAL ENERGY:    -1274.330097087 Eh
FINAL SINGLE POINT ENERGY     -1274.330097087298

DIPOLE MOMENT
-------------
                                X             Y             Z
Electronic contribution:     11.04968       6.09786       9.20376
Nuclear contribution   :    -12.61849      -7.32494      -9.53248
                        -----------------------------------------
Total Dipole Moment    :     -1.56881      -1.22708      -0.32872
                        -----------------------------------------
Magnitude (a.u.)       :      2.01865
Magnitude (Debye)      :      5.13100

Rotational constants in cm-1:     0.010412     0.009183     0.006255
Rotational constants in MHz :   312.134763   275.308180   187.509691

                             ****ORCA TERMINATED NORMALLY****
TOTAL RUN TIME: 0 days 1 hours 44 minutes 2 seconds 680 msec
