                         Program Version 4.2.0 -  RELEASE  -
|  1> ! ri-mp2 cc-pvtz cc-pvtz/c TightSCF NoKeepInts
|  2>
|  3> %scf
|  4>   MaxCore 4096
|  5> end
|  6> *xyz  0  1
|  7>     C       13.6930364   15.8371490   14.3205127
|  8>     C       15.1789122   15.4721298   14.4761145
|  9>     O       15.8728216   16.6653005   14.8773642
| 10>     C       16.8954412   16.5606834   15.7732995
| 11>     O       17.5570880   15.5412774   15.8804497
| 12>     C       17.0485355   17.7316184   16.7033665
| 13>     C       16.7057169   19.0005755   16.3549003
| 14>     C       15.9209381   19.4563268   15.1401490
| 15>     N       17.1146291   20.0880548   17.1312508
| 16>     C       18.0417998   20.0188648   18.1356023
| 17>     S       18.5600133   21.3681146   18.9396615
| 18>     N       18.5354479   18.7722374   18.4245097
| 19>     C       18.0413621   17.5054320   17.8511104
| 20>     C       17.5408215   16.5265292   18.9051614
| 21>     C       18.0770613   15.2291489   18.9920290
| 22>     C       17.6155283   14.3288449   19.9669454
| 23>     C       16.6102102   14.7300556   20.8634723
| 24>     C       16.0728719   16.0218688   20.7778202
| 25>     O       15.0993103   16.4104737   21.6395173
| 26>     C       16.5340015   16.9154994   19.8058648
| 27>     H       13.2845786   16.2089201   15.2685574
| 28>     H       13.1113090   14.9579238   14.0177909
| 29>     H       13.5633354   16.6143287   13.5571599
| 30>     H       15.2690190   14.6882679   15.2414022
| 31>     H       15.5908274   15.0879276   13.5337774
| 32>     H       16.4032799   19.1178170   14.2145529
| 33>     H       15.8318025   20.5475115   15.0744070
| 34>     H       14.9028061   19.0478173   15.1607144
| 35>     H       16.7779499   21.0128742   16.9163392
| 36>     H       19.2014312   18.7450875   19.1862890
| 37>     H       18.9623750   17.1311487   17.3808376
| 38>     H       18.8437088   14.9135083   18.2883103
| 39>     H       18.0332930   13.3251238   20.0202058
| 40>     H       16.2498838   14.0374445   21.6167091
| 41>     H       14.9369663   15.6717336   22.2450526
| 42>     H       16.1088870   17.9123806   19.7567931
| 43> *
| 44>
| 45>                          ****END OF INPUT****

CARTESIAN COORDINATES (ANGSTROEM)
---------------------------------
  C     13.693036   15.837149   14.320513
  C     15.178912   15.472130   14.476114
  O     15.872822   16.665301   14.877364
  C     16.895441   16.560683   15.773299
  O     17.557088   15.541277   15.880450
  C     17.048535   17.731618   16.703367
  C     16.705717   19.000576   16.354900
  C     15.920938   19.456327   15.140149
  N     17.114629   20.088055   17.131251
  C     18.041800   20.018865   18.135602
  S     18.560013   21.368115   18.939661
  N     18.535448   18.772237   18.424510
  C     18.041362   17.505432   17.851110
  C     17.540821   16.526529   18.905161
  C     18.077061   15.229149   18.992029
  C     17.615528   14.328845   19.966945
  C     16.610210   14.730056   20.863472
  C     16.072872   16.021869   20.777820
  O     15.099310   16.410474   21.639517
  C     16.534001   16.915499   19.805865
  H     13.284579   16.208920   15.268557
  H     13.111309   14.957924   14.017791
  H     13.563335   16.614329   13.557160
  H     15.269019   14.688268   15.241402
  H     15.590827   15.087928   13.533777
  H     16.403280   19.117817   14.214553
  H     15.831803   20.547511   15.074407
  H     14.902806   19.047817   15.160714
  H     16.777950   21.012874   16.916339
  H     19.201431   18.745088   19.186289
  H     18.962375   17.131149   17.380838
  H     18.843709   14.913508   18.288310
  H     18.033293   13.325124   20.020206
  H     16.249884   14.037444   21.616709
  H     14.936966   15.671734   22.245053
  H     16.108887   17.912381   19.756793

 Total Charge           Charge          ....    0
 Multiplicity           Mult            ....    1
 Number of Electrons    NEL             ....  154
 Basis Dimension        Dim             ....  828

ORBITAL ENERGIES
----------------

  NO   OCC          E(Eh)            E(eV)
   0   2.0000     -91.888095     -2500.4022
   1   2.0000     -20.601033      -560.5826
   2   2.0000     -20.591897      -560.3340
   3   2.0000     -20.545790      -559.0794
   4   2.0000     -15.628745      -425.2798
   5   2.0000     -15.605716      -424.6531
   6   2.0000     -11.394862      -310.0699
   7   2.0000     -11.382623      -309.7369
   8   2.0000     -11.338400      -308.5336
   9   2.0000     -11.307834      -307.7018
  10   2.0000     -11.304241      -307.6040
  11   2.0000     -11.300194      -307.4939
  12   2.0000     -11.260927      -306.4254
  13   2.0000     -11.259158      -306.3773
  14   2.0000     -11.255037      -306.2651
  15   2.0000     -11.247850      -306.0696
  16   2.0000     -11.238095      -305.8041
  17   2.0000     -11.234747      -305.7130
  18   2.0000     -11.234245      -305.6993
  19   2.0000     -11.230928      -305.6091
  20   2.0000      -8.893178      -241.9957
  21   2.0000      -6.574755      -178.9082
  22   2.0000      -6.572752      -178.8537
  23   2.0000      -6.572164      -178.8377
  24   2.0000      -1.454786       -39.5868
  25   2.0000      -1.411644       -38.4128
  26   2.0000      -1.357057       -36.9274
  27   2.0000      -1.340004       -36.4634
  28   2.0000      -1.237125       -33.6639
  29   2.0000      -1.152433       -31.3593
  30   2.0000      -1.120838       -30.4995
  31   2.0000      -1.044871       -28.4324
  32   2.0000      -1.036920       -28.2160
  33   2.0000      -1.009981       -27.4830
  34   2.0000      -0.999012       -27.1845
  35   2.0000      -0.984097       -26.7786
  36   2.0000      -0.920725       -25.0542
  37   2.0000      -0.888831       -24.1863
  38   2.0000      -0.847157       -23.0523
  39   2.0000      -0.834918       -22.7193
  40   2.0000      -0.828089       -22.5334
  41   2.0000      -0.818478       -22.2719
  42   2.0000      -0.762327       -20.7440
  43   2.0000      -0.736195       -20.0329
  44   2.0000      -0.726170       -19.7601
  45   2.0000      -0.690853       -18.7991
  46   2.0000      -0.684432       -18.6243
  47   2.0000      -0.680563       -18.5191
  48   2.0000      -0.675507       -18.3815
  49   2.0000      -0.660292       -17.9675
  50   2.0000      -0.649654       -17.6780
  51   2.0000      -0.642352       -17.4793
  52   2.0000      -0.633621       -17.2417
  53   2.0000      -0.603607       -16.4250
  54   2.0000      -0.598938       -16.2979
  55   2.0000      -0.595522       -16.2050
  56   2.0000      -0.594684       -16.1822
  57   2.0000      -0.579312       -15.7639
  58   2.0000      -0.573200       -15.5976
  59   2.0000      -0.565592       -15.3905
  60   2.0000      -0.560670       -15.2566
  61   2.0000      -0.557546       -15.1716
  62   2.0000      -0.542336       -14.7577
  63   2.0000      -0.521186       -14.1822
  64   2.0000      -0.516007       -14.0413
  65   2.0000      -0.510070       -13.8797
  66   2.0000      -0.502575       -13.6758
  67   2.0000      -0.494268       -13.4497
  68   2.0000      -0.480784       -13.0828
  69   2.0000      -0.465335       -12.6624
  70   2.0000      -0.458506       -12.4766
  71   2.0000      -0.454507       -12.3678
  72   2.0000      -0.353180        -9.6105
  73   2.0000      -0.344621        -9.3776
  74   2.0000      -0.327160        -8.9025
  75   2.0000      -0.317242        -8.6326
  76   2.0000      -0.314426        -8.5560
  77   0.0000       0.076583         2.0839
  78   0.0000       0.111314         3.0290
  79   0.0000       0.120331         3.2744
  80   0.0000       0.135687         3.6922
  81   0.0000       0.138710         3.7745

MULLIKEN ATOMIC CHARGES
-----------------------
   0 C :   -0.274992
   1 C :    0.038648
   2 O :   -0.342094
   3 C :    0.418432
   4 O :   -0.416402
   5 C :   -0.176426
   6 C :    0.158874
   7 C :   -0.282225
   8 N :   -0.128611
   9 C :    0.207440
  10 S :   -0.442306
  11 N :   -0.210568
  12 C :    0.042454
  13 C :    0.032082
  14 C :   -0.166658
  15 C :   -0.134702
  16 C :   -0.277295
  17 C :    0.313979
  18 O :   -0.359213
  19 C :   -0.252029
  20 H :    0.097965
  21 H :    0.102246
  22 H :    0.093151
  23 H :    0.097426
  24 H :    0.098370
  25 H :    0.126566
  26 H :    0.103534
  27 H :    0.128024
  28 H :    0.198854
  29 H :    0.199955
  30 H :    0.155243
  31 H :    0.158741
  32 H :    0.160090
  33 H :    0.128252
  34 H :    0.239961
  35 H :    0.163233
Sum of atomic charges:   -0.0000000

LOEWDIN ATOMIC CHARGES
----------------------
   0 C :    0.105172
   1 C :   -0.015155
   2 O :    0.306080
   3 C :   -0.417515
   4 O :    0.106535
   5 C :   -0.092985
   6 C :   -0.064310
   7 C :    0.125169
   8 N :    0.405507
   9 C :   -0.458627
  10 S :   -0.037551
  11 N :    0.396457
  12 C :   -0.048279
  13 C :   -0.040551
  14 C :    0.025152
  15 C :    0.040932
  16 C :   -0.001281
  17 C :   -0.192724
  18 O :    0.392952
  19 C :    0.029359
  20 H :   -0.026545
  21 H :   -0.023376
  22 H :   -0.029390
  23 H :   -0.025388
  24 H :   -0.029661
  25 H :   -0.009027
  26 H :   -0.021180
  27 H :   -0.009823
  28 H :   -0.058724
  29 H :   -0.063106
  30 H :   -0.008159
  31 H :   -0.023896
  32 H :   -0.021026
  33 H :   -0.036189
  34 H :   -0.154878
  35 H :   -0.023970

  Mayer bond orders larger than 0.100000
B(  0-C ,  1-C ) :   0.9715 B(  0-C , 20-H ) :   0.9764 B(  0-C , 21-H ) :   0.9785
B(  0-C , 22-H ) :   0.9781 B(  1-C ,  2-O ) :   0.9039 B(  1-C , 23-H ) :   0.9728
B(  1-C , 24-H ) :   0.9823 B(  2-O ,  3-C ) :   1.1391 B(  3-C ,  4-O ) :   1.9976
B(  3-C ,  5-C ) :   1.0400 B(  5-C ,  6-C ) :   1.6561 B(  5-C , 12-C ) :   0.9493
B(  6-C ,  7-C ) :   0.9546 B(  6-C ,  8-N ) :   1.1362 B(  7-C , 25-H ) :   0.9649
B(  7-C , 26-H ) :   0.9909 B(  7-C , 27-H ) :   0.9640 B(  8-N ,  9-C ) :   1.1851
B(  8-N , 28-H ) :   0.9468 B(  9-C , 10-S ) :   1.6082 B(  9-C , 11-N ) :   1.3066
B( 11-N , 12-C ) :   0.9765 B( 11-N , 29-H ) :   0.9486 B( 12-C , 13-C ) :   0.9728
B( 12-C , 30-H ) :   0.9968 B( 13-C , 14-C ) :   1.3762 B( 13-C , 19-C ) :   1.3655
B( 14-C , 15-C ) :   1.3975 B( 14-C , 31-H ) :   0.9638 B( 15-C , 16-C ) :   1.3585
B( 15-C , 32-H ) :   0.9711 B( 16-C , 17-C ) :   1.3334 B( 16-C , 33-H ) :   0.9860
B( 17-C , 18-O ) :   1.1034 B( 17-C , 19-C ) :   1.3675 B( 18-O , 34-H ) :   0.9806
B( 19-C , 35-H ) :   0.9604

MP2 TOTAL ENERGY:    -1274.338626568 Eh
FINAL SINGLE POINT ENERGY     -1274.338626568493

DIPOLE MOMENT
-------------
                                X             Y             Z
Electronic contribution:     11.13336       8.52525      11.15779
Nuclear contribution   :    -12.54645      -9.87352     -12.17693
                        -----------------------------------------
Total Dipole Moment    :     -1.41308      -1.34828      -1.01914
                        -----------------------------------------
Magnitude (a.u.)       :      2.20302
Magnitude (Debye)      :      5.59963

Rotational constants in cm-1:     0.009611     0.009182     0.005670
Rotational constants in MHz :   288.121453   275.260849   169.974986

                             ****ORCA TERMINATED NORMALLY****
TOTAL RUN TIME: 0 days 1 hours 46 minutes 16 seconds 842 msec
