                         Program Version 4.2.0 -  RELEASE  -
|  1> ! ri-mp2 cc-pvtz cc-pvtz/c TightSCF NoKeepInts
|  2>
|  3> %scf
|  4>   MaxCore 4096
|  5> end
|  6> *xyz  0  1
|  7>     C       14.6277749   15.3331647   16.1942219
|  8>     C       15.8555411   14.8500875   15.3935110
|  9>     O       16.9817702   15.7357722   15.5631093
| 10>     C       16.8433544   17.0460529   15.2128414
| 11>     O       16.4574558   17.3518146   14.0982425
| 12>     C       17.0398002   18.0009719   16.3622821
| 13>     C       16.9632874   19.3418312   16.1539968
| 14>     C       16.3763919   20.0544342   14.9525457
| 15>     N       17.4521296   20.2483787   17.0972809
| 16>     C       18.2384216   19.9052109   18.1627314
| 17>     S       18.8876212   21.0400284   19.1756494
| 18>     N       18.4816726   18.5663758   18.3323983
| 19>     C       17.8403781   17.4778980   17.5701015
| 20>     C       17.1034181   16.5009159   18.4756537
| 21>     C       17.5272640   15.1639294   18.5894885
| 22>     C       16.8555975   14.2729438   19.4434821
| 23>     C       15.7578253   14.7253083   20.1958462
| 24>     C       15.3408872   16.0597571   20.0924310
| 25>     O       14.2818164   16.4990962   20.8175279
| 26>     C       16.0093344   16.9433372   19.2390449
| 27>     H       14.8391012   15.3414868   17.2679188
| 28>     H       13.7812594   14.6560019   16.0287231
| 29>     H       14.3140251   16.3385733   15.8877164
| 30>     H       16.1323991   13.8421390   15.7280324
| 31>     H       15.5928396   14.7898960   14.3285033
| 32>     H       17.0235279   19.9289920   14.0749075
| 33>     H       16.2404958   21.1301270   15.1151213
| 34>     H       15.3931874   19.6390626   14.6971886
| 35>     H       17.3053364   21.2363112   16.9650117
| 36>     H       19.0445896   18.3406563   19.1428811
| 37>     H       18.7363274   17.0064858   17.1416664
| 38>     H       18.3752842   14.8134511   18.0068031
| 39>     H       17.1876079   13.2390975   19.5220539
| 40>     H       15.2370491   14.0412128   20.8578601
| 41>     H       13.9842396   15.7645263   21.3751169
| 42>     H       15.6779884   17.9746713   19.1761089
| 43> *
| 44>
| 45>                          ****END OF INPUT****

CARTESIAN COORDINATES (ANGSTROEM)
---------------------------------
  C     14.627775   15.333165   16.194222
  C     15.855541   14.850088   15.393511
  O     16.981770   15.735772   15.563109
  C     16.843354   17.046053   15.212841
  O     16.457456   17.351815   14.098242
  C     17.039800   18.000972   16.362282
  C     16.963287   19.341831   16.153997
  C     16.376392   20.054434   14.952546
  N     17.452130   20.248379   17.097281
  C     18.238422   19.905211   18.162731
  S     18.887621   21.040028   19.175649
  N     18.481673   18.566376   18.332398
  C     17.840378   17.477898   17.570101
  C     17.103418   16.500916   18.475654
  C     17.527264   15.163929   18.589489
  C     16.855597   14.272944   19.443482
  C     15.757825   14.725308   20.195846
  C     15.340887   16.059757   20.092431
  O     14.281816   16.499096   20.817528
  C     16.009334   16.943337   19.239045
  H     14.839101   15.341487   17.267919
  H     13.781259   14.656002   16.028723
  H     14.314025   16.338573   15.887716
  H     16.132399   13.842139   15.728032
  H     15.592840   14.789896   14.328503
  H     17.023528   19.928992   14.074908
  H     16.240496   21.130127   15.115121
  H     15.393187   19.639063   14.697189
  H     17.305336   21.236311   16.965012
  H     19.044590   18.340656   19.142881
  H     18.736327   17.006486   17.141666
  H     18.375284   14.813451   18.006803
  H     17.187608   13.239097   19.522054
  H     15.237049   14.041213   20.857860
  H     13.984240   15.764526   21.375117
  H     15.677988   17.974671   19.176109

 Total Charge           Charge          ....    0
 Multiplicity           Mult            ....    1
 Number of Electrons    NEL             ....  154
 Basis Dimension        Dim             ....  828

ORBITAL ENERGIES
----------------

  NO   OCC          E(Eh)            E(eV)
   0   2.0000     -91.890797     -2500.4757
   1   2.0000     -20.599345      -560.5367
   2   2.0000     -20.585605      -560.1628
   3   2.0000     -20.544486      -559.0439
   4   2.0000     -15.631132      -425.3447
   5   2.0000     -15.608597      -424.7315
   6   2.0000     -11.392988      -310.0190
   7   2.0000     -11.384975      -309.8009
   8   2.0000     -11.339698      -308.5689
   9   2.0000     -11.316849      -307.9471
  10   2.0000     -11.310255      -307.7677
  11   2.0000     -11.297757      -307.4276
  12   2.0000     -11.263476      -306.4948
  13   2.0000     -11.259796      -306.3946
  14   2.0000     -11.258360      -306.3556
  15   2.0000     -11.253134      -306.2133
  16   2.0000     -11.247161      -306.0508
  17   2.0000     -11.241851      -305.9063
  18   2.0000     -11.241363      -305.8930
  19   2.0000     -11.223519      -305.4075
  20   2.0000      -8.895842      -242.0682
  21   2.0000      -6.577407      -178.9803
  22   2.0000      -6.575416      -178.9262
  23   2.0000      -6.574818      -178.9099
  24   2.0000      -1.447673       -39.3932
  25   2.0000      -1.419121       -38.6162
  26   2.0000      -1.351518       -36.7767
  27   2.0000      -1.342647       -36.5353
  28   2.0000      -1.240478       -33.7551
  29   2.0000      -1.160368       -31.5752
  30   2.0000      -1.122327       -30.5401
  31   2.0000      -1.045112       -28.4389
  32   2.0000      -1.031993       -28.0820
  33   2.0000      -1.018106       -27.7041
  34   2.0000      -0.999121       -27.1875
  35   2.0000      -0.987032       -26.8585
  36   2.0000      -0.924029       -25.1441
  37   2.0000      -0.894648       -24.3446
  38   2.0000      -0.848407       -23.0863
  39   2.0000      -0.841099       -22.8875
  40   2.0000      -0.837261       -22.7830
  41   2.0000      -0.816193       -22.2097
  42   2.0000      -0.751298       -20.4439
  43   2.0000      -0.736023       -20.0282
  44   2.0000      -0.723193       -19.6791
  45   2.0000      -0.697856       -18.9896
  46   2.0000      -0.690285       -18.7836
  47   2.0000      -0.675213       -18.3735
  48   2.0000      -0.671532       -18.2733
  49   2.0000      -0.664919       -18.0934
  50   2.0000      -0.647959       -17.6319
  51   2.0000      -0.643185       -17.5020
  52   2.0000      -0.636913       -17.3313
  53   2.0000      -0.612852       -16.6765
  54   2.0000      -0.609447       -16.5839
  55   2.0000      -0.601830       -16.3766
  56   2.0000      -0.601211       -16.3598
  57   2.0000      -0.579315       -15.7640
  58   2.0000      -0.570615       -15.5272
  59   2.0000      -0.566625       -15.4187
  60   2.0000      -0.552814       -15.0428
  61   2.0000      -0.545295       -14.8382
  62   2.0000      -0.539974       -14.6934
  63   2.0000      -0.528476       -14.3806
  64   2.0000      -0.525767       -14.3068
  65   2.0000      -0.514774       -14.0077
  66   2.0000      -0.502257       -13.6671
  67   2.0000      -0.500729       -13.6255
  68   2.0000      -0.477981       -13.0065
  69   2.0000      -0.465157       -12.6576
  70   2.0000      -0.452444       -12.3116
  71   2.0000      -0.445422       -12.1205
  72   2.0000      -0.354779        -9.6540
  73   2.0000      -0.352409        -9.5895
  74   2.0000      -0.329841        -8.9754
  75   2.0000      -0.324771        -8.8375
  76   2.0000      -0.320275        -8.7151
  77   0.0000       0.071320         1.9407
  78   0.0000       0.102115         2.7787
  79   0.0000       0.122537         3.3344
  80   0.0000       0.129911         3.5351
  81   0.0000       0.134221         3.6523

MULLIKEN ATOMIC CHARGES
-----------------------
   0 C :   -0.320595
   1 C :    0.026969
   2 O :   -0.378420
   3 C :    0.447120
   4 O :   -0.413909
   5 C :   -0.222561
   6 C :    0.165676
   7 C :   -0.265773
   8 N :   -0.124941
   9 C :    0.206456
  10 S :   -0.437734
  11 N :   -0.211204
  12 C :    0.048348
  13 C :    0.001934
  14 C :   -0.170684
  15 C :   -0.138985
  16 C :   -0.269249
  17 C :    0.301113
  18 O :   -0.359369
  19 C :   -0.220165
  20 H :    0.113569
  21 H :    0.111982
  22 H :    0.103632
  23 H :    0.112594
  24 H :    0.121855
  25 H :    0.133298
  26 H :    0.094273
  27 H :    0.129542
  28 H :    0.200310
  29 H :    0.199742
  30 H :    0.154152
  31 H :    0.159835
  32 H :    0.162990
  33 H :    0.132614
  34 H :    0.240782
  35 H :    0.164802
Sum of atomic charges:   -0.0000000

LOEWDIN ATOMIC CHARGES
----------------------
   0 C :    0.107418
   1 C :   -0.017742
   2 O :    0.292450
   3 C :   -0.422754
   4 O :    0.108652
   5 C :   -0.100632
   6 C :   -0.053288
   7 C :    0.131147
   8 N :    0.408036
   9 C :   -0.458634
  10 S :   -0.033487
  11 N :    0.395589
  12 C :   -0.053525
  13 C :   -0.042368
  14 C :    0.019759
  15 C :    0.038817
  16 C :   -0.001263
  17 C :   -0.192527
  18 O :    0.396267
  19 C :    0.033343
  20 H :   -0.027559
  21 H :   -0.024476
  22 H :   -0.028182
  23 H :   -0.023889
  24 H :   -0.028118
  25 H :   -0.004110
  26 H :   -0.023417
  27 H :   -0.005338
  28 H :   -0.056706
  29 H :   -0.063579
  30 H :   -0.011773
  31 H :   -0.027058
  32 H :   -0.020521
  33 H :   -0.034785
  34 H :   -0.153392
  35 H :   -0.022350

  Mayer bond orders larger than 0.100000
B(  0-C ,  1-C ) :   0.9555 B(  0-C , 20-H ) :   0.9692 B(  0-C , 21-H ) :   0.9779
B(  0-C , 22-H ) :   0.9743 B(  1-C ,  2-O ) :   0.8912 B(  1-C , 23-H ) :   0.9823
B(  1-C , 24-H ) :   0.9845 B(  2-O ,  3-C ) :   1.1122 B(  3-C ,  4-O ) :   2.0108
B(  3-C ,  5-C ) :   1.0644 B(  5-C ,  6-C ) :   1.6276 B(  5-C , 12-C ) :   0.9594
B(  6-C ,  7-C ) :   0.9678 B(  6-C ,  8-N ) :   1.1522 B(  7-C , 25-H ) :   0.9560
B(  7-C , 26-H ) :   0.9894 B(  7-C , 27-H ) :   0.9637 B(  8-N ,  9-C ) :   1.1850
B(  8-N , 28-H ) :   0.9466 B(  9-C , 10-S ) :   1.6135 B(  9-C , 11-N ) :   1.3051
B( 11-N , 12-C ) :   0.9723 B( 11-N , 29-H ) :   0.9487 B( 12-C , 13-C ) :   0.9545
B( 12-C , 30-H ) :   1.0035 B( 13-C , 14-C ) :   1.3638 B( 13-C , 19-C ) :   1.3770
B( 14-C , 15-C ) :   1.3902 B( 14-C , 31-H ) :   0.9679 B( 15-C , 16-C ) :   1.3569
B( 15-C , 32-H ) :   0.9707 B( 16-C , 17-C ) :   1.3345 B( 16-C , 33-H ) :   0.9844
B( 17-C , 18-O ) :   1.1069 B( 17-C , 19-C ) :   1.3649 B( 18-O , 34-H ) :   0.9795
B( 19-C , 35-H ) :   0.9599

MP2 TOTAL ENERGY:    -1274.331419397 Eh
FINAL SINGLE POINT ENERGY     -1274.331419396749

DIPOLE MOMENT
-------------
                                X             Y             Z
Electronic contribution:      9.04328       9.43307       6.22985
Nuclear contribution   :    -10.06941     -11.11537      -6.27885
                        -----------------------------------------
Total Dipole Moment    :     -1.02613      -1.68230      -0.04900
                        -----------------------------------------
Magnitude (a.u.)       :      1.97116
Magnitude (Debye)      :      5.01029

Rotational constants in cm-1:     0.012156     0.009019     0.006175
Rotational constants in MHz :   364.439710   270.376292   185.134411

                             ****ORCA TERMINATED NORMALLY****
TOTAL RUN TIME: 0 days 2 hours 1 minutes 21 seconds 131 msec
