                         Program Version 4.2.0 -  RELEASE  -
|  1> ! ri-mp2 cc-pvtz cc-pvtz/c TightSCF NoKeepInts
|  2>
|  3> %scf
|  4>   MaxCore 4096
|  5> end
|  6> *xyz  0  1
|  7>     C       14.4928288   14.7430080   14.8035638
|  8>     C       15.0774718   15.9212150   13.9919523
|  9>     O       15.6520086   16.9341773   14.8476470
| 10>     C       16.6027542   16.6618886   15.7927086
| 11>     O       17.1460886   15.5742869   15.8895156
| 12>     C       16.9539657   17.8143154   16.6951634
| 13>     C       16.7890181   19.1184343   16.3438219
| 14>     C       16.0351892   19.6832629   15.1553613
| 15>     N       17.3759090   20.1392670   17.0965267
| 16>     C       18.3099502   19.9430179   18.0770825
| 17>     S       19.0419780   21.2081333   18.8512265
| 18>     N       18.6225518   18.6400600   18.3681474
| 19>     C       17.9346544   17.4552052   17.8203551
| 20>     C       17.3252939   16.5686073   18.8987711
| 21>     C       17.6692426   15.2077002   18.9881587
| 22>     C       17.1076496   14.3924733   19.9851592
| 23>     C       16.1956117   14.9434579   20.9016524
| 24>     C       15.8499480   16.2990579   20.8137821
| 25>     O       14.9667129   16.8326639   21.6950124
| 26>     C       16.4102749   17.1077631   19.8198354
| 27>     H       15.2789664   14.0901812   15.2010013
| 28>     H       13.8503244   14.1261824   14.1638593
| 29>     H       13.8864382   15.1094250   15.6411579
| 30>     H       15.8413696   15.5390561   13.3017497
| 31>     H       14.2794667   16.3759384   13.3911850
| 32>     H       16.4567725   19.3103834   14.2136230
| 33>     H       16.0679392   20.7786601   15.1102973
| 34>     H       14.9775687   19.3936898   15.1939452
| 35>     H       17.1723722   21.1018816   16.8805463
| 36>     H       19.2970034   18.5210148   19.1134245
| 37>     H       18.7789124   16.9472409   17.3318181
| 38>     H       18.3625505   14.7777655   18.2691116
| 39>     H       17.3758697   13.3389969   20.0398616
| 40>     H       15.7582940   14.3170963   21.6719022
| 41>     H       14.7107252   16.1290745   22.3099375
| 42>     H       16.1333251   18.1554174   19.7691359
| 43> *
| 44>
| 45>                          ****END OF INPUT****

CARTESIAN COORDINATES (ANGSTROEM)
---------------------------------
  C     14.492829   14.743008   14.803564
  C     15.077472   15.921215   13.991952
  O     15.652009   16.934177   14.847647
  C     16.602754   16.661889   15.792709
  O     17.146089   15.574287   15.889516
  C     16.953966   17.814315   16.695163
  C     16.789018   19.118434   16.343822
  C     16.035189   19.683263   15.155361
  N     17.375909   20.139267   17.096527
  C     18.309950   19.943018   18.077082
  S     19.041978   21.208133   18.851226
  N     18.622552   18.640060   18.368147
  C     17.934654   17.455205   17.820355
  C     17.325294   16.568607   18.898771
  C     17.669243   15.207700   18.988159
  C     17.107650   14.392473   19.985159
  C     16.195612   14.943458   20.901652
  C     15.849948   16.299058   20.813782
  O     14.966713   16.832664   21.695012
  C     16.410275   17.107763   19.819835
  H     15.278966   14.090181   15.201001
  H     13.850324   14.126182   14.163859
  H     13.886438   15.109425   15.641158
  H     15.841370   15.539056   13.301750
  H     14.279467   16.375938   13.391185
  H     16.456772   19.310383   14.213623
  H     16.067939   20.778660   15.110297
  H     14.977569   19.393690   15.193945
  H     17.172372   21.101882   16.880546
  H     19.297003   18.521015   19.113425
  H     18.778912   16.947241   17.331818
  H     18.362551   14.777765   18.269112
  H     17.375870   13.338997   20.039862
  H     15.758294   14.317096   21.671902
  H     14.710725   16.129075   22.309937
  H     16.133325   18.155417   19.769136

 Total Charge           Charge          ....    0
 Multiplicity           Mult            ....    1
 Number of Electrons    NEL             ....  154
 Basis Dimension        Dim             ....  828

ORBITAL ENERGIES
----------------

  NO   OCC          E(Eh)            E(eV)
   0   2.0000     -91.887368     -2500.3824
   1   2.0000     -20.603005      -560.6363
   2   2.0000     -20.591085      -560.3119
   3   2.0000     -20.544402      -559.0416
   4   2.0000     -15.627802      -425.2541
   5   2.0000     -15.605086      -424.6360
   6   2.0000     -11.397593      -310.1443
   7   2.0000     -11.381789      -309.7142
   8   2.0000     -11.337717      -308.5150
   9   2.0000     -11.307042      -307.6802
  10   2.0000     -11.304391      -307.6081
  11   2.0000     -11.303529      -307.5847
  12   2.0000     -11.261312      -306.4359
  13   2.0000     -11.258210      -306.3515
  14   2.0000     -11.254270      -306.2442
  15   2.0000     -11.247146      -306.0504
  16   2.0000     -11.237347      -305.7838
  17   2.0000     -11.233456      -305.6779
  18   2.0000     -11.230229      -305.5901
  19   2.0000     -11.224633      -305.4378
  20   2.0000      -8.892458      -241.9761
  21   2.0000      -6.574038      -178.8887
  22   2.0000      -6.572033      -178.8341
  23   2.0000      -6.571447      -178.8182
  24   2.0000      -1.450975       -39.4830
  25   2.0000      -1.410833       -38.3907
  26   2.0000      -1.356960       -36.9247
  27   2.0000      -1.339305       -36.4443
  28   2.0000      -1.236503       -33.6469
  29   2.0000      -1.151612       -31.3370
  30   2.0000      -1.119659       -30.4675
  31   2.0000      -1.041776       -28.3482
  32   2.0000      -1.033581       -28.1252
  33   2.0000      -1.009153       -27.4604
  34   2.0000      -0.997753       -27.1502
  35   2.0000      -0.982492       -26.7350
  36   2.0000      -0.920420       -25.0459
  37   2.0000      -0.895933       -24.3796
  38   2.0000      -0.847428       -23.0597
  39   2.0000      -0.834515       -22.7083
  40   2.0000      -0.827362       -22.5137
  41   2.0000      -0.816518       -22.2186
  42   2.0000      -0.748216       -20.3600
  43   2.0000      -0.734056       -19.9747
  44   2.0000      -0.725339       -19.7375
  45   2.0000      -0.689571       -18.7642
  46   2.0000      -0.685131       -18.6434
  47   2.0000      -0.678901       -18.4738
  48   2.0000      -0.669584       -18.2203
  49   2.0000      -0.656767       -17.8715
  50   2.0000      -0.650747       -17.7077
  51   2.0000      -0.642961       -17.4959
  52   2.0000      -0.630052       -17.1446
  53   2.0000      -0.613537       -16.6952
  54   2.0000      -0.602348       -16.3907
  55   2.0000      -0.597572       -16.2607
  56   2.0000      -0.594396       -16.1743
  57   2.0000      -0.579148       -15.7594
  58   2.0000      -0.573065       -15.5939
  59   2.0000      -0.565526       -15.3888
  60   2.0000      -0.558271       -15.1913
  61   2.0000      -0.544253       -14.8099
  62   2.0000      -0.537877       -14.6364
  63   2.0000      -0.524573       -14.2743
  64   2.0000      -0.514386       -13.9971
  65   2.0000      -0.509450       -13.8628
  66   2.0000      -0.500362       -13.6155
  67   2.0000      -0.493499       -13.4288
  68   2.0000      -0.480219       -13.0674
  69   2.0000      -0.464389       -12.6367
  70   2.0000      -0.456753       -12.4289
  71   2.0000      -0.449034       -12.2188
  72   2.0000      -0.352443        -9.5904
  73   2.0000      -0.343909        -9.3582
  74   2.0000      -0.326489        -8.8842
  75   2.0000      -0.316492        -8.6122
  76   2.0000      -0.313622        -8.5341
  77   0.0000       0.078163         2.1269
  78   0.0000       0.112426         3.0593
  79   0.0000       0.122154         3.3240
  80   0.0000       0.136529         3.7151
  81   0.0000       0.141593         3.8529

MULLIKEN ATOMIC CHARGES
-----------------------
   0 C :   -0.306788
   1 C :    0.043103
   2 O :   -0.349273
   3 C :    0.430718
   4 O :   -0.430776
   5 C :   -0.175424
   6 C :    0.162310
   7 C :   -0.278920
   8 N :   -0.128410
   9 C :    0.207587
  10 S :   -0.443582
  11 N :   -0.210780
  12 C :    0.043244
  13 C :    0.032243
  14 C :   -0.166867
  15 C :   -0.134364
  16 C :   -0.276904
  17 C :    0.314665
  18 O :   -0.359145
  19 C :   -0.252119
  20 H :    0.130084
  21 H :    0.095487
  22 H :    0.096777
  23 H :    0.094070
  24 H :    0.105471
  25 H :    0.124218
  26 H :    0.101301
  27 H :    0.129240
  28 H :    0.198711
  29 H :    0.199877
  30 H :    0.155313
  31 H :    0.158455
  32 H :    0.159540
  33 H :    0.127965
  34 H :    0.239820
  35 H :    0.163152
Sum of atomic charges:   -0.0000000

LOEWDIN ATOMIC CHARGES
----------------------
   0 C :    0.105691
   1 C :   -0.012913
   2 O :    0.299592
   3 C :   -0.413271
   4 O :    0.106677
   5 C :   -0.090397
   6 C :   -0.063519
   7 C :    0.124437
   8 N :    0.405320
   9 C :   -0.459014
  10 S :   -0.038508
  11 N :    0.396710
  12 C :   -0.048313
  13 C :   -0.040371
  14 C :    0.024818
  15 C :    0.040674
  16 C :   -0.001169
  17 C :   -0.192454
  18 O :    0.393039
  19 C :    0.029836
  20 H :   -0.025024
  21 H :   -0.027719
  22 H :   -0.027628
  23 H :   -0.029513
  24 H :   -0.024824
  25 H :   -0.009755
  26 H :   -0.021652
  27 H :   -0.009354
  28 H :   -0.058948
  29 H :   -0.063030
  30 H :   -0.008836
  31 H :   -0.024235
  32 H :   -0.021245
  33 H :   -0.036252
  34 H :   -0.154975
  35 H :   -0.023876

  Mayer bond orders larger than 0.100000
B(  0-C ,  1-C ) :   0.9641 B(  0-C , 20-H ) :   0.9716 B(  0-C , 21-H ) :   0.9767
B(  0-C , 22-H ) :   0.9752 B(  1-C ,  2-O ) :   0.9013 B(  1-C , 23-H ) :   0.9803
B(  1-C , 24-H ) :   0.9836 B(  2-O ,  3-C ) :   1.1538 B(  3-C ,  4-O ) :   1.9669
B(  3-C ,  5-C ) :   1.0504 B(  5-C ,  6-C ) :   1.6507 B(  5-C , 12-C ) :   0.9526
B(  6-C ,  7-C ) :   0.9542 B(  6-C ,  8-N ) :   1.1375 B(  7-C , 25-H ) :   0.9651
B(  7-C , 26-H ) :   0.9916 B(  7-C , 27-H ) :   0.9635 B(  8-N ,  9-C ) :   1.1855
B(  8-N , 28-H ) :   0.9470 B(  9-C , 10-S ) :   1.6068 B(  9-C , 11-N ) :   1.3072
B( 11-N , 12-C ) :   0.9769 B( 11-N , 29-H ) :   0.9485 B( 12-C , 13-C ) :   0.9727
B( 12-C , 30-H ) :   0.9981 B( 13-C , 14-C ) :   1.3754 B( 13-C , 19-C ) :   1.3671
B( 14-C , 15-C ) :   1.3972 B( 14-C , 31-H ) :   0.9639 B( 15-C , 16-C ) :   1.3586
B( 15-C , 32-H ) :   0.9713 B( 16-C , 17-C ) :   1.3336 B( 16-C , 33-H ) :   0.9861
B( 17-C , 18-O ) :   1.1031 B( 17-C , 19-C ) :   1.3672 B( 18-O , 34-H ) :   0.9807
B( 19-C , 35-H ) :   0.9601

MP2 TOTAL ENERGY:    -1274.338863654 Eh
FINAL SINGLE POINT ENERGY     -1274.338863654311

DIPOLE MOMENT
-------------
                                X             Y             Z
Electronic contribution:      9.72725      10.13546      10.70652
Nuclear contribution   :    -11.20634     -11.34973     -11.89496
                        -----------------------------------------
Total Dipole Moment    :     -1.47908      -1.21428      -1.18844
                        -----------------------------------------
Magnitude (a.u.)       :      2.25268
Magnitude (Debye)      :      5.72585

Rotational constants in cm-1:     0.009920     0.009225     0.005583
Rotational constants in MHz :   297.409077   276.564125   167.368308

                             ****ORCA TERMINATED NORMALLY****
TOTAL RUN TIME: 0 days 1 hours 34 minutes 45 seconds 407 msec
