                         Program Version 4.2.0 -  RELEASE  -
|  1> ! ri-mp2 cc-pvtz cc-pvtz/c TightSCF NoKeepInts
|  2>
|  3> %scf
|  4>   MaxCore 4096
|  5> end
|  6> *xyz  0  1
|  7>     C       14.5080656   16.4169632   16.1472464
|  8>     C       15.1032894   15.9384670   14.8045267
|  9>     O       16.5033826   16.2426396   14.5584897
| 10>     C       17.4688044   16.5130464   15.4953952
| 11>     O       18.4717143   15.8258628   15.5591867
| 12>     C       17.2077133   17.6221645   16.4668973
| 13>     C       16.8141436   18.8404655   16.0180126
| 14>     C       16.3848711   19.1964995   14.6078082
| 15>     N       16.8645378   19.9600052   16.8513308
| 16>     C       17.5292112   19.9979857   18.0482078
| 17>     S       17.6542526   21.3901135   18.9318889
| 18>     N       18.1094061   18.8247016   18.4624542
| 19>     C       17.9261265   17.5102473   17.8150379
| 20>     C       17.3414173   16.4377337   18.7231658
| 21>     C       17.8892558   15.1425749   18.7365170
| 22>     C       17.3425284   14.1438354   19.5593837
| 23>     C       16.2373361   14.4425046   20.3745961
| 24>     C       15.6868764   15.7314017   20.3604540
| 25>     O       14.6138593   16.0200708   21.1389085
| 26>     C       16.2329588   16.7236631   19.5399727
| 27>     H       15.0654840   16.0067939   16.9976347
| 28>     H       13.4756550   16.0580883   16.2397785
| 29>     H       14.4740447   17.5085576   16.2218823
| 30>     H       14.9929810   14.8463945   14.7726473
| 31>     H       14.5013281   16.3385925   13.9785121
| 32>     H       15.3670698   18.8473252   14.4011347
| 33>     H       17.0538805   18.7429193   13.8651599
| 34>     H       16.4061248   20.2782160   14.4259080
| 35>     H       16.4746629   20.8365704   16.5430907
| 36>     H       18.5896954   18.8773964   19.3520850
| 37>     H       18.9726648   17.2707483   17.5744429
| 38>     H       18.7371444   14.9073358   18.0962763
| 39>     H       17.7738188   13.1441782   19.5591122
| 40>     H       15.8111579   13.6733215   21.0101667
| 41>     H       14.4117311   15.2284815   21.6601857
| 42>     H       15.7898061   17.7141347   19.5405024
| 43> *
| 44>
| 45>                          ****END OF INPUT****

CARTESIAN COORDINATES (ANGSTROEM)
---------------------------------
  C     14.508066   16.416963   16.147246
  C     15.103289   15.938467   14.804527
  O     16.503383   16.242640   14.558490
  C     17.468804   16.513046   15.495395
  O     18.471714   15.825863   15.559187
  C     17.207713   17.622165   16.466897
  C     16.814144   18.840466   16.018013
  C     16.384871   19.196499   14.607808
  N     16.864538   19.960005   16.851331
  C     17.529211   19.997986   18.048208
  S     17.654253   21.390113   18.931889
  N     18.109406   18.824702   18.462454
  C     17.926126   17.510247   17.815038
  C     17.341417   16.437734   18.723166
  C     17.889256   15.142575   18.736517
  C     17.342528   14.143835   19.559384
  C     16.237336   14.442505   20.374596
  C     15.686876   15.731402   20.360454
  O     14.613859   16.020071   21.138908
  C     16.232959   16.723663   19.539973
  H     15.065484   16.006794   16.997635
  H     13.475655   16.058088   16.239778
  H     14.474045   17.508558   16.221882
  H     14.992981   14.846394   14.772647
  H     14.501328   16.338593   13.978512
  H     15.367070   18.847325   14.401135
  H     17.053881   18.742919   13.865160
  H     16.406125   20.278216   14.425908
  H     16.474663   20.836570   16.543091
  H     18.589695   18.877396   19.352085
  H     18.972665   17.270748   17.574443
  H     18.737144   14.907336   18.096276
  H     17.773819   13.144178   19.559112
  H     15.811158   13.673321   21.010167
  H     14.411731   15.228481   21.660186
  H     15.789806   17.714135   19.540502

 Total Charge           Charge          ....    0
 Multiplicity           Mult            ....    1
 Number of Electrons    NEL             ....  154
 Basis Dimension        Dim             ....  828

ORBITAL ENERGIES
----------------

  NO   OCC          E(Eh)            E(eV)
   0   2.0000     -91.890032     -2500.4549
   1   2.0000     -20.597845      -560.4958
   2   2.0000     -20.592010      -560.3371
   3   2.0000     -20.549541      -559.1814
   4   2.0000     -15.629459      -425.2992
   5   2.0000     -15.608578      -424.7310
   6   2.0000     -11.397299      -310.1363
   7   2.0000     -11.385200      -309.8071
   8   2.0000     -11.335143      -308.4449
   9   2.0000     -11.314724      -307.8893
  10   2.0000     -11.312680      -307.8337
  11   2.0000     -11.307671      -307.6974
  12   2.0000     -11.264484      -306.5222
  13   2.0000     -11.262015      -306.4550
  14   2.0000     -11.260603      -306.4166
  15   2.0000     -11.254871      -306.2606
  16   2.0000     -11.244255      -305.9717
  17   2.0000     -11.240040      -305.8570
  18   2.0000     -11.237394      -305.7850
  19   2.0000     -11.236706      -305.7663
  20   2.0000      -8.895122      -242.0486
  21   2.0000      -6.576699      -178.9611
  22   2.0000      -6.574693      -178.9065
  23   2.0000      -6.574105      -178.8905
  24   2.0000      -1.442930       -39.2641
  25   2.0000      -1.417618       -38.5754
  26   2.0000      -1.355571       -36.8870
  27   2.0000      -1.341302       -36.4987
  28   2.0000      -1.238970       -33.7141
  29   2.0000      -1.158831       -31.5334
  30   2.0000      -1.124398       -30.5964
  31   2.0000      -1.046490       -28.4764
  32   2.0000      -1.039702       -28.2917
  33   2.0000      -1.016766       -27.6676
  34   2.0000      -1.004380       -27.3306
  35   2.0000      -0.989770       -26.9330
  36   2.0000      -0.925700       -25.1896
  37   2.0000      -0.900526       -24.5045
  38   2.0000      -0.851617       -23.1737
  39   2.0000      -0.840519       -22.8717
  40   2.0000      -0.834450       -22.7065
  41   2.0000      -0.824705       -22.4414
  42   2.0000      -0.746658       -20.3176
  43   2.0000      -0.733875       -19.9698
  44   2.0000      -0.729000       -19.8371
  45   2.0000      -0.694795       -18.9063
  46   2.0000      -0.687207       -18.6999
  47   2.0000      -0.677149       -18.4262
  48   2.0000      -0.673180       -18.3182
  49   2.0000      -0.665513       -18.1095
  50   2.0000      -0.654083       -17.7985
  51   2.0000      -0.651051       -17.7160
  52   2.0000      -0.640082       -17.4175
  53   2.0000      -0.615856       -16.7583
  54   2.0000      -0.604635       -16.4530
  55   2.0000      -0.603728       -16.4283
  56   2.0000      -0.601633       -16.3713
  57   2.0000      -0.586715       -15.9653
  58   2.0000      -0.576606       -15.6902
  59   2.0000      -0.568339       -15.4653
  60   2.0000      -0.563506       -15.3338
  61   2.0000      -0.554699       -15.0941
  62   2.0000      -0.546788       -14.8789
  63   2.0000      -0.532175       -14.4812
  64   2.0000      -0.522162       -14.2087
  65   2.0000      -0.512767       -13.9531
  66   2.0000      -0.499994       -13.6055
  67   2.0000      -0.490229       -13.3398
  68   2.0000      -0.485983       -13.2243
  69   2.0000      -0.469042       -12.7633
  70   2.0000      -0.457905       -12.4602
  71   2.0000      -0.448067       -12.1925
  72   2.0000      -0.354534        -9.6474
  73   2.0000      -0.348795        -9.4912
  74   2.0000      -0.329327        -8.9614
  75   2.0000      -0.322393        -8.7727
  76   2.0000      -0.319392        -8.6911
  77   0.0000       0.077653         2.1131
  78   0.0000       0.105734         2.8772
  79   0.0000       0.116444         3.1686
  80   0.0000       0.129958         3.5363
  81   0.0000       0.131301         3.5729

MULLIKEN ATOMIC CHARGES
-----------------------
   0 C :   -0.335791
   1 C :    0.030530
   2 O :   -0.360392
   3 C :    0.447869
   4 O :   -0.378647
   5 C :   -0.232100
   6 C :    0.139570
   7 C :   -0.302713
   8 N :   -0.134809
   9 C :    0.206582
  10 S :   -0.441211
  11 N :   -0.221999
  12 C :    0.082987
  13 C :    0.008677
  14 C :   -0.204905
  15 C :   -0.132092
  16 C :   -0.276987
  17 C :    0.320394
  18 O :   -0.357657
  19 C :   -0.259662
  20 H :    0.127422
  21 H :    0.125569
  22 H :    0.104272
  23 H :    0.118335
  24 H :    0.105951
  25 H :    0.114957
  26 H :    0.140652
  27 H :    0.113095
  28 H :    0.198021
  29 H :    0.202495
  30 H :    0.164125
  31 H :    0.177392
  32 H :    0.163828
  33 H :    0.131747
  34 H :    0.240977
  35 H :    0.173518
Sum of atomic charges:   -0.0000000

LOEWDIN ATOMIC CHARGES
----------------------
   0 C :    0.102775
   1 C :   -0.014393
   2 O :    0.285478
   3 C :   -0.418088
   4 O :    0.123434
   5 C :   -0.089567
   6 C :   -0.078497
   7 C :    0.128170
   8 N :    0.404473
   9 C :   -0.457892
  10 S :   -0.037000
  11 N :    0.396468
  12 C :   -0.048191
  13 C :   -0.044343
  14 C :    0.021343
  15 C :    0.043467
  16 C :   -0.000808
  17 C :   -0.193224
  18 O :    0.394691
  19 C :    0.028056
  20 H :   -0.023724
  21 H :   -0.020408
  22 H :   -0.033891
  23 H :   -0.023474
  24 H :   -0.026720
  25 H :   -0.015865
  26 H :   -0.005000
  27 H :   -0.016947
  28 H :   -0.058791
  29 H :   -0.063436
  30 H :   -0.005172
  31 H :   -0.021327
  32 H :   -0.019037
  33 H :   -0.035128
  34 H :   -0.153640
  35 H :   -0.023793

  Mayer bond orders larger than 0.100000
B(  0-C ,  1-C ) :   0.9627 B(  0-C , 20-H ) :   0.9641 B(  0-C , 21-H ) :   0.9765
B(  0-C , 22-H ) :   0.9717 B(  1-C ,  2-O ) :   0.9036 B(  1-C , 23-H ) :   0.9818
B(  1-C , 24-H ) :   0.9796 B(  2-O ,  3-C ) :   1.1188 B(  3-C ,  4-O ) :   2.0745
B(  3-C ,  5-C ) :   0.9556 B(  5-C ,  6-C ) :   1.7135 B(  5-C , 12-C ) :   0.9293
B(  6-C ,  7-C ) :   0.9454 B(  6-C ,  8-N ) :   1.1119 B(  7-C , 25-H ) :   0.9664
B(  7-C , 26-H ) :   0.9658 B(  7-C , 27-H ) :   0.9881 B(  8-N ,  9-C ) :   1.1909
B(  8-N , 28-H ) :   0.9477 B(  9-C , 10-S ) :   1.6105 B(  9-C , 11-N ) :   1.2958
B( 11-N , 12-C ) :   0.9764 B( 11-N , 29-H ) :   0.9479 B( 12-C , 13-C ) :   0.9690
B( 12-C , 30-H ) :   0.9918 B( 13-C , 14-C ) :   1.3886 B( 13-C , 19-C ) :   1.3491
B( 14-C , 15-C ) :   1.3963 B( 14-C , 31-H ) :   0.9572 B( 15-C , 16-C ) :   1.3603
B( 15-C , 32-H ) :   0.9703 B( 16-C , 17-C ) :   1.3319 B( 16-C , 33-H ) :   0.9846
B( 17-C , 18-O ) :   1.1079 B( 17-C , 19-C ) :   1.3625 B( 18-O , 34-H ) :   0.9797
B( 19-C , 35-H ) :   0.9582

MP2 TOTAL ENERGY:    -1274.320786009 Eh
FINAL SINGLE POINT ENERGY     -1274.320786008616

DIPOLE MOMENT
-------------
                                X             Y             Z
Electronic contribution:      8.90481       6.64589       7.19573
Nuclear contribution   :    -10.48010      -7.89487      -7.77726
                        -----------------------------------------
Total Dipole Moment    :     -1.57529      -1.24898      -0.58153
                        -----------------------------------------
Magnitude (a.u.)       :      2.09276
Magnitude (Debye)      :      5.31937

Rotational constants in cm-1:     0.011269     0.009327     0.006456
Rotational constants in MHz :   337.846362   279.621463   193.559273

                             ****ORCA TERMINATED NORMALLY****
TOTAL RUN TIME: 0 days 1 hours 47 minutes 21 seconds 384 msec
