                         Program Version 4.2.0 -  RELEASE  -
|  1> ! ri-mp2 cc-pvtz cc-pvtz/c TightSCF NoKeepInts
|  2>
|  3> %scf
|  4>   MaxCore 4096
|  5> end
|  6> *xyz  0  1
|  7>     C       15.2384085   14.0116190   15.5903864
|  8>     C       15.0610145   15.5105791   15.8832962
|  9>     O       16.2549946   16.1804448   15.4478337
| 10>     C       16.1842934   17.5345293   15.3259477
| 11>     O       15.5433507   18.0392252   14.4219696
| 12>     C       16.8301612   18.2821316   16.4640433
| 13>     C       16.9386578   19.6360037   16.4210838
| 14>     C       16.2235227   20.5857891   15.4820149
| 15>     N       17.7826281   20.3206114   17.2984501
| 16>     C       18.7117844   19.7206427   18.1037071
| 17>     S       19.7579749   20.5957955   19.0390510
| 18>     N       18.7472261   18.3499852   18.0758983
| 19>     C       17.7809686   17.4838235   17.3749839
| 20>     C       17.0996340   16.5017094   18.3170161
| 21>     C       17.4746318   15.1457593   18.3298233
| 22>     C       16.8422298   14.2393526   19.1973190
| 23>     C       15.8324291   14.6945864   20.0624807
| 24>     C       15.4654450   16.0474422   20.0591252
| 25>     O       14.4914165   16.4899477   20.8931760
| 26>     C       16.0948552   16.9468375   19.1928214
| 27>     H       14.3444396   13.4526509   15.8920076
| 28>     H       16.0974343   13.6084314   16.1400860
| 29>     H       15.4031668   13.8452074   14.5184450
| 30>     H       14.1912529   15.8827274   15.3242155
| 31>     H       14.8822105   15.6754106   16.9531954
| 32>     H       15.1451122   20.3821554   15.4716421
| 33>     H       16.5900407   20.4624405   14.4547433
| 34>     H       16.3518787   21.6396540   15.7557622
| 35>     H       17.7857504   21.3281346   17.3061617
| 36>     H       19.4257203   17.9345975   18.7017801
| 37>     H       18.4617988   16.9554295   16.6922240
| 38>     H       18.2521621   14.7921540   17.6575048
| 39>     H       17.1356804   13.1908255   19.1981778
| 40>     H       15.3418724   13.9982447   20.7348971
| 41>     H       14.2194557   15.7432592   21.4480735
| 42>     H       15.8033976   17.9918622   19.2086560
| 43> *
| 44>
| 45>                          ****END OF INPUT****

CARTESIAN COORDINATES (ANGSTROEM)
---------------------------------
  C     15.238408   14.011619   15.590386
  C     15.061014   15.510579   15.883296
  O     16.254995   16.180445   15.447834
  C     16.184293   17.534529   15.325948
  O     15.543351   18.039225   14.421970
  C     16.830161   18.282132   16.464043
  C     16.938658   19.636004   16.421084
  C     16.223523   20.585789   15.482015
  N     17.782628   20.320611   17.298450
  C     18.711784   19.720643   18.103707
  S     19.757975   20.595796   19.039051
  N     18.747226   18.349985   18.075898
  C     17.780969   17.483823   17.374984
  C     17.099634   16.501709   18.317016
  C     17.474632   15.145759   18.329823
  C     16.842230   14.239353   19.197319
  C     15.832429   14.694586   20.062481
  C     15.465445   16.047442   20.059125
  O     14.491416   16.489948   20.893176
  C     16.094855   16.946838   19.192821
  H     14.344440   13.452651   15.892008
  H     16.097434   13.608431   16.140086
  H     15.403167   13.845207   14.518445
  H     14.191253   15.882727   15.324215
  H     14.882210   15.675411   16.953195
  H     15.145112   20.382155   15.471642
  H     16.590041   20.462440   14.454743
  H     16.351879   21.639654   15.755762
  H     17.785750   21.328135   17.306162
  H     19.425720   17.934597   18.701780
  H     18.461799   16.955430   16.692224
  H     18.252162   14.792154   17.657505
  H     17.135680   13.190826   19.198178
  H     15.341872   13.998245   20.734897
  H     14.219456   15.743259   21.448073
  H     15.803398   17.991862   19.208656

 Total Charge           Charge          ....    0
 Multiplicity           Mult            ....    1
 Number of Electrons    NEL             ....  154
 Basis Dimension        Dim             ....  828

ORBITAL ENERGIES
----------------

  NO   OCC          E(Eh)            E(eV)
   0   2.0000     -91.891017     -2500.4817
   1   2.0000     -20.602190      -560.6141
   2   2.0000     -20.583750      -560.1123
   3   2.0000     -20.545342      -559.0672
   4   2.0000     -15.631451      -425.3534
   5   2.0000     -15.609155      -424.7467
   6   2.0000     -11.391204      -309.9704
   7   2.0000     -11.385422      -309.8131
   8   2.0000     -11.339838      -308.5727
   9   2.0000     -11.320161      -308.0372
  10   2.0000     -11.310760      -307.7814
  11   2.0000     -11.294040      -307.3264
  12   2.0000     -11.266104      -306.5663
  13   2.0000     -11.261496      -306.4409
  14   2.0000     -11.259154      -306.3772
  15   2.0000     -11.253104      -306.2125
  16   2.0000     -11.249995      -306.1279
  17   2.0000     -11.244540      -305.9795
  18   2.0000     -11.244358      -305.9745
  19   2.0000     -11.226042      -305.4761
  20   2.0000      -8.896070      -242.0744
  21   2.0000      -6.577637      -178.9866
  22   2.0000      -6.575644      -178.9324
  23   2.0000      -6.575047      -178.9161
  24   2.0000      -1.448675       -39.4205
  25   2.0000      -1.421922       -38.6925
  26   2.0000      -1.353105       -36.8199
  27   2.0000      -1.342874       -36.5415
  28   2.0000      -1.240918       -33.7671
  29   2.0000      -1.163304       -31.6551
  30   2.0000      -1.122906       -30.5558
  31   2.0000      -1.047272       -28.4977
  32   2.0000      -1.034682       -28.1551
  33   2.0000      -1.021305       -27.7911
  34   2.0000      -0.998801       -27.1788
  35   2.0000      -0.987067       -26.8595
  36   2.0000      -0.925172       -25.1752
  37   2.0000      -0.878165       -23.8961
  38   2.0000      -0.849338       -23.1117
  39   2.0000      -0.842592       -22.9281
  40   2.0000      -0.839785       -22.8517
  41   2.0000      -0.828589       -22.5470
  42   2.0000      -0.762848       -20.7582
  43   2.0000      -0.738348       -20.0915
  44   2.0000      -0.724661       -19.7190
  45   2.0000      -0.700975       -19.0745
  46   2.0000      -0.690492       -18.7893
  47   2.0000      -0.678552       -18.4643
  48   2.0000      -0.674059       -18.3421
  49   2.0000      -0.655091       -17.8259
  50   2.0000      -0.649995       -17.6873
  51   2.0000      -0.641532       -17.4570
  52   2.0000      -0.627167       -17.0661
  53   2.0000      -0.624847       -17.0029
  54   2.0000      -0.612422       -16.6648
  55   2.0000      -0.604616       -16.4524
  56   2.0000      -0.602664       -16.3993
  57   2.0000      -0.581784       -15.8311
  58   2.0000      -0.571536       -15.5523
  59   2.0000      -0.566851       -15.4248
  60   2.0000      -0.554601       -15.0914
  61   2.0000      -0.543309       -14.7842
  62   2.0000      -0.532966       -14.5028
  63   2.0000      -0.529167       -14.3994
  64   2.0000      -0.517694       -14.0872
  65   2.0000      -0.515995       -14.0409
  66   2.0000      -0.505229       -13.7480
  67   2.0000      -0.499934       -13.6039
  68   2.0000      -0.487158       -13.2562
  69   2.0000      -0.465078       -12.6554
  70   2.0000      -0.458361       -12.4726
  71   2.0000      -0.445214       -12.1149
  72   2.0000      -0.356232        -9.6936
  73   2.0000      -0.354450        -9.6451
  74   2.0000      -0.330750        -9.0002
  75   2.0000      -0.327265        -8.9053
  76   2.0000      -0.320606        -8.7241
  77   0.0000       0.071226         1.9382
  78   0.0000       0.098847         2.6898
  79   0.0000       0.122673         3.3381
  80   0.0000       0.129120         3.5135
  81   0.0000       0.131097         3.5673

MULLIKEN ATOMIC CHARGES
-----------------------
   0 C :   -0.267816
   1 C :    0.007508
   2 O :   -0.374152
   3 C :    0.494422
   4 O :   -0.408333
   5 C :   -0.302432
   6 C :    0.185586
   7 C :   -0.265331
   8 N :   -0.127136
   9 C :    0.210685
  10 S :   -0.438984
  11 N :   -0.215336
  12 C :    0.068022
  13 C :   -0.015745
  14 C :   -0.160630
  15 C :   -0.138615
  16 C :   -0.267221
  17 C :    0.307643
  18 O :   -0.356500
  19 C :   -0.227988
  20 H :    0.088830
  21 H :    0.090031
  22 H :    0.106872
  23 H :    0.116298
  24 H :    0.111573
  25 H :    0.131488
  26 H :    0.132380
  27 H :    0.094293
  28 H :    0.199855
  29 H :    0.201100
  30 H :    0.152023
  31 H :    0.158843
  32 H :    0.166916
  33 H :    0.134163
  34 H :    0.241599
  35 H :    0.166090
Sum of atomic charges:    0.0000000

LOEWDIN ATOMIC CHARGES
----------------------
   0 C :    0.109827
   1 C :   -0.021879
   2 O :    0.296875
   3 C :   -0.422364
   4 O :    0.114053
   5 C :   -0.102295
   6 C :   -0.053313
   7 C :    0.131547
   8 N :    0.407922
   9 C :   -0.456991
  10 S :   -0.033988
  11 N :    0.394611
  12 C :   -0.054861
  13 C :   -0.041045
  14 C :    0.019166
  15 C :    0.043020
  16 C :   -0.000047
  17 C :   -0.191404
  18 O :    0.396525
  19 C :    0.031996
  20 H :   -0.025644
  21 H :   -0.031755
  22 H :   -0.024686
  23 H :   -0.028968
  24 H :   -0.034258
  25 H :   -0.004519
  26 H :   -0.003951
  27 H :   -0.023458
  28 H :   -0.056618
  29 H :   -0.064224
  30 H :   -0.011953
  31 H :   -0.028095
  32 H :   -0.019850
  33 H :   -0.034042
  34 H :   -0.152694
  35 H :   -0.022638

  Mayer bond orders larger than 0.100000
B(  0-C ,  1-C ) :   0.9795 B(  0-C , 20-H ) :   0.9761 B(  0-C , 21-H ) :   0.9775
B(  0-C , 22-H ) :   0.9782 B(  1-C ,  2-O ) :   0.8826 B(  1-C , 23-H ) :   0.9783
B(  1-C , 24-H ) :   0.9643 B(  2-O ,  3-C ) :   1.1065 B(  3-C ,  4-O ) :   2.0284
B(  3-C ,  5-C ) :   1.0648 B(  5-C ,  6-C ) :   1.6282 B(  5-C , 12-C ) :   0.9528
B(  6-C ,  7-C ) :   0.9670 B(  6-C ,  8-N ) :   1.1578 B(  7-C , 25-H ) :   0.9622
B(  7-C , 26-H ) :   0.9566 B(  7-C , 27-H ) :   0.9897 B(  8-N ,  9-C ) :   1.1856
B(  8-N , 28-H ) :   0.9462 B(  9-C , 10-S ) :   1.6081 B(  9-C , 11-N ) :   1.3096
B( 11-N , 12-C ) :   0.9633 B( 11-N , 29-H ) :   0.9486 B( 12-C , 13-C ) :   0.9671
B( 12-C , 30-H ) :   1.0014 B( 13-C , 14-C ) :   1.3539 B( 13-C , 19-C ) :   1.3736
B( 14-C , 15-C ) :   1.3868 B( 14-C , 31-H ) :   0.9706 B( 15-C , 16-C ) :   1.3602
B( 15-C , 32-H ) :   0.9684 B( 16-C , 17-C ) :   1.3310 B( 16-C , 33-H ) :   0.9837
B( 17-C , 18-O ) :   1.1073 B( 17-C , 19-C ) :   1.3677 B( 18-O , 34-H ) :   0.9788
B( 19-C , 35-H ) :   0.9596

MP2 TOTAL ENERGY:    -1274.330946189 Eh
FINAL SINGLE POINT ENERGY     -1274.330946189498

DIPOLE MOMENT
-------------
                                X             Y             Z
Electronic contribution:      8.81402      11.13376       6.18400
Nuclear contribution   :     -9.92613     -12.64833      -5.96921
                        -----------------------------------------
Total Dipole Moment    :     -1.11211      -1.51457       0.21480
                        -----------------------------------------
Magnitude (a.u.)       :      1.89126
Magnitude (Debye)      :      4.80720

Rotational constants in cm-1:     0.012548     0.008391     0.006065
Rotational constants in MHz :   376.188893   251.558677   181.810281

                             ****ORCA TERMINATED NORMALLY****
TOTAL RUN TIME: 0 days 1 hours 43 minutes 23 seconds 439 msec
