                         Program Version 4.2.0 -  RELEASE  -
|  1> ! ri-mp2 cc-pvtz cc-pvtz/c TightSCF NoKeepInts
|  2>
|  3> %scf
|  4>   MaxCore 4096
|  5> end
|  6> *xyz  0  1
|  7>     C       15.4474550   14.9070256   13.5989725
|  8>     C       14.5175238   15.8723999   14.3679316
|  9>     O       15.2276389   16.8268051   15.1937496
| 10>     C       16.2945731   16.5307817   16.0003623
| 11>     O       16.7458378   15.4069209   16.1388938
| 12>     C       16.8047384   17.6954353   16.8043291
| 13>     C       16.7358353   18.9817078   16.3671677
| 14>     C       15.9709795   19.5262195   15.1762519
| 15>     N       17.4601825   19.9919703   17.0055563
| 16>     C       18.4414597   19.7747730   17.9343227
| 17>     S       19.3373329   21.0144253   18.5638981
| 18>     N       18.6584301   18.4701821   18.2969986
| 19>     C       17.8271242   17.3220164   17.8868523
| 20>     C       17.2217761   16.5705769   19.0653801
| 21>     C       17.4403217   15.1903326   19.2250708
| 22>     C       16.8842913   14.5000026   20.3151610
| 23>     C       16.1044312   15.1963836   21.2544390
| 24>     C       15.8836594   16.5716054   21.0966522
| 25>     O       15.1280517   17.2456102   22.0000985
| 26>     C       16.4381468   17.2558097   20.0102218
| 27>     H       16.3037560   15.4429407   13.1713016
| 28>     H       14.8999264   14.4309407   12.7767191
| 29>     H       15.8207095   14.1043435   14.2464597
| 30>     H       13.8981124   16.4242515   13.6493834
| 31>     H       13.8418604   15.2783339   14.9973691
| 32>     H       14.8911448   19.3887669   15.3139659
| 33>     H       16.2652540   19.0096256   14.2542087
| 34>     H       16.1433602   20.5969012   15.0119931
| 35>     H       17.3269484   20.9528899   16.7342390
| 36>     H       19.3722408   18.3381118   19.0023564
| 37>     H       18.5847097   16.7046356   17.3825373
| 38>     H       18.0305072   14.6485736   18.4897163
| 39>     H       17.0542306   13.4304384   20.4241908
| 40>     H       15.6717274   14.6668180   22.0965619
| 41>     H       14.8535933   16.6107571   22.6785577
| 42>     H       16.2591296   18.3206876   19.9061299
| 43> *
| 44>
| 45>                          ****END OF INPUT****

CARTESIAN COORDINATES (ANGSTROEM)
---------------------------------
  C     15.447455   14.907026   13.598972
  C     14.517524   15.872400   14.367932
  O     15.227639   16.826805   15.193750
  C     16.294573   16.530782   16.000362
  O     16.745838   15.406921   16.138894
  C     16.804738   17.695435   16.804329
  C     16.735835   18.981708   16.367168
  C     15.970980   19.526219   15.176252
  N     17.460182   19.991970   17.005556
  C     18.441460   19.774773   17.934323
  S     19.337333   21.014425   18.563898
  N     18.658430   18.470182   18.296999
  C     17.827124   17.322016   17.886852
  C     17.221776   16.570577   19.065380
  C     17.440322   15.190333   19.225071
  C     16.884291   14.500003   20.315161
  C     16.104431   15.196384   21.254439
  C     15.883659   16.571605   21.096652
  O     15.128052   17.245610   22.000099
  C     16.438147   17.255810   20.010222
  H     16.303756   15.442941   13.171302
  H     14.899926   14.430941   12.776719
  H     15.820709   14.104343   14.246460
  H     13.898112   16.424252   13.649383
  H     13.841860   15.278334   14.997369
  H     14.891145   19.388767   15.313966
  H     16.265254   19.009626   14.254209
  H     16.143360   20.596901   15.011993
  H     17.326948   20.952890   16.734239
  H     19.372241   18.338112   19.002356
  H     18.584710   16.704636   17.382537
  H     18.030507   14.648574   18.489716
  H     17.054231   13.430438   20.424191
  H     15.671727   14.666818   22.096562
  H     14.853593   16.610757   22.678558
  H     16.259130   18.320688   19.906130

 Total Charge           Charge          ....    0
 Multiplicity           Mult            ....    1
 Number of Electrons    NEL             ....  154
 Basis Dimension        Dim             ....  828

ORBITAL ENERGIES
----------------

  NO   OCC          E(Eh)            E(eV)
   0   2.0000     -91.887151     -2500.3765
   1   2.0000     -20.602729      -560.6288
   2   2.0000     -20.590550      -560.2974
   3   2.0000     -20.544276      -559.0382
   4   2.0000     -15.627365      -425.2422
   5   2.0000     -15.604848      -424.6295
   6   2.0000     -11.398055      -310.1569
   7   2.0000     -11.381609      -309.7093
   8   2.0000     -11.336817      -308.4905
   9   2.0000     -11.306511      -307.6658
  10   2.0000     -11.305927      -307.6499
  11   2.0000     -11.303310      -307.5787
  12   2.0000     -11.260455      -306.4126
  13   2.0000     -11.258554      -306.3608
  14   2.0000     -11.253818      -306.2320
  15   2.0000     -11.246661      -306.0372
  16   2.0000     -11.236830      -305.7697
  17   2.0000     -11.232883      -305.6623
  18   2.0000     -11.229741      -305.5768
  19   2.0000     -11.226028      -305.4758
  20   2.0000      -8.892245      -241.9703
  21   2.0000      -6.573825      -178.8829
  22   2.0000      -6.571820      -178.8283
  23   2.0000      -6.571235      -178.8124
  24   2.0000      -1.448704       -39.4212
  25   2.0000      -1.410292       -38.3760
  26   2.0000      -1.357385       -36.9363
  27   2.0000      -1.338948       -36.4346
  28   2.0000      -1.236143       -33.6372
  29   2.0000      -1.151125       -31.3237
  30   2.0000      -1.119467       -30.4622
  31   2.0000      -1.041922       -28.3521
  32   2.0000      -1.034460       -28.1491
  33   2.0000      -1.008679       -27.4475
  34   2.0000      -0.997410       -27.1409
  35   2.0000      -0.982436       -26.7334
  36   2.0000      -0.920221       -25.0405
  37   2.0000      -0.896915       -24.4063
  38   2.0000      -0.847289       -23.0559
  39   2.0000      -0.834232       -22.7006
  40   2.0000      -0.826860       -22.5000
  41   2.0000      -0.817292       -22.2397
  42   2.0000      -0.746627       -20.3167
  43   2.0000      -0.730093       -19.8668
  44   2.0000      -0.724813       -19.7232
  45   2.0000      -0.689936       -18.7741
  46   2.0000      -0.684425       -18.6242
  47   2.0000      -0.678614       -18.4660
  48   2.0000      -0.668385       -18.1877
  49   2.0000      -0.665765       -18.1164
  50   2.0000      -0.644456       -17.5365
  51   2.0000      -0.641893       -17.4668
  52   2.0000      -0.632262       -17.2047
  53   2.0000      -0.607562       -16.5326
  54   2.0000      -0.600890       -16.3511
  55   2.0000      -0.597151       -16.2493
  56   2.0000      -0.593602       -16.1527
  57   2.0000      -0.586253       -15.9528
  58   2.0000      -0.571590       -15.5537
  59   2.0000      -0.566702       -15.4208
  60   2.0000      -0.559607       -15.2277
  61   2.0000      -0.544944       -14.8287
  62   2.0000      -0.537795       -14.6341
  63   2.0000      -0.523236       -14.2380
  64   2.0000      -0.514524       -14.0009
  65   2.0000      -0.510774       -13.8989
  66   2.0000      -0.500320       -13.6144
  67   2.0000      -0.493182       -13.4202
  68   2.0000      -0.480315       -13.0700
  69   2.0000      -0.462773       -12.5927
  70   2.0000      -0.455532       -12.3957
  71   2.0000      -0.447686       -12.1822
  72   2.0000      -0.352147        -9.5824
  73   2.0000      -0.343325        -9.3423
  74   2.0000      -0.326278        -8.8785
  75   2.0000      -0.316295        -8.6068
  76   2.0000      -0.313162        -8.5216
  77   0.0000       0.079023         2.1503
  78   0.0000       0.112998         3.0748
  79   0.0000       0.119658         3.2561
  80   0.0000       0.136718         3.7203
  81   0.0000       0.140270         3.8169

MULLIKEN ATOMIC CHARGES
-----------------------
   0 C :   -0.300610
   1 C :    0.045347
   2 O :   -0.350859
   3 C :    0.420157
   4 O :   -0.427599
   5 C :   -0.165403
   6 C :    0.165530
   7 C :   -0.283450
   8 N :   -0.129098
   9 C :    0.207757
  10 S :   -0.443968
  11 N :   -0.210348
  12 C :    0.039196
  13 C :    0.033075
  14 C :   -0.166239
  15 C :   -0.134437
  16 C :   -0.276833
  17 C :    0.314349
  18 O :   -0.359097
  19 C :   -0.249932
  20 H :    0.092531
  21 H :    0.096544
  22 H :    0.128308
  23 H :    0.101919
  24 H :    0.095478
  25 H :    0.131961
  26 H :    0.120920
  27 H :    0.103177
  28 H :    0.198584
  29 H :    0.199744
  30 H :    0.154939
  31 H :    0.158415
  32 H :    0.159306
  33 H :    0.127783
  34 H :    0.239719
  35 H :    0.163134
Sum of atomic charges:   -0.0000000

LOEWDIN ATOMIC CHARGES
----------------------
   0 C :    0.103013
   1 C :   -0.010487
   2 O :    0.297653
   3 C :   -0.414006
   4 O :    0.110065
   5 C :   -0.089484
   6 C :   -0.064653
   7 C :    0.124262
   8 N :    0.405090
   9 C :   -0.458946
  10 S :   -0.038847
  11 N :    0.396546
  12 C :   -0.048152
  13 C :   -0.040232
  14 C :    0.024659
  15 C :    0.040803
  16 C :   -0.001141
  17 C :   -0.192237
  18 O :    0.393090
  19 C :    0.030148
  20 H :   -0.028670
  21 H :   -0.028341
  22 H :   -0.024659
  23 H :   -0.025237
  24 H :   -0.027361
  25 H :   -0.008929
  26 H :   -0.010833
  27 H :   -0.021397
  28 H :   -0.059043
  29 H :   -0.063091
  30 H :   -0.008793
  31 H :   -0.024324
  32 H :   -0.021287
  33 H :   -0.036300
  34 H :   -0.155039
  35 H :   -0.023841

  Mayer bond orders larger than 0.100000
B(  0-C ,  1-C ) :   0.9658 B(  0-C , 20-H ) :   0.9764 B(  0-C , 21-H ) :   0.9765
B(  0-C , 22-H ) :   0.9709 B(  1-C ,  2-O ) :   0.9038 B(  1-C , 23-H ) :   0.9840
B(  1-C , 24-H ) :   0.9812 B(  2-O ,  3-C ) :   1.1515 B(  3-C ,  4-O ) :   1.9690
B(  3-C ,  5-C ) :   1.0580 B(  5-C ,  6-C ) :   1.6505 B(  5-C , 12-C ) :   0.9496
B(  6-C ,  7-C ) :   0.9520 B(  6-C ,  8-N ) :   1.1348 B(  7-C , 25-H ) :   0.9625
B(  7-C , 26-H ) :   0.9666 B(  7-C , 27-H ) :   0.9925 B(  8-N ,  9-C ) :   1.1863
B(  8-N , 28-H ) :   0.9472 B(  9-C , 10-S ) :   1.6065 B(  9-C , 11-N ) :   1.3063
B( 11-N , 12-C ) :   0.9777 B( 11-N , 29-H ) :   0.9485 B( 12-C , 13-C ) :   0.9754
B( 12-C , 30-H ) :   0.9974 B( 13-C , 14-C ) :   1.3754 B( 13-C , 19-C ) :   1.3679
B( 14-C , 15-C ) :   1.3973 B( 14-C , 31-H ) :   0.9640 B( 15-C , 16-C ) :   1.3589
B( 15-C , 32-H ) :   0.9714 B( 16-C , 17-C ) :   1.3333 B( 16-C , 33-H ) :   0.9861
B( 17-C , 18-O ) :   1.1030 B( 17-C , 19-C ) :   1.3676 B( 18-O , 34-H ) :   0.9808
B( 19-C , 35-H ) :   0.9600

MP2 TOTAL ENERGY:    -1274.335044981 Eh
FINAL SINGLE POINT ENERGY     -1274.335044980804

DIPOLE MOMENT
-------------
                                X             Y             Z
Electronic contribution:      8.31504       9.48733      12.84070
Nuclear contribution   :     -9.91685     -10.63295     -13.95234
                        -----------------------------------------
Total Dipole Moment    :     -1.60181      -1.14562      -1.11164
                        -----------------------------------------
Magnitude (a.u.)       :      2.26141
Magnitude (Debye)      :      5.74805

Rotational constants in cm-1:     0.010004     0.008812     0.005463
Rotational constants in MHz :   299.915169   264.180645   163.787046

                             ****ORCA TERMINATED NORMALLY****
TOTAL RUN TIME: 0 days 1 hours 52 minutes 33 seconds 329 msec
