                         Program Version 4.2.0 -  RELEASE  -
|  1> ! ri-mp2 cc-pvtz cc-pvtz/c TightSCF NoKeepInts
|  2>
|  3> %scf
|  4>   MaxCore 4096
|  5> end
|  6> *xyz  0  1
|  7>     C       14.4779499   14.8286204   15.4823790
|  8>     C       15.9492401   14.8387519   15.0148927
|  9>     O       16.6720494   15.8944297   15.6774072
| 10>     C       16.3337431   17.2082690   15.4983233
| 11>     O       15.6297283   17.5791587   14.5741713
| 12>     C       16.9284621   18.1064959   16.5495879
| 13>     C       16.9820925   19.4512104   16.3697446
| 14>     C       16.2805561   20.2604148   15.2985243
| 15>     N       17.7530002   20.2591389   17.2087461
| 16>     C       18.6403180   19.7867725   18.1375764
| 17>     S       19.5890718   20.7999729   19.0370719
| 18>     N       18.7175268   18.4235260   18.2708394
| 19>     C       17.8452917   17.4459500   17.5927087
| 20>     C       17.1099482   16.5381499   18.5702865
| 21>     C       17.4413948   15.1743717   18.6707826
| 22>     C       16.7568558   14.3379772   19.5685974
| 23>     C       15.7354375   14.8708073   20.3737608
| 24>     C       15.4066776   16.2302022   20.2781348
| 25>     O       14.4212839   16.7471666   21.0545045
| 26>     C       16.0896153   17.0599553   19.3834285
| 27>     H       14.4216814   14.8018961   16.5780891
| 28>     H       13.9612926   13.9434598   15.0925184
| 29>     H       13.9351848   15.7133751   15.1281552
| 30>     H       16.4132556   13.8750476   15.2605120
| 31>     H       15.9935290   14.9716396   13.9254212
| 32>     H       16.6652865   20.0015857   14.3038539
| 33>     H       16.3999592   21.3423950   15.4289064
| 34>     H       15.2035825   20.0485010   15.2986424
| 35>     H       17.7211372   21.2609148   17.1067996
| 36>     H       19.3567531   18.1060704   18.9884715
| 37>     H       18.5920646   16.8774566   17.0205061
| 38>     H       18.2262785   14.7605416   18.0433988
| 39>     H       17.0176757   13.2833898   19.6378418
| 40>     H       15.2039318   14.2290225   21.0686472
| 41>     H       14.0899222   16.0328035   21.6190176
| 42>     H       15.8252221   18.1105601   19.3257509
| 43> *
| 44>
| 45>                          ****END OF INPUT****

CARTESIAN COORDINATES (ANGSTROEM)
---------------------------------
  C     14.477950   14.828620   15.482379
  C     15.949240   14.838752   15.014893
  O     16.672049   15.894430   15.677407
  C     16.333743   17.208269   15.498323
  O     15.629728   17.579159   14.574171
  C     16.928462   18.106496   16.549588
  C     16.982093   19.451210   16.369745
  C     16.280556   20.260415   15.298524
  N     17.753000   20.259139   17.208746
  C     18.640318   19.786773   18.137576
  S     19.589072   20.799973   19.037072
  N     18.717527   18.423526   18.270839
  C     17.845292   17.445950   17.592709
  C     17.109948   16.538150   18.570286
  C     17.441395   15.174372   18.670783
  C     16.756856   14.337977   19.568597
  C     15.735437   14.870807   20.373761
  C     15.406678   16.230202   20.278135
  O     14.421284   16.747167   21.054505
  C     16.089615   17.059955   19.383429
  H     14.421681   14.801896   16.578089
  H     13.961293   13.943460   15.092518
  H     13.935185   15.713375   15.128155
  H     16.413256   13.875048   15.260512
  H     15.993529   14.971640   13.925421
  H     16.665287   20.001586   14.303854
  H     16.399959   21.342395   15.428906
  H     15.203582   20.048501   15.298642
  H     17.721137   21.260915   17.106800
  H     19.356753   18.106070   18.988471
  H     18.592065   16.877457   17.020506
  H     18.226278   14.760542   18.043399
  H     17.017676   13.283390   19.637842
  H     15.203932   14.229022   21.068647
  H     14.089922   16.032803   21.619018
  H     15.825222   18.110560   19.325751

 Total Charge           Charge          ....    0
 Multiplicity           Mult            ....    1
 Number of Electrons    NEL             ....  154
 Basis Dimension        Dim             ....  828

ORBITAL ENERGIES
----------------

  NO   OCC          E(Eh)            E(eV)
   0   2.0000     -91.888715     -2500.4191
   1   2.0000     -20.599115      -560.5304
   2   2.0000     -20.596723      -560.4653
   3   2.0000     -20.541231      -558.9553
   4   2.0000     -15.629084      -425.2890
   5   2.0000     -15.606896      -424.6852
   6   2.0000     -11.395570      -310.0892
   7   2.0000     -11.383436      -309.7590
   8   2.0000     -11.337162      -308.4999
   9   2.0000     -11.313947      -307.8681
  10   2.0000     -11.307221      -307.6851
  11   2.0000     -11.298591      -307.4503
  12   2.0000     -11.260815      -306.4224
  13   2.0000     -11.259169      -306.3776
  14   2.0000     -11.255306      -306.2724
  15   2.0000     -11.251631      -306.1724
  16   2.0000     -11.243898      -305.9620
  17   2.0000     -11.239164      -305.8332
  18   2.0000     -11.238810      -305.8236
  19   2.0000     -11.222387      -305.3767
  20   2.0000      -8.893787      -242.0123
  21   2.0000      -6.575361      -178.9247
  22   2.0000      -6.573362      -178.8703
  23   2.0000      -6.572772      -178.8542
  24   2.0000      -1.449579       -39.4450
  25   2.0000      -1.416408       -38.5424
  26   2.0000      -1.353807       -36.8390
  27   2.0000      -1.340166       -36.4678
  28   2.0000      -1.238061       -33.6894
  29   2.0000      -1.157786       -31.5049
  30   2.0000      -1.121095       -30.5065
  31   2.0000      -1.042864       -28.3778
  32   2.0000      -1.035130       -28.1673
  33   2.0000      -1.015149       -27.6236
  34   2.0000      -0.995844       -27.0983
  35   2.0000      -0.984394       -26.7867
  36   2.0000      -0.921781       -25.0829
  37   2.0000      -0.895585       -24.3701
  38   2.0000      -0.846531       -23.0353
  39   2.0000      -0.838176       -22.8079
  40   2.0000      -0.834346       -22.7037
  41   2.0000      -0.815976       -22.2038
  42   2.0000      -0.752775       -20.4841
  43   2.0000      -0.733630       -19.9631
  44   2.0000      -0.722105       -19.6495
  45   2.0000      -0.695615       -18.9287
  46   2.0000      -0.688982       -18.7481
  47   2.0000      -0.678609       -18.4659
  48   2.0000      -0.671271       -18.2662
  49   2.0000      -0.657802       -17.8997
  50   2.0000      -0.647548       -17.6207
  51   2.0000      -0.639578       -17.4038
  52   2.0000      -0.633196       -17.2301
  53   2.0000      -0.613755       -16.7011
  54   2.0000      -0.606737       -16.5102
  55   2.0000      -0.600531       -16.3413
  56   2.0000      -0.599152       -16.3038
  57   2.0000      -0.577424       -15.7125
  58   2.0000      -0.569962       -15.5095
  59   2.0000      -0.567580       -15.4446
  60   2.0000      -0.558898       -15.2084
  61   2.0000      -0.544227       -14.8092
  62   2.0000      -0.534664       -14.5489
  63   2.0000      -0.526901       -14.3377
  64   2.0000      -0.523666       -14.2497
  65   2.0000      -0.513003       -13.9595
  66   2.0000      -0.500408       -13.6168
  67   2.0000      -0.498030       -13.5521
  68   2.0000      -0.482753       -13.1364
  69   2.0000      -0.463294       -12.6069
  70   2.0000      -0.455458       -12.3936
  71   2.0000      -0.445483       -12.1222
  72   2.0000      -0.352982        -9.6051
  73   2.0000      -0.349959        -9.5229
  74   2.0000      -0.327923        -8.9232
  75   2.0000      -0.321282        -8.7425
  76   2.0000      -0.317898        -8.6504
  77   0.0000       0.077353         2.1049
  78   0.0000       0.104980         2.8566
  79   0.0000       0.124946         3.3999
  80   0.0000       0.132649         3.6096
  81   0.0000       0.137665         3.7461

MULLIKEN ATOMIC CHARGES
-----------------------
   0 C :   -0.310346
   1 C :    0.026455
   2 O :   -0.355775
   3 C :    0.449099
   4 O :   -0.440648
   5 C :   -0.226730
   6 C :    0.171931
   7 C :   -0.268297
   8 N :   -0.125774
   9 C :    0.210445
  10 S :   -0.442146
  11 N :   -0.215411
  12 C :    0.064414
  13 C :    0.042194
  14 C :   -0.182300
  15 C :   -0.133001
  16 C :   -0.277422
  17 C :    0.316390
  18 O :   -0.356671
  19 C :   -0.249100
  20 H :    0.106435
  21 H :    0.096058
  22 H :    0.120145
  23 H :    0.110269
  24 H :    0.111773
  25 H :    0.129152
  26 H :    0.094752
  27 H :    0.133543
  28 H :    0.199665
  29 H :    0.200217
  30 H :    0.153109
  31 H :    0.153093
  32 H :    0.160492
  33 H :    0.130452
  34 H :    0.240526
  35 H :    0.163011
Sum of atomic charges:   -0.0000000

LOEWDIN ATOMIC CHARGES
----------------------
   0 C :    0.105425
   1 C :   -0.016725
   2 O :    0.305232
   3 C :   -0.412936
   4 O :    0.096233
   5 C :   -0.094378
   6 C :   -0.056817
   7 C :    0.131166
   8 N :    0.407095
   9 C :   -0.456416
  10 S :   -0.036782
  11 N :    0.394680
  12 C :   -0.054365
  13 C :   -0.039941
  14 C :    0.016837
  15 C :    0.038708
  16 C :   -0.001037
  17 C :   -0.190112
  18 O :    0.395188
  19 C :    0.033060
  20 H :   -0.026508
  21 H :   -0.027433
  22 H :   -0.025970
  23 H :   -0.025137
  24 H :   -0.028248
  25 H :   -0.005033
  26 H :   -0.023644
  27 H :   -0.004405
  28 H :   -0.057176
  29 H :   -0.064424
  30 H :   -0.013693
  31 H :   -0.029075
  32 H :   -0.021384
  33 H :   -0.035344
  34 H :   -0.153974
  35 H :   -0.022668

  Mayer bond orders larger than 0.100000
B(  0-C ,  1-C ) :   0.9588 B(  0-C , 20-H ) :   0.9735 B(  0-C , 21-H ) :   0.9773
B(  0-C , 22-H ) :   0.9741 B(  1-C ,  2-O ) :   0.8987 B(  1-C , 23-H ) :   0.9843
B(  1-C , 24-H ) :   0.9824 B(  2-O ,  3-C ) :   1.1555 B(  3-C ,  4-O ) :   1.9546
B(  3-C ,  5-C ) :   1.0682 B(  5-C ,  6-C ) :   1.6427 B(  5-C , 12-C ) :   0.9562
B(  6-C ,  7-C ) :   0.9644 B(  6-C ,  8-N ) :   1.1545 B(  7-C , 25-H ) :   0.9591
B(  7-C , 26-H ) :   0.9904 B(  7-C , 27-H ) :   0.9614 B(  8-N ,  9-C ) :   1.1874
B(  8-N , 28-H ) :   0.9464 B(  9-C , 10-S ) :   1.6060 B(  9-C , 11-N ) :   1.3089
B( 11-N , 12-C ) :   0.9702 B( 11-N , 29-H ) :   0.9485 B( 12-C , 13-C ) :   0.9615
B( 12-C , 30-H ) :   0.9999 B( 13-C , 14-C ) :   1.3541 B( 13-C , 19-C ) :   1.3799
B( 14-C , 15-C ) :   1.3942 B( 14-C , 31-H ) :   0.9711 B( 15-C , 16-C ) :   1.3592
B( 15-C , 32-H ) :   0.9708 B( 16-C , 17-C ) :   1.3335 B( 16-C , 33-H ) :   0.9851
B( 17-C , 18-O ) :   1.1052 B( 17-C , 19-C ) :   1.3649 B( 18-O , 34-H ) :   0.9799
B( 19-C , 35-H ) :   0.9594

MP2 TOTAL ENERGY:    -1274.343364639 Eh
FINAL SINGLE POINT ENERGY     -1274.343364639271

DIPOLE MOMENT
-------------
                                X             Y             Z
Electronic contribution:      9.48407      10.28634       8.13838
Nuclear contribution   :    -10.43236     -12.05775      -8.53398
                        -----------------------------------------
Total Dipole Moment    :     -0.94829      -1.77142      -0.39560
                        -----------------------------------------
Magnitude (a.u.)       :      2.04785
Magnitude (Debye)      :      5.20521

Rotational constants in cm-1:     0.011678     0.008613     0.005970
Rotational constants in MHz :   350.096327   258.201820   178.985754

                             ****ORCA TERMINATED NORMALLY****
TOTAL RUN TIME: 0 days 2 hours 2 minutes 42 seconds 972 msec
