                         Program Version 4.2.0 -  RELEASE  -
|  1> ! ri-mp2 cc-pvtz cc-pvtz/c TightSCF NoKeepInts
|  2>
|  3> %scf
|  4>   MaxCore 4096
|  5> end
|  6> *xyz  0  1
|  7>     C       14.4412008   15.1569159   14.9571672
|  8>     C       15.5272652   15.2271218   16.0484611
|  9>     O       16.6931018   15.9006607   15.5319606
| 10>     C       16.6227020   17.2422160   15.2978198
| 11>     O       16.2576006   17.6607608   14.2142808
| 12>     C       16.9652032   18.0957593   16.4933201
| 13>     C       16.9039517   19.4502771   16.3986287
| 14>     C       16.2009220   20.2661216   15.3328970
| 15>     N       17.5155710   20.2706427   17.3489877
| 16>     C       18.4000633   19.8299145   18.2947206
| 17>     S       19.1834551   20.8685191   19.3158054
| 18>     N       18.6228960   18.4775205   18.3351426
| 19>     C       17.8775186   17.4649361   17.5638958
| 20>     C       17.2247305   16.4285661   18.4666824
| 21>     C       17.7219707   15.1135557   18.5257273
| 22>     C       17.1157736   14.1594090   19.3600892
| 23>     C       16.0099627   14.5259952   20.1465073
| 24>     C       15.5216125   15.8390717   20.0989207
| 25>     O       14.4547428   16.1960500   20.8567627
| 26>     C       16.1250398   16.7859189   19.2652994
| 27>     H       14.0529557   16.1549035   14.7185819
| 28>     H       13.5999198   14.5386132   15.2925742
| 29>     H       14.8459740   14.7159394   14.0374862
| 30>     H       15.1282686   15.7440180   16.9299071
| 31>     H       15.8028588   14.2074840   16.3470773
| 32>     H       15.2056745   19.8553358   15.1206606
| 33>     H       16.7701137   20.2463421   14.3944358
| 34>     H       16.0625809   21.3156827   15.6181047
| 35>     H       17.3853835   21.2688810   17.3064322
| 36>     H       19.2636822   18.1791964   19.0598581
| 37>     H       18.7093641   17.0163272   17.0020027
| 38>     H       18.5749825   14.8282748   17.9150124
| 39>     H       17.5042680   13.1427961   19.3972310
| 40>     H       15.5395989   13.7925425   20.7935401
| 41>     H       14.2170668   15.4337951   21.4063321
| 42>     H       15.7390240   17.7999353   19.2456873
| 43> *
| 44>
| 45>                          ****END OF INPUT****

CARTESIAN COORDINATES (ANGSTROEM)
---------------------------------
  C     14.441201   15.156916   14.957167
  C     15.527265   15.227122   16.048461
  O     16.693102   15.900661   15.531961
  C     16.622702   17.242216   15.297820
  O     16.257601   17.660761   14.214281
  C     16.965203   18.095759   16.493320
  C     16.903952   19.450277   16.398629
  C     16.200922   20.266122   15.332897
  N     17.515571   20.270643   17.348988
  C     18.400063   19.829915   18.294721
  S     19.183455   20.868519   19.315805
  N     18.622896   18.477521   18.335143
  C     17.877519   17.464936   17.563896
  C     17.224730   16.428566   18.466682
  C     17.721971   15.113556   18.525727
  C     17.115774   14.159409   19.360089
  C     16.009963   14.525995   20.146507
  C     15.521612   15.839072   20.098921
  O     14.454743   16.196050   20.856763
  C     16.125040   16.785919   19.265299
  H     14.052956   16.154903   14.718582
  H     13.599920   14.538613   15.292574
  H     14.845974   14.715939   14.037486
  H     15.128269   15.744018   16.929907
  H     15.802859   14.207484   16.347077
  H     15.205675   19.855336   15.120661
  H     16.770114   20.246342   14.394436
  H     16.062581   21.315683   15.618105
  H     17.385383   21.268881   17.306432
  H     19.263682   18.179196   19.059858
  H     18.709364   17.016327   17.002003
  H     18.574982   14.828275   17.915012
  H     17.504268   13.142796   19.397231
  H     15.539599   13.792542   20.793540
  H     14.217067   15.433795   21.406332
  H     15.739024   17.799935   19.245687

 Total Charge           Charge          ....    0
 Multiplicity           Mult            ....    1
 Number of Electrons    NEL             ....  154
 Basis Dimension        Dim             ....  828

ORBITAL ENERGIES
----------------

  NO   OCC          E(Eh)            E(eV)
   0   2.0000     -91.891306     -2500.4895
   1   2.0000     -20.602553      -560.6240
   2   2.0000     -20.581508      -560.0513
   3   2.0000     -20.547285      -559.1200
   4   2.0000     -15.631517      -425.3552
   5   2.0000     -15.609509      -424.7563
   6   2.0000     -11.392592      -310.0082
   7   2.0000     -11.385574      -309.8172
   8   2.0000     -11.339803      -308.5717
   9   2.0000     -11.320434      -308.0447
  10   2.0000     -11.311941      -307.8136
  11   2.0000     -11.296515      -307.3938
  12   2.0000     -11.266297      -306.5715
  13   2.0000     -11.261540      -306.4421
  14   2.0000     -11.259642      -306.3904
  15   2.0000     -11.253744      -306.2300
  16   2.0000     -11.250354      -306.1377
  17   2.0000     -11.244824      -305.9872
  18   2.0000     -11.244512      -305.9787
  19   2.0000     -11.219562      -305.2998
  20   2.0000      -8.896355      -242.0821
  21   2.0000      -6.577921      -178.9943
  22   2.0000      -6.575929      -178.9401
  23   2.0000      -6.575331      -178.9239
  24   2.0000      -1.445682       -39.3390
  25   2.0000      -1.422298       -38.7027
  26   2.0000      -1.353446       -36.8291
  27   2.0000      -1.343286       -36.5527
  28   2.0000      -1.241395       -33.7801
  29   2.0000      -1.163393       -31.6575
  30   2.0000      -1.122850       -30.5543
  31   2.0000      -1.047605       -28.5068
  32   2.0000      -1.029943       -28.0262
  33   2.0000      -1.021420       -27.7943
  34   2.0000      -0.999445       -27.1963
  35   2.0000      -0.987396       -26.8684
  36   2.0000      -0.925563       -25.1858
  37   2.0000      -0.884517       -24.0689
  38   2.0000      -0.850450       -23.1419
  39   2.0000      -0.843445       -22.9513
  40   2.0000      -0.840310       -22.8660
  41   2.0000      -0.828877       -22.5549
  42   2.0000      -0.753493       -20.5036
  43   2.0000      -0.737424       -20.0663
  44   2.0000      -0.718145       -19.5417
  45   2.0000      -0.700808       -19.0699
  46   2.0000      -0.690433       -18.7876
  47   2.0000      -0.679118       -18.4797
  48   2.0000      -0.669486       -18.2176
  49   2.0000      -0.665640       -18.1130
  50   2.0000      -0.649789       -17.6817
  51   2.0000      -0.646769       -17.5995
  52   2.0000      -0.638219       -17.3668
  53   2.0000      -0.612597       -16.6696
  54   2.0000      -0.608089       -16.5470
  55   2.0000      -0.603054       -16.4099
  56   2.0000      -0.598573       -16.2880
  57   2.0000      -0.581522       -15.8240
  58   2.0000      -0.572307       -15.5733
  59   2.0000      -0.570124       -15.5139
  60   2.0000      -0.560679       -15.2568
  61   2.0000      -0.544142       -14.8068
  62   2.0000      -0.537635       -14.6298
  63   2.0000      -0.528551       -14.3826
  64   2.0000      -0.520892       -14.1742
  65   2.0000      -0.516145       -14.0450
  66   2.0000      -0.503444       -13.6994
  67   2.0000      -0.495371       -13.4797
  68   2.0000      -0.480927       -13.0867
  69   2.0000      -0.465009       -12.6535
  70   2.0000      -0.457906       -12.4603
  71   2.0000      -0.443231       -12.0609
  72   2.0000      -0.355823        -9.6824
  73   2.0000      -0.354761        -9.6535
  74   2.0000      -0.330938        -9.0053
  75   2.0000      -0.327599        -8.9144
  76   2.0000      -0.320990        -8.7346
  77   0.0000       0.071143         1.9359
  78   0.0000       0.097144         2.6434
  79   0.0000       0.122264         3.3270
  80   0.0000       0.128541         3.4978
  81   0.0000       0.130836         3.5602

MULLIKEN ATOMIC CHARGES
-----------------------
   0 C :   -0.265950
   1 C :    0.016739
   2 O :   -0.378096
   3 C :    0.481489
   4 O :   -0.396086
   5 C :   -0.283726
   6 C :    0.178440
   7 C :   -0.266802
   8 N :   -0.127266
   9 C :    0.209179
  10 S :   -0.438127
  11 N :   -0.211551
  12 C :    0.056354
  13 C :   -0.003701
  14 C :   -0.152980
  15 C :   -0.140560
  16 C :   -0.271345
  17 C :    0.310900
  18 O :   -0.356415
  19 C :   -0.239782
  20 H :    0.096550
  21 H :    0.091816
  22 H :    0.104358
  23 H :    0.102309
  24 H :    0.110691
  25 H :    0.127665
  26 H :    0.135243
  27 H :    0.094193
  28 H :    0.199977
  29 H :    0.200743
  30 H :    0.152692
  31 H :    0.152424
  32 H :    0.165971
  33 H :    0.134469
  34 H :    0.241677
  35 H :    0.168504
Sum of atomic charges:    0.0000000

LOEWDIN ATOMIC CHARGES
----------------------
   0 C :    0.106228
   1 C :   -0.024533
   2 O :    0.289910
   3 C :   -0.422255
   4 O :    0.121986
   5 C :   -0.104247
   6 C :   -0.054044
   7 C :    0.130619
   8 N :    0.407868
   9 C :   -0.457900
  10 S :   -0.033409
  11 N :    0.395062
  12 C :   -0.054153
  13 C :   -0.041643
  14 C :    0.021073
  15 C :    0.042058
  16 C :    0.000187
  17 C :   -0.191856
  18 O :    0.396321
  19 C :    0.032042
  20 H :   -0.029279
  21 H :   -0.029256
  22 H :   -0.023227
  23 H :   -0.034501
  24 H :   -0.022813
  25 H :   -0.005655
  26 H :   -0.003886
  27 H :   -0.023220
  28 H :   -0.056421
  29 H :   -0.063712
  30 H :   -0.011559
  31 H :   -0.026907
  32 H :   -0.019649
  33 H :   -0.034028
  34 H :   -0.152572
  35 H :   -0.022632

  Mayer bond orders larger than 0.100000
B(  0-C ,  1-C ) :   0.9839 B(  0-C , 20-H ) :   0.9738 B(  0-C , 21-H ) :   0.9764
B(  0-C , 22-H ) :   0.9777 B(  1-C ,  2-O ) :   0.8860 B(  1-C , 23-H ) :   0.9644
B(  1-C , 24-H ) :   0.9786 B(  2-O ,  3-C ) :   1.0940 B(  3-C ,  4-O ) :   2.0403
B(  3-C ,  5-C ) :   1.0514 B(  5-C ,  6-C ) :   1.6339 B(  5-C , 12-C ) :   0.9561
B(  6-C ,  7-C ) :   0.9666 B(  6-C ,  8-N ) :   1.1553 B(  7-C , 25-H ) :   0.9657
B(  7-C , 26-H ) :   0.9548 B(  7-C , 27-H ) :   0.9885 B(  8-N ,  9-C ) :   1.1857
B(  8-N , 28-H ) :   0.9466 B(  9-C , 10-S ) :   1.6108 B(  9-C , 11-N ) :   1.3067
B( 11-N , 12-C ) :   0.9674 B( 11-N , 29-H ) :   0.9485 B( 12-C , 13-C ) :   0.9692
B( 12-C , 30-H ) :   1.0025 B( 13-C , 14-C ) :   1.3478 B( 13-C , 19-C ) :   1.3689
B( 14-C , 15-C ) :   1.3927 B( 14-C , 31-H ) :   0.9753 B( 15-C , 16-C ) :   1.3603
B( 15-C , 32-H ) :   0.9692 B( 16-C , 17-C ) :   1.3311 B( 16-C , 33-H ) :   0.9834
B( 17-C , 18-O ) :   1.1075 B( 17-C , 19-C ) :   1.3639 B( 18-O , 34-H ) :   0.9788
B( 19-C , 35-H ) :   0.9598

MP2 TOTAL ENERGY:    -1274.325540646 Eh
FINAL SINGLE POINT ENERGY     -1274.325540645777

DIPOLE MOMENT
-------------
                                X             Y             Z
Electronic contribution:      9.93698       9.14984       7.81913
Nuclear contribution   :    -11.04009     -10.72287      -7.57483
                        -----------------------------------------
Total Dipole Moment    :     -1.10311      -1.57302       0.24430
                        -----------------------------------------
Magnitude (a.u.)       :      1.93673
Magnitude (Debye)      :      4.92278

Rotational constants in cm-1:     0.011838     0.008889     0.006037
Rotational constants in MHz :   354.904592   266.475986   180.985180

                             ****ORCA TERMINATED NORMALLY****
TOTAL RUN TIME: 0 days 1 hours 45 minutes 18 seconds 351 msec
