                         Program Version 4.2.0 -  RELEASE  -
|  1> ! ri-mp2 cc-pvtz cc-pvtz/c TightSCF NoKeepInts
|  2>
|  3> %scf
|  4>   MaxCore 4096
|  5> end
|  6> *xyz  0  1
|  7>     C       14.3494746   15.0886714   15.0130631
|  8>     C       15.7862588   14.7508746   15.4680985
|  9>     O       16.6507970   15.8913692   15.7077412
| 10>     C       16.3375341   17.2111284   15.5068259
| 11>     O       15.6446536   17.6003913   14.5833703
| 12>     C       16.9402809   18.1033015   16.5604765
| 13>     C       16.9862307   19.4505158   16.3936455
| 14>     C       16.2671018   20.2700313   15.3418792
| 15>     N       17.7633614   20.2538581   17.2314028
| 16>     C       18.6645729   19.7774181   18.1443858
| 17>     S       19.6192260   20.7865156   19.0422856
| 18>     N       18.7506244   18.4135727   18.2628203
| 19>     C       17.8747142   17.4385115   17.5864052
| 20>     C       17.1644432   16.5132740   18.5662434
| 21>     C       17.5683229   15.1724449   18.7044674
| 22>     C       16.9090889   14.3178649   19.6040858
| 23>     C       15.8401845   14.8095561   20.3729869
| 24>     C       15.4399391   16.1465746   20.2406641
| 25>     O       14.4093619   16.6241078   20.9828066
| 26>     C       16.0978416   16.9944886   19.3442301
| 27>     H       13.8727517   15.7991308   15.7000511
| 28>     H       13.7366266   14.1796250   14.9919274
| 29>     H       14.3431041   15.5129529   14.0012420
| 30>     H       15.7269796   14.1658706   16.3952084
| 31>     H       16.2504102   14.1068885   14.7101440
| 32>     H       16.6461866   20.0313510   14.3399619
| 33>     H       16.3762669   21.3509566   15.4887925
| 34>     H       15.1924235   20.0470223   15.3471010
| 35>     H       17.7257334   21.2563576   17.1390818
| 36>     H       19.4008877   18.0927389   18.9688871
| 37>     H       18.6164516   16.8814565   16.9965385
| 38>     H       18.3920641   14.7909478   18.1069316
| 39>     H       17.2273416   13.2816072   19.7045043
| 40>     H       15.3284512   14.1539832   21.0699451
| 41>     H       14.1087646   15.9068186   21.5607539
| 42>     H       15.7785439   18.0278219   19.2590451
| 43> *
| 44>
| 45>                          ****END OF INPUT****

CARTESIAN COORDINATES (ANGSTROEM)
---------------------------------
  C     14.349475   15.088671   15.013063
  C     15.786259   14.750875   15.468098
  O     16.650797   15.891369   15.707741
  C     16.337534   17.211128   15.506826
  O     15.644654   17.600391   14.583370
  C     16.940281   18.103301   16.560477
  C     16.986231   19.450516   16.393646
  C     16.267102   20.270031   15.341879
  N     17.763361   20.253858   17.231403
  C     18.664573   19.777418   18.144386
  S     19.619226   20.786516   19.042286
  N     18.750624   18.413573   18.262820
  C     17.874714   17.438511   17.586405
  C     17.164443   16.513274   18.566243
  C     17.568323   15.172445   18.704467
  C     16.909089   14.317865   19.604086
  C     15.840184   14.809556   20.372987
  C     15.439939   16.146575   20.240664
  O     14.409362   16.624108   20.982807
  C     16.097842   16.994489   19.344230
  H     13.872752   15.799131   15.700051
  H     13.736627   14.179625   14.991927
  H     14.343104   15.512953   14.001242
  H     15.726980   14.165871   16.395208
  H     16.250410   14.106889   14.710144
  H     16.646187   20.031351   14.339962
  H     16.376267   21.350957   15.488793
  H     15.192423   20.047022   15.347101
  H     17.725733   21.256358   17.139082
  H     19.400888   18.092739   18.968887
  H     18.616452   16.881456   16.996538
  H     18.392064   14.790948   18.106932
  H     17.227342   13.281607   19.704504
  H     15.328451   14.153983   21.069945
  H     14.108765   15.906819   21.560754
  H     15.778544   18.027822   19.259045

 Total Charge           Charge          ....    0
 Multiplicity           Mult            ....    1
 Number of Electrons    NEL             ....  154
 Basis Dimension        Dim             ....  828

ORBITAL ENERGIES
----------------

  NO   OCC          E(Eh)            E(eV)
   0   2.0000     -91.888445     -2500.4117
   1   2.0000     -20.598101      -560.5028
   2   2.0000     -20.592400      -560.3477
   3   2.0000     -20.540607      -558.9383
   4   2.0000     -15.628689      -425.2782
   5   2.0000     -15.606523      -424.6751
   6   2.0000     -11.396012      -310.1012
   7   2.0000     -11.383065      -309.7489
   8   2.0000     -11.336522      -308.4824
   9   2.0000     -11.315443      -307.9088
  10   2.0000     -11.306863      -307.6754
  11   2.0000     -11.301243      -307.5225
  12   2.0000     -11.262135      -306.4583
  13   2.0000     -11.257898      -306.3430
  14   2.0000     -11.256954      -306.3173
  15   2.0000     -11.251160      -306.1596
  16   2.0000     -11.245125      -305.9954
  17   2.0000     -11.240194      -305.8612
  18   2.0000     -11.240061      -305.8576
  19   2.0000     -11.223584      -305.4093
  20   2.0000      -8.893521      -242.0050
  21   2.0000      -6.575095      -178.9174
  22   2.0000      -6.573096      -178.8630
  23   2.0000      -6.572507      -178.8470
  24   2.0000      -1.441735       -39.2316
  25   2.0000      -1.417758       -38.5792
  26   2.0000      -1.352003       -36.7899
  27   2.0000      -1.339843       -36.4590
  28   2.0000      -1.237818       -33.6827
  29   2.0000      -1.158727       -31.5306
  30   2.0000      -1.120271       -30.4841
  31   2.0000      -1.043300       -28.3896
  32   2.0000      -1.034841       -28.1594
  33   2.0000      -1.016554       -27.6618
  34   2.0000      -0.996009       -27.1028
  35   2.0000      -0.984027       -26.7767
  36   2.0000      -0.921812       -25.0838
  37   2.0000      -0.897121       -24.4119
  38   2.0000      -0.846727       -23.0406
  39   2.0000      -0.839120       -22.8336
  40   2.0000      -0.835531       -22.7359
  41   2.0000      -0.817983       -22.2584
  42   2.0000      -0.744040       -20.2463
  43   2.0000      -0.732855       -19.9420
  44   2.0000      -0.717773       -19.5316
  45   2.0000      -0.696435       -18.9510
  46   2.0000      -0.687365       -18.7042
  47   2.0000      -0.674281       -18.3481
  48   2.0000      -0.671660       -18.2768
  49   2.0000      -0.660117       -17.9627
  50   2.0000      -0.648869       -17.6566
  51   2.0000      -0.642566       -17.4851
  52   2.0000      -0.634934       -17.2774
  53   2.0000      -0.613569       -16.6961
  54   2.0000      -0.608000       -16.5445
  55   2.0000      -0.601479       -16.3671
  56   2.0000      -0.599681       -16.3181
  57   2.0000      -0.578186       -15.7332
  58   2.0000      -0.570104       -15.5133
  59   2.0000      -0.566837       -15.4244
  60   2.0000      -0.557274       -15.1642
  61   2.0000      -0.541110       -14.7243
  62   2.0000      -0.535284       -14.5658
  63   2.0000      -0.525534       -14.3005
  64   2.0000      -0.521964       -14.2034
  65   2.0000      -0.513013       -13.9598
  66   2.0000      -0.500519       -13.6198
  67   2.0000      -0.496430       -13.5085
  68   2.0000      -0.485820       -13.2198
  69   2.0000      -0.462529       -12.5861
  70   2.0000      -0.452532       -12.3140
  71   2.0000      -0.440424       -11.9845
  72   2.0000      -0.352532        -9.5929
  73   2.0000      -0.350682        -9.5425
  74   2.0000      -0.327880        -8.9221
  75   2.0000      -0.322808        -8.7841
  76   2.0000      -0.317738        -8.6461
  77   0.0000       0.076724         2.0878
  78   0.0000       0.103241         2.8093
  79   0.0000       0.124914         3.3991
  80   0.0000       0.132354         3.6015
  81   0.0000       0.136721         3.7204

MULLIKEN ATOMIC CHARGES
-----------------------
   0 C :   -0.299486
   1 C :    0.049864
   2 O :   -0.368506
   3 C :    0.441942
   4 O :   -0.425065
   5 C :   -0.240389
   6 C :    0.179383
   7 C :   -0.266804
   8 N :   -0.126473
   9 C :    0.211660
  10 S :   -0.443026
  11 N :   -0.217051
  12 C :    0.073216
  13 C :    0.047081
  14 C :   -0.198188
  15 C :   -0.128044
  16 C :   -0.278772
  17 C :    0.317404
  18 O :   -0.356406
  19 C :   -0.251768
  20 H :    0.100379
  21 H :    0.098050
  22 H :    0.121949
  23 H :    0.099581
  24 H :    0.097746
  25 H :    0.129930
  26 H :    0.094402
  27 H :    0.132136
  28 H :    0.199480
  29 H :    0.200527
  30 H :    0.151644
  31 H :    0.154709
  32 H :    0.163211
  33 H :    0.131176
  34 H :    0.240839
  35 H :    0.163670
Sum of atomic charges:    0.0000000

LOEWDIN ATOMIC CHARGES
----------------------
   0 C :    0.103835
   1 C :   -0.009364
   2 O :    0.293935
   3 C :   -0.415233
   4 O :    0.107195
   5 C :   -0.096677
   6 C :   -0.056483
   7 C :    0.130728
   8 N :    0.407099
   9 C :   -0.456216
  10 S :   -0.037315
  11 N :    0.394396
  12 C :   -0.054751
  13 C :   -0.038446
  14 C :    0.017351
  15 C :    0.038413
  16 C :   -0.001549
  17 C :   -0.189712
  18 O :    0.395303
  19 C :    0.032601
  20 H :   -0.026914
  21 H :   -0.026737
  22 H :   -0.024480
  23 H :   -0.028020
  24 H :   -0.028430
  25 H :   -0.004857
  26 H :   -0.023838
  27 H :   -0.004808
  28 H :   -0.057268
  29 H :   -0.064727
  30 H :   -0.013417
  31 H :   -0.028698
  32 H :   -0.021114
  33 H :   -0.035290
  34 H :   -0.153730
  35 H :   -0.022783

  Mayer bond orders larger than 0.100000
B(  0-C ,  1-C ) :   0.9740 B(  0-C , 20-H ) :   0.9754 B(  0-C , 21-H ) :   0.9735
B(  0-C , 22-H ) :   0.9723 B(  1-C ,  2-O ) :   0.8973 B(  1-C , 23-H ) :   0.9733
B(  1-C , 24-H ) :   0.9814 B(  2-O ,  3-C ) :   1.1376 B(  3-C ,  4-O ) :   1.9842
B(  3-C ,  5-C ) :   1.0565 B(  5-C ,  6-C ) :   1.6350 B(  5-C , 12-C ) :   0.9570
B(  6-C ,  7-C ) :   0.9651 B(  6-C ,  8-N ) :   1.1537 B(  7-C , 25-H ) :   0.9585
B(  7-C , 26-H ) :   0.9905 B(  7-C , 27-H ) :   0.9618 B(  8-N ,  9-C ) :   1.1877
B(  8-N , 28-H ) :   0.9466 B(  9-C , 10-S ) :   1.6039 B(  9-C , 11-N ) :   1.3107
B( 11-N , 12-C ) :   0.9665 B( 11-N , 29-H ) :   0.9486 B( 12-C , 13-C ) :   0.9620
B( 12-C , 30-H ) :   1.0002 B( 13-C , 14-C ) :   1.3476 B( 13-C , 19-C ) :   1.3803
B( 14-C , 15-C ) :   1.3894 B( 14-C , 31-H ) :   0.9722 B( 15-C , 16-C ) :   1.3592
B( 15-C , 32-H ) :   0.9701 B( 16-C , 17-C ) :   1.3330 B( 16-C , 33-H ) :   0.9848
B( 17-C , 18-O ) :   1.1050 B( 17-C , 19-C ) :   1.3637 B( 18-O , 34-H ) :   0.9796
B( 19-C , 35-H ) :   0.9595

MP2 TOTAL ENERGY:    -1274.331888912 Eh
FINAL SINGLE POINT ENERGY     -1274.331888911639

DIPOLE MOMENT
-------------
                                X             Y             Z
Electronic contribution:      9.87539       9.89009       8.37898
Nuclear contribution   :    -10.92198     -11.68080      -8.60462
                        -----------------------------------------
Total Dipole Moment    :     -1.04659      -1.79071      -0.22565
                        -----------------------------------------
Magnitude (a.u.)       :      2.08636
Magnitude (Debye)      :      5.30312

Rotational constants in cm-1:     0.011659     0.008592     0.005963
Rotational constants in MHz :   349.531254   257.591205   178.777628

                             ****ORCA TERMINATED NORMALLY****
TOTAL RUN TIME: 0 days 1 hours 53 minutes 6 seconds 482 msec
