                         Program Version 4.2.0 -  RELEASE  -
|  1> ! ri-mp2 cc-pvtz cc-pvtz/c TightSCF NoKeepInts
|  2>
|  3> %scf
|  4>   MaxCore 4096
|  5> end
|  6> *xyz  0  1
|  7>     C       14.3528912   15.3362421   15.6134146
|  8>     C       15.2127377   15.6803517   14.3798258
|  9>     O       16.0144302   16.8383630   14.6754860
| 10>     C       17.0265688   16.7191267   15.5822576
| 11>     O       17.6970279   15.7041635   15.6749588
| 12>     C       17.1151880   17.8456928   16.5698406
| 13>     C       16.8252415   19.1316584   16.2413538
| 14>     C       16.1755199   19.6407093   14.9699240
| 15>     N       17.1724584   20.1807226   17.0963166
| 16>     C       17.9931161   20.0533588   18.1846992
| 17>     S       18.4469273   21.3591222   19.0927396
| 18>     N       18.4370734   18.7867804   18.4699116
| 19>     C       17.9880702   17.5532506   17.7952817
| 20>     C       17.3644810   16.5381937   18.7439934
| 21>     C       17.8575287   15.2227618   18.8118597
| 22>     C       17.2750300   14.2852207   19.6811054
| 23>     C       16.1904312   14.6667567   20.4894570
| 24>     C       15.6953769   15.9763765   20.4215597
| 25>     O       14.6443530   16.3457061   21.1962562
| 26>     C       16.2769820   16.9070830   19.5547764
| 27>     H       14.9808931   15.0263781   16.4590349
| 28>     H       13.6683921   14.5108048   15.3835204
| 29>     H       13.7541389   16.2012710   15.9244271
| 30>     H       15.8464469   14.8257553   14.1050852
| 31>     H       14.5534576   15.9022637   13.5309293
| 32>     H       15.1392837   19.2877079   14.8963830
| 33>     H       16.7176524   19.2847576   14.0848126
| 34>     H       16.1530730   20.7357786   14.9123111
| 35>     H       16.8724807   21.1194521   16.8872386
| 36>     H       19.0236018   18.7171178   19.2919163
| 37>     H       18.9453545   17.1811590   17.4018802
| 38>     H       18.6853593   14.9227774   18.1735178
| 39>     H       17.6612724   13.2682801   19.7204818
| 40>     H       15.7365711   13.9453670   21.1607070
| 41>     H       14.4063184   15.5829963   21.7443933
| 42>     H       15.8812710   17.9164928   19.5163434
| 43> *
| 44>
| 45>                          ****END OF INPUT****

CARTESIAN COORDINATES (ANGSTROEM)
---------------------------------
  C     14.352891   15.336242   15.613415
  C     15.212738   15.680352   14.379826
  O     16.014430   16.838363   14.675486
  C     17.026569   16.719127   15.582258
  O     17.697028   15.704163   15.674959
  C     17.115188   17.845693   16.569841
  C     16.825242   19.131658   16.241354
  C     16.175520   19.640709   14.969924
  N     17.172458   20.180723   17.096317
  C     17.993116   20.053359   18.184699
  S     18.446927   21.359122   19.092740
  N     18.437073   18.786780   18.469912
  C     17.988070   17.553251   17.795282
  C     17.364481   16.538194   18.743993
  C     17.857529   15.222762   18.811860
  C     17.275030   14.285221   19.681105
  C     16.190431   14.666757   20.489457
  C     15.695377   15.976376   20.421560
  O     14.644353   16.345706   21.196256
  C     16.276982   16.907083   19.554776
  H     14.980893   15.026378   16.459035
  H     13.668392   14.510805   15.383520
  H     13.754139   16.201271   15.924427
  H     15.846447   14.825755   14.105085
  H     14.553458   15.902264   13.530929
  H     15.139284   19.287708   14.896383
  H     16.717652   19.284758   14.084813
  H     16.153073   20.735779   14.912311
  H     16.872481   21.119452   16.887239
  H     19.023602   18.717118   19.291916
  H     18.945355   17.181159   17.401880
  H     18.685359   14.922777   18.173518
  H     17.661272   13.268280   19.720482
  H     15.736571   13.945367   21.160707
  H     14.406318   15.582996   21.744393
  H     15.881271   17.916493   19.516343

 Total Charge           Charge          ....    0
 Multiplicity           Mult            ....    1
 Number of Electrons    NEL             ....  154
 Basis Dimension        Dim             ....  828

ORBITAL ENERGIES
----------------

  NO   OCC          E(Eh)            E(eV)
   0   2.0000     -91.888423     -2500.4111
   1   2.0000     -20.596324      -560.4545
   2   2.0000     -20.593345      -560.3734
   3   2.0000     -20.547750      -559.1327
   4   2.0000     -15.628848      -425.2826
   5   2.0000     -15.606265      -424.6681
   6   2.0000     -11.395121      -310.0770
   7   2.0000     -11.383162      -309.7516
   8   2.0000     -11.337723      -308.5151
   9   2.0000     -11.309550      -307.7485
  10   2.0000     -11.304868      -307.6211
  11   2.0000     -11.300471      -307.5014
  12   2.0000     -11.259924      -306.3981
  13   2.0000     -11.259058      -306.3745
  14   2.0000     -11.256562      -306.3066
  15   2.0000     -11.249662      -306.1189
  16   2.0000     -11.239824      -305.8512
  17   2.0000     -11.235801      -305.7417
  18   2.0000     -11.232597      -305.6545
  19   2.0000     -11.228311      -305.5379
  20   2.0000      -8.893503      -242.0045
  21   2.0000      -6.575079      -178.9170
  22   2.0000      -6.573077      -178.8625
  23   2.0000      -6.572488      -178.8465
  24   2.0000      -1.453002       -39.5382
  25   2.0000      -1.413107       -38.4526
  26   2.0000      -1.356904       -36.9232
  27   2.0000      -1.340030       -36.4641
  28   2.0000      -1.237325       -33.6693
  29   2.0000      -1.154076       -31.4040
  30   2.0000      -1.121514       -30.5179
  31   2.0000      -1.043218       -28.3874
  32   2.0000      -1.033158       -28.1137
  33   2.0000      -1.011496       -27.5242
  34   2.0000      -0.999586       -27.2001
  35   2.0000      -0.984729       -26.7958
  36   2.0000      -0.921787       -25.0831
  37   2.0000      -0.894680       -24.3455
  38   2.0000      -0.847802       -23.0699
  39   2.0000      -0.836137       -22.7524
  40   2.0000      -0.829744       -22.5785
  41   2.0000      -0.815647       -22.1949
  42   2.0000      -0.752836       -20.4857
  43   2.0000      -0.736156       -20.0318
  44   2.0000      -0.727197       -19.7880
  45   2.0000      -0.691870       -18.8268
  46   2.0000      -0.686018       -18.6675
  47   2.0000      -0.678944       -18.4750
  48   2.0000      -0.670198       -18.2370
  49   2.0000      -0.658746       -17.9254
  50   2.0000      -0.652505       -17.7556
  51   2.0000      -0.645374       -17.5615
  52   2.0000      -0.633096       -17.2274
  53   2.0000      -0.610262       -16.6061
  54   2.0000      -0.603212       -16.4142
  55   2.0000      -0.599390       -16.3102
  56   2.0000      -0.596684       -16.2366
  57   2.0000      -0.579832       -15.7780
  58   2.0000      -0.574397       -15.6301
  59   2.0000      -0.562700       -15.3118
  60   2.0000      -0.555048       -15.1036
  61   2.0000      -0.551666       -15.0116
  62   2.0000      -0.537092       -14.6150
  63   2.0000      -0.532931       -14.5018
  64   2.0000      -0.517482       -14.0814
  65   2.0000      -0.509755       -13.8711
  66   2.0000      -0.497299       -13.5322
  67   2.0000      -0.493858       -13.4386
  68   2.0000      -0.481862       -13.1121
  69   2.0000      -0.463825       -12.6213
  70   2.0000      -0.459922       -12.5151
  71   2.0000      -0.450185       -12.2502
  72   2.0000      -0.353325        -9.6145
  73   2.0000      -0.346145        -9.4191
  74   2.0000      -0.327510        -8.9120
  75   2.0000      -0.317604        -8.6425
  76   2.0000      -0.316307        -8.6071
  77   0.0000       0.075898         2.0653
  78   0.0000       0.109105         2.9689
  79   0.0000       0.119855         3.2614
  80   0.0000       0.134496         3.6598
  81   0.0000       0.141624         3.8538

MULLIKEN ATOMIC CHARGES
-----------------------
   0 C :   -0.300958
   1 C :    0.029095
   2 O :   -0.362989
   3 C :    0.419945
   4 O :   -0.412653
   5 C :   -0.159413
   6 C :    0.147933
   7 C :   -0.280783
   8 N :   -0.128253
   9 C :    0.208076
  10 S :   -0.441704
  11 N :   -0.211598
  12 C :    0.048454
  13 C :    0.026813
  14 C :   -0.173108
  15 C :   -0.134441
  16 C :   -0.278305
  17 C :    0.314676
  18 O :   -0.358593
  19 C :   -0.250828
  20 H :    0.119896
  21 H :    0.099948
  22 H :    0.094661
  23 H :    0.112145
  24 H :    0.106956
  25 H :    0.127210
  26 H :    0.126533
  27 H :    0.101274
  28 H :    0.198657
  29 H :    0.199611
  30 H :    0.155991
  31 H :    0.161201
  32 H :    0.160872
  33 H :    0.129369
  34 H :    0.240133
  35 H :    0.164177
Sum of atomic charges:   -0.0000000

LOEWDIN ATOMIC CHARGES
----------------------
   0 C :    0.105861
   1 C :   -0.019143
   2 O :    0.300029
   3 C :   -0.417113
   4 O :    0.109653
   5 C :   -0.093156
   6 C :   -0.065667
   7 C :    0.126030
   8 N :    0.405485
   9 C :   -0.457878
  10 S :   -0.037292
  11 N :    0.396242
  12 C :   -0.048090
  13 C :   -0.041490
  14 C :    0.024055
  15 C :    0.040553
  16 C :   -0.001280
  17 C :   -0.192793
  18 O :    0.393406
  19 C :    0.029728
  20 H :   -0.022744
  21 H :   -0.025470
  22 H :   -0.028736
  23 H :   -0.027398
  24 H :   -0.025301
  25 H :   -0.009911
  26 H :   -0.008420
  27 H :   -0.020980
  28 H :   -0.058573
  29 H :   -0.063404
  30 H :   -0.007746
  31 H :   -0.023582
  32 H :   -0.020716
  33 H :   -0.035891
  34 H :   -0.154630
  35 H :   -0.023638

  Mayer bond orders larger than 0.100000
B(  0-C ,  1-C ) :   0.9595 B(  0-C , 20-H ) :   0.9716 B(  0-C , 21-H ) :   0.9763
B(  0-C , 22-H ) :   0.9765 B(  1-C ,  2-O ) :   0.8990 B(  1-C , 23-H ) :   0.9791
B(  1-C , 24-H ) :   0.9842 B(  2-O ,  3-C ) :   1.1046 B(  3-C ,  4-O ) :   2.0043
B(  3-C ,  5-C ) :   1.0273 B(  5-C ,  6-C ) :   1.6606 B(  5-C , 12-C ) :   0.9491
B(  6-C ,  7-C ) :   0.9564 B(  6-C ,  8-N ) :   1.1365 B(  7-C , 25-H ) :   0.9637
B(  7-C , 26-H ) :   0.9655 B(  7-C , 27-H ) :   0.9901 B(  8-N ,  9-C ) :   1.1853
B(  8-N , 28-H ) :   0.9470 B(  9-C , 10-S ) :   1.6098 B(  9-C , 11-N ) :   1.3043
B( 11-N , 12-C ) :   0.9784 B( 11-N , 29-H ) :   0.9486 B( 12-C , 13-C ) :   0.9690
B( 12-C , 30-H ) :   0.9957 B( 13-C , 14-C ) :   1.3787 B( 13-C , 19-C ) :   1.3659
B( 14-C , 15-C ) :   1.3970 B( 14-C , 31-H ) :   0.9628 B( 15-C , 16-C ) :   1.3591
B( 15-C , 32-H ) :   0.9710 B( 16-C , 17-C ) :   1.3325 B( 16-C , 33-H ) :   0.9856
B( 17-C , 18-O ) :   1.1045 B( 17-C , 19-C ) :   1.3671 B( 18-O , 34-H ) :   0.9804
B( 19-C , 35-H ) :   0.9600

MP2 TOTAL ENERGY:    -1274.337189172 Eh
FINAL SINGLE POINT ENERGY     -1274.337189172414

DIPOLE MOMENT
-------------
                                X             Y             Z
Electronic contribution:      9.57601       9.48918       8.59512
Nuclear contribution   :    -10.95451     -10.81564      -9.60015
                        -----------------------------------------
Total Dipole Moment    :     -1.37850      -1.32646      -1.00503
                        -----------------------------------------
Magnitude (a.u.)       :      2.16098
Magnitude (Debye)      :      5.49276

Rotational constants in cm-1:     0.010714     0.009242     0.006009
Rotational constants in MHz :   321.195762   277.058442   180.136706

                             ****ORCA TERMINATED NORMALLY****
TOTAL RUN TIME: 0 days 1 hours 42 minutes 44 seconds 529 msec
