                         Program Version 4.2.0 -  RELEASE  -
|  1> ! ri-mp2 cc-pvtz cc-pvtz/c TightSCF NoKeepInts
|  2>
|  3> %scf
|  4>   MaxCore 4096
|  5> end
|  6> *xyz  0  1
|  7>     C       14.8151365   15.6005439   13.0751337
|  8>     C       14.7745999   15.4339058   14.6035600
|  9>     O       15.5136983   16.5319429   15.1712981
| 10>     C       16.4957687   16.3094456   16.0945421
| 11>     O       16.9179349   15.1933092   16.3485743
| 12>     C       16.9585226   17.5346583   16.8339802
| 13>     C       16.9193599   18.7832738   16.2956699
| 14>     C       16.2260920   19.2337808   15.0243533
| 15>     N       17.6059726   19.8410653   16.8976836
| 16>     C       18.5258568   19.6981924   17.9007918
| 17>     S       19.3835170   20.9845109   18.4885211
| 18>     N       18.7153126   18.4260690   18.3767774
| 19>     C       17.9094401   17.2474641   18.0039762
| 20>     C       17.2286620   16.5874582   19.1959680
| 21>     C       17.4375082   15.2254277   19.4780925
| 22>     C       16.8115492   14.6197143   20.5805100
| 23>     C       15.9708893   15.3831232   21.4086916
| 24>     C       15.7597694   16.7402939   21.1287260
| 25>     O       14.9457225   17.4787589   21.9245847
| 26>     C       16.3838930   17.3401639   20.0302931
| 27>     H       14.3782002   16.5618718   12.7777718
| 28>     H       14.2481742   14.7990098   12.5861227
| 29>     H       15.8491464   15.5603857   12.7102983
| 30>     H       13.7368013   15.4569364   14.9602971
| 31>     H       15.2058819   14.4590380   14.8680604
| 32>     H       15.1414456   19.0871036   15.1015307
| 33>     H       16.5854632   18.6611392   14.1601729
| 34>     H       16.3945321   20.2938519   14.7988928
| 35>     H       17.4935681   20.7777278   16.5444169
| 36>     H       19.3826591   18.3507090   19.1340826
| 37>     H       18.6956875   16.5949234   17.5971871
| 38>     H       18.0755939   14.6310897   18.8283408
| 39>     H       16.9751503   13.5631794   20.7848268
| 40>     H       15.4842886   14.9189227   22.2599367
| 41>     H       14.6297878   16.8984829   22.6332286
| 42>     H       16.2114145   18.3925265   19.8311062
| 43> *
| 44>
| 45>                          ****END OF INPUT****

CARTESIAN COORDINATES (ANGSTROEM)
---------------------------------
  C     14.815136   15.600544   13.075134
  C     14.774600   15.433906   14.603560
  O     15.513698   16.531943   15.171298
  C     16.495769   16.309446   16.094542
  O     16.917935   15.193309   16.348574
  C     16.958523   17.534658   16.833980
  C     16.919360   18.783274   16.295670
  C     16.226092   19.233781   15.024353
  N     17.605973   19.841065   16.897684
  C     18.525857   19.698192   17.900792
  S     19.383517   20.984511   18.488521
  N     18.715313   18.426069   18.376777
  C     17.909440   17.247464   18.003976
  C     17.228662   16.587458   19.195968
  C     17.437508   15.225428   19.478092
  C     16.811549   14.619714   20.580510
  C     15.970889   15.383123   21.408692
  C     15.759769   16.740294   21.128726
  O     14.945723   17.478759   21.924585
  C     16.383893   17.340164   20.030293
  H     14.378200   16.561872   12.777772
  H     14.248174   14.799010   12.586123
  H     15.849146   15.560386   12.710298
  H     13.736801   15.456936   14.960297
  H     15.205882   14.459038   14.868060
  H     15.141446   19.087104   15.101531
  H     16.585463   18.661139   14.160173
  H     16.394532   20.293852   14.798893
  H     17.493568   20.777728   16.544417
  H     19.382659   18.350709   19.134083
  H     18.695687   16.594923   17.597187
  H     18.075594   14.631090   18.828341
  H     16.975150   13.563179   20.784827
  H     15.484289   14.918923   22.259937
  H     14.629788   16.898483   22.633229
  H     16.211415   18.392526   19.831106

 Total Charge           Charge          ....    0
 Multiplicity           Mult            ....    1
 Number of Electrons    NEL             ....  154
 Basis Dimension        Dim             ....  828

ORBITAL ENERGIES
----------------

  NO   OCC          E(Eh)            E(eV)
   0   2.0000     -91.887647     -2500.3900
   1   2.0000     -20.604361      -560.6732
   2   2.0000     -20.590885      -560.3065
   3   2.0000     -20.544647      -559.0483
   4   2.0000     -15.628181      -425.2644
   5   2.0000     -15.605262      -424.6408
   6   2.0000     -11.396631      -310.1181
   7   2.0000     -11.382127      -309.7234
   8   2.0000     -11.338034      -308.5236
   9   2.0000     -11.306824      -307.6743
  10   2.0000     -11.303716      -307.5898
  11   2.0000     -11.299035      -307.4624
  12   2.0000     -11.261102      -306.4302
  13   2.0000     -11.258975      -306.3723
  14   2.0000     -11.254124      -306.2403
  15   2.0000     -11.246901      -306.0437
  16   2.0000     -11.237129      -305.7778
  17   2.0000     -11.233549      -305.6804
  18   2.0000     -11.233255      -305.6724
  19   2.0000     -11.230017      -305.5843
  20   2.0000      -8.892734      -241.9836
  21   2.0000      -6.574313      -178.8961
  22   2.0000      -6.572309      -178.8416
  23   2.0000      -6.571722      -178.8256
  24   2.0000      -1.453635       -39.5554
  25   2.0000      -1.410627       -38.3851
  26   2.0000      -1.357493       -36.9393
  27   2.0000      -1.339570       -36.4515
  28   2.0000      -1.236685       -33.6519
  29   2.0000      -1.151545       -31.3351
  30   2.0000      -1.120280       -30.4844
  31   2.0000      -1.044765       -28.4295
  32   2.0000      -1.036570       -28.2065
  33   2.0000      -1.009075       -27.4583
  34   2.0000      -0.998260       -27.1640
  35   2.0000      -0.983363       -26.7587
  36   2.0000      -0.920165       -25.0390
  37   2.0000      -0.890159       -24.2225
  38   2.0000      -0.846925       -23.0460
  39   2.0000      -0.834166       -22.6988
  40   2.0000      -0.827139       -22.5076
  41   2.0000      -0.817770       -22.2527
  42   2.0000      -0.761892       -20.7321
  43   2.0000      -0.736033       -20.0285
  44   2.0000      -0.725445       -19.7404
  45   2.0000      -0.689372       -18.7588
  46   2.0000      -0.684511       -18.6265
  47   2.0000      -0.680015       -18.5041
  48   2.0000      -0.673929       -18.3385
  49   2.0000      -0.652777       -17.7630
  50   2.0000      -0.652341       -17.7511
  51   2.0000      -0.639338       -17.3973
  52   2.0000      -0.630611       -17.1598
  53   2.0000      -0.609592       -16.5879
  54   2.0000      -0.602643       -16.3988
  55   2.0000      -0.597467       -16.2579
  56   2.0000      -0.594168       -16.1681
  57   2.0000      -0.580900       -15.8071
  58   2.0000      -0.572237       -15.5714
  59   2.0000      -0.564092       -15.3497
  60   2.0000      -0.561896       -15.2900
  61   2.0000      -0.546004       -14.8575
  62   2.0000      -0.542242       -14.7551
  63   2.0000      -0.530890       -14.4463
  64   2.0000      -0.514995       -14.0137
  65   2.0000      -0.508190       -13.8285
  66   2.0000      -0.499484       -13.5917
  67   2.0000      -0.493425       -13.4268
  68   2.0000      -0.481169       -13.0933
  69   2.0000      -0.463967       -12.6252
  70   2.0000      -0.460056       -12.5188
  71   2.0000      -0.451907       -12.2970
  72   2.0000      -0.352869        -9.6020
  73   2.0000      -0.343721        -9.3531
  74   2.0000      -0.326729        -8.8907
  75   2.0000      -0.316815        -8.6210
  76   2.0000      -0.313445        -8.5293
  77   0.0000       0.077827         2.1178
  78   0.0000       0.112615         3.0644
  79   0.0000       0.120995         3.2924
  80   0.0000       0.136083         3.7030
  81   0.0000       0.139139         3.7862

MULLIKEN ATOMIC CHARGES
-----------------------
   0 C :   -0.272506
   1 C :    0.019431
   2 O :   -0.343241
   3 C :    0.431583
   4 O :   -0.426720
   5 C :   -0.179234
   6 C :    0.160946
   7 C :   -0.285555
   8 N :   -0.129030
   9 C :    0.207531
  10 S :   -0.443050
  11 N :   -0.210734
  12 C :    0.040513
  13 C :    0.031913
  14 C :   -0.165811
  15 C :   -0.134201
  16 C :   -0.276820
  17 C :    0.314386
  18 O :   -0.359202
  19 C :   -0.250418
  20 H :    0.091447
  21 H :    0.098420
  22 H :    0.097615
  23 H :    0.099051
  24 H :    0.122336
  25 H :    0.130579
  26 H :    0.124438
  27 H :    0.104183
  28 H :    0.198736
  29 H :    0.199987
  30 H :    0.155049
  31 H :    0.158214
  32 H :    0.159495
  33 H :    0.127885
  34 H :    0.239805
  35 H :    0.162977
Sum of atomic charges:   -0.0000000

LOEWDIN ATOMIC CHARGES
----------------------
   0 C :    0.103542
   1 C :   -0.010600
   2 O :    0.307661
   3 C :   -0.414482
   4 O :    0.102264
   5 C :   -0.090793
   6 C :   -0.064070
   7 C :    0.124565
   8 N :    0.405356
   9 C :   -0.458824
  10 S :   -0.038103
  11 N :    0.396578
  12 C :   -0.048332
  13 C :   -0.040408
  14 C :    0.025157
  15 C :    0.040989
  16 C :   -0.001088
  17 C :   -0.192396
  18 O :    0.393018
  19 C :    0.029855
  20 H :   -0.030093
  21 H :   -0.024538
  22 H :   -0.026305
  23 H :   -0.029852
  24 H :   -0.027408
  25 H :   -0.009432
  26 H :   -0.010067
  27 H :   -0.021263
  28 H :   -0.058871
  29 H :   -0.063035
  30 H :   -0.008530
  31 H :   -0.024134
  32 H :   -0.021184
  33 H :   -0.036252
  34 H :   -0.154982
  35 H :   -0.023942

  Mayer bond orders larger than 0.100000
B(  0-C ,  1-C ) :   0.9713 B(  0-C , 20-H ) :   0.9792 B(  0-C , 21-H ) :   0.9768
B(  0-C , 22-H ) :   0.9781 B(  1-C ,  2-O ) :   0.8873 B(  1-C , 23-H ) :   0.9807
B(  1-C , 24-H ) :   0.9732 B(  2-O ,  3-C ) :   1.1599 B(  3-C ,  4-O ) :   1.9822
B(  3-C ,  5-C ) :   1.0457 B(  5-C ,  6-C ) :   1.6544 B(  5-C , 12-C ) :   0.9495
B(  6-C ,  7-C ) :   0.9523 B(  6-C ,  8-N ) :   1.1357 B(  7-C , 25-H ) :   0.9631
B(  7-C , 26-H ) :   0.9658 B(  7-C , 27-H ) :   0.9923 B(  8-N ,  9-C ) :   1.1853
B(  8-N , 28-H ) :   0.9469 B(  9-C , 10-S ) :   1.6074 B(  9-C , 11-N ) :   1.3069
B( 11-N , 12-C ) :   0.9765 B( 11-N , 29-H ) :   0.9485 B( 12-C , 13-C ) :   0.9752
B( 12-C , 30-H ) :   0.9974 B( 13-C , 14-C ) :   1.3760 B( 13-C , 19-C ) :   1.3665
B( 14-C , 15-C ) :   1.3973 B( 14-C , 31-H ) :   0.9640 B( 15-C , 16-C ) :   1.3587
B( 15-C , 32-H ) :   0.9713 B( 16-C , 17-C ) :   1.3334 B( 16-C , 33-H ) :   0.9861
B( 17-C , 18-O ) :   1.1030 B( 17-C , 19-C ) :   1.3677 B( 18-O , 34-H ) :   0.9808
B( 19-C , 35-H ) :   0.9602

MP2 TOTAL ENERGY:    -1274.340686941 Eh
FINAL SINGLE POINT ENERGY     -1274.340686941460

DIPOLE MOMENT
-------------
                                X             Y             Z
Electronic contribution:      9.54661       8.35741      13.70158
Nuclear contribution   :    -11.13513      -9.54035     -14.73239
                        -----------------------------------------
Total Dipole Moment    :     -1.58852      -1.18295      -1.03082
                        -----------------------------------------
Magnitude (a.u.)       :      2.23279
Magnitude (Debye)      :      5.67529

Rotational constants in cm-1:     0.010145     0.008503     0.005365
Rotational constants in MHz :   304.150448   254.904096   160.824940

                             ****ORCA TERMINATED NORMALLY****
TOTAL RUN TIME: 0 days 1 hours 32 minutes 32 seconds 779 msec
