                         Program Version 4.2.0 -  RELEASE  -
|  1> ! ri-mp2 cc-pvtz cc-pvtz/c TightSCF NoKeepInts
|  2>
|  3> %scf
|  4>   MaxCore 4096
|  5> end
|  6> *xyz  0  1
|  7>     C       14.6519376   14.9889907   14.3559577
|  8>     C       15.5081693   14.9236670   15.6384315
|  9>     O       16.4906868   15.9814478   15.7299512
| 10>     C       16.1983182   17.3130126   15.5902655
| 11>     O       15.4298017   17.7458274   14.7504247
| 12>     C       16.8632946   18.1518510   16.6503651
| 13>     C       16.9169891   19.5044730   16.5380521
| 14>     C       16.1577308   20.3747677   15.5576455
| 15>     N       17.7455786   20.2637134   17.3675951
| 16>     C       18.6894030   19.7400480   18.2088157
| 17>     S       19.7022142   20.7005490   19.0961749
| 18>     N       18.7669479   18.3716408   18.2629190
| 19>     C       17.8433668   17.4349925   17.5957000
| 20>     C       17.1756150   16.4765409   18.5735881
| 21>     C       17.5585507   15.1234234   18.6234544
| 22>     C       16.9373379   14.2387524   19.5210140
| 23>     C       15.9282952   14.7124304   20.3771642
| 24>     C       15.5493903   16.0614132   20.3329848
| 25>     O       14.5764637   16.5215212   21.1591212
| 26>     C       16.1687146   16.9390798   19.4376743
| 27>     H       13.8945785   15.7797414   14.4211740
| 28>     H       14.1237331   14.0403407   14.2029373
| 29>     H       15.2801188   15.1757614   13.4759456
| 30>     H       14.8452664   14.9628876   16.5130562
| 31>     H       16.0322108   13.9598491   15.6671057
| 32>     H       15.0801836   20.1750971   15.6189329
| 33>     H       16.4720568   20.1622420   14.5278269
| 34>     H       16.3011556   21.4474798   15.7326868
| 35>     H       17.7139298   21.2696001   17.3210006
| 36>     H       19.4515613   18.0145757   18.9172704
| 37>     H       18.5455721   16.8961837   16.9436872
| 38>     H       18.3358781   14.7560093   17.9585908
| 39>     H       17.2390914   13.1931802   19.5527185
| 40>     H       15.4465037   14.0335823   21.0732353
| 41>     H       14.2995850   15.7842953   21.7237357
| 42>     H       15.8667688   17.9810322   19.4207971
| 43> *
| 44>
| 45>                          ****END OF INPUT****

CARTESIAN COORDINATES (ANGSTROEM)
---------------------------------
  C     14.651938   14.988991   14.355958
  C     15.508169   14.923667   15.638431
  O     16.490687   15.981448   15.729951
  C     16.198318   17.313013   15.590265
  O     15.429802   17.745827   14.750425
  C     16.863295   18.151851   16.650365
  C     16.916989   19.504473   16.538052
  C     16.157731   20.374768   15.557645
  N     17.745579   20.263713   17.367595
  C     18.689403   19.740048   18.208816
  S     19.702214   20.700549   19.096175
  N     18.766948   18.371641   18.262919
  C     17.843367   17.434992   17.595700
  C     17.175615   16.476541   18.573588
  C     17.558551   15.123423   18.623454
  C     16.937338   14.238752   19.521014
  C     15.928295   14.712430   20.377164
  C     15.549390   16.061413   20.332985
  O     14.576464   16.521521   21.159121
  C     16.168715   16.939080   19.437674
  H     13.894578   15.779741   14.421174
  H     14.123733   14.040341   14.202937
  H     15.280119   15.175761   13.475946
  H     14.845266   14.962888   16.513056
  H     16.032211   13.959849   15.667106
  H     15.080184   20.175097   15.618933
  H     16.472057   20.162242   14.527827
  H     16.301156   21.447480   15.732687
  H     17.713930   21.269600   17.321001
  H     19.451561   18.014576   18.917270
  H     18.545572   16.896184   16.943687
  H     18.335878   14.756009   17.958591
  H     17.239091   13.193180   19.552719
  H     15.446504   14.033582   21.073235
  H     14.299585   15.784295   21.723736
  H     15.866769   17.981032   19.420797

 Total Charge           Charge          ....    0
 Multiplicity           Mult            ....    1
 Number of Electrons    NEL             ....  154
 Basis Dimension        Dim             ....  828

ORBITAL ENERGIES
----------------

  NO   OCC          E(Eh)            E(eV)
   0   2.0000     -91.888889     -2500.4238
   1   2.0000     -20.598275      -560.5076
   2   2.0000     -20.591344      -560.3189
   3   2.0000     -20.542820      -558.9985
   4   2.0000     -15.629231      -425.2930
   5   2.0000     -15.606887      -424.6850
   6   2.0000     -11.395844      -310.0967
   7   2.0000     -11.383472      -309.7600
   8   2.0000     -11.337141      -308.4993
   9   2.0000     -11.315640      -307.9142
  10   2.0000     -11.307260      -307.6862
  11   2.0000     -11.300571      -307.5042
  12   2.0000     -11.262264      -306.4618
  13   2.0000     -11.257853      -306.3418
  14   2.0000     -11.257001      -306.3186
  15   2.0000     -11.251751      -306.1757
  16   2.0000     -11.245272      -305.9994
  17   2.0000     -11.240470      -305.8687
  18   2.0000     -11.240128      -305.8594
  19   2.0000     -11.218950      -305.2831
  20   2.0000      -8.893961      -242.0170
  21   2.0000      -6.575534      -178.9294
  22   2.0000      -6.573536      -178.8750
  23   2.0000      -6.572945      -178.8589
  24   2.0000      -1.443936       -39.2915
  25   2.0000      -1.417938       -38.5841
  26   2.0000      -1.354033       -36.8451
  27   2.0000      -1.340342       -36.4726
  28   2.0000      -1.238243       -33.6943
  29   2.0000      -1.158906       -31.5354
  30   2.0000      -1.120633       -30.4940
  31   2.0000      -1.043563       -28.3968
  32   2.0000      -1.033782       -28.1307
  33   2.0000      -1.016681       -27.6653
  34   2.0000      -0.995835       -27.0980
  35   2.0000      -0.984112       -26.7791
  36   2.0000      -0.922147       -25.0929
  37   2.0000      -0.892030       -24.2734
  38   2.0000      -0.847193       -23.0533
  39   2.0000      -0.839316       -22.8390
  40   2.0000      -0.835707       -22.7407
  41   2.0000      -0.820746       -22.3336
  42   2.0000      -0.748889       -20.3783
  43   2.0000      -0.733228       -19.9522
  44   2.0000      -0.718430       -19.5495
  45   2.0000      -0.696654       -18.9569
  46   2.0000      -0.688420       -18.7329
  47   2.0000      -0.678479       -18.4624
  48   2.0000      -0.668768       -18.1981
  49   2.0000      -0.658023       -17.9057
  50   2.0000      -0.648373       -17.6431
  51   2.0000      -0.645326       -17.5602
  52   2.0000      -0.635058       -17.2808
  53   2.0000      -0.608465       -16.5572
  54   2.0000      -0.602368       -16.3913
  55   2.0000      -0.600233       -16.3332
  56   2.0000      -0.596298       -16.2261
  57   2.0000      -0.580520       -15.7968
  58   2.0000      -0.575411       -15.6577
  59   2.0000      -0.569613       -15.5000
  60   2.0000      -0.562749       -15.3132
  61   2.0000      -0.540384       -14.7046
  62   2.0000      -0.534881       -14.5549
  63   2.0000      -0.524975       -14.2853
  64   2.0000      -0.521008       -14.1773
  65   2.0000      -0.512949       -13.9580
  66   2.0000      -0.500065       -13.6075
  67   2.0000      -0.496464       -13.5095
  68   2.0000      -0.484030       -13.1711
  69   2.0000      -0.463528       -12.6132
  70   2.0000      -0.454358       -12.3637
  71   2.0000      -0.439280       -11.9534
  72   2.0000      -0.352944        -9.6041
  73   2.0000      -0.351014        -9.5516
  74   2.0000      -0.328230        -8.9316
  75   2.0000      -0.322939        -8.7876
  76   2.0000      -0.318161        -8.6576
  77   0.0000       0.074767         2.0345
  78   0.0000       0.103520         2.8169
  79   0.0000       0.124689         3.3929
  80   0.0000       0.132027         3.5926
  81   0.0000       0.136054         3.7022

MULLIKEN ATOMIC CHARGES
-----------------------
   0 C :   -0.275860
   1 C :    0.041479
   2 O :   -0.374785
   3 C :    0.451237
   4 O :   -0.427365
   5 C :   -0.235772
   6 C :    0.178210
   7 C :   -0.266609
   8 N :   -0.125973
   9 C :    0.211634
  10 S :   -0.442166
  11 N :   -0.216944
  12 C :    0.073335
  13 C :    0.029453
  14 C :   -0.178471
  15 C :   -0.132438
  16 C :   -0.277990
  17 C :    0.315098
  18 O :   -0.356205
  19 C :   -0.248137
  20 H :    0.111573
  21 H :    0.092038
  22 H :    0.100996
  23 H :    0.094683
  24 H :    0.098633
  25 H :    0.132788
  26 H :    0.129497
  27 H :    0.094690
  28 H :    0.199464
  29 H :    0.200477
  30 H :    0.151612
  31 H :    0.153617
  32 H :    0.161744
  33 H :    0.131485
  34 H :    0.240889
  35 H :    0.164081
Sum of atomic charges:   -0.0000000

LOEWDIN ATOMIC CHARGES
----------------------
   0 C :    0.103219
   1 C :   -0.014613
   2 O :    0.292877
   3 C :   -0.412837
   4 O :    0.111610
   5 C :   -0.097191
   6 C :   -0.055803
   7 C :    0.130863
   8 N :    0.407214
   9 C :   -0.456418
  10 S :   -0.036679
  11 N :    0.394400
  12 C :   -0.054719
  13 C :   -0.038904
  14 C :    0.017582
  15 C :    0.038949
  16 C :   -0.001459
  17 C :   -0.190182
  18 O :    0.395387
  19 C :    0.032139
  20 H :   -0.027370
  21 H :   -0.030101
  22 H :   -0.024232
  23 H :   -0.029767
  24 H :   -0.024395
  25 H :   -0.004654
  26 H :   -0.004889
  27 H :   -0.023711
  28 H :   -0.057214
  29 H :   -0.064598
  30 H :   -0.013232
  31 H :   -0.028711
  32 H :   -0.021028
  33 H :   -0.035224
  34 H :   -0.153653
  35 H :   -0.022656

  Mayer bond orders larger than 0.100000
B(  0-C ,  1-C ) :   0.9821 B(  0-C , 20-H ) :   0.9728 B(  0-C , 21-H ) :   0.9762
B(  0-C , 22-H ) :   0.9750 B(  1-C ,  2-O ) :   0.8957 B(  1-C , 23-H ) :   0.9720
B(  1-C , 24-H ) :   0.9817 B(  2-O ,  3-C ) :   1.1023 B(  3-C ,  4-O ) :   1.9800
B(  3-C ,  5-C ) :   1.0827 B(  5-C ,  6-C ) :   1.6340 B(  5-C , 12-C ) :   0.9561
B(  6-C ,  7-C ) :   0.9652 B(  6-C ,  8-N ) :   1.1532 B(  7-C , 25-H ) :   0.9609
B(  7-C , 26-H ) :   0.9589 B(  7-C , 27-H ) :   0.9908 B(  8-N ,  9-C ) :   1.1869
B(  8-N , 28-H ) :   0.9463 B(  9-C , 10-S ) :   1.6052 B(  9-C , 11-N ) :   1.3102
B( 11-N , 12-C ) :   0.9652 B( 11-N , 29-H ) :   0.9484 B( 12-C , 13-C ) :   0.9613
B( 12-C , 30-H ) :   1.0005 B( 13-C , 14-C ) :   1.3537 B( 13-C , 19-C ) :   1.3810
B( 14-C , 15-C ) :   1.3931 B( 14-C , 31-H ) :   0.9722 B( 15-C , 16-C ) :   1.3597
B( 15-C , 32-H ) :   0.9705 B( 16-C , 17-C ) :   1.3333 B( 16-C , 33-H ) :   0.9846
B( 17-C , 18-O ) :   1.1058 B( 17-C , 19-C ) :   1.3647 B( 18-O , 34-H ) :   0.9795
B( 19-C , 35-H ) :   0.9593

MP2 TOTAL ENERGY:    -1274.331612572 Eh
FINAL SINGLE POINT ENERGY     -1274.331612571787

DIPOLE MOMENT
-------------
                                X             Y             Z
Electronic contribution:      9.61876       9.82535       9.60399
Nuclear contribution   :    -10.66160     -11.54216      -9.81162
                        -----------------------------------------
Total Dipole Moment    :     -1.04284      -1.71681      -0.20763
                        -----------------------------------------
Magnitude (a.u.)       :      2.01942
Magnitude (Debye)      :      5.13296

Rotational constants in cm-1:     0.011343     0.008640     0.005868
Rotational constants in MHz :   340.062276   259.035153   175.930240

                             ****ORCA TERMINATED NORMALLY****
TOTAL RUN TIME: 0 days 1 hours 38 minutes 26 seconds 722 msec
