                         Program Version 4.2.0 -  RELEASE  -
|  1> ! ri-mp2 cc-pvtz cc-pvtz/c TightSCF NoKeepInts
|  2>
|  3> %scf
|  4>   MaxCore 4096
|  5> end
|  6> *xyz  0  1
|  7>     C       14.4921298   15.7953449   15.8532682
|  8>     C       15.7970126   14.9647588   15.8862673
|  9>     O       16.9814116   15.7195640   15.5240639
| 10>     C       16.9219274   17.0437973   15.2003356
| 11>     O       16.6971358   17.3827407   14.0525508
| 12>     C       17.0657128   17.9774232   16.3753526
| 13>     C       16.9433468   19.3185701   16.1947142
| 14>     C       16.3321815   20.0321213   15.0062348
| 15>     N       17.3867028   20.2223901   17.1624478
| 16>     C       18.1670344   19.8845099   18.2339710
| 17>     S       18.7591217   21.0194351   19.2811610
| 18>     N       18.4550563   18.5517523   18.3803335
| 19>     C       17.8695727   17.4578594   17.5826906
| 20>     C       17.1734061   16.4259471   18.4572454
| 21>     C       17.7851840   15.1874017   18.7257356
| 22>     C       17.1453807   14.2386700   19.5412234
| 23>     C       15.8884914   14.5342918   20.0967717
| 24>     C       15.2849910   15.7736916   19.8425856
| 25>     O       14.0727131   16.0629163   20.3781082
| 26>     C       15.9248152   16.7164944   19.0321931
| 27>     H       14.5248591   16.6293457   16.5637336
| 28>     H       13.6385426   15.1628842   16.1256547
| 29>     H       14.3029737   16.1933148   14.8478827
| 30>     H       15.9225794   14.5335378   16.8863108
| 31>     H       15.6925621   14.1249375   15.1872274
| 32>     H       15.4004427   19.5430467   14.6948210
| 33>     H       17.0169208   20.0077914   14.1485588
| 34>     H       16.0921933   21.0815911   15.2137161
| 35>     H       17.2099882   21.2074598   17.0458202
| 36>     H       19.0127330   18.3300042   19.1955067
| 37>     H       18.7877743   17.0348225   17.1505936
| 38>     H       18.7556400   14.9565552   18.2936876
| 39>     H       17.6234297   13.2808630   19.7407868
| 40>     H       15.3905015   13.8043451   20.7268095
| 41>     H       13.8233444   15.3243314   20.9541759
| 42>     H       15.4491874   17.6754894   18.8554604
| 43> *
| 44>
| 45>                          ****END OF INPUT****

CARTESIAN COORDINATES (ANGSTROEM)
---------------------------------
  C     14.492130   15.795345   15.853268
  C     15.797013   14.964759   15.886267
  O     16.981412   15.719564   15.524064
  C     16.921927   17.043797   15.200336
  O     16.697136   17.382741   14.052551
  C     17.065713   17.977423   16.375353
  C     16.943347   19.318570   16.194714
  C     16.332182   20.032121   15.006235
  N     17.386703   20.222390   17.162448
  C     18.167034   19.884510   18.233971
  S     18.759122   21.019435   19.281161
  N     18.455056   18.551752   18.380333
  C     17.869573   17.457859   17.582691
  C     17.173406   16.425947   18.457245
  C     17.785184   15.187402   18.725736
  C     17.145381   14.238670   19.541223
  C     15.888491   14.534292   20.096772
  C     15.284991   15.773692   19.842586
  O     14.072713   16.062916   20.378108
  C     15.924815   16.716494   19.032193
  H     14.524859   16.629346   16.563734
  H     13.638543   15.162884   16.125655
  H     14.302974   16.193315   14.847883
  H     15.922579   14.533538   16.886311
  H     15.692562   14.124937   15.187227
  H     15.400443   19.543047   14.694821
  H     17.016921   20.007791   14.148559
  H     16.092193   21.081591   15.213716
  H     17.209988   21.207460   17.045820
  H     19.012733   18.330004   19.195507
  H     18.787774   17.034823   17.150594
  H     18.755640   14.956555   18.293688
  H     17.623430   13.280863   19.740787
  H     15.390501   13.804345   20.726810
  H     13.823344   15.324331   20.954176
  H     15.449187   17.675489   18.855460

 Total Charge           Charge          ....    0
 Multiplicity           Mult            ....    1
 Number of Electrons    NEL             ....  154
 Basis Dimension        Dim             ....  828

ORBITAL ENERGIES
----------------

  NO   OCC          E(Eh)            E(eV)
   0   2.0000     -91.890983     -2500.4808
   1   2.0000     -20.603577      -560.6518
   2   2.0000     -20.578007      -559.9560
   3   2.0000     -20.546129      -559.0886
   4   2.0000     -15.630882      -425.3379
   5   2.0000     -15.609258      -424.7495
   6   2.0000     -11.392182      -309.9970
   7   2.0000     -11.385311      -309.8101
   8   2.0000     -11.338617      -308.5395
   9   2.0000     -11.321265      -308.0673
  10   2.0000     -11.311783      -307.8093
  11   2.0000     -11.298053      -307.4356
  12   2.0000     -11.266970      -306.5898
  13   2.0000     -11.262072      -306.4566
  14   2.0000     -11.258625      -306.3628
  15   2.0000     -11.253242      -306.2163
  16   2.0000     -11.251031      -306.1561
  17   2.0000     -11.245787      -306.0134
  18   2.0000     -11.245095      -305.9946
  19   2.0000     -11.228406      -305.5404
  20   2.0000      -8.896034      -242.0734
  21   2.0000      -6.577600      -178.9856
  22   2.0000      -6.575608      -178.9314
  23   2.0000      -6.575012      -178.9152
  24   2.0000      -1.441269       -39.2189
  25   2.0000      -1.423282       -38.7295
  26   2.0000      -1.349492       -36.7215
  27   2.0000      -1.342730       -36.5375
  28   2.0000      -1.241050       -33.7707
  29   2.0000      -1.164070       -31.6760
  30   2.0000      -1.122632       -30.5484
  31   2.0000      -1.047963       -28.5165
  32   2.0000      -1.030444       -28.0398
  33   2.0000      -1.022094       -27.8126
  34   2.0000      -1.000989       -27.2383
  35   2.0000      -0.987809       -26.8796
  36   2.0000      -0.925548       -25.1854
  37   2.0000      -0.896007       -24.3816
  38   2.0000      -0.849660       -23.1204
  39   2.0000      -0.844024       -22.9671
  40   2.0000      -0.840810       -22.8796
  41   2.0000      -0.821225       -22.3467
  42   2.0000      -0.745486       -20.2857
  43   2.0000      -0.737757       -20.0754
  44   2.0000      -0.718815       -19.5600
  45   2.0000      -0.701565       -19.0906
  46   2.0000      -0.690106       -18.7787
  47   2.0000      -0.676190       -18.4001
  48   2.0000      -0.671270       -18.2662
  49   2.0000      -0.659482       -17.9454
  50   2.0000      -0.653707       -17.7883
  51   2.0000      -0.643895       -17.5213
  52   2.0000      -0.637929       -17.3589
  53   2.0000      -0.626364       -17.0442
  54   2.0000      -0.613458       -16.6930
  55   2.0000      -0.605433       -16.4747
  56   2.0000      -0.602805       -16.4031
  57   2.0000      -0.582310       -15.8454
  58   2.0000      -0.571934       -15.5631
  59   2.0000      -0.567304       -15.4371
  60   2.0000      -0.546537       -14.8720
  61   2.0000      -0.543259       -14.7828
  62   2.0000      -0.537841       -14.6354
  63   2.0000      -0.532137       -14.4802
  64   2.0000      -0.529967       -14.4211
  65   2.0000      -0.515725       -14.0336
  66   2.0000      -0.503902       -13.7119
  67   2.0000      -0.491590       -13.3768
  68   2.0000      -0.483366       -13.1531
  69   2.0000      -0.466513       -12.6945
  70   2.0000      -0.453631       -12.3439
  71   2.0000      -0.442748       -12.0478
  72   2.0000      -0.356916        -9.7122
  73   2.0000      -0.354015        -9.6332
  74   2.0000      -0.331295        -9.0150
  75   2.0000      -0.327870        -8.9218
  76   2.0000      -0.320787        -8.7291
  77   0.0000       0.071657         1.9499
  78   0.0000       0.098756         2.6873
  79   0.0000       0.120869         3.2890
  80   0.0000       0.127521         3.4700
  81   0.0000       0.130170         3.5421

MULLIKEN ATOMIC CHARGES
-----------------------
   0 C :   -0.335029
   1 C :    0.032109
   2 O :   -0.389913
   3 C :    0.508009
   4 O :   -0.401874
   5 C :   -0.311829
   6 C :    0.181703
   7 C :   -0.268279
   8 N :   -0.127014
   9 C :    0.209740
  10 S :   -0.439261
  11 N :   -0.214498
  12 C :    0.065703
  13 C :    0.019244
  14 C :   -0.156258
  15 C :   -0.136047
  16 C :   -0.273237
  17 C :    0.318658
  18 O :   -0.357884
  19 C :   -0.274290
  20 H :    0.104328
  21 H :    0.112947
  22 H :    0.122987
  23 H :    0.111037
  24 H :    0.120001
  25 H :    0.127127
  26 H :    0.136258
  27 H :    0.094113
  28 H :    0.199422
  29 H :    0.201055
  30 H :    0.151431
  31 H :    0.152562
  32 H :    0.164563
  33 H :    0.134341
  34 H :    0.242247
  35 H :    0.175830
Sum of atomic charges:   -0.0000000

LOEWDIN ATOMIC CHARGES
----------------------
   0 C :    0.104514
   1 C :   -0.009822
   2 O :    0.282590
   3 C :   -0.425916
   4 O :    0.119844
   5 C :   -0.103366
   6 C :   -0.056419
   7 C :    0.130554
   8 N :    0.407747
   9 C :   -0.457071
  10 S :   -0.034092
  11 N :    0.394896
  12 C :   -0.054452
  13 C :   -0.040517
  14 C :    0.018826
  15 C :    0.041126
  16 C :   -0.000558
  17 C :   -0.191129
  18 O :    0.396417
  19 C :    0.035267
  20 H :   -0.033902
  21 H :   -0.021515
  22 H :   -0.025254
  23 H :   -0.030123
  24 H :   -0.026699
  25 H :   -0.005930
  26 H :   -0.003845
  27 H :   -0.023309
  28 H :   -0.056597
  29 H :   -0.064096
  30 H :   -0.011337
  31 H :   -0.026992
  32 H :   -0.019420
  33 H :   -0.033933
  34 H :   -0.152340
  35 H :   -0.023146

  Mayer bond orders larger than 0.100000
B(  0-C ,  1-C ) :   0.9618 B(  0-C , 20-H ) :   0.9701 B(  0-C , 21-H ) :   0.9754
B(  0-C , 22-H ) :   0.9718 B(  1-C ,  2-O ) :   0.8927 B(  1-C , 23-H ) :   0.9703
B(  1-C , 24-H ) :   0.9858 B(  2-O ,  3-C ) :   1.0991 B(  3-C ,  4-O ) :   2.0396
B(  3-C ,  5-C ) :   1.0440 B(  5-C ,  6-C ) :   1.6304 B(  5-C , 12-C ) :   0.9601
B(  6-C ,  7-C ) :   0.9651 B(  6-C ,  8-N ) :   1.1552 B(  7-C , 25-H ) :   0.9663
B(  7-C , 26-H ) :   0.9552 B(  7-C , 27-H ) :   0.9881 B(  8-N ,  9-C ) :   1.1865
B(  8-N , 28-H ) :   0.9470 B(  9-C , 10-S ) :   1.6092 B(  9-C , 11-N ) :   1.3081
B( 11-N , 12-C ) :   0.9635 B( 11-N , 29-H ) :   0.9484 B( 12-C , 13-C ) :   0.9665
B( 12-C , 30-H ) :   1.0027 B( 13-C , 14-C ) :   1.3507 B( 13-C , 19-C ) :   1.3599
B( 14-C , 15-C ) :   1.3967 B( 14-C , 31-H ) :   0.9731 B( 15-C , 16-C ) :   1.3572
B( 15-C , 32-H ) :   0.9701 B( 16-C , 17-C ) :   1.3324 B( 16-C , 33-H ) :   0.9837
B( 17-C , 18-O ) :   1.1061 B( 17-C , 19-C ) :   1.3595 B( 18-O , 34-H ) :   0.9787
B( 19-C , 35-H ) :   0.9562

MP2 TOTAL ENERGY:    -1274.322924719 Eh
FINAL SINGLE POINT ENERGY     -1274.322924718583

DIPOLE MOMENT
-------------
                                X             Y             Z
Electronic contribution:      9.13788       8.17976       6.09551
Nuclear contribution   :    -10.26328      -9.79460      -5.82794
                        -----------------------------------------
Total Dipole Moment    :     -1.12540      -1.61484       0.26758
                        -----------------------------------------
Magnitude (a.u.)       :      1.98641
Magnitude (Debye)      :      5.04906

Rotational constants in cm-1:     0.012454     0.008926     0.006344
Rotational constants in MHz :   373.374433   267.594949   190.198338

                             ****ORCA TERMINATED NORMALLY****
TOTAL RUN TIME: 0 days 2 hours 2 minutes 24 seconds 566 msec
