                         Program Version 4.2.0 -  RELEASE  -
|  1> ! ri-mp2 cc-pvtz cc-pvtz/c TightSCF NoKeepInts
|  2>
|  3> %scf
|  4>   MaxCore 4096
|  5> end
|  6> *xyz  0  1
|  7>     C       13.7940103   15.8211040   13.7435728
|  8>     C       15.0391185   15.4143596   14.5493703
|  9>     O       15.6429638   16.6188475   15.0466679
| 10>     C       16.7116439   16.5108399   15.8871538
| 11>     O       17.3625001   15.4824276   15.9752770
| 12>     C       16.9493169   17.7022265   16.7729627
| 13>     C       16.6060487   18.9688722   16.4159020
| 14>     C       15.7460778   19.4108565   15.2477420
| 15>     N       17.0881748   20.0670385   17.1329960
| 16>     C       18.0823334   20.0047797   18.0715026
| 17>     S       18.6806658   21.3633148   18.8008457
| 18>     N       18.5722787   18.7562583   18.3581982
| 19>     C       18.0159065   17.4855848   17.8547517
| 20>     C       17.5739451   16.5439272   18.9673323
| 21>     C       18.0916453   15.2388118   19.0509642
| 22>     C       17.6850873   14.3732573   20.0803150
| 23>     C       16.7541023   14.8173561   21.0350050
| 24>     C       16.2354034   16.1169985   20.9529161
| 25>     O       15.3336001   16.5470593   21.8711594
| 26>     C       16.6416639   16.9759692   19.9267371
| 27>     H       13.0808129   16.3604263   14.3792459
| 28>     H       13.2912965   14.9338780   13.3396289
| 29>     H       14.0717840   16.4705047   12.9040969
| 30>     H       14.7464012   14.7614446   15.3830132
| 31>     H       15.7443799   14.8683680   13.9080432
| 32>     H       16.1604690   19.0477997   14.2988651
| 33>     H       15.6651490   20.5015831   15.1658480
| 34>     H       14.7268635   19.0163774   15.3455405
| 35>     H       16.7538176   20.9926587   16.9179520
| 36>     H       19.2893381   18.7349610   19.0723025
| 37>     H       18.8948154   17.0814434   17.3316266
| 38>     H       18.8001021   14.8899854   18.3033256
| 39>     H       18.0873567   13.3630970   20.1308344
| 40>     H       16.4362931   14.1516840   21.8304772
| 41>     H       15.1994774   15.8263726   22.5046858
| 42>     H       16.2321572   17.9795268   19.8811425
| 43> *
| 44>
| 45>                          ****END OF INPUT****

CARTESIAN COORDINATES (ANGSTROEM)
---------------------------------
  C     13.794010   15.821104   13.743573
  C     15.039119   15.414360   14.549370
  O     15.642964   16.618848   15.046668
  C     16.711644   16.510840   15.887154
  O     17.362500   15.482428   15.975277
  C     16.949317   17.702226   16.772963
  C     16.606049   18.968872   16.415902
  C     15.746078   19.410857   15.247742
  N     17.088175   20.067038   17.132996
  C     18.082333   20.004780   18.071503
  S     18.680666   21.363315   18.800846
  N     18.572279   18.756258   18.358198
  C     18.015906   17.485585   17.854752
  C     17.573945   16.543927   18.967332
  C     18.091645   15.238812   19.050964
  C     17.685087   14.373257   20.080315
  C     16.754102   14.817356   21.035005
  C     16.235403   16.116999   20.952916
  O     15.333600   16.547059   21.871159
  C     16.641664   16.975969   19.926737
  H     13.080813   16.360426   14.379246
  H     13.291296   14.933878   13.339629
  H     14.071784   16.470505   12.904097
  H     14.746401   14.761445   15.383013
  H     15.744380   14.868368   13.908043
  H     16.160469   19.047800   14.298865
  H     15.665149   20.501583   15.165848
  H     14.726864   19.016377   15.345540
  H     16.753818   20.992659   16.917952
  H     19.289338   18.734961   19.072302
  H     18.894815   17.081443   17.331627
  H     18.800102   14.889985   18.303326
  H     18.087357   13.363097   20.130834
  H     16.436293   14.151684   21.830477
  H     15.199477   15.826373   22.504686
  H     16.232157   17.979527   19.881142

 Total Charge           Charge          ....    0
 Multiplicity           Mult            ....    1
 Number of Electrons    NEL             ....  154
 Basis Dimension        Dim             ....  828

ORBITAL ENERGIES
----------------

  NO   OCC          E(Eh)            E(eV)
   0   2.0000     -91.887871     -2500.3961
   1   2.0000     -20.603449      -560.6484
   2   2.0000     -20.591291      -560.3175
   3   2.0000     -20.545413      -559.0691
   4   2.0000     -15.628481      -425.2726
   5   2.0000     -15.605476      -424.6466
   6   2.0000     -11.394767      -310.0674
   7   2.0000     -11.382376      -309.7302
   8   2.0000     -11.338248      -308.5294
   9   2.0000     -11.307212      -307.6849
  10   2.0000     -11.303986      -307.5971
  11   2.0000     -11.299793      -307.4830
  12   2.0000     -11.260963      -306.4264
  13   2.0000     -11.259076      -306.3750
  14   2.0000     -11.254477      -306.2499
  15   2.0000     -11.247245      -306.0531
  16   2.0000     -11.237502      -305.7880
  17   2.0000     -11.235703      -305.7390
  18   2.0000     -11.233647      -305.6831
  19   2.0000     -11.230360      -305.5936
  20   2.0000      -8.892956      -241.9896
  21   2.0000      -6.574534      -178.9022
  22   2.0000      -6.572531      -178.8477
  23   2.0000      -6.571943      -178.8317
  24   2.0000      -1.455797       -39.6143
  25   2.0000      -1.411036       -38.3962
  26   2.0000      -1.357229       -36.9321
  27   2.0000      -1.339784       -36.4574
  28   2.0000      -1.236899       -33.6577
  29   2.0000      -1.151904       -31.3449
  30   2.0000      -1.120608       -30.4933
  31   2.0000      -1.045215       -28.4418
  32   2.0000      -1.036876       -28.2148
  33   2.0000      -1.009432       -27.4680
  34   2.0000      -0.998630       -27.1741
  35   2.0000      -0.983752       -26.7692
  36   2.0000      -0.920363       -25.0444
  37   2.0000      -0.888139       -24.1675
  38   2.0000      -0.846865       -23.0444
  39   2.0000      -0.834406       -22.7053
  40   2.0000      -0.827500       -22.5174
  41   2.0000      -0.818449       -22.2711
  42   2.0000      -0.762458       -20.7475
  43   2.0000      -0.736074       -20.0296
  44   2.0000      -0.725730       -19.7481
  45   2.0000      -0.689917       -18.7736
  46   2.0000      -0.683779       -18.6066
  47   2.0000      -0.681980       -18.5576
  48   2.0000      -0.676203       -18.4004
  49   2.0000      -0.659227       -17.9385
  50   2.0000      -0.649940       -17.6858
  51   2.0000      -0.641295       -17.4505
  52   2.0000      -0.633122       -17.2281
  53   2.0000      -0.603104       -16.4113
  54   2.0000      -0.599923       -16.3247
  55   2.0000      -0.597281       -16.2528
  56   2.0000      -0.594629       -16.1807
  57   2.0000      -0.578607       -15.7447
  58   2.0000      -0.572519       -15.5790
  59   2.0000      -0.564286       -15.3550
  60   2.0000      -0.562255       -15.2997
  61   2.0000      -0.553096       -15.0505
  62   2.0000      -0.542823       -14.7710
  63   2.0000      -0.519671       -14.1410
  64   2.0000      -0.515369       -14.0239
  65   2.0000      -0.511174       -13.9097
  66   2.0000      -0.505435       -13.7536
  67   2.0000      -0.493870       -13.4389
  68   2.0000      -0.481025       -13.0894
  69   2.0000      -0.464641       -12.6435
  70   2.0000      -0.460699       -12.5363
  71   2.0000      -0.453171       -12.3314
  72   2.0000      -0.353006        -9.6058
  73   2.0000      -0.344073        -9.3627
  74   2.0000      -0.326939        -8.8965
  75   2.0000      -0.317013        -8.6264
  76   2.0000      -0.313804        -8.5390
  77   0.0000       0.077301         2.1035
  78   0.0000       0.112111         3.0507
  79   0.0000       0.120264         3.2726
  80   0.0000       0.135794         3.6951
  81   0.0000       0.138363         3.7650

MULLIKEN ATOMIC CHARGES
-----------------------
   0 C :   -0.274197
   1 C :    0.046498
   2 O :   -0.335405
   3 C :    0.409703
   4 O :   -0.420297
   5 C :   -0.169500
   6 C :    0.160679
   7 C :   -0.284103
   8 N :   -0.129014
   9 C :    0.207398
  10 S :   -0.442644
  11 N :   -0.210842
  12 C :    0.042606
  13 C :    0.031792
  14 C :   -0.165462
  15 C :   -0.134480
  16 C :   -0.277111
  17 C :    0.314044
  18 O :   -0.359239
  19 C :   -0.251284
  20 H :    0.094939
  21 H :    0.100887
  22 H :    0.095366
  23 H :    0.089576
  24 H :    0.098627
  25 H :    0.125528
  26 H :    0.103705
  27 H :    0.129534
  28 H :    0.198827
  29 H :    0.199991
  30 H :    0.154971
  31 H :    0.158198
  32 H :    0.159760
  33 H :    0.128041
  34 H :    0.239867
  35 H :    0.163040
Sum of atomic charges:    0.0000000

LOEWDIN ATOMIC CHARGES
----------------------
   0 C :    0.107323
   1 C :   -0.018456
   2 O :    0.306217
   3 C :   -0.415461
   4 O :    0.104953
   5 C :   -0.091782
   6 C :   -0.064245
   7 C :    0.125033
   8 N :    0.405428
   9 C :   -0.458688
  10 S :   -0.037780
  11 N :    0.396511
  12 C :   -0.048244
  13 C :   -0.040456
  14 C :    0.025311
  15 C :    0.040997
  16 C :   -0.001205
  17 C :   -0.192587
  18 O :    0.392966
  19 C :    0.029622
  20 H :   -0.027992
  21 H :   -0.022742
  22 H :   -0.027654
  23 H :   -0.027589
  24 H :   -0.028390
  25 H :   -0.009720
  26 H :   -0.021210
  27 H :   -0.009681
  28 H :   -0.058795
  29 H :   -0.063064
  30 H :   -0.008332
  31 H :   -0.024026
  32 H :   -0.021106
  33 H :   -0.036235
  34 H :   -0.154947
  35 H :   -0.023974

  Mayer bond orders larger than 0.100000
B(  0-C ,  1-C ) :   0.9704 B(  0-C , 20-H ) :   0.9775 B(  0-C , 21-H ) :   0.9787
B(  0-C , 22-H ) :   0.9774 B(  1-C ,  2-O ) :   0.9092 B(  1-C , 23-H ) :   0.9751
B(  1-C , 24-H ) :   0.9790 B(  2-O ,  3-C ) :   1.1524 B(  3-C ,  4-O ) :   1.9891
B(  3-C ,  5-C ) :   1.0431 B(  5-C ,  6-C ) :   1.6549 B(  5-C , 12-C ) :   0.9507
B(  6-C ,  7-C ) :   0.9534 B(  6-C ,  8-N ) :   1.1339 B(  7-C , 25-H ) :   0.9650
B(  7-C , 26-H ) :   0.9920 B(  7-C , 27-H ) :   0.9631 B(  8-N ,  9-C ) :   1.1853
B(  8-N , 28-H ) :   0.9468 B(  9-C , 10-S ) :   1.6079 B(  9-C , 11-N ) :   1.3070
B( 11-N , 12-C ) :   0.9760 B( 11-N , 29-H ) :   0.9485 B( 12-C , 13-C ) :   0.9743
B( 12-C , 30-H ) :   0.9973 B( 13-C , 14-C ) :   1.3759 B( 13-C , 19-C ) :   1.3659
B( 14-C , 15-C ) :   1.3975 B( 14-C , 31-H ) :   0.9640 B( 15-C , 16-C ) :   1.3585
B( 15-C , 32-H ) :   0.9712 B( 16-C , 17-C ) :   1.3334 B( 16-C , 33-H ) :   0.9860
B( 17-C , 18-O ) :   1.1032 B( 17-C , 19-C ) :   1.3677 B( 18-O , 34-H ) :   0.9807
B( 19-C , 35-H ) :   0.9603

MP2 TOTAL ENERGY:    -1274.341714720 Eh
FINAL SINGLE POINT ENERGY     -1274.341714720399

DIPOLE MOMENT
-------------
                                X             Y             Z
Electronic contribution:     11.03130       8.58166      12.27479
Nuclear contribution   :    -12.47513      -9.93051     -13.29448
                        -----------------------------------------
Total Dipole Moment    :     -1.44383      -1.34886      -1.01969
                        -----------------------------------------
Magnitude (a.u.)       :      2.22347
Magnitude (Debye)      :      5.65161

Rotational constants in cm-1:     0.009819     0.008771     0.005483
Rotational constants in MHz :   294.371319   262.951226   164.368275

                             ****ORCA TERMINATED NORMALLY****
TOTAL RUN TIME: 0 days 1 hours 38 minutes 3 seconds 288 msec
