                         Program Version 4.2.0 -  RELEASE  -
|  1> ! ri-mp2 cc-pvtz cc-pvtz/c TightSCF NoKeepInts
|  2>
|  3> %scf
|  4>   MaxCore 4096
|  5> end
|  6> *xyz  0  1
|  7>     C       14.7720216   14.6888538   15.1490999
|  8>     C       14.9192340   15.9356450   14.2467980
|  9>     O       15.8400097   16.9384937   14.7461445
| 10>     C       16.8154755   16.7188857   15.6801488
| 11>     O       17.4246548   15.6665517   15.7710025
| 12>     C       17.0402427   17.8598130   16.6328362
| 13>     C       16.8383471   19.1608542   16.2929799
| 14>     C       16.1643547   19.7084429   15.0500537
| 15>     N       17.3114845   20.1921078   17.1086956
| 16>     C       18.1750339   20.0185724   18.1562732
| 17>     S       18.7781045   21.2994011   19.0114987
| 18>     N       18.5306615   18.7258425   18.4453809
| 19>     C       17.9485841   17.5215500   17.8219912
| 20>     C       17.3002563   16.5785541   18.8272486
| 21>     C       17.6873736   15.2281604   18.8968496
| 22>     C       17.0862774   14.3589949   19.8226546
| 23>     C       16.0903260   14.8448798   20.6871314
| 24>     C       15.7011229   16.1897303   20.6183647
| 25>     O       14.7363374   16.6602791   21.4484790
| 26>     C       16.3007176   17.0521489   19.6949763
| 27>     H       15.6551457   14.0412138   15.0854158
| 28>     H       13.9085318   14.0927284   14.8305169
| 29>     H       14.6169134   14.9737003   16.1975207
| 30>     H       15.2583128   15.6031459   13.2570368
| 31>     H       13.9341166   16.4007494   14.1133658
| 32>     H       15.1080791   19.4136496   15.0199460
| 33>     H       16.6499775   19.3267643   14.1431331
| 34>     H       16.1981801   20.8033163   14.9940033
| 35>     H       17.0771863   21.1483312   16.8953487
| 36>     H       19.1519702   18.6228228   19.2377626
| 37>     H       18.8521175   17.0666554   17.3903283
| 38>     H       18.4464715   14.8484360   18.2168720
| 39>     H       17.3896719   13.3143976   19.8626566
| 40>     H       15.6225568   14.1767489   21.4024695
| 41>     H       14.4690376   15.9292507   22.0254719
| 42>     H       15.9881116   18.0903280   19.6575452
| 43> *
| 44>
| 45>                          ****END OF INPUT****

CARTESIAN COORDINATES (ANGSTROEM)
---------------------------------
  C     14.772022   14.688854   15.149100
  C     14.919234   15.935645   14.246798
  O     15.840010   16.938494   14.746144
  C     16.815476   16.718886   15.680149
  O     17.424655   15.666552   15.771002
  C     17.040243   17.859813   16.632836
  C     16.838347   19.160854   16.292980
  C     16.164355   19.708443   15.050054
  N     17.311484   20.192108   17.108696
  C     18.175034   20.018572   18.156273
  S     18.778105   21.299401   19.011499
  N     18.530662   18.725842   18.445381
  C     17.948584   17.521550   17.821991
  C     17.300256   16.578554   18.827249
  C     17.687374   15.228160   18.896850
  C     17.086277   14.358995   19.822655
  C     16.090326   14.844880   20.687131
  C     15.701123   16.189730   20.618365
  O     14.736337   16.660279   21.448479
  C     16.300718   17.052149   19.694976
  H     15.655146   14.041214   15.085416
  H     13.908532   14.092728   14.830517
  H     14.616913   14.973700   16.197521
  H     15.258313   15.603146   13.257037
  H     13.934117   16.400749   14.113366
  H     15.108079   19.413650   15.019946
  H     16.649977   19.326764   14.143133
  H     16.198180   20.803316   14.994003
  H     17.077186   21.148331   16.895349
  H     19.151970   18.622823   19.237763
  H     18.852117   17.066655   17.390328
  H     18.446472   14.848436   18.216872
  H     17.389672   13.314398   19.862657
  H     15.622557   14.176749   21.402469
  H     14.469038   15.929251   22.025472
  H     15.988112   18.090328   19.657545

 Total Charge           Charge          ....    0
 Multiplicity           Mult            ....    1
 Number of Electrons    NEL             ....  154
 Basis Dimension        Dim             ....  828

ORBITAL ENERGIES
----------------

  NO   OCC          E(Eh)            E(eV)
   0   2.0000     -91.887445     -2500.3845
   1   2.0000     -20.596322      -560.4544
   2   2.0000     -20.592337      -560.3460
   3   2.0000     -20.545593      -559.0740
   4   2.0000     -15.627671      -425.2505
   5   2.0000     -15.605235      -424.6400
   6   2.0000     -11.397059      -310.1297
   7   2.0000     -11.381982      -309.7195
   8   2.0000     -11.336841      -308.4911
   9   2.0000     -11.308394      -307.7170
  10   2.0000     -11.306427      -307.6635
  11   2.0000     -11.303657      -307.5882
  12   2.0000     -11.259880      -306.3969
  13   2.0000     -11.257972      -306.3450
  14   2.0000     -11.255430      -306.2758
  15   2.0000     -11.248453      -306.0860
  16   2.0000     -11.238648      -305.8192
  17   2.0000     -11.234667      -305.7108
  18   2.0000     -11.231327      -305.6200
  19   2.0000     -11.226833      -305.4976
  20   2.0000      -8.892536      -241.9782
  21   2.0000      -6.574115      -178.8908
  22   2.0000      -6.572111      -178.8362
  23   2.0000      -6.571525      -178.8203
  24   2.0000      -1.446683       -39.3663
  25   2.0000      -1.412093       -38.4250
  26   2.0000      -1.355672       -36.8897
  27   2.0000      -1.339098       -36.4387
  28   2.0000      -1.236404       -33.6443
  29   2.0000      -1.152696       -31.3665
  30   2.0000      -1.119847       -30.4726
  31   2.0000      -1.042271       -28.3616
  32   2.0000      -1.033637       -28.1267
  33   2.0000      -1.010301       -27.4917
  34   2.0000      -0.998233       -27.1633
  35   2.0000      -0.983100       -26.7515
  36   2.0000      -0.920922       -25.0596
  37   2.0000      -0.897563       -24.4239
  38   2.0000      -0.847500       -23.0616
  39   2.0000      -0.835417       -22.7329
  40   2.0000      -0.828572       -22.5466
  41   2.0000      -0.817395       -22.2424
  42   2.0000      -0.743427       -20.2297
  43   2.0000      -0.729657       -19.8550
  44   2.0000      -0.725541       -19.7430
  45   2.0000      -0.689810       -18.7707
  46   2.0000      -0.684745       -18.6328
  47   2.0000      -0.677302       -18.4303
  48   2.0000      -0.671429       -18.2705
  49   2.0000      -0.662455       -18.0263
  50   2.0000      -0.649339       -17.6694
  51   2.0000      -0.643583       -17.5128
  52   2.0000      -0.631504       -17.1841
  53   2.0000      -0.617815       -16.8116
  54   2.0000      -0.603050       -16.4098
  55   2.0000      -0.598417       -16.2838
  56   2.0000      -0.595664       -16.2088
  57   2.0000      -0.575613       -15.6632
  58   2.0000      -0.573513       -15.6061
  59   2.0000      -0.564713       -15.3666
  60   2.0000      -0.555604       -15.1187
  61   2.0000      -0.544993       -14.8300
  62   2.0000      -0.538188       -14.6448
  63   2.0000      -0.524894       -14.2831
  64   2.0000      -0.515410       -14.0250
  65   2.0000      -0.510287       -13.8856
  66   2.0000      -0.500395       -13.6164
  67   2.0000      -0.494005       -13.4426
  68   2.0000      -0.479179       -13.0391
  69   2.0000      -0.463410       -12.6100
  70   2.0000      -0.455718       -12.4007
  71   2.0000      -0.447847       -12.1865
  72   2.0000      -0.352149        -9.5825
  73   2.0000      -0.344965        -9.3870
  74   2.0000      -0.326598        -8.8872
  75   2.0000      -0.316613        -8.6155
  76   2.0000      -0.315003        -8.5717
  77   0.0000       0.077175         2.1000
  78   0.0000       0.110795         3.0149
  79   0.0000       0.122056         3.3213
  80   0.0000       0.135324         3.6824
  81   0.0000       0.139927         3.8076

MULLIKEN ATOMIC CHARGES
-----------------------
   0 C :   -0.309014
   1 C :    0.056618
   2 O :   -0.361819
   3 C :    0.430432
   4 O :   -0.415978
   5 C :   -0.172418
   6 C :    0.154077
   7 C :   -0.279959
   8 N :   -0.128298
   9 C :    0.207980
  10 S :   -0.443386
  11 N :   -0.211599
  12 C :    0.044209
  13 C :    0.032594
  14 C :   -0.174081
  15 C :   -0.133856
  16 C :   -0.277956
  17 C :    0.314769
  18 O :   -0.358754
  19 C :   -0.253918
  20 H :    0.125683
  21 H :    0.098800
  22 H :    0.103687
  23 H :    0.093611
  24 H :    0.094517
  25 H :    0.127038
  26 H :    0.126606
  27 H :    0.101459
  28 H :    0.198623
  29 H :    0.199834
  30 H :    0.156589
  31 H :    0.160717
  32 H :    0.160286
  33 H :    0.128618
  34 H :    0.239954
  35 H :    0.164333
Sum of atomic charges:    0.0000000

LOEWDIN ATOMIC CHARGES
----------------------
   0 C :    0.105197
   1 C :   -0.008930
   2 O :    0.292081
   3 C :   -0.415725
   4 O :    0.113313
   5 C :   -0.092587
   6 C :   -0.064895
   7 C :    0.124940
   8 N :    0.405258
   9 C :   -0.458575
  10 S :   -0.038509
  11 N :    0.396434
  12 C :   -0.048343
  13 C :   -0.040896
  14 C :    0.024402
  15 C :    0.040481
  16 C :   -0.001505
  17 C :   -0.192835
  18 O :    0.393162
  19 C :    0.029299
  20 H :   -0.023881
  21 H :   -0.026435
  22 H :   -0.025379
  23 H :   -0.028840
  24 H :   -0.027196
  25 H :   -0.009815
  26 H :   -0.008726
  27 H :   -0.021476
  28 H :   -0.058883
  29 H :   -0.063323
  30 H :   -0.008311
  31 H :   -0.023844
  32 H :   -0.021019
  33 H :   -0.036132
  34 H :   -0.154829
  35 H :   -0.023680

  Mayer bond orders larger than 0.100000
B(  0-C ,  1-C ) :   0.9668 B(  0-C , 20-H ) :   0.9720 B(  0-C , 21-H ) :   0.9742
B(  0-C , 22-H ) :   0.9733 B(  1-C ,  2-O ) :   0.9052 B(  1-C , 23-H ) :   0.9813
B(  1-C , 24-H ) :   0.9805 B(  2-O ,  3-C ) :   1.1205 B(  3-C ,  4-O ) :   1.9929
B(  3-C ,  5-C ) :   1.0274 B(  5-C ,  6-C ) :   1.6615 B(  5-C , 12-C ) :   0.9471
B(  6-C ,  7-C ) :   0.9550 B(  6-C ,  8-N ) :   1.1373 B(  7-C , 25-H ) :   0.9644
B(  7-C , 26-H ) :   0.9649 B(  7-C , 27-H ) :   0.9911 B(  8-N ,  9-C ) :   1.1860
B(  8-N , 28-H ) :   0.9471 B(  9-C , 10-S ) :   1.6073 B(  9-C , 11-N ) :   1.3057
B( 11-N , 12-C ) :   0.9767 B( 11-N , 29-H ) :   0.9486 B( 12-C , 13-C ) :   0.9711
B( 12-C , 30-H ) :   0.9972 B( 13-C , 14-C ) :   1.3770 B( 13-C , 19-C ) :   1.3650
B( 14-C , 15-C ) :   1.3968 B( 14-C , 31-H ) :   0.9631 B( 15-C , 16-C ) :   1.3588
B( 15-C , 32-H ) :   0.9711 B( 16-C , 17-C ) :   1.3331 B( 16-C , 33-H ) :   0.9858
B( 17-C , 18-O ) :   1.1039 B( 17-C , 19-C ) :   1.3668 B( 18-O , 34-H ) :   0.9806
B( 19-C , 35-H ) :   0.9598

MP2 TOTAL ENERGY:    -1274.330842784 Eh
FINAL SINGLE POINT ENERGY     -1274.330842783841

DIPOLE MOMENT
-------------
                                X             Y             Z
Electronic contribution:      9.27492      10.38835       9.81266
Nuclear contribution   :    -10.80822     -11.68584     -10.89151
                        -----------------------------------------
Total Dipole Moment    :     -1.53330      -1.29749      -1.07886
                        -----------------------------------------
Magnitude (a.u.)       :      2.28001
Magnitude (Debye)      :      5.79531

Rotational constants in cm-1:     0.010343     0.009218     0.005751
Rotational constants in MHz :   310.063486   276.351121   172.396327

                             ****ORCA TERMINATED NORMALLY****
TOTAL RUN TIME: 0 days 1 hours 51 minutes 44 seconds 691 msec
