                         Program Version 4.2.0 -  RELEASE  -
|  1> ! ri-mp2 cc-pvtz cc-pvtz/c TightSCF NoKeepInts
|  2>
|  3> %scf
|  4>   MaxCore 4096
|  5> end
|  6> *xyz  0  1
|  7>     C       13.8778567   16.3636854   15.3773408
|  8>     C       15.1598907   15.5981525   15.0070388
|  9>     O       16.1783940   16.5618779   14.6932529
| 10>     C       17.2439726   16.6102346   15.5376812
| 11>     O       18.0532838   15.7014638   15.5990427
| 12>     C       17.1874979   17.7260819   16.5358604
| 13>     C       16.7846626   18.9758750   16.1919528
| 14>     C       16.1548415   19.4137020   14.8847777
| 15>     N       16.9945204   20.0543499   17.0545384
| 16>     C       17.7899204   20.0090103   18.1683092
| 17>     S       18.0801465   21.3526024   19.0878645
| 18>     N       18.3518616   18.7934117   18.4692333
| 19>     C       18.0481028   17.5207955   17.7856406
| 20>     C       17.5002071   16.4444408   18.7124887
| 21>     C       18.0975410   15.1723077   18.7640977
| 22>     C       17.5843816   14.1759707   19.6113464
| 23>     C       16.4638233   14.4542514   20.4128229
| 24>     C       15.8641237   15.7200761   20.3599067
| 25>     O       14.7774616   15.9892122   21.1265641
| 26>     C       16.3767708   16.7095153   19.5148735
| 27>     H       14.0426691   16.9929544   16.2609968
| 28>     H       13.0661711   15.6621164   15.6057207
| 29>     H       13.5536159   17.0026628   14.5467286
| 30>     H       15.4642665   14.9459714   15.8385611
| 31>     H       14.9697655   14.9659815   14.1299217
| 32>     H       16.7273100   19.0367339   14.0277439
| 33>     H       16.1106960   20.5047700   14.7809369
| 34>     H       15.1305846   19.0326361   14.7986337
| 35>     H       16.6099571   20.9587102   16.8322409
| 36>     H       18.9203129   18.7835169   19.3067896
| 37>     H       19.0489057   17.2462500   17.4209836
| 38>     H       18.9545026   14.9517289   18.1314788
| 39>     H       18.0523796   13.1934740   19.6395340
| 40>     H       16.0635423   13.6870313   21.0672412
| 41>     H       14.6027970   15.2045929   21.6678057
| 42>     H       15.9002636   17.6838519   19.4880494
| 43> *
| 44>
| 45>                          ****END OF INPUT****

CARTESIAN COORDINATES (ANGSTROEM)
---------------------------------
  C     13.877857   16.363685   15.377341
  C     15.159891   15.598152   15.007039
  O     16.178394   16.561878   14.693253
  C     17.243973   16.610235   15.537681
  O     18.053284   15.701464   15.599043
  C     17.187498   17.726082   16.535860
  C     16.784663   18.975875   16.191953
  C     16.154841   19.413702   14.884778
  N     16.994520   20.054350   17.054538
  C     17.789920   20.009010   18.168309
  S     18.080147   21.352602   19.087864
  N     18.351862   18.793412   18.469233
  C     18.048103   17.520795   17.785641
  C     17.500207   16.444441   18.712489
  C     18.097541   15.172308   18.764098
  C     17.584382   14.175971   19.611346
  C     16.463823   14.454251   20.412823
  C     15.864124   15.720076   20.359907
  O     14.777462   15.989212   21.126564
  C     16.376771   16.709515   19.514874
  H     14.042669   16.992954   16.260997
  H     13.066171   15.662116   15.605721
  H     13.553616   17.002663   14.546729
  H     15.464266   14.945971   15.838561
  H     14.969765   14.965981   14.129922
  H     16.727310   19.036734   14.027744
  H     16.110696   20.504770   14.780937
  H     15.130585   19.032636   14.798634
  H     16.609957   20.958710   16.832241
  H     18.920313   18.783517   19.306790
  H     19.048906   17.246250   17.420984
  H     18.954503   14.951729   18.131479
  H     18.052380   13.193474   19.639534
  H     16.063542   13.687031   21.067241
  H     14.602797   15.204593   21.667806
  H     15.900264   17.683852   19.488049

 Total Charge           Charge          ....    0
 Multiplicity           Mult            ....    1
 Number of Electrons    NEL             ....  154
 Basis Dimension        Dim             ....  828

ORBITAL ENERGIES
----------------

  NO   OCC          E(Eh)            E(eV)
   0   2.0000     -91.889736     -2500.4468
   1   2.0000     -20.595618      -560.4353
   2   2.0000     -20.587295      -560.2088
   3   2.0000     -20.552448      -559.2605
   4   2.0000     -15.630237      -425.3204
   5   2.0000     -15.607597      -424.7043
   6   2.0000     -11.393828      -310.0418
   7   2.0000     -11.384653      -309.7922
   8   2.0000     -11.338630      -308.5398
   9   2.0000     -11.312026      -307.8159
  10   2.0000     -11.306067      -307.6537
  11   2.0000     -11.303774      -307.5913
  12   2.0000     -11.260706      -306.4194
  13   2.0000     -11.259687      -306.3917
  14   2.0000     -11.259046      -306.3742
  15   2.0000     -11.252018      -306.1830
  16   2.0000     -11.242006      -305.9105
  17   2.0000     -11.238188      -305.8066
  18   2.0000     -11.234772      -305.7137
  19   2.0000     -11.233888      -305.6896
  20   2.0000      -8.894808      -242.0400
  21   2.0000      -6.576382      -178.9524
  22   2.0000      -6.574381      -178.8980
  23   2.0000      -6.573790      -178.8819
  24   2.0000      -1.452967       -39.5372
  25   2.0000      -1.415375       -38.5143
  26   2.0000      -1.358892       -36.9773
  27   2.0000      -1.341333       -36.4995
  28   2.0000      -1.238582       -33.7035
  29   2.0000      -1.156376       -31.4666
  30   2.0000      -1.123106       -30.5613
  31   2.0000      -1.045102       -28.4387
  32   2.0000      -1.037282       -28.2259
  33   2.0000      -1.013866       -27.5887
  34   2.0000      -1.001527       -27.2529
  35   2.0000      -0.987135       -26.8613
  36   2.0000      -0.923237       -25.1225
  37   2.0000      -0.888215       -24.1696
  38   2.0000      -0.849115       -23.1056
  39   2.0000      -0.838720       -22.8227
  40   2.0000      -0.832084       -22.6422
  41   2.0000      -0.825506       -22.4632
  42   2.0000      -0.760401       -20.6916
  43   2.0000      -0.736945       -20.0533
  44   2.0000      -0.728936       -19.8353
  45   2.0000      -0.693682       -18.8760
  46   2.0000      -0.685490       -18.6531
  47   2.0000      -0.681620       -18.5478
  48   2.0000      -0.675957       -18.3937
  49   2.0000      -0.659029       -17.9331
  50   2.0000      -0.653579       -17.7848
  51   2.0000      -0.643721       -17.5165
  52   2.0000      -0.635670       -17.2975
  53   2.0000      -0.606931       -16.5154
  54   2.0000      -0.602153       -16.3854
  55   2.0000      -0.599047       -16.3009
  56   2.0000      -0.598845       -16.2954
  57   2.0000      -0.582492       -15.8504
  58   2.0000      -0.576018       -15.6743
  59   2.0000      -0.573194       -15.5974
  60   2.0000      -0.561635       -15.2829
  61   2.0000      -0.552922       -15.0458
  62   2.0000      -0.547779       -14.9058
  63   2.0000      -0.520001       -14.1500
  64   2.0000      -0.515952       -14.0398
  65   2.0000      -0.512375       -13.9424
  66   2.0000      -0.505864       -13.7653
  67   2.0000      -0.497109       -13.5270
  68   2.0000      -0.483127       -13.1466
  69   2.0000      -0.464060       -12.6277
  70   2.0000      -0.457132       -12.4392
  71   2.0000      -0.454544       -12.3688
  72   2.0000      -0.354665        -9.6509
  73   2.0000      -0.348297        -9.4776
  74   2.0000      -0.328801        -8.9471
  75   2.0000      -0.319204        -8.6860
  76   2.0000      -0.318657        -8.6711
  77   0.0000       0.072667         1.9774
  78   0.0000       0.105398         2.8680
  79   0.0000       0.120217         3.2713
  80   0.0000       0.133104         3.6220
  81   0.0000       0.137844         3.7509

MULLIKEN ATOMIC CHARGES
-----------------------
   0 C :   -0.303287
   1 C :    0.046557
   2 O :   -0.372658
   3 C :    0.457466
   4 O :   -0.391487
   5 C :   -0.221581
   6 C :    0.160576
   7 C :   -0.287499
   8 N :   -0.128643
   9 C :    0.205437
  10 S :   -0.440221
  11 N :   -0.212241
  12 C :    0.050173
  13 C :    0.028387
  14 C :   -0.182361
  15 C :   -0.132343
  16 C :   -0.278297
  17 C :    0.313796
  18 O :   -0.358165
  19 C :   -0.254746
  20 H :    0.102132
  21 H :    0.113884
  22 H :    0.095273
  23 H :    0.098579
  24 H :    0.109014
  25 H :    0.129631
  26 H :    0.106701
  27 H :    0.125930
  28 H :    0.198745
  29 H :    0.199805
  30 H :    0.157614
  31 H :    0.164765
  32 H :    0.162238
  33 H :    0.130017
  34 H :    0.240632
  35 H :    0.166175
Sum of atomic charges:   -0.0000000

LOEWDIN ATOMIC CHARGES
----------------------
   0 C :    0.102312
   1 C :   -0.014547
   2 O :    0.296048
   3 C :   -0.424430
   4 O :    0.123504
   5 C :   -0.096796
   6 C :   -0.067522
   7 C :    0.127176
   8 N :    0.405842
   9 C :   -0.457708
  10 S :   -0.036116
  11 N :    0.395945
  12 C :   -0.048906
  13 C :   -0.042304
  14 C :    0.023623
  15 C :    0.041641
  16 C :   -0.001028
  17 C :   -0.193019
  18 O :    0.393473
  19 C :    0.028175
  20 H :   -0.029010
  21 H :   -0.023464
  22 H :   -0.030025
  23 H :   -0.024278
  24 H :   -0.025128
  25 H :   -0.007147
  26 H :   -0.019760
  27 H :   -0.011417
  28 H :   -0.058169
  29 H :   -0.063516
  30 H :   -0.006924
  31 H :   -0.022834
  32 H :   -0.020100
  33 H :   -0.035591
  34 H :   -0.154154
  35 H :   -0.023845

  Mayer bond orders larger than 0.100000
B(  0-C ,  1-C ) :   0.9676 B(  0-C , 20-H ) :   0.9740 B(  0-C , 21-H ) :   0.9782
B(  0-C , 22-H ) :   0.9764 B(  1-C ,  2-O ) :   0.8908 B(  1-C , 23-H ) :   0.9707
B(  1-C , 24-H ) :   0.9854 B(  2-O ,  3-C ) :   1.0833 B(  3-C ,  4-O ) :   2.0528
B(  3-C ,  5-C ) :   1.0053 B(  5-C ,  6-C ) :   1.6708 B(  5-C , 12-C ) :   0.9510
B(  6-C ,  7-C ) :   0.9531 B(  6-C ,  8-N ) :   1.1379 B(  7-C , 25-H ) :   0.9664
B(  7-C , 26-H ) :   0.9889 B(  7-C , 27-H ) :   0.9651 B(  8-N ,  9-C ) :   1.1858
B(  8-N , 28-H ) :   0.9472 B(  9-C , 10-S ) :   1.6120 B(  9-C , 11-N ) :   1.3018
B( 11-N , 12-C ) :   0.9802 B( 11-N , 29-H ) :   0.9486 B( 12-C , 13-C ) :   0.9689
B( 12-C , 30-H ) :   0.9945 B( 13-C , 14-C ) :   1.3796 B( 13-C , 19-C ) :   1.3611
B( 14-C , 15-C ) :   1.3958 B( 14-C , 31-H ) :   0.9617 B( 15-C , 16-C ) :   1.3603
B( 15-C , 32-H ) :   0.9706 B( 16-C , 17-C ) :   1.3317 B( 16-C , 33-H ) :   0.9854
B( 17-C , 18-O ) :   1.1056 B( 17-C , 19-C ) :   1.3666 B( 18-O , 34-H ) :   0.9800
B( 19-C , 35-H ) :   0.9599

MP2 TOTAL ENERGY:    -1274.326322168 Eh
FINAL SINGLE POINT ENERGY     -1274.326322168467

DIPOLE MOMENT
-------------
                                X             Y             Z
Electronic contribution:     10.51793       7.22651       8.35424
Nuclear contribution   :    -11.87951      -8.53330      -9.03950
                        -----------------------------------------
Total Dipole Moment    :     -1.36158      -1.30680      -0.68526
                        -----------------------------------------
Magnitude (a.u.)       :      2.00778
Magnitude (Debye)      :      5.10338

Rotational constants in cm-1:     0.010651     0.009233     0.006290
Rotational constants in MHz :   319.321408   276.785293   188.571961

                             ****ORCA TERMINATED NORMALLY****
TOTAL RUN TIME: 0 days 1 hours 49 minutes 28 seconds 163 msec
