                         Program Version 4.2.0 -  RELEASE  -
|  1> ! ri-mp2 cc-pvtz cc-pvtz/c TightSCF NoKeepInts
|  2>
|  3> %scf
|  4>   MaxCore 4096
|  5> end
|  6> *xyz  0  1
|  7>     C       14.8126431   14.5713623   14.5877684
|  8>     C       14.5949846   16.0521727   14.9601191
|  9>     O       15.8149323   16.8059933   14.8147762
| 10>     C       16.8380023   16.6178551   15.6981934
| 11>     O       17.3979018   15.5441591   15.8349177
| 12>     C       17.0976101   17.7855305   16.6060022
| 13>     C       16.9510145   19.0741497   16.1998544
| 14>     C       16.3188485   19.5785301   14.9174838
| 15>     N       17.4565287   20.1256114   16.9686600
| 16>     C       18.3062102   19.9696817   18.0305410
| 17>     S       18.9523329   21.2662005   18.8285547
| 18>     N       18.6105098   18.6795059   18.3840484
| 19>     C       17.9843633   17.4695548   17.8164248
| 20>     C       17.2929933   16.6015056   18.8594900
| 21>     C       17.6180972   15.2391857   18.9879624
| 22>     C       16.9771861   14.4388942   19.9485042
| 23>     C       16.0033595   15.0061839   20.7882644
| 24>     C       15.6756132   16.3630210   20.6605100
| 25>     O       14.7316906   16.9120697   21.4659613
| 26>     C       16.3145844   17.1567756   19.7025596
| 27>     H       15.3480995   14.4850281   13.6340370
| 28>     H       13.8493548   14.0570751   14.4875695
| 29>     H       15.3901364   14.0467139   15.3587372
| 30>     H       13.8383653   16.4746928   14.2865768
| 31>     H       14.2141156   16.1298322   15.9874670
| 32>     H       16.7736893   19.0971620   14.0423545
| 33>     H       16.4365232   20.6606679   14.7822270
| 34>     H       15.2436766   19.3618906   14.9024283
| 35>     H       17.2620665   21.0786702   16.7062531
| 36>     H       19.2243250   18.5914012   19.1841300
| 37>     H       18.8715102   16.9590193   17.4137547
| 38>     H       18.3602249   14.7964670   18.3274737
| 39>     H       17.2331039   13.3843454   20.0344993
| 40>     H       15.5051038   14.3912934   21.5303291
| 41>     H       14.4373936   16.2221408   22.0794291
| 42>     H       16.0499052   18.2056572   19.6201375
| 43> *
| 44>
| 45>                          ****END OF INPUT****

CARTESIAN COORDINATES (ANGSTROEM)
---------------------------------
  C     14.812643   14.571362   14.587768
  C     14.594985   16.052173   14.960119
  O     15.814932   16.805993   14.814776
  C     16.838002   16.617855   15.698193
  O     17.397902   15.544159   15.834918
  C     17.097610   17.785531   16.606002
  C     16.951014   19.074150   16.199854
  C     16.318849   19.578530   14.917484
  N     17.456529   20.125611   16.968660
  C     18.306210   19.969682   18.030541
  S     18.952333   21.266201   18.828555
  N     18.610510   18.679506   18.384048
  C     17.984363   17.469555   17.816425
  C     17.292993   16.601506   18.859490
  C     17.618097   15.239186   18.987962
  C     16.977186   14.438894   19.948504
  C     16.003359   15.006184   20.788264
  C     15.675613   16.363021   20.660510
  O     14.731691   16.912070   21.465961
  C     16.314584   17.156776   19.702560
  H     15.348099   14.485028   13.634037
  H     13.849355   14.057075   14.487569
  H     15.390136   14.046714   15.358737
  H     13.838365   16.474693   14.286577
  H     14.214116   16.129832   15.987467
  H     16.773689   19.097162   14.042355
  H     16.436523   20.660668   14.782227
  H     15.243677   19.361891   14.902428
  H     17.262066   21.078670   16.706253
  H     19.224325   18.591401   19.184130
  H     18.871510   16.959019   17.413755
  H     18.360225   14.796467   18.327474
  H     17.233104   13.384345   20.034499
  H     15.505104   14.391293   21.530329
  H     14.437394   16.222141   22.079429
  H     16.049905   18.205657   19.620137

 Total Charge           Charge          ....    0
 Multiplicity           Mult            ....    1
 Number of Electrons    NEL             ....  154
 Basis Dimension        Dim             ....  828

ORBITAL ENERGIES
----------------

  NO   OCC          E(Eh)            E(eV)
   0   2.0000     -91.888940     -2500.4252
   1   2.0000     -20.593824      -560.3864
   2   2.0000     -20.589550      -560.2701
   3   2.0000     -20.551632      -559.2384
   4   2.0000     -15.629665      -425.3048
   5   2.0000     -15.606555      -424.6760
   6   2.0000     -11.395830      -310.0963
   7   2.0000     -11.383576      -309.7628
   8   2.0000     -11.338958      -308.5487
   9   2.0000     -11.310010      -307.7610
  10   2.0000     -11.305775      -307.6458
  11   2.0000     -11.304766      -307.6183
  12   2.0000     -11.259951      -306.3989
  13   2.0000     -11.259842      -306.3959
  14   2.0000     -11.257133      -306.3222
  15   2.0000     -11.250035      -306.1290
  16   2.0000     -11.240115      -305.8591
  17   2.0000     -11.236283      -305.7548
  18   2.0000     -11.232922      -305.6633
  19   2.0000     -11.221525      -305.3532
  20   2.0000      -8.894018      -242.0185
  21   2.0000      -6.575593      -178.9310
  22   2.0000      -6.573592      -178.8765
  23   2.0000      -6.573002      -178.8605
  24   2.0000      -1.450244       -39.4632
  25   2.0000      -1.413574       -38.4653
  26   2.0000      -1.358932       -36.9784
  27   2.0000      -1.340746       -36.4836
  28   2.0000      -1.237849       -33.6836
  29   2.0000      -1.154336       -31.4111
  30   2.0000      -1.121499       -30.5176
  31   2.0000      -1.043167       -28.3860
  32   2.0000      -1.032508       -28.0960
  33   2.0000      -1.011931       -27.5360
  34   2.0000      -0.999602       -27.2006
  35   2.0000      -0.984429       -26.7877
  36   2.0000      -0.922021       -25.0895
  37   2.0000      -0.888443       -24.1758
  38   2.0000      -0.849561       -23.1177
  39   2.0000      -0.837634       -22.7932
  40   2.0000      -0.830198       -22.5908
  41   2.0000      -0.824990       -22.4491
  42   2.0000      -0.749291       -20.3892
  43   2.0000      -0.732032       -19.9196
  44   2.0000      -0.727749       -19.8031
  45   2.0000      -0.692198       -18.8357
  46   2.0000      -0.685852       -18.6630
  47   2.0000      -0.680602       -18.5201
  48   2.0000      -0.670882       -18.2556
  49   2.0000      -0.666781       -18.1440
  50   2.0000      -0.646447       -17.5907
  51   2.0000      -0.643894       -17.5212
  52   2.0000      -0.634633       -17.2692
  53   2.0000      -0.605841       -16.4858
  54   2.0000      -0.600298       -16.3349
  55   2.0000      -0.598742       -16.2926
  56   2.0000      -0.597180       -16.2501
  57   2.0000      -0.580233       -15.7889
  58   2.0000      -0.574523       -15.6336
  59   2.0000      -0.571341       -15.5470
  60   2.0000      -0.560265       -15.2456
  61   2.0000      -0.549545       -14.9539
  62   2.0000      -0.537354       -14.6222
  63   2.0000      -0.521763       -14.1979
  64   2.0000      -0.517963       -14.0945
  65   2.0000      -0.511065       -13.9068
  66   2.0000      -0.499309       -13.5869
  67   2.0000      -0.494790       -13.4639
  68   2.0000      -0.479735       -13.0543
  69   2.0000      -0.463402       -12.6098
  70   2.0000      -0.458230       -12.4691
  71   2.0000      -0.448204       -12.1962
  72   2.0000      -0.353915        -9.6305
  73   2.0000      -0.346488        -9.4284
  74   2.0000      -0.328003        -8.9254
  75   2.0000      -0.318164        -8.6577
  76   2.0000      -0.316735        -8.6188
  77   0.0000       0.072796         1.9809
  78   0.0000       0.108504         2.9525
  79   0.0000       0.121035         3.2935
  80   0.0000       0.134431         3.6581
  81   0.0000       0.138622         3.7721

MULLIKEN ATOMIC CHARGES
-----------------------
   0 C :   -0.273230
   1 C :    0.037368
   2 O :   -0.376283
   3 C :    0.449479
   4 O :   -0.400674
   5 C :   -0.186135
   6 C :    0.153509
   7 C :   -0.280148
   8 N :   -0.127755
   9 C :    0.206742
  10 S :   -0.441102
  11 N :   -0.211397
  12 C :    0.041973
  13 C :    0.033843
  14 C :   -0.176956
  15 C :   -0.133485
  16 C :   -0.277624
  17 C :    0.313985
  18 O :   -0.358644
  19 C :   -0.254849
  20 H :    0.099070
  21 H :    0.090153
  22 H :    0.114660
  23 H :    0.100688
  24 H :    0.087645
  25 H :    0.128658
  26 H :    0.102880
  27 H :    0.123973
  28 H :    0.198969
  29 H :    0.199800
  30 H :    0.157077
  31 H :    0.162350
  32 H :    0.161137
  33 H :    0.129079
  34 H :    0.240296
  35 H :    0.164948
Sum of atomic charges:    0.0000000

LOEWDIN ATOMIC CHARGES
----------------------
   0 C :    0.106347
   1 C :   -0.019141
   2 O :    0.291546
   3 C :   -0.415785
   4 O :    0.125676
   5 C :   -0.096360
   6 C :   -0.064415
   7 C :    0.125752
   8 N :    0.405744
   9 C :   -0.458419
  10 S :   -0.036719
  11 N :    0.396197
  12 C :   -0.048701
  13 C :   -0.041318
  14 C :    0.023696
  15 C :    0.040996
  16 C :   -0.001187
  17 C :   -0.192935
  18 O :    0.393204
  19 C :    0.028634
  20 H :   -0.024329
  21 H :   -0.029952
  22 H :   -0.026536
  23 H :   -0.024169
  24 H :   -0.031429
  25 H :   -0.007540
  26 H :   -0.020793
  27 H :   -0.010091
  28 H :   -0.058402
  29 H :   -0.063328
  30 H :   -0.007858
  31 H :   -0.023582
  32 H :   -0.020647
  33 H :   -0.035900
  34 H :   -0.154494
  35 H :   -0.023762

  Mayer bond orders larger than 0.100000
B(  0-C ,  1-C ) :   0.9823 B(  0-C , 20-H ) :   0.9754 B(  0-C , 21-H ) :   0.9748
B(  0-C , 22-H ) :   0.9715 B(  1-C ,  2-O ) :   0.9051 B(  1-C , 23-H ) :   0.9822
B(  1-C , 24-H ) :   0.9736 B(  2-O ,  3-C ) :   1.0554 B(  3-C ,  4-O ) :   2.0187
B(  3-C ,  5-C ) :   1.0369 B(  5-C ,  6-C ) :   1.6645 B(  5-C , 12-C ) :   0.9497
B(  6-C ,  7-C ) :   0.9531 B(  6-C ,  8-N ) :   1.1378 B(  7-C , 25-H ) :   0.9651
B(  7-C , 26-H ) :   0.9902 B(  7-C , 27-H ) :   0.9653 B(  8-N ,  9-C ) :   1.1847
B(  8-N , 28-H ) :   0.9469 B(  9-C , 10-S ) :   1.6101 B(  9-C , 11-N ) :   1.3049
B( 11-N , 12-C ) :   0.9771 B( 11-N , 29-H ) :   0.9485 B( 12-C , 13-C ) :   0.9699
B( 12-C , 30-H ) :   0.9963 B( 13-C , 14-C ) :   1.3783 B( 13-C , 19-C ) :   1.3633
B( 14-C , 15-C ) :   1.3964 B( 14-C , 31-H ) :   0.9627 B( 15-C , 16-C ) :   1.3594
B( 15-C , 32-H ) :   0.9708 B( 16-C , 17-C ) :   1.3330 B( 16-C , 33-H ) :   0.9857
B( 17-C , 18-O ) :   1.1045 B( 17-C , 19-C ) :   1.3667 B( 18-O , 34-H ) :   0.9803
B( 19-C , 35-H ) :   0.9599

MP2 TOTAL ENERGY:    -1274.326839248 Eh
FINAL SINGLE POINT ENERGY     -1274.326839247730

DIPOLE MOMENT
-------------
                                X             Y             Z
Electronic contribution:      9.83452      10.39585       9.89310
Nuclear contribution   :    -11.43841     -11.50399     -10.63434
                        -----------------------------------------
Total Dipole Moment    :     -1.60389      -1.10814      -0.74124
                        -----------------------------------------
Magnitude (a.u.)       :      2.08563
Magnitude (Debye)      :      5.30125

Rotational constants in cm-1:     0.010340     0.009159     0.005763
Rotational constants in MHz :   309.983007   274.593067   172.760038

                             ****ORCA TERMINATED NORMALLY****
TOTAL RUN TIME: 0 days 1 hours 36 minutes 5 seconds 89 msec
