                         Program Version 4.2.0 -  RELEASE  -
|  1> ! ri-mp2 cc-pvtz cc-pvtz/c TightSCF NoKeepInts
|  2>
|  3> %scf
|  4>   MaxCore 4096
|  5> end
|  6> *xyz  0  1
|  7>     C       14.6884537   14.6361694   14.8074093
|  8>     C       15.3564932   15.3097069   16.0186272
|  9>     O       16.4577122   16.0985516   15.5359655
| 10>     C       16.2608622   17.4429034   15.4318689
| 11>     O       15.5731733   17.9014092   14.5377332
| 12>     C       16.8530059   18.2321256   16.5706622
| 13>     C       16.8652043   19.5902712   16.5341505
| 14>     C       16.0932895   20.4903376   15.5912044
| 15>     N       17.6509735   20.3286938   17.4218512
| 16>     C       18.6069091   19.7911897   18.2399362
| 17>     S       19.5770002   20.7330691   19.1923789
| 18>     N       18.7361704   18.4261173   18.2111105
| 19>     C       17.8459529   17.4977176   17.4897371
| 20>     C       17.2220867   16.4614077   18.4141786
| 21>     C       17.7691234   15.1682819   18.5058024
| 22>     C       17.1916928   14.2082390   19.3537570
| 23>     C       16.0622337   14.5462683   20.1189359
| 24>     C       15.5222954   15.8372064   20.0369902
| 25>     O       14.4323400   16.1667153   20.7742210
| 26>     C       16.0980493   16.7902623   19.1910556
| 27>     H       14.2867459   15.3903565   14.1185436
| 28>     H       13.8616313   13.9926687   15.1310712
| 29>     H       15.4118068   14.0195925   14.2596376
| 30>     H       14.6317458   15.9248032   16.5699712
| 31>     H       15.7297536   14.5301842   16.6947703
| 32>     H       15.0296664   20.2197771   15.5809844
| 33>     H       16.4673921   20.3859768   14.5645677
| 34>     H       16.1559553   21.5512260   15.8606689
| 35>     H       17.5845925   21.3340115   17.4319533
| 36>     H       19.4311807   18.0568441   18.8476071
| 37>     H       18.5707939   17.0226682   16.8130431
| 38>     H       18.6403812   14.9047647   17.9115141
| 39>     H       17.6198632   13.2090275   19.4170763
| 40>     H       15.6134456   13.8082176   20.7759551
| 41>     H       14.2175034   15.4063366   21.3356699
| 42>     H       15.6715206   17.7869016   19.1473904
| 43> *
| 44>
| 45>                          ****END OF INPUT****

CARTESIAN COORDINATES (ANGSTROEM)
---------------------------------
  C     14.688454   14.636169   14.807409
  C     15.356493   15.309707   16.018627
  O     16.457712   16.098552   15.535965
  C     16.260862   17.442903   15.431869
  O     15.573173   17.901409   14.537733
  C     16.853006   18.232126   16.570662
  C     16.865204   19.590271   16.534150
  C     16.093290   20.490338   15.591204
  N     17.650973   20.328694   17.421851
  C     18.606909   19.791190   18.239936
  S     19.577000   20.733069   19.192379
  N     18.736170   18.426117   18.211111
  C     17.845953   17.497718   17.489737
  C     17.222087   16.461408   18.414179
  C     17.769123   15.168282   18.505802
  C     17.191693   14.208239   19.353757
  C     16.062234   14.546268   20.118936
  C     15.522295   15.837206   20.036990
  O     14.432340   16.166715   20.774221
  C     16.098049   16.790262   19.191056
  H     14.286746   15.390356   14.118544
  H     13.861631   13.992669   15.131071
  H     15.411807   14.019592   14.259638
  H     14.631746   15.924803   16.569971
  H     15.729754   14.530184   16.694770
  H     15.029666   20.219777   15.580984
  H     16.467392   20.385977   14.564568
  H     16.155955   21.551226   15.860669
  H     17.584592   21.334011   17.431953
  H     19.431181   18.056844   18.847607
  H     18.570794   17.022668   16.813043
  H     18.640381   14.904765   17.911514
  H     17.619863   13.209027   19.417076
  H     15.613446   13.808218   20.775955
  H     14.217503   15.406337   21.335670
  H     15.671521   17.786902   19.147390

 Total Charge           Charge          ....    0
 Multiplicity           Mult            ....    1
 Number of Electrons    NEL             ....  154
 Basis Dimension        Dim             ....  828

ORBITAL ENERGIES
----------------

  NO   OCC          E(Eh)            E(eV)
   0   2.0000     -91.890932     -2500.4794
   1   2.0000     -20.602618      -560.6257
   2   2.0000     -20.581631      -560.0546
   3   2.0000     -20.546329      -559.0940
   4   2.0000     -15.631520      -425.3553
   5   2.0000     -15.609061      -424.7441
   6   2.0000     -11.392489      -310.0054
   7   2.0000     -11.385440      -309.8136
   8   2.0000     -11.339979      -308.5765
   9   2.0000     -11.320369      -308.0429
  10   2.0000     -11.310520      -307.7749
  11   2.0000     -11.295145      -307.3565
  12   2.0000     -11.266360      -306.5732
  13   2.0000     -11.261592      -306.4435
  14   2.0000     -11.259220      -306.3790
  15   2.0000     -11.253485      -306.2229
  16   2.0000     -11.249998      -306.1280
  17   2.0000     -11.244685      -305.9834
  18   2.0000     -11.244525      -305.9791
  19   2.0000     -11.217673      -305.2484
  20   2.0000      -8.895987      -242.0721
  21   2.0000      -6.577555      -178.9844
  22   2.0000      -6.575561      -178.9301
  23   2.0000      -6.574965      -178.9139
  24   2.0000      -1.447705       -39.3941
  25   2.0000      -1.422307       -38.7030
  26   2.0000      -1.353415       -36.8283
  27   2.0000      -1.342811       -36.5397
  28   2.0000      -1.240826       -33.7646
  29   2.0000      -1.163334       -31.6559
  30   2.0000      -1.122982       -30.5579
  31   2.0000      -1.047341       -28.4996
  32   2.0000      -1.030877       -28.0516
  33   2.0000      -1.021373       -27.7930
  34   2.0000      -0.998443       -27.1690
  35   2.0000      -0.986736       -26.8505
  36   2.0000      -0.925211       -25.1763
  37   2.0000      -0.879742       -23.9390
  38   2.0000      -0.850104       -23.1325
  39   2.0000      -0.843051       -22.9406
  40   2.0000      -0.839735       -22.8503
  41   2.0000      -0.828996       -22.5581
  42   2.0000      -0.758354       -20.6359
  43   2.0000      -0.737735       -20.0748
  44   2.0000      -0.722264       -19.6538
  45   2.0000      -0.701258       -19.0822
  46   2.0000      -0.690919       -18.8009
  47   2.0000      -0.678012       -18.4496
  48   2.0000      -0.671942       -18.2845
  49   2.0000      -0.657370       -17.8879
  50   2.0000      -0.648616       -17.6497
  51   2.0000      -0.646005       -17.5787
  52   2.0000      -0.638085       -17.3632
  53   2.0000      -0.612882       -16.6774
  54   2.0000      -0.606950       -16.5160
  55   2.0000      -0.603430       -16.4202
  56   2.0000      -0.588719       -16.0199
  57   2.0000      -0.583312       -15.8727
  58   2.0000      -0.577385       -15.7114
  59   2.0000      -0.570879       -15.5344
  60   2.0000      -0.566576       -15.4173
  61   2.0000      -0.542120       -14.7518
  62   2.0000      -0.536055       -14.5868
  63   2.0000      -0.529364       -14.4047
  64   2.0000      -0.516894       -14.0654
  65   2.0000      -0.509953       -13.8765
  66   2.0000      -0.503415       -13.6986
  67   2.0000      -0.495511       -13.4835
  68   2.0000      -0.489119       -13.3096
  69   2.0000      -0.464623       -12.6430
  70   2.0000      -0.454789       -12.3754
  71   2.0000      -0.442942       -12.0531
  72   2.0000      -0.356828        -9.7098
  73   2.0000      -0.354189        -9.6380
  74   2.0000      -0.330963        -9.0060
  75   2.0000      -0.327180        -8.9030
  76   2.0000      -0.320645        -8.7252
  77   0.0000       0.071668         1.9502
  78   0.0000       0.098100         2.6694
  79   0.0000       0.122162         3.3242
  80   0.0000       0.129352         3.5198
  81   0.0000       0.130308         3.5459

MULLIKEN ATOMIC CHARGES
-----------------------
   0 C :   -0.260955
   1 C :    0.019846
   2 O :   -0.378278
   3 C :    0.473402
   4 O :   -0.410432
   5 C :   -0.287730
   6 C :    0.189654
   7 C :   -0.265887
   8 N :   -0.127158
   9 C :    0.213406
  10 S :   -0.439820
  11 N :   -0.218756
  12 C :    0.074304
  13 C :    0.024767
  14 C :   -0.183646
  15 C :   -0.135733
  16 C :   -0.270726
  17 C :    0.310166
  18 O :   -0.355855
  19 C :   -0.238594
  20 H :    0.111301
  21 H :    0.085186
  22 H :    0.092242
  23 H :    0.090363
  24 H :    0.116470
  25 H :    0.131149
  26 H :    0.132136
  27 H :    0.094682
  28 H :    0.199272
  29 H :    0.201411
  30 H :    0.151870
  31 H :    0.153103
  32 H :    0.165571
  33 H :    0.134098
  34 H :    0.242026
  35 H :    0.167147
Sum of atomic charges:   -0.0000000

LOEWDIN ATOMIC CHARGES
----------------------
   0 C :    0.105859
   1 C :   -0.022025
   2 O :    0.294536
   3 C :   -0.423539
   4 O :    0.115267
   5 C :   -0.101794
   6 C :   -0.053634
   7 C :    0.131525
   8 N :    0.407914
   9 C :   -0.456137
  10 S :   -0.034442
  11 N :    0.394228
  12 C :   -0.054585
  13 C :   -0.037896
  14 C :    0.017028
  15 C :    0.040945
  16 C :   -0.000295
  17 C :   -0.190519
  18 O :    0.396204
  19 C :    0.033907
  20 H :   -0.024178
  21 H :   -0.030668
  22 H :   -0.027413
  23 H :   -0.031567
  24 H :   -0.025843
  25 H :   -0.004681
  26 H :   -0.003929
  27 H :   -0.023384
  28 H :   -0.056658
  29 H :   -0.064644
  30 H :   -0.011982
  31 H :   -0.027864
  32 H :   -0.019715
  33 H :   -0.034129
  34 H :   -0.152461
  35 H :   -0.023431

  Mayer bond orders larger than 0.100000
B(  0-C ,  1-C ) :   0.9875 B(  0-C , 20-H ) :   0.9750 B(  0-C , 21-H ) :   0.9778
B(  0-C , 22-H ) :   0.9787 B(  1-C ,  2-O ) :   0.8774 B(  1-C , 23-H ) :   0.9684
B(  1-C , 24-H ) :   0.9737 B(  2-O ,  3-C ) :   1.0862 B(  3-C ,  4-O ) :   2.0090
B(  3-C ,  5-C ) :   1.0809 B(  5-C ,  6-C ) :   1.6251 B(  5-C , 12-C ) :   0.9496
B(  6-C ,  7-C ) :   0.9667 B(  6-C ,  8-N ) :   1.1611 B(  7-C , 25-H ) :   0.9619
B(  7-C , 26-H ) :   0.9570 B(  7-C , 27-H ) :   0.9898 B(  8-N ,  9-C ) :   1.1849
B(  8-N , 28-H ) :   0.9461 B(  9-C , 10-S ) :   1.6053 B(  9-C , 11-N ) :   1.3115
B( 11-N , 12-C ) :   0.9587 B( 11-N , 29-H ) :   0.9482 B( 12-C , 13-C ) :   0.9701
B( 12-C , 30-H ) :   1.0014 B( 13-C , 14-C ) :   1.3505 B( 13-C , 19-C ) :   1.3622
B( 14-C , 15-C ) :   1.3940 B( 14-C , 31-H ) :   0.9742 B( 15-C , 16-C ) :   1.3573
B( 15-C , 32-H ) :   0.9693 B( 16-C , 17-C ) :   1.3335 B( 16-C , 33-H ) :   0.9837
B( 17-C , 18-O ) :   1.1074 B( 17-C , 19-C ) :   1.3638 B( 18-O , 34-H ) :   0.9786
B( 19-C , 35-H ) :   0.9610

MP2 TOTAL ENERGY:    -1274.328343436 Eh
FINAL SINGLE POINT ENERGY     -1274.328343435520

DIPOLE MOMENT
-------------
                                X             Y             Z
Electronic contribution:      9.53843      10.16370       7.88709
Nuclear contribution   :    -10.51659     -11.70573      -7.67288
                        -----------------------------------------
Total Dipole Moment    :     -0.97817      -1.54203       0.21421
                        -----------------------------------------
Magnitude (a.u.)       :      1.83863
Magnitude (Debye)      :      4.67342

Rotational constants in cm-1:     0.012126     0.008509     0.005992
Rotational constants in MHz :   363.534642   255.100587   179.626379

                             ****ORCA TERMINATED NORMALLY****
TOTAL RUN TIME: 0 days 1 hours 48 minutes 56 seconds 587 msec
