                         Program Version 4.2.0 -  RELEASE  -
|  1> ! ri-mp2 cc-pvtz cc-pvtz/c TightSCF NoKeepInts
|  2>
|  3> %scf
|  4>   MaxCore 4096
|  5> end
|  6> *xyz  0  1
|  7>     C       14.6644486   14.3471515   15.4072159
|  8>     C       15.1108636   15.6654205   16.0595579
|  9>     O       16.3731805   16.0235428   15.4681760
| 10>     C       16.5981102   17.3432160   15.2183298
| 11>     O       16.4469109   17.7827257   14.0935686
| 12>     C       16.9432347   18.1692680   16.4296883
| 13>     C       16.9201897   19.5247337   16.3420444
| 14>     C       16.2202629   20.3601727   15.2897972
| 15>     N       17.5641421   20.3238985   17.2886457
| 16>     C       18.4559799   19.8543572   18.2135549
| 17>     S       19.2831457   20.8655140   19.2275260
| 18>     N       18.6473902   18.4964728   18.2384366
| 19>     C       17.8584160   17.5079508   17.4785616
| 20>     C       17.2139998   16.4726886   18.3862395
| 21>     C       17.6216982   15.1265547   18.3425067
| 22>     C       17.0250954   14.1741655   19.1857585
| 23>     C       16.0204572   14.5731039   20.0843063
| 24>     C       15.6217619   15.9159187   20.1375555
| 25>     O       14.6513895   16.3036223   21.0024206
| 26>     C       16.2143364   16.8613610   19.2944444
| 27>     H       13.6907434   14.0318598   15.8010995
| 28>     H       15.3920896   13.5515256   15.6099960
| 29>     H       14.5747767   14.4656158   14.3198795
| 30>     H       14.3545704   16.4350114   15.8518632
| 31>     H       15.1861532   15.5370286   17.1436161
| 32>     H       15.2503730   19.9225461   15.0219295
| 33>     H       16.8222109   20.4060937   14.3727960
| 34>     H       16.0299745   21.3882612   15.6199601
| 35>     H       17.4602627   21.3255454   17.2527674
| 36>     H       19.2971191   18.1767596   18.9460173
| 37>     H       18.6682163   17.0475752   16.8943682
| 38>     H       18.3946935   14.8156889   17.6440494
| 39>     H       17.3421257   13.1333671   19.1416176
| 40>     H       15.5578695   13.8405483   20.7378793
| 41>     H       14.4117082   15.5325902   21.5387750
| 42>     H       15.8990999   17.8981444   19.3530516
| 43> *
| 44>
| 45>                          ****END OF INPUT****

CARTESIAN COORDINATES (ANGSTROEM)
---------------------------------
  C     14.664449   14.347151   15.407216
  C     15.110864   15.665420   16.059558
  O     16.373181   16.023543   15.468176
  C     16.598110   17.343216   15.218330
  O     16.446911   17.782726   14.093569
  C     16.943235   18.169268   16.429688
  C     16.920190   19.524734   16.342044
  C     16.220263   20.360173   15.289797
  N     17.564142   20.323898   17.288646
  C     18.455980   19.854357   18.213555
  S     19.283146   20.865514   19.227526
  N     18.647390   18.496473   18.238437
  C     17.858416   17.507951   17.478562
  C     17.214000   16.472689   18.386239
  C     17.621698   15.126555   18.342507
  C     17.025095   14.174165   19.185758
  C     16.020457   14.573104   20.084306
  C     15.621762   15.915919   20.137556
  O     14.651390   16.303622   21.002421
  C     16.214336   16.861361   19.294444
  H     13.690743   14.031860   15.801099
  H     15.392090   13.551526   15.609996
  H     14.574777   14.465616   14.319880
  H     14.354570   16.435011   15.851863
  H     15.186153   15.537029   17.143616
  H     15.250373   19.922546   15.021930
  H     16.822211   20.406094   14.372796
  H     16.029975   21.388261   15.619960
  H     17.460263   21.325545   17.252767
  H     19.297119   18.176760   18.946017
  H     18.668216   17.047575   16.894368
  H     18.394693   14.815689   17.644049
  H     17.342126   13.133367   19.141618
  H     15.557870   13.840548   20.737879
  H     14.411708   15.532590   21.538775
  H     15.899100   17.898144   19.353052

 Total Charge           Charge          ....    0
 Multiplicity           Mult            ....    1
 Number of Electrons    NEL             ....  154
 Basis Dimension        Dim             ....  828

ORBITAL ENERGIES
----------------

  NO   OCC          E(Eh)            E(eV)
   0   2.0000     -91.891526     -2500.4955
   1   2.0000     -20.603027      -560.6369
   2   2.0000     -20.582743      -560.0849
   3   2.0000     -20.549262      -559.1738
   4   2.0000     -15.631023      -425.3418
   5   2.0000     -15.610134      -424.7733
   6   2.0000     -11.391911      -309.9897
   7   2.0000     -11.385866      -309.8252
   8   2.0000     -11.338330      -308.5317
   9   2.0000     -11.321148      -308.0641
  10   2.0000     -11.313528      -307.8568
  11   2.0000     -11.295625      -307.3696
  12   2.0000     -11.266888      -306.5876
  13   2.0000     -11.262236      -306.4610
  14   2.0000     -11.258904      -306.3703
  15   2.0000     -11.254105      -306.2398
  16   2.0000     -11.251243      -306.1619
  17   2.0000     -11.245760      -306.0127
  18   2.0000     -11.245235      -305.9984
  19   2.0000     -11.225249      -305.4545
  20   2.0000      -8.896573      -242.0881
  21   2.0000      -6.578138      -179.0002
  22   2.0000      -6.576146      -178.9460
  23   2.0000      -6.575548      -178.9298
  24   2.0000      -1.447516       -39.3889
  25   2.0000      -1.422799       -38.7163
  26   2.0000      -1.355118       -36.8746
  27   2.0000      -1.343193       -36.5501
  28   2.0000      -1.241644       -33.7869
  29   2.0000      -1.164228       -31.6803
  30   2.0000      -1.123341       -30.5677
  31   2.0000      -1.048420       -28.5290
  32   2.0000      -1.033703       -28.1285
  33   2.0000      -1.022160       -27.8144
  34   2.0000      -1.000511       -27.2253
  35   2.0000      -0.987949       -26.8835
  36   2.0000      -0.926178       -25.2026
  37   2.0000      -0.875133       -23.8136
  38   2.0000      -0.850879       -23.1536
  39   2.0000      -0.843744       -22.9594
  40   2.0000      -0.841010       -22.8850
  41   2.0000      -0.834077       -22.6964
  42   2.0000      -0.761638       -20.7252
  43   2.0000      -0.738815       -20.1042
  44   2.0000      -0.725261       -19.7353
  45   2.0000      -0.701559       -19.0904
  46   2.0000      -0.691122       -18.8064
  47   2.0000      -0.679007       -18.4767
  48   2.0000      -0.673700       -18.3323
  49   2.0000      -0.658719       -17.9247
  50   2.0000      -0.649067       -17.6620
  51   2.0000      -0.647148       -17.6098
  52   2.0000      -0.639675       -17.4065
  53   2.0000      -0.613437       -16.6925
  54   2.0000      -0.609136       -16.5754
  55   2.0000      -0.604051       -16.4371
  56   2.0000      -0.598694       -16.2913
  57   2.0000      -0.582100       -15.8398
  58   2.0000      -0.573645       -15.6097
  59   2.0000      -0.566915       -15.4265
  60   2.0000      -0.559969       -15.2375
  61   2.0000      -0.546376       -14.8676
  62   2.0000      -0.540819       -14.7164
  63   2.0000      -0.529287       -14.4026
  64   2.0000      -0.518066       -14.0973
  65   2.0000      -0.512195       -13.9375
  66   2.0000      -0.504564       -13.7299
  67   2.0000      -0.497628       -13.5412
  68   2.0000      -0.485559       -13.2127
  69   2.0000      -0.468245       -12.7416
  70   2.0000      -0.455856       -12.4045
  71   2.0000      -0.448000       -12.1907
  72   2.0000      -0.356860        -9.7106
  73   2.0000      -0.354677        -9.6512
  74   2.0000      -0.331302        -9.0152
  75   2.0000      -0.328393        -8.9360
  76   2.0000      -0.321279        -8.7424
  77   0.0000       0.072448         1.9714
  78   0.0000       0.097884         2.6636
  79   0.0000       0.121658         3.3105
  80   0.0000       0.128035         3.4840
  81   0.0000       0.129497         3.5238

MULLIKEN ATOMIC CHARGES
-----------------------
   0 C :   -0.258005
   1 C :    0.022934
   2 O :   -0.361758
   3 C :    0.435038
   4 O :   -0.378820
   5 C :   -0.259148
   6 C :    0.177385
   7 C :   -0.267184
   8 N :   -0.128240
   9 C :    0.208515
  10 S :   -0.437406
  11 N :   -0.208593
  12 C :    0.045713
  13 C :   -0.018917
  14 C :   -0.153302
  15 C :   -0.137712
  16 C :   -0.270424
  17 C :    0.302912
  18 O :   -0.356746
  19 C :   -0.222914
  20 H :    0.085276
  21 H :    0.093501
  22 H :    0.106945
  23 H :    0.092819
  24 H :    0.118027
  25 H :    0.123533
  26 H :    0.137622
  27 H :    0.094432
  28 H :    0.200133
  29 H :    0.200013
  30 H :    0.152082
  31 H :    0.154826
  32 H :    0.164726
  33 H :    0.134513
  34 H :    0.241660
  35 H :    0.166564
Sum of atomic charges:   -0.0000000

LOEWDIN ATOMIC CHARGES
----------------------
   0 C :    0.109861
   1 C :   -0.019484
   2 O :    0.296360
   3 C :   -0.429564
   4 O :    0.124755
   5 C :   -0.104079
   6 C :   -0.057281
   7 C :    0.129923
   8 N :    0.407592
   9 C :   -0.457888
  10 S :   -0.032956
  11 N :    0.395410
  12 C :   -0.054269
  13 C :   -0.044351
  14 C :    0.019647
  15 C :    0.042025
  16 C :    0.000468
  17 C :   -0.192433
  18 O :    0.396614
  19 C :    0.032774
  20 H :   -0.027353
  21 H :   -0.027884
  22 H :   -0.023131
  23 H :   -0.032295
  24 H :   -0.033930
  25 H :   -0.006595
  26 H :   -0.004040
  27 H :   -0.022780
  28 H :   -0.056271
  29 H :   -0.063464
  30 H :   -0.011540
  31 H :   -0.026734
  32 H :   -0.019128
  33 H :   -0.033702
  34 H :   -0.152463
  35 H :   -0.021814

  Mayer bond orders larger than 0.100000
B(  0-C ,  1-C ) :   0.9857 B(  0-C , 20-H ) :   0.9763 B(  0-C , 21-H ) :   0.9791
B(  0-C , 22-H ) :   0.9785 B(  1-C ,  2-O ) :   0.8797 B(  1-C , 23-H ) :   0.9762
B(  1-C , 24-H ) :   0.9640 B(  2-O ,  3-C ) :   1.1215 B(  3-C ,  4-O ) :   2.0823
B(  3-C ,  5-C ) :   1.0242 B(  5-C ,  6-C ) :   1.6313 B(  5-C , 12-C ) :   0.9629
B(  6-C ,  7-C ) :   0.9640 B(  6-C ,  8-N ) :   1.1511 B(  7-C , 25-H ) :   0.9690
B(  7-C , 26-H ) :   0.9540 B(  7-C , 27-H ) :   0.9871 B(  8-N ,  9-C ) :   1.1875
B(  8-N , 28-H ) :   0.9474 B(  9-C , 10-S ) :   1.6134 B(  9-C , 11-N ) :   1.3017
B( 11-N , 12-C ) :   0.9734 B( 11-N , 29-H ) :   0.9484 B( 12-C , 13-C ) :   0.9590
B( 12-C , 30-H ) :   1.0062 B( 13-C , 14-C ) :   1.3617 B( 13-C , 19-C ) :   1.3735
B( 14-C , 15-C ) :   1.3928 B( 14-C , 31-H ) :   0.9703 B( 15-C , 16-C ) :   1.3592
B( 15-C , 32-H ) :   0.9699 B( 16-C , 17-C ) :   1.3306 B( 16-C , 33-H ) :   0.9837
B( 17-C , 18-O ) :   1.1084 B( 17-C , 19-C ) :   1.3662 B( 18-O , 34-H ) :   0.9787
B( 19-C , 35-H ) :   0.9596

MP2 TOTAL ENERGY:    -1274.323578831 Eh
FINAL SINGLE POINT ENERGY     -1274.323578830636

DIPOLE MOMENT
-------------
                                X             Y             Z
Electronic contribution:      9.98308      10.41143       6.77608
Nuclear contribution   :    -11.27033     -11.89465      -6.45874
                        -----------------------------------------
Total Dipole Moment    :     -1.28725      -1.48322       0.31735
                        -----------------------------------------
Magnitude (a.u.)       :      1.98939
Magnitude (Debye)      :      5.05662

Rotational constants in cm-1:     0.012178     0.008695     0.005942
Rotational constants in MHz :   365.093942   260.679064   178.133059

                             ****ORCA TERMINATED NORMALLY****
TOTAL RUN TIME: 0 days 1 hours 47 minutes 48 seconds 173 msec
