                         Program Version 4.2.0 -  RELEASE  -
|  1> ! ri-mp2 cc-pvtz cc-pvtz/c TightSCF NoKeepInts
|  2>
|  3> %scf
|  4>   MaxCore 4096
|  5> end
|  6> *xyz  0  1
|  7>     C       14.8105231   14.5990021   14.8867485
|  8>     C       14.8936538   15.9629954   14.1649661
|  9>     O       15.7360426   16.9521864   14.8114817
| 10>     C       16.7142396   16.7046744   15.7377801
| 11>     O       17.3003056   15.6396822   15.8303409
| 12>     C       16.9950544   17.8501891   16.6716229
| 13>     C       16.8141922   19.1535040   16.3267406
| 14>     C       16.1128504   19.7103812   15.1030130
| 15>     N       17.3377561   20.1795786   17.1179421
| 16>     C       18.2304019   19.9944579   18.1385897
| 17>     S       18.8917789   21.2677261   18.9614246
| 18>     N       18.5639842   18.6961666   18.4280401
| 19>     C       17.9325542   17.5012573   17.8356108
| 20>     C       17.2962782   16.5843424   18.8722767
| 21>     C       17.6590133   15.2275583   18.9489507
| 22>     C       17.0709911   14.3833479   19.9057516
| 23>     C       16.1130323   14.9008900   20.7944633
| 24>     C       15.7483090   16.2522331   20.7189197
| 25>     O       14.8204915   16.7534555   21.5729108
| 26>     C       16.3348880   17.0897899   19.7647960
| 27>     H       15.7334879   14.0205526   14.7562806
| 28>     H       13.9906219   14.0012278   14.4709669
| 29>     H       14.6226239   14.7295053   15.9600392
| 30>     H       15.2691615   15.7878238   13.1484261
| 31>     H       13.8820461   16.3776756   14.0685613
| 32>     H       15.0520121   19.4306801   15.1033202
| 33>     H       16.5673158   19.3219739   14.1829679
| 34>     H       16.1597365   20.8046962   15.0454752
| 35>     H       17.1194435   21.1393405   16.9036515
| 36>     H       19.2075683   18.5847541   19.2012596
| 37>     H       18.8107973   17.0207990   17.3801698
| 38>     H       18.3884710   14.8235271   18.2508322
| 39>     H       17.3548648   13.3335078   19.9509707
| 40>     H       15.6553995   14.2521214   21.5337591
| 41>     H       14.5550140   16.0348567   22.1660965
| 42>     H       16.0420956   18.1335397   19.7228536
| 43> *
| 44>
| 45>                          ****END OF INPUT****

CARTESIAN COORDINATES (ANGSTROEM)
---------------------------------
  C     14.810523   14.599002   14.886748
  C     14.893654   15.962995   14.164966
  O     15.736043   16.952186   14.811482
  C     16.714240   16.704674   15.737780
  O     17.300306   15.639682   15.830341
  C     16.995054   17.850189   16.671623
  C     16.814192   19.153504   16.326741
  C     16.112850   19.710381   15.103013
  N     17.337756   20.179579   17.117942
  C     18.230402   19.994458   18.138590
  S     18.891779   21.267726   18.961425
  N     18.563984   18.696167   18.428040
  C     17.932554   17.501257   17.835611
  C     17.296278   16.584342   18.872277
  C     17.659013   15.227558   18.948951
  C     17.070991   14.383348   19.905752
  C     16.113032   14.900890   20.794463
  C     15.748309   16.252233   20.718920
  O     14.820491   16.753456   21.572911
  C     16.334888   17.089790   19.764796
  H     15.733488   14.020553   14.756281
  H     13.990622   14.001228   14.470967
  H     14.622624   14.729505   15.960039
  H     15.269161   15.787824   13.148426
  H     13.882046   16.377676   14.068561
  H     15.052012   19.430680   15.103320
  H     16.567316   19.321974   14.182968
  H     16.159737   20.804696   15.045475
  H     17.119443   21.139340   16.903651
  H     19.207568   18.584754   19.201260
  H     18.810797   17.020799   17.380170
  H     18.388471   14.823527   18.250832
  H     17.354865   13.333508   19.950971
  H     15.655399   14.252121   21.533759
  H     14.555014   16.034857   22.166096
  H     16.042096   18.133540   19.722854

 Total Charge           Charge          ....    0
 Multiplicity           Mult            ....    1
 Number of Electrons    NEL             ....  154
 Basis Dimension        Dim             ....  828

ORBITAL ENERGIES
----------------

  NO   OCC          E(Eh)            E(eV)
   0   2.0000     -91.887091     -2500.3749
   1   2.0000     -20.598857      -560.5234
   2   2.0000     -20.591708      -560.3289
   3   2.0000     -20.544483      -559.0438
   4   2.0000     -15.627250      -425.2391
   5   2.0000     -15.604868      -424.6300
   6   2.0000     -11.397916      -310.1531
   7   2.0000     -11.381556      -309.7079
   8   2.0000     -11.336570      -308.4838
   9   2.0000     -11.307708      -307.6984
  10   2.0000     -11.306747      -307.6722
  11   2.0000     -11.303295      -307.5783
  12   2.0000     -11.260059      -306.4018
  13   2.0000     -11.257732      -306.3385
  14   2.0000     -11.254799      -306.2586
  15   2.0000     -11.247823      -306.0688
  16   2.0000     -11.238004      -305.8016
  17   2.0000     -11.234000      -305.6927
  18   2.0000     -11.230743      -305.6041
  19   2.0000     -11.226126      -305.4784
  20   2.0000      -8.892185      -241.9687
  21   2.0000      -6.573766      -178.8813
  22   2.0000      -6.571760      -178.8267
  23   2.0000      -6.571175      -178.8108
  24   2.0000      -1.446329       -39.3566
  25   2.0000      -1.411459       -38.4078
  26   2.0000      -1.356096       -36.9013
  27   2.0000      -1.338796       -36.4305
  28   2.0000      -1.236096       -33.6359
  29   2.0000      -1.152039       -31.3486
  30   2.0000      -1.119342       -30.4589
  31   2.0000      -1.042074       -28.3563
  32   2.0000      -1.033919       -28.1344
  33   2.0000      -1.009661       -27.4743
  34   2.0000      -0.997723       -27.1494
  35   2.0000      -0.982500       -26.7352
  36   2.0000      -0.920509       -25.0483
  37   2.0000      -0.897495       -24.4221
  38   2.0000      -0.847231       -23.0543
  39   2.0000      -0.834912       -22.7191
  40   2.0000      -0.827940       -22.5294
  41   2.0000      -0.817164       -22.2362
  42   2.0000      -0.743232       -20.2244
  43   2.0000      -0.729131       -19.8407
  44   2.0000      -0.725042       -19.7294
  45   2.0000      -0.689199       -18.7541
  46   2.0000      -0.684226       -18.6187
  47   2.0000      -0.677482       -18.4352
  48   2.0000      -0.671652       -18.2766
  49   2.0000      -0.662630       -18.0311
  50   2.0000      -0.648626       -17.6500
  51   2.0000      -0.642892       -17.4940
  52   2.0000      -0.631291       -17.1783
  53   2.0000      -0.614529       -16.7222
  54   2.0000      -0.602614       -16.3980
  55   2.0000      -0.597869       -16.2688
  56   2.0000      -0.595033       -16.1917
  57   2.0000      -0.575477       -15.6595
  58   2.0000      -0.573322       -15.6009
  59   2.0000      -0.566142       -15.4055
  60   2.0000      -0.556917       -15.1545
  61   2.0000      -0.544102       -14.8058
  62   2.0000      -0.538136       -14.6434
  63   2.0000      -0.524792       -14.2803
  64   2.0000      -0.514828       -14.0092
  65   2.0000      -0.510428       -13.8895
  66   2.0000      -0.499919       -13.6035
  67   2.0000      -0.493574       -13.4308
  68   2.0000      -0.479200       -13.0397
  69   2.0000      -0.463551       -12.6139
  70   2.0000      -0.454378       -12.3643
  71   2.0000      -0.447341       -12.1728
  72   2.0000      -0.351862        -9.5746
  73   2.0000      -0.344354        -9.3704
  74   2.0000      -0.326259        -8.8780
  75   2.0000      -0.316258        -8.6058
  76   2.0000      -0.314327        -8.5533
  77   0.0000       0.078245         2.1292
  78   0.0000       0.111627         3.0375
  79   0.0000       0.122047         3.3211
  80   0.0000       0.135869         3.6972
  81   0.0000       0.139919         3.8074

MULLIKEN ATOMIC CHARGES
-----------------------
   0 C :   -0.302363
   1 C :    0.053340
   2 O :   -0.357415
   3 C :    0.426706
   4 O :   -0.419651
   5 C :   -0.171858
   6 C :    0.158609
   7 C :   -0.280545
   8 N :   -0.128912
   9 C :    0.207648
  10 S :   -0.444035
  11 N :   -0.211281
  12 C :    0.044611
  13 C :    0.031359
  14 C :   -0.171623
  15 C :   -0.134412
  16 C :   -0.277648
  17 C :    0.314532
  18 O :   -0.358911
  19 C :   -0.252395
  20 H :    0.124254
  21 H :    0.097099
  22 H :    0.104100
  23 H :    0.091234
  24 H :    0.095272
  25 H :    0.127974
  26 H :    0.125651
  27 H :    0.101743
  28 H :    0.198586
  29 H :    0.199848
  30 H :    0.156322
  31 H :    0.160014
  32 H :    0.160052
  33 H :    0.128330
  34 H :    0.239856
  35 H :    0.163908
Sum of atomic charges:    0.0000000

LOEWDIN ATOMIC CHARGES
----------------------
   0 C :    0.104449
   1 C :   -0.008340
   2 O :    0.292963
   3 C :   -0.414575
   4 O :    0.112639
   5 C :   -0.091407
   6 C :   -0.064712
   7 C :    0.124511
   8 N :    0.405144
   9 C :   -0.458836
  10 S :   -0.038941
  11 N :    0.396535
  12 C :   -0.048335
  13 C :   -0.040674
  14 C :    0.024416
  15 C :    0.040377
  16 C :   -0.001500
  17 C :   -0.192660
  18 O :    0.393104
  19 C :    0.029629
  20 H :   -0.024180
  21 H :   -0.027110
  22 H :   -0.025057
  23 H :   -0.029377
  24 H :   -0.026718
  25 H :   -0.009732
  26 H :   -0.009206
  27 H :   -0.021601
  28 H :   -0.059008
  29 H :   -0.063241
  30 H :   -0.008585
  31 H :   -0.023963
  32 H :   -0.021132
  33 H :   -0.036224
  34 H :   -0.154927
  35 H :   -0.023727

  Mayer bond orders larger than 0.100000
B(  0-C ,  1-C ) :   0.9704 B(  0-C , 20-H ) :   0.9720 B(  0-C , 21-H ) :   0.9739
B(  0-C , 22-H ) :   0.9742 B(  1-C ,  2-O ) :   0.9038 B(  1-C , 23-H ) :   0.9801
B(  1-C , 24-H ) :   0.9805 B(  2-O ,  3-C ) :   1.1365 B(  3-C ,  4-O ) :   1.9857
B(  3-C ,  5-C ) :   1.0310 B(  5-C ,  6-C ) :   1.6614 B(  5-C , 12-C ) :   0.9490
B(  6-C ,  7-C ) :   0.9538 B(  6-C ,  8-N ) :   1.1351 B(  7-C , 25-H ) :   0.9641
B(  7-C , 26-H ) :   0.9651 B(  7-C , 27-H ) :   0.9917 B(  8-N ,  9-C ) :   1.1866
B(  8-N , 28-H ) :   0.9471 B(  9-C , 10-S ) :   1.6065 B(  9-C , 11-N ) :   1.3064
B( 11-N , 12-C ) :   0.9765 B( 11-N , 29-H ) :   0.9486 B( 12-C , 13-C ) :   0.9719
B( 12-C , 30-H ) :   0.9974 B( 13-C , 14-C ) :   1.3759 B( 13-C , 19-C ) :   1.3662
B( 14-C , 15-C ) :   1.3970 B( 14-C , 31-H ) :   0.9634 B( 15-C , 16-C ) :   1.3586
B( 15-C , 32-H ) :   0.9712 B( 16-C , 17-C ) :   1.3333 B( 16-C , 33-H ) :   0.9859
B( 17-C , 18-O ) :   1.1036 B( 17-C , 19-C ) :   1.3670 B( 18-O , 34-H ) :   0.9807
B( 19-C , 35-H ) :   0.9599

MP2 TOTAL ENERGY:    -1274.331368069 Eh
FINAL SINGLE POINT ENERGY     -1274.331368068679

DIPOLE MOMENT
-------------
                                X             Y             Z
Electronic contribution:      9.23913      10.46513      10.47253
Nuclear contribution   :    -10.78032     -11.74710     -11.61269
                        -----------------------------------------
Total Dipole Moment    :     -1.54119      -1.28197      -1.14016
                        -----------------------------------------
Magnitude (a.u.)       :      2.30623
Magnitude (Debye)      :      5.86197

Rotational constants in cm-1:     0.010117     0.009205     0.005651
Rotational constants in MHz :   303.287771   275.945390   169.418629

                             ****ORCA TERMINATED NORMALLY****
TOTAL RUN TIME: 0 days 1 hours 51 minutes 59 seconds 449 msec
