                         Program Version 4.2.0 -  RELEASE  -
|  1> ! ri-mp2 cc-pvtz cc-pvtz/c TightSCF NoKeepInts
|  2>
|  3> %scf
|  4>   MaxCore 4096
|  5> end
|  6> *xyz  0  1
|  7>     C       13.6836439   15.9130283   14.2427896
|  8>     C       15.0912555   15.4646799   14.6702186
|  9>     O       15.8729931   16.6494221   14.8871123
| 10>     C       16.9217433   16.5691599   15.7529247
| 11>     O       17.5983375   15.5587675   15.8484091
| 12>     C       17.0570167   17.7327684   16.6936611
| 13>     C       16.6959163   18.9982647   16.3524793
| 14>     C       15.9099064   19.4476374   15.1362517
| 15>     N       17.0872175   20.0868850   17.1361462
| 16>     C       18.0147104   20.0249192   18.1408186
| 17>     S       18.5116844   21.3763845   18.9544615
| 18>     N       18.5273175   18.7839586   18.4217164
| 19>     C       18.0525790   17.5135000   17.8399195
| 20>     C       17.5657243   16.5194271   18.8860873
| 21>     C       18.1167398   15.2274351   18.9595463
| 22>     C       17.6671981   14.3126536   19.9265461
| 23>     C       16.6589569   14.6937886   20.8285327
| 24>     C       16.1067846   15.9801398   20.7561374
| 25>     O       15.1301870   16.3493018   21.6229077
| 26>     C       16.5559001   16.8881704   19.7919236
| 27>     H       13.2201581   16.5300176   15.0226169
| 28>     H       13.0403487   15.0422721   14.0665959
| 29>     H       13.7293152   16.4991957   13.3165248
| 30>     H       15.0131775   14.8795140   15.5973395
| 31>     H       15.5548706   14.8354135   13.8988521
| 32>     H       16.3917174   19.1052430   14.2117492
| 33>     H       15.8205044   20.5384903   15.0654117
| 34>     H       14.8922857   19.0381371   15.1590851
| 35>     H       16.7368766   21.0079183   16.9267554
| 36>     H       19.1937103   18.7620336   19.1833266
| 37>     H       18.9791773   17.1561029   17.3674294
| 38>     H       18.8857785   14.9272926   18.2516111
| 39>     H       18.0966202   13.3133508   19.9696043
| 40>     H       16.3079610   13.9899710   21.5757842
| 41>     H       14.9794226   15.6042260   22.2236888
| 42>     H       16.1192634   17.8805298   19.7530352
| 43> *
| 44>
| 45>                          ****END OF INPUT****

CARTESIAN COORDINATES (ANGSTROEM)
---------------------------------
  C     13.683644   15.913028   14.242790
  C     15.091256   15.464680   14.670219
  O     15.872993   16.649422   14.887112
  C     16.921743   16.569160   15.752925
  O     17.598337   15.558767   15.848409
  C     17.057017   17.732768   16.693661
  C     16.695916   18.998265   16.352479
  C     15.909906   19.447637   15.136252
  N     17.087218   20.086885   17.136146
  C     18.014710   20.024919   18.140819
  S     18.511684   21.376384   18.954462
  N     18.527317   18.783959   18.421716
  C     18.052579   17.513500   17.839920
  C     17.565724   16.519427   18.886087
  C     18.116740   15.227435   18.959546
  C     17.667198   14.312654   19.926546
  C     16.658957   14.693789   20.828533
  C     16.106785   15.980140   20.756137
  O     15.130187   16.349302   21.622908
  C     16.555900   16.888170   19.791924
  H     13.220158   16.530018   15.022617
  H     13.040349   15.042272   14.066596
  H     13.729315   16.499196   13.316525
  H     15.013177   14.879514   15.597339
  H     15.554871   14.835413   13.898852
  H     16.391717   19.105243   14.211749
  H     15.820504   20.538490   15.065412
  H     14.892286   19.038137   15.159085
  H     16.736877   21.007918   16.926755
  H     19.193710   18.762034   19.183327
  H     18.979177   17.156103   17.367429
  H     18.885779   14.927293   18.251611
  H     18.096620   13.313351   19.969604
  H     16.307961   13.989971   21.575784
  H     14.979423   15.604226   22.223689
  H     16.119263   17.880530   19.753035

 Total Charge           Charge          ....    0
 Multiplicity           Mult            ....    1
 Number of Electrons    NEL             ....  154
 Basis Dimension        Dim             ....  828

ORBITAL ENERGIES
----------------

  NO   OCC          E(Eh)            E(eV)
   0   2.0000     -91.888395     -2500.4103
   1   2.0000     -20.598137      -560.5038
   2   2.0000     -20.592306      -560.3451
   3   2.0000     -20.547015      -559.1127
   4   2.0000     -15.629113      -425.2898
   5   2.0000     -15.605990      -424.6606
   6   2.0000     -11.394139      -310.0503
   7   2.0000     -11.382964      -309.7462
   8   2.0000     -11.338629      -308.5398
   9   2.0000     -11.308274      -307.7138
  10   2.0000     -11.304471      -307.6103
  11   2.0000     -11.300867      -307.5122
  12   2.0000     -11.260661      -306.4182
  13   2.0000     -11.259461      -306.3855
  14   2.0000     -11.255476      -306.2771
  15   2.0000     -11.248267      -306.0809
  16   2.0000     -11.238512      -305.8154
  17   2.0000     -11.235552      -305.7349
  18   2.0000     -11.234673      -305.7110
  19   2.0000     -11.231323      -305.6198
  20   2.0000      -8.893475      -242.0038
  21   2.0000      -6.575051      -178.9162
  22   2.0000      -6.573049      -178.8618
  23   2.0000      -6.572460      -178.8457
  24   2.0000      -1.455076       -39.5946
  25   2.0000      -1.412055       -38.4240
  26   2.0000      -1.357233       -36.9322
  27   2.0000      -1.340275       -36.4707
  28   2.0000      -1.237371       -33.6706
  29   2.0000      -1.152853       -31.3707
  30   2.0000      -1.121170       -30.5086
  31   2.0000      -1.044924       -28.4338
  32   2.0000      -1.037180       -28.2231
  33   2.0000      -1.010395       -27.4942
  34   2.0000      -0.999301       -27.1924
  35   2.0000      -0.984495       -26.7895
  36   2.0000      -0.921010       -25.0620
  37   2.0000      -0.887538       -24.1511
  38   2.0000      -0.847422       -23.0595
  39   2.0000      -0.835451       -22.7338
  40   2.0000      -0.828505       -22.5448
  41   2.0000      -0.820611       -22.3300
  42   2.0000      -0.761979       -20.7345
  43   2.0000      -0.736252       -20.0344
  44   2.0000      -0.726539       -19.7701
  45   2.0000      -0.690677       -18.7943
  46   2.0000      -0.683485       -18.5986
  47   2.0000      -0.682670       -18.5764
  48   2.0000      -0.676093       -18.3974
  49   2.0000      -0.658965       -17.9313
  50   2.0000      -0.650582       -17.7032
  51   2.0000      -0.641810       -17.4645
  52   2.0000      -0.633765       -17.2456
  53   2.0000      -0.603872       -16.4322
  54   2.0000      -0.601542       -16.3688
  55   2.0000      -0.598906       -16.2971
  56   2.0000      -0.595651       -16.2085
  57   2.0000      -0.576350       -15.6833
  58   2.0000      -0.573531       -15.6066
  59   2.0000      -0.565699       -15.3934
  60   2.0000      -0.560572       -15.2539
  61   2.0000      -0.555447       -15.1145
  62   2.0000      -0.543831       -14.7984
  63   2.0000      -0.517606       -14.0848
  64   2.0000      -0.516499       -14.0547
  65   2.0000      -0.511911       -13.9298
  66   2.0000      -0.505733       -13.7617
  67   2.0000      -0.494635       -13.4597
  68   2.0000      -0.480791       -13.0830
  69   2.0000      -0.463843       -12.6218
  70   2.0000      -0.460226       -12.5234
  71   2.0000      -0.453742       -12.3470
  72   2.0000      -0.353422        -9.6171
  73   2.0000      -0.345013        -9.3883
  74   2.0000      -0.327444        -8.9102
  75   2.0000      -0.317540        -8.6407
  76   2.0000      -0.314892        -8.5686
  77   0.0000       0.075442         2.0529
  78   0.0000       0.110756         3.0138
  79   0.0000       0.120458         3.2778
  80   0.0000       0.135357         3.6833
  81   0.0000       0.138255         3.7621

MULLIKEN ATOMIC CHARGES
-----------------------
   0 C :   -0.279661
   1 C :    0.048792
   2 O :   -0.346041
   3 C :    0.417348
   4 O :   -0.410081
   5 C :   -0.175698
   6 C :    0.155269
   7 C :   -0.283052
   8 N :   -0.128342
   9 C :    0.207305
  10 S :   -0.441797
  11 N :   -0.210628
  12 C :    0.042462
  13 C :    0.032205
  14 C :   -0.167906
  15 C :   -0.134530
  16 C :   -0.277457
  17 C :    0.313721
  18 O :   -0.359140
  19 C :   -0.252346
  20 H :    0.095222
  21 H :    0.103557
  22 H :    0.096655
  23 H :    0.088560
  24 H :    0.100955
  25 H :    0.127324
  26 H :    0.104137
  27 H :    0.127206
  28 H :    0.198892
  29 H :    0.199955
  30 H :    0.155535
  31 H :    0.159265
  32 H :    0.160332
  33 H :    0.128437
  34 H :    0.240032
  35 H :    0.163514
Sum of atomic charges:   -0.0000000

LOEWDIN ATOMIC CHARGES
----------------------
   0 C :    0.106526
   1 C :   -0.017549
   2 O :    0.303738
   3 C :   -0.418895
   4 O :    0.110280
   5 C :   -0.093835
   6 C :   -0.064399
   7 C :    0.125550
   8 N :    0.405602
   9 C :   -0.458494
  10 S :   -0.037192
  11 N :    0.396360
  12 C :   -0.048284
  13 C :   -0.040749
  14 C :    0.025080
  15 C :    0.041021
  16 C :   -0.001300
  17 C :   -0.192824
  18 O :    0.392971
  19 C :    0.029142
  20 H :   -0.027943
  21 H :   -0.022842
  22 H :   -0.027771
  23 H :   -0.026593
  24 H :   -0.028518
  25 H :   -0.008678
  26 H :   -0.021015
  27 H :   -0.010053
  28 H :   -0.058619
  29 H :   -0.063152
  30 H :   -0.007977
  31 H :   -0.023774
  32 H :   -0.020915
  33 H :   -0.036132
  34 H :   -0.154807
  35 H :   -0.023960

  Mayer bond orders larger than 0.100000
B(  0-C ,  1-C ) :   0.9709 B(  0-C , 20-H ) :   0.9772 B(  0-C , 21-H ) :   0.9786
B(  0-C , 22-H ) :   0.9771 B(  1-C ,  2-O ) :   0.9088 B(  1-C , 23-H ) :   0.9726
B(  1-C , 24-H ) :   0.9817 B(  2-O ,  3-C ) :   1.1195 B(  3-C ,  4-O ) :   2.0104
B(  3-C ,  5-C ) :   1.0347 B(  5-C ,  6-C ) :   1.6560 B(  5-C , 12-C ) :   0.9496
B(  6-C ,  7-C ) :   0.9545 B(  6-C ,  8-N ) :   1.1357 B(  7-C , 25-H ) :   0.9649
B(  7-C , 26-H ) :   0.9911 B(  7-C , 27-H ) :   0.9637 B(  8-N ,  9-C ) :   1.1849
B(  8-N , 28-H ) :   0.9468 B(  9-C , 10-S ) :   1.6089 B(  9-C , 11-N ) :   1.3062
B( 11-N , 12-C ) :   0.9765 B( 11-N , 29-H ) :   0.9485 B( 12-C , 13-C ) :   0.9725
B( 12-C , 30-H ) :   0.9967 B( 13-C , 14-C ) :   1.3767 B( 13-C , 19-C ) :   1.3647
B( 14-C , 15-C ) :   1.3975 B( 14-C , 31-H ) :   0.9636 B( 15-C , 16-C ) :   1.3586
B( 15-C , 32-H ) :   0.9711 B( 16-C , 17-C ) :   1.3333 B( 16-C , 33-H ) :   0.9859
B( 17-C , 18-O ) :   1.1036 B( 17-C , 19-C ) :   1.3676 B( 18-O , 34-H ) :   0.9806
B( 19-C , 35-H ) :   0.9603

MP2 TOTAL ENERGY:    -1274.336334791 Eh
FINAL SINGLE POINT ENERGY     -1274.336334791212

DIPOLE MOMENT
-------------
                                X             Y             Z
Electronic contribution:     11.24061       8.39806      11.07888
Nuclear contribution   :    -12.67137      -9.73677     -12.01920
                        -----------------------------------------
Total Dipole Moment    :     -1.43076      -1.33871      -0.94032
                        -----------------------------------------
Magnitude (a.u.)       :      2.17334
Magnitude (Debye)      :      5.52419

Rotational constants in cm-1:     0.009589     0.009241     0.005696
Rotational constants in MHz :   287.477035   277.023955   170.764840

                             ****ORCA TERMINATED NORMALLY****
TOTAL RUN TIME: 0 days 1 hours 39 minutes 0 seconds 875 msec
