                         Program Version 4.2.0 -  RELEASE  -
|  1> ! ri-mp2 cc-pvtz cc-pvtz/c TightSCF NoKeepInts
|  2>
|  3> %scf
|  4>   MaxCore 4096
|  5> end
|  6> *xyz  0  1
|  7>     C       15.3132344   14.4514665   14.2249550
|  8>     C       14.9803902   15.2088145   15.5214795
|  9>     O       16.0601677   16.1228231   15.7795231
| 10>     C       15.8321665   17.4686604   15.7283030
| 11>     O       14.9808881   17.9523125   15.0016101
| 12>     C       16.6689565   18.2365048   16.7162091
| 13>     C       16.7754686   19.5877127   16.6343161
| 14>     C       15.9362972   20.5228000   15.7881467
| 15>     N       17.7455114   20.2787814   17.3639845
| 16>     C       18.7679155   19.6825578   18.0512169
| 17>     S       19.9400057   20.5636434   18.8164524
| 18>     N       18.7829124   18.3107670   18.0548997
| 19>     C       17.7291288   17.4417658   17.4976032
| 20>     C       17.1511605   16.4839484   18.5315256
| 21>     C       17.4115862   15.1032809   18.4543133
| 22>     C       16.8754453   14.2216310   19.4079485
| 23>     C       16.0759065   14.7257075   20.4482456
| 24>     C       15.8190888   16.1014826   20.5294837
| 25>     O       15.0484060   16.5907979   21.5332584
| 26>     C       16.3533896   16.9762414   19.5782501
| 27>     H       15.3805796   15.1487167   13.3801709
| 28>     H       14.5336162   13.7140061   13.9989434
| 29>     H       16.2707404   13.9243090   14.3177805
| 30>     H       14.0158284   15.7260398   15.4244289
| 31>     H       14.9012321   14.4944320   16.3512546
| 32>     H       14.8677506   20.3662112   15.9841805
| 33>     H       16.1045292   20.3342750   14.7201449
| 34>     H       16.1503439   21.5816356   15.9752854
| 35>     H       17.7588022   21.2860844   17.3507639
| 36>     H       19.5317528   17.8993359   18.5974958
| 37>     H       18.3078233   16.8926802   16.7412043
| 38>     H       18.0250825   14.7125563   17.6467195
| 39>     H       17.0803983   13.1546448   19.3396446
| 40>     H       15.6603609   14.0490825   21.1877388
| 41>     H       14.8009355   15.8456022   22.1009770
| 42>     H       16.1491982   18.0386886   19.6595425
| 43> *
| 44>
| 45>                          ****END OF INPUT****

CARTESIAN COORDINATES (ANGSTROEM)
---------------------------------
  C     15.313234   14.451467   14.224955
  C     14.980390   15.208815   15.521479
  O     16.060168   16.122823   15.779523
  C     15.832166   17.468660   15.728303
  O     14.980888   17.952312   15.001610
  C     16.668957   18.236505   16.716209
  C     16.775469   19.587713   16.634316
  C     15.936297   20.522800   15.788147
  N     17.745511   20.278781   17.363985
  C     18.767916   19.682558   18.051217
  S     19.940006   20.563643   18.816452
  N     18.782912   18.310767   18.054900
  C     17.729129   17.441766   17.497603
  C     17.151160   16.483948   18.531526
  C     17.411586   15.103281   18.454313
  C     16.875445   14.221631   19.407948
  C     16.075906   14.725707   20.448246
  C     15.819089   16.101483   20.529484
  O     15.048406   16.590798   21.533258
  C     16.353390   16.976241   19.578250
  H     15.380580   15.148717   13.380171
  H     14.533616   13.714006   13.998943
  H     16.270740   13.924309   14.317780
  H     14.015828   15.726040   15.424429
  H     14.901232   14.494432   16.351255
  H     14.867751   20.366211   15.984180
  H     16.104529   20.334275   14.720145
  H     16.150344   21.581636   15.975285
  H     17.758802   21.286084   17.350764
  H     19.531753   17.899336   18.597496
  H     18.307823   16.892680   16.741204
  H     18.025082   14.712556   17.646719
  H     17.080398   13.154645   19.339645
  H     15.660361   14.049083   21.187739
  H     14.800935   15.845602   22.100977
  H     16.149198   18.038689   19.659542

 Total Charge           Charge          ....    0
 Multiplicity           Mult            ....    1
 Number of Electrons    NEL             ....  154
 Basis Dimension        Dim             ....  828

ORBITAL ENERGIES
----------------

  NO   OCC          E(Eh)            E(eV)
   0   2.0000     -91.889323     -2500.4356
   1   2.0000     -20.597160      -560.4772
   2   2.0000     -20.596684      -560.4643
   3   2.0000     -20.542356      -558.9859
   4   2.0000     -15.629744      -425.3070
   5   2.0000     -15.607417      -424.6994
   6   2.0000     -11.394734      -310.0665
   7   2.0000     -11.383972      -309.7736
   8   2.0000     -11.337836      -308.5182
   9   2.0000     -11.314458      -307.8821
  10   2.0000     -11.307953      -307.7050
  11   2.0000     -11.295374      -307.3628
  12   2.0000     -11.261512      -306.4413
  13   2.0000     -11.258879      -306.3697
  14   2.0000     -11.255954      -306.2901
  15   2.0000     -11.252059      -306.1841
  16   2.0000     -11.244333      -305.9738
  17   2.0000     -11.239663      -305.8468
  18   2.0000     -11.239418      -305.8401
  19   2.0000     -11.225370      -305.4578
  20   2.0000      -8.894388      -242.0286
  21   2.0000      -6.575958      -178.9409
  22   2.0000      -6.573962      -178.8866
  23   2.0000      -6.573370      -178.8705
  24   2.0000      -1.450763       -39.4773
  25   2.0000      -1.416826       -38.5538
  26   2.0000      -1.354243       -36.8508
  27   2.0000      -1.340801       -36.4851
  28   2.0000      -1.238666       -33.7058
  29   2.0000      -1.158263       -31.5179
  30   2.0000      -1.121507       -30.5177
  31   2.0000      -1.043469       -28.3942
  32   2.0000      -1.037592       -28.2343
  33   2.0000      -1.015744       -27.6398
  34   2.0000      -0.996416       -27.1139
  35   2.0000      -0.984874       -26.7998
  36   2.0000      -0.922293       -25.0969
  37   2.0000      -0.887947       -24.1623
  38   2.0000      -0.846986       -23.0476
  39   2.0000      -0.838604       -22.8196
  40   2.0000      -0.834891       -22.7185
  41   2.0000      -0.820028       -22.3141
  42   2.0000      -0.762373       -20.7452
  43   2.0000      -0.734160       -19.9775
  44   2.0000      -0.722846       -19.6696
  45   2.0000      -0.695902       -18.9365
  46   2.0000      -0.688597       -18.7377
  47   2.0000      -0.679530       -18.4909
  48   2.0000      -0.672414       -18.2973
  49   2.0000      -0.652253       -17.7487
  50   2.0000      -0.648071       -17.6349
  51   2.0000      -0.640860       -17.4387
  52   2.0000      -0.627573       -17.0771
  53   2.0000      -0.616410       -16.7734
  54   2.0000      -0.607308       -16.5257
  55   2.0000      -0.600605       -16.3433
  56   2.0000      -0.599602       -16.3160
  57   2.0000      -0.578640       -15.7456
  58   2.0000      -0.570935       -15.5359
  59   2.0000      -0.568159       -15.4604
  60   2.0000      -0.563886       -15.3441
  61   2.0000      -0.541612       -14.7380
  62   2.0000      -0.533982       -14.5304
  63   2.0000      -0.525475       -14.2989
  64   2.0000      -0.524603       -14.2752
  65   2.0000      -0.513652       -13.9772
  66   2.0000      -0.501021       -13.6335
  67   2.0000      -0.496642       -13.5143
  68   2.0000      -0.486572       -13.2403
  69   2.0000      -0.463861       -12.6223
  70   2.0000      -0.453674       -12.3451
  71   2.0000      -0.448663       -12.2087
  72   2.0000      -0.353385        -9.6161
  73   2.0000      -0.350450        -9.5362
  74   2.0000      -0.328468        -8.9381
  75   2.0000      -0.321945        -8.7606
  76   2.0000      -0.318520        -8.6674
  77   0.0000       0.075502         2.0545
  78   0.0000       0.104227         2.8362
  79   0.0000       0.124486         3.3874
  80   0.0000       0.132180         3.5968
  81   0.0000       0.135710         3.6928

MULLIKEN ATOMIC CHARGES
-----------------------
   0 C :   -0.267922
   1 C :    0.026316
   2 O :   -0.356436
   3 C :    0.441536
   4 O :   -0.432031
   5 C :   -0.231126
   6 C :    0.174997
   7 C :   -0.267681
   8 N :   -0.126271
   9 C :    0.209731
  10 S :   -0.441012
  11 N :   -0.215437
  12 C :    0.063300
  13 C :    0.043427
  14 C :   -0.188242
  15 C :   -0.133014
  16 C :   -0.277368
  17 C :    0.316619
  18 O :   -0.356559
  19 C :   -0.248358
  20 H :    0.103808
  21 H :    0.089523
  22 H :    0.090363
  23 H :    0.108357
  24 H :    0.110719
  25 H :    0.133642
  26 H :    0.129307
  27 H :    0.094717
  28 H :    0.199964
  29 H :    0.200529
  30 H :    0.153340
  31 H :    0.154873
  32 H :    0.162120
  33 H :    0.130632
  34 H :    0.240623
  35 H :    0.163012
Sum of atomic charges:   -0.0000000

LOEWDIN ATOMIC CHARGES
----------------------
   0 C :    0.104841
   1 C :   -0.015191
   2 O :    0.309520
   3 C :   -0.416400
   4 O :    0.096888
   5 C :   -0.096531
   6 C :   -0.055701
   7 C :    0.131451
   8 N :    0.407330
   9 C :   -0.456538
  10 S :   -0.035840
  11 N :    0.394632
  12 C :   -0.054643
  13 C :   -0.039554
  14 C :    0.017335
  15 C :    0.038245
  16 C :   -0.001057
  17 C :   -0.189671
  18 O :    0.395165
  19 C :    0.033083
  20 H :   -0.024102
  21 H :   -0.027482
  22 H :   -0.029700
  23 H :   -0.027788
  24 H :   -0.029011
  25 H :   -0.004215
  26 H :   -0.004849
  27 H :   -0.023577
  28 H :   -0.057081
  29 H :   -0.064311
  30 H :   -0.013318
  31 H :   -0.028870
  32 H :   -0.021274
  33 H :   -0.035347
  34 H :   -0.153856
  35 H :   -0.022582

  Mayer bond orders larger than 0.100000
B(  0-C ,  1-C ) :   0.9752 B(  0-C , 20-H ) :   0.9782 B(  0-C , 21-H ) :   0.9761
B(  0-C , 22-H ) :   0.9791 B(  1-C ,  2-O ) :   0.8827 B(  1-C , 23-H ) :   0.9732
B(  1-C , 24-H ) :   0.9767 B(  2-O ,  3-C ) :   1.1477 B(  3-C ,  4-O ) :   1.9690
B(  3-C ,  5-C ) :   1.0720 B(  5-C ,  6-C ) :   1.6350 B(  5-C , 12-C ) :   0.9557
B(  6-C ,  7-C ) :   0.9652 B(  6-C ,  8-N ) :   1.1528 B(  7-C , 25-H ) :   0.9609
B(  7-C , 26-H ) :   0.9589 B(  7-C , 27-H ) :   0.9906 B(  8-N ,  9-C ) :   1.1871
B(  8-N , 28-H ) :   0.9463 B(  9-C , 10-S ) :   1.6072 B(  9-C , 11-N ) :   1.3090
B( 11-N , 12-C ) :   0.9686 B( 11-N , 29-H ) :   0.9484 B( 12-C , 13-C ) :   0.9618
B( 12-C , 30-H ) :   1.0013 B( 13-C , 14-C ) :   1.3514 B( 13-C , 19-C ) :   1.3802
B( 14-C , 15-C ) :   1.3916 B( 14-C , 31-H ) :   0.9712 B( 15-C , 16-C ) :   1.3589
B( 15-C , 32-H ) :   0.9704 B( 16-C , 17-C ) :   1.3336 B( 16-C , 33-H ) :   0.9849
B( 17-C , 18-O ) :   1.1049 B( 17-C , 19-C ) :   1.3645 B( 18-O , 34-H ) :   0.9798
B( 19-C , 35-H ) :   0.9596

MP2 TOTAL ENERGY:    -1274.339932505 Eh
FINAL SINGLE POINT ENERGY     -1274.339932504779

DIPOLE MOMENT
-------------
                                X             Y             Z
Electronic contribution:      8.79776      10.53257       9.84373
Nuclear contribution   :     -9.91900     -12.16921     -10.06581
                        -----------------------------------------
Total Dipole Moment    :     -1.12125      -1.63664      -0.22208
                        -----------------------------------------
Magnitude (a.u.)       :      1.99627
Magnitude (Debye)      :      5.07411

Rotational constants in cm-1:     0.010990     0.008573     0.005835
Rotational constants in MHz :   329.481334   257.002898   174.925857

                             ****ORCA TERMINATED NORMALLY****
TOTAL RUN TIME: 0 days 1 hours 45 minutes 38 seconds 310 msec
