                         Program Version 4.2.0 -  RELEASE  -
|  1> ! ri-mp2 cc-pvtz cc-pvtz/c TightSCF NoKeepInts
|  2>
|  3> %scf
|  4>   MaxCore 4096
|  5> end
|  6> *xyz  0  1
|  7>     C       14.5923194   16.0125265   16.4179213
|  8>     C       15.1198404   16.1409694   14.9727255
|  9>     O       16.5314406   15.8377459   14.8926392
| 10>     C       17.5706384   16.5025124   15.5000337
| 11>     O       18.7147117   16.1040926   15.3854794
| 12>     C       17.2308223   17.6192130   16.4273683
| 13>     C       16.8778417   18.8256920   15.9222359
| 14>     C       16.5610297   19.1574403   14.4779248
| 15>     N       16.8846856   19.9680317   16.7244974
| 16>     C       17.4814238   20.0366973   17.9558701
| 17>     S       17.5664360   21.4528526   18.8052872
| 18>     N       18.0330421   18.8732633   18.4334985
| 19>     C       17.8779617   17.5427816   17.8116457
| 20>     C       17.2622040   16.4768218   18.7060359
| 21>     C       17.7489551   15.1579590   18.6633468
| 22>     C       17.1729604   14.1576381   19.4638549
| 23>     C       16.0995495   14.4786723   20.3122933
| 24>     C       15.6099962   15.7913542   20.3539241
| 25>     O       14.5670630   16.1016863   21.1641715
| 26>     C       16.1852247   16.7856157   19.5560370
| 27>     H       15.0526105   15.1569801   16.9292161
| 28>     H       13.5071385   15.8538591   16.4099056
| 29>     H       14.7805379   16.9173344   17.0055861
| 30>     H       14.5857837   15.4128911   14.3482344
| 31>     H       14.8918048   17.1340675   14.5729181
| 32>     H       16.8196900   18.3445350   13.7886739
| 33>     H       17.1334577   20.0333234   14.1456664
| 34>     H       15.4962159   19.3864403   14.3493255
| 35>     H       16.5251188   20.8387245   16.3659814
| 36>     H       18.4705929   18.9496041   19.3432995
| 37>     H       18.9348707   17.2990466   17.6256798
| 38>     H       18.5723966   14.9063829   17.9975342
| 39>     H       17.5569282   13.1396876   19.4211339
| 40>     H       15.6505600   13.7083954   20.9306639
| 41>     H       14.3351828   15.3014490   21.6592473
| 42>     H       15.7859648   17.7937131   19.5981434
| 43> *
| 44>
| 45>                          ****END OF INPUT****

CARTESIAN COORDINATES (ANGSTROEM)
---------------------------------
  C     14.592319   16.012526   16.417921
  C     15.119840   16.140969   14.972725
  O     16.531441   15.837746   14.892639
  C     17.570638   16.502512   15.500034
  O     18.714712   16.104093   15.385479
  C     17.230822   17.619213   16.427368
  C     16.877842   18.825692   15.922236
  C     16.561030   19.157440   14.477925
  N     16.884686   19.968032   16.724497
  C     17.481424   20.036697   17.955870
  S     17.566436   21.452853   18.805287
  N     18.033042   18.873263   18.433498
  C     17.877962   17.542782   17.811646
  C     17.262204   16.476822   18.706036
  C     17.748955   15.157959   18.663347
  C     17.172960   14.157638   19.463855
  C     16.099549   14.478672   20.312293
  C     15.609996   15.791354   20.353924
  O     14.567063   16.101686   21.164171
  C     16.185225   16.785616   19.556037
  H     15.052611   15.156980   16.929216
  H     13.507138   15.853859   16.409906
  H     14.780538   16.917334   17.005586
  H     14.585784   15.412891   14.348234
  H     14.891805   17.134068   14.572918
  H     16.819690   18.344535   13.788674
  H     17.133458   20.033323   14.145666
  H     15.496216   19.386440   14.349325
  H     16.525119   20.838725   16.365981
  H     18.470593   18.949604   19.343299
  H     18.934871   17.299047   17.625680
  H     18.572397   14.906383   17.997534
  H     17.556928   13.139688   19.421134
  H     15.650560   13.708395   20.930664
  H     14.335183   15.301449   21.659247
  H     15.785965   17.793713   19.598143

 Total Charge           Charge          ....    0
 Multiplicity           Mult            ....    1
 Number of Electrons    NEL             ....  154
 Basis Dimension        Dim             ....  828

ORBITAL ENERGIES
----------------

  NO   OCC          E(Eh)            E(eV)
   0   2.0000     -91.889554     -2500.4419
   1   2.0000     -20.602453      -560.6213
   2   2.0000     -20.599660      -560.5452
   3   2.0000     -20.550915      -559.2188
   4   2.0000     -15.626693      -425.2239
   5   2.0000     -15.609898      -424.7669
   6   2.0000     -11.401467      -310.2497
   7   2.0000     -11.385612      -309.8183
   8   2.0000     -11.331235      -308.3386
   9   2.0000     -11.317128      -307.9547
  10   2.0000     -11.311772      -307.8090
  11   2.0000     -11.310029      -307.7615
  12   2.0000     -11.268971      -306.6443
  13   2.0000     -11.265131      -306.5398
  14   2.0000     -11.264867      -306.5326
  15   2.0000     -11.257826      -306.3410
  16   2.0000     -11.246196      -306.0246
  17   2.0000     -11.241701      -305.9022
  18   2.0000     -11.239650      -305.8464
  19   2.0000     -11.229953      -305.5825
  20   2.0000      -8.894666      -242.0362
  21   2.0000      -6.576251      -178.9489
  22   2.0000      -6.574234      -178.8940
  23   2.0000      -6.573655      -178.8782
  24   2.0000      -1.446656       -39.3655
  25   2.0000      -1.419384       -38.6234
  26   2.0000      -1.361122       -37.0380
  27   2.0000      -1.340643       -36.4807
  28   2.0000      -1.239381       -33.7253
  29   2.0000      -1.161573       -31.6080
  30   2.0000      -1.126849       -30.6631
  31   2.0000      -1.048917       -28.5425
  32   2.0000      -1.038121       -28.2487
  33   2.0000      -1.019714       -27.7478
  34   2.0000      -1.007219       -27.4078
  35   2.0000      -0.990509       -26.9531
  36   2.0000      -0.927299       -25.2331
  37   2.0000      -0.897476       -24.4216
  38   2.0000      -0.854010       -23.2388
  39   2.0000      -0.841860       -22.9082
  40   2.0000      -0.836910       -22.7735
  41   2.0000      -0.831080       -22.6148
  42   2.0000      -0.748546       -20.3690
  43   2.0000      -0.740061       -20.1381
  44   2.0000      -0.732400       -19.9296
  45   2.0000      -0.697118       -18.9695
  46   2.0000      -0.689632       -18.7658
  47   2.0000      -0.680480       -18.5168
  48   2.0000      -0.674551       -18.3555
  49   2.0000      -0.664366       -18.0783
  50   2.0000      -0.652338       -17.7510
  51   2.0000      -0.648215       -17.6388
  52   2.0000      -0.638526       -17.3752
  53   2.0000      -0.617051       -16.7908
  54   2.0000      -0.612367       -16.6633
  55   2.0000      -0.607850       -16.5404
  56   2.0000      -0.603198       -16.4139
  57   2.0000      -0.589298       -16.0356
  58   2.0000      -0.578336       -15.7373
  59   2.0000      -0.572545       -15.5798
  60   2.0000      -0.564022       -15.3478
  61   2.0000      -0.557317       -15.1654
  62   2.0000      -0.539852       -14.6901
  63   2.0000      -0.532790       -14.4980
  64   2.0000      -0.520911       -14.1747
  65   2.0000      -0.512621       -13.9491
  66   2.0000      -0.505786       -13.7631
  67   2.0000      -0.502010       -13.6604
  68   2.0000      -0.486561       -13.2400
  69   2.0000      -0.464380       -12.6364
  70   2.0000      -0.454851       -12.3771
  71   2.0000      -0.453000       -12.3268
  72   2.0000      -0.356932        -9.7126
  73   2.0000      -0.349982        -9.5235
  74   2.0000      -0.329183        -8.9575
  75   2.0000      -0.325199        -8.8491
  76   2.0000      -0.319769        -8.7013
  77   0.0000       0.088652         2.4123
  78   0.0000       0.105325         2.8660
  79   0.0000       0.113353         3.0845
  80   0.0000       0.126500         3.4423
  81   0.0000       0.129703         3.5294

MULLIKEN ATOMIC CHARGES
-----------------------
   0 C :   -0.321114
   1 C :    0.027071
   2 O :   -0.321021
   3 C :    0.426250
   4 O :   -0.382628
   5 C :   -0.232239
   6 C :    0.162905
   7 C :   -0.339850
   8 N :   -0.141782
   9 C :    0.210156
  10 S :   -0.443761
  11 N :   -0.231513
  12 C :    0.081542
  13 C :    0.019245
  14 C :   -0.229880
  15 C :   -0.130820
  16 C :   -0.277793
  17 C :    0.319175
  18 O :   -0.355916
  19 C :   -0.255170
  20 H :    0.123999
  21 H :    0.112340
  22 H :    0.108655
  23 H :    0.130387
  24 H :    0.085350
  25 H :    0.129071
  26 H :    0.137469
  27 H :    0.123097
  28 H :    0.197100
  29 H :    0.204830
  30 H :    0.170564
  31 H :    0.176988
  32 H :    0.165016
  33 H :    0.132385
  34 H :    0.241306
  35 H :    0.178586
Sum of atomic charges:   -0.0000000

LOEWDIN ATOMIC CHARGES
----------------------
   0 C :    0.103136
   1 C :   -0.017932
   2 O :    0.300861
   3 C :   -0.415379
   4 O :    0.120659
   5 C :   -0.077744
   6 C :   -0.096178
   7 C :    0.122287
   8 N :    0.402162
   9 C :   -0.456856
  10 S :   -0.039021
  11 N :    0.396741
  12 C :   -0.048038
  13 C :   -0.042572
  14 C :    0.018668
  15 C :    0.044454
  16 C :   -0.000600
  17 C :   -0.190793
  18 O :    0.395964
  19 C :    0.029376
  20 H :   -0.019759
  21 H :   -0.025705
  22 H :   -0.035262
  23 H :   -0.018686
  24 H :   -0.038236
  25 H :   -0.008381
  26 H :   -0.008973
  27 H :   -0.018498
  28 H :   -0.057354
  29 H :   -0.063607
  30 H :   -0.002849
  31 H :   -0.021523
  32 H :   -0.018334
  33 H :   -0.034730
  34 H :   -0.153153
  35 H :   -0.024143

  Mayer bond orders larger than 0.100000
B(  0-C ,  1-C ) :   0.9513 B(  0-C , 20-H ) :   0.9690 B(  0-C , 21-H ) :   0.9772
B(  0-C , 22-H ) :   0.9723 B(  1-C ,  2-O ) :   0.9049 B(  1-C , 23-H ) :   0.9839
B(  1-C , 24-H ) :   0.9733 B(  2-O ,  3-C ) :   1.1802 B(  3-C ,  4-O ) :   2.0935
B(  3-C ,  5-C ) :   0.9154 B(  5-C ,  6-C ) :   1.7197 B(  5-C , 12-C ) :   0.9306
B(  6-C ,  7-C ) :   0.9368 B(  6-C ,  8-N ) :   1.1020 B(  7-C , 25-H ) :   0.9781
B(  7-C , 26-H ) :   0.9716 B(  7-C , 27-H ) :   0.9670 B(  8-N ,  9-C ) :   1.2009
B(  8-N , 28-H ) :   0.9518 B(  9-C , 10-S ) :   1.6076 B(  9-C , 11-N ) :   1.2893
B( 11-N , 12-C ) :   0.9778 B( 11-N , 29-H ) :   0.9466 B( 12-C , 13-C ) :   0.9688
B( 12-C , 30-H ) :   0.9883 B( 13-C , 14-C ) :   1.3866 B( 13-C , 19-C ) :   1.3437
B( 14-C , 15-C ) :   1.3982 B( 14-C , 31-H ) :   0.9594 B( 15-C , 16-C ) :   1.3595
B( 15-C , 32-H ) :   0.9696 B( 16-C , 17-C ) :   1.3313 B( 16-C , 33-H ) :   0.9847
B( 17-C , 18-O ) :   1.1099 B( 17-C , 19-C ) :   1.3641 B( 18-O , 34-H ) :   0.9793
B( 19-C , 35-H ) :   0.9555

MP2 TOTAL ENERGY:    -1274.325790629 Eh
FINAL SINGLE POINT ENERGY     -1274.325790628603

DIPOLE MOMENT
-------------
                                X             Y             Z
Electronic contribution:      8.49445       6.86894       6.72462
Nuclear contribution   :    -10.12098      -8.11266      -7.28317
                        -----------------------------------------
Total Dipole Moment    :     -1.62653      -1.24372      -0.55855
                        -----------------------------------------
Magnitude (a.u.)       :      2.12237
Magnitude (Debye)      :      5.39463

Rotational constants in cm-1:     0.011729     0.009243     0.006482
Rotational constants in MHz :   351.615914   277.103636   194.320757

                             ****ORCA TERMINATED NORMALLY****
TOTAL RUN TIME: 0 days 2 hours 8 minutes 38 seconds 625 msec
