                         Program Version 4.2.0 -  RELEASE  -
|  1> ! ri-mp2 cc-pvtz cc-pvtz/c TightSCF NoKeepInts
|  2>
|  3> %scf
|  4>   MaxCore 4096
|  5> end
|  6> *xyz  0  1
|  7>     C       14.4078294   15.2451800   16.0676311
|  8>     C       14.9692831   16.4255639   15.2567699
|  9>     O       16.3175927   16.0783060   14.8764102
| 10>     C       17.4450978   16.5298875   15.5158599
| 11>     O       18.5102269   15.9541335   15.3937220
| 12>     C       17.2787654   17.6812922   16.4508299
| 13>     C       16.9855885   18.9112245   15.9647610
| 14>     C       16.5580942   19.2503745   14.5505412
| 15>     N       17.1334441   20.0479593   16.7613542
| 16>     C       17.7953138   20.0620859   17.9613784
| 17>     S       18.0331519   21.4625426   18.8077324
| 18>     N       18.2709301   18.8550384   18.4137437
| 19>     C       17.9898911   17.5438000   17.7948316
| 20>     C       17.3113848   16.5316806   18.7047961
| 21>     C       17.7518246   15.1963711   18.7270590
| 22>     C       17.1088046   14.2462364   19.5377199
| 23>     C       16.0137177   14.6344465   20.3286054
| 24>     C       15.5683363   15.9632282   20.3019770
| 25>     O       14.5035521   16.3378059   21.0546269
| 26>     C       16.2097163   16.9070318   19.4932656
| 27>     H       14.9776980   15.1067217   16.9956347
| 28>     H       14.4632173   14.3152585   15.4876811
| 29>     H       13.3588907   15.4228104   16.3340044
| 30>     H       14.3618622   16.5467782   14.3504950
| 31>     H       14.8929215   17.3497758   15.8394085
| 32>     H       16.8889899   18.4968070   13.8248401
| 33>     H       16.9908312   20.2035344   14.2204261
| 34>     H       15.4673984   19.3349073   14.4763654
| 35>     H       16.8228954   20.9456989   16.4242738
| 36>     H       18.7516832   18.8923785   19.3039924
| 37>     H       19.0131970   17.2147604   17.5591012
| 38>     H       18.5891755   14.8923220   18.1018448
| 39>     H       17.4570675   13.2146568   19.5460357
| 40>     H       15.5130194   13.9029445   20.9543483
| 41>     H       14.2291430   15.5670258   21.5742127
| 42>     H       15.8464645   17.9294313   19.4817201
| 43> *
| 44>
| 45>                          ****END OF INPUT****

CARTESIAN COORDINATES (ANGSTROEM)
---------------------------------
  C     14.407829   15.245180   16.067631
  C     14.969283   16.425564   15.256770
  O     16.317593   16.078306   14.876410
  C     17.445098   16.529888   15.515860
  O     18.510227   15.954133   15.393722
  C     17.278765   17.681292   16.450830
  C     16.985588   18.911224   15.964761
  C     16.558094   19.250374   14.550541
  N     17.133444   20.047959   16.761354
  C     17.795314   20.062086   17.961378
  S     18.033152   21.462543   18.807732
  N     18.270930   18.855038   18.413744
  C     17.989891   17.543800   17.794832
  C     17.311385   16.531681   18.704796
  C     17.751825   15.196371   18.727059
  C     17.108805   14.246236   19.537720
  C     16.013718   14.634446   20.328605
  C     15.568336   15.963228   20.301977
  O     14.503552   16.337806   21.054627
  C     16.209716   16.907032   19.493266
  H     14.977698   15.106722   16.995635
  H     14.463217   14.315258   15.487681
  H     13.358891   15.422810   16.334004
  H     14.361862   16.546778   14.350495
  H     14.892921   17.349776   15.839408
  H     16.888990   18.496807   13.824840
  H     16.990831   20.203534   14.220426
  H     15.467398   19.334907   14.476365
  H     16.822895   20.945699   16.424274
  H     18.751683   18.892378   19.303992
  H     19.013197   17.214760   17.559101
  H     18.589175   14.892322   18.101845
  H     17.457068   13.214657   19.546036
  H     15.513019   13.902945   20.954348
  H     14.229143   15.567026   21.574213
  H     15.846464   17.929431   19.481720

 Total Charge           Charge          ....    0
 Multiplicity           Mult            ....    1
 Number of Electrons    NEL             ....  154
 Basis Dimension        Dim             ....  828

ORBITAL ENERGIES
----------------

  NO   OCC          E(Eh)            E(eV)
   0   2.0000     -91.890115     -2500.4572
   1   2.0000     -20.604358      -560.6731
   2   2.0000     -20.600193      -560.5598
   3   2.0000     -20.549661      -559.1847
   4   2.0000     -15.628283      -425.2672
   5   2.0000     -15.610054      -424.7712
   6   2.0000     -11.399575      -310.1982
   7   2.0000     -11.386158      -309.8331
   8   2.0000     -11.333396      -308.3974
   9   2.0000     -11.317722      -307.9709
  10   2.0000     -11.310645      -307.7783
  11   2.0000     -11.306057      -307.6534
  12   2.0000     -11.267750      -306.6111
  13   2.0000     -11.265264      -306.5434
  14   2.0000     -11.263357      -306.4915
  15   2.0000     -11.258031      -306.3466
  16   2.0000     -11.246849      -306.0423
  17   2.0000     -11.242853      -305.9336
  18   2.0000     -11.240257      -305.8629
  19   2.0000     -11.229391      -305.5673
  20   2.0000      -8.895218      -242.0512
  21   2.0000      -6.576798      -178.9638
  22   2.0000      -6.574787      -178.9090
  23   2.0000      -6.574204      -178.8932
  24   2.0000      -1.448673       -39.4204
  25   2.0000      -1.419920       -38.6380
  26   2.0000      -1.361982       -37.0614
  27   2.0000      -1.341075       -36.4925
  28   2.0000      -1.239540       -33.7296
  29   2.0000      -1.162179       -31.6245
  30   2.0000      -1.127153       -30.6714
  31   2.0000      -1.049332       -28.5538
  32   2.0000      -1.038665       -28.2635
  33   2.0000      -1.019788       -27.7498
  34   2.0000      -1.006368       -27.3847
  35   2.0000      -0.990308       -26.9477
  36   2.0000      -0.927098       -25.2276
  37   2.0000      -0.888097       -24.1663
  38   2.0000      -0.854925       -23.2637
  39   2.0000      -0.842493       -22.9254
  40   2.0000      -0.837690       -22.7947
  41   2.0000      -0.835589       -22.7375
  42   2.0000      -0.753453       -20.5025
  43   2.0000      -0.740976       -20.1630
  44   2.0000      -0.732328       -19.9277
  45   2.0000      -0.697912       -18.9912
  46   2.0000      -0.690120       -18.7791
  47   2.0000      -0.682524       -18.5724
  48   2.0000      -0.675665       -18.3858
  49   2.0000      -0.662360       -18.0237
  50   2.0000      -0.654969       -17.8226
  51   2.0000      -0.644253       -17.5310
  52   2.0000      -0.637812       -17.3557
  53   2.0000      -0.615106       -16.7379
  54   2.0000      -0.610398       -16.6098
  55   2.0000      -0.607850       -16.5404
  56   2.0000      -0.603190       -16.4136
  57   2.0000      -0.585016       -15.9191
  58   2.0000      -0.578256       -15.7352
  59   2.0000      -0.568338       -15.4653
  60   2.0000      -0.562181       -15.2977
  61   2.0000      -0.554707       -15.0943
  62   2.0000      -0.548162       -14.9163
  63   2.0000      -0.532893       -14.5007
  64   2.0000      -0.520288       -14.1578
  65   2.0000      -0.513063       -13.9611
  66   2.0000      -0.506364       -13.7789
  67   2.0000      -0.501907       -13.6576
  68   2.0000      -0.488005       -13.2793
  69   2.0000      -0.470565       -12.8047
  70   2.0000      -0.454115       -12.3571
  71   2.0000      -0.450638       -12.2625
  72   2.0000      -0.356397        -9.6980
  73   2.0000      -0.352755        -9.5990
  74   2.0000      -0.329600        -8.9689
  75   2.0000      -0.325406        -8.8548
  76   2.0000      -0.319797        -8.7021
  77   0.0000       0.084535         2.3003
  78   0.0000       0.103030         2.8036
  79   0.0000       0.115717         3.1488
  80   0.0000       0.128884         3.5071
  81   0.0000       0.129681         3.5288

MULLIKEN ATOMIC CHARGES
-----------------------
   0 C :   -0.268694
   1 C :    0.022103
   2 O :   -0.319497
   3 C :    0.413408
   4 O :   -0.383957
   5 C :   -0.219032
   6 C :    0.149705
   7 C :   -0.322502
   8 N :   -0.138224
   9 C :    0.209633
  10 S :   -0.442061
  11 N :   -0.222566
  12 C :    0.063221
  13 C :    0.009640
  14 C :   -0.215043
  15 C :   -0.129228
  16 C :   -0.275716
  17 C :    0.309939
  18 O :   -0.356719
  19 C :   -0.237652
  20 H :    0.109495
  21 H :    0.106543
  22 H :    0.089530
  23 H :    0.111776
  24 H :    0.095490
  25 H :    0.135820
  26 H :    0.127113
  27 H :    0.122472
  28 H :    0.198285
  29 H :    0.202104
  30 H :    0.167639
  31 H :    0.175479
  32 H :    0.164500
  33 H :    0.132359
  34 H :    0.241453
  35 H :    0.173184
Sum of atomic charges:   -0.0000000

LOEWDIN ATOMIC CHARGES
----------------------
   0 C :    0.107454
   1 C :   -0.022089
   2 O :    0.309165
   3 C :   -0.417249
   4 O :    0.118875
   5 C :   -0.086756
   6 C :   -0.091543
   7 C :    0.127646
   8 N :    0.402470
   9 C :   -0.455992
  10 S :   -0.037771
  11 N :    0.396046
  12 C :   -0.049694
  13 C :   -0.044964
  14 C :    0.019628
  15 C :    0.044588
  16 C :   -0.000180
  17 C :   -0.191269
  18 O :    0.395495
  19 C :    0.027189
  20 H :   -0.023866
  21 H :   -0.023620
  22 H :   -0.026684
  23 H :   -0.027101
  24 H :   -0.039469
  25 H :   -0.006192
  26 H :   -0.011683
  27 H :   -0.016456
  28 H :   -0.057646
  29 H :   -0.063732
  30 H :   -0.004084
  31 H :   -0.021263
  32 H :   -0.018384
  33 H :   -0.034579
  34 H :   -0.153031
  35 H :   -0.023259

  Mayer bond orders larger than 0.100000
B(  0-C ,  1-C ) :   0.9815 B(  0-C , 20-H ) :   0.9697 B(  0-C , 21-H ) :   0.9789
B(  0-C , 22-H ) :   0.9757 B(  1-C ,  2-O ) :   0.8958 B(  1-C , 23-H ) :   0.9794
B(  1-C , 24-H ) :   0.9598 B(  2-O ,  3-C ) :   1.1802 B(  3-C ,  4-O ) :   2.0968
B(  3-C ,  5-C ) :   0.9239 B(  5-C ,  6-C ) :   1.7178 B(  5-C , 12-C ) :   0.9372
B(  6-C ,  7-C ) :   0.9371 B(  6-C ,  8-N ) :   1.1098 B(  7-C , 25-H ) :   0.9737
B(  7-C , 26-H ) :   0.9800 B(  7-C , 27-H ) :   0.9651 B(  8-N ,  9-C ) :   1.1957
B(  8-N , 28-H ) :   0.9502 B(  9-C , 10-S ) :   1.6107 B(  9-C , 11-N ) :   1.2907
B( 11-N , 12-C ) :   0.9847 B( 11-N , 29-H ) :   0.9477 B( 12-C , 13-C ) :   0.9669
B( 12-C , 30-H ) :   0.9897 B( 13-C , 14-C ) :   1.3877 B( 13-C , 19-C ) :   1.3561
B( 14-C , 15-C ) :   1.3924 B( 14-C , 31-H ) :   0.9596 B( 15-C , 16-C ) :   1.3611
B( 15-C , 32-H ) :   0.9702 B( 16-C , 17-C ) :   1.3309 B( 16-C , 33-H ) :   0.9848
B( 17-C , 18-O ) :   1.1096 B( 17-C , 19-C ) :   1.3666 B( 18-O , 34-H ) :   0.9792
B( 19-C , 35-H ) :   0.9561

MP2 TOTAL ENERGY:    -1274.332220068 Eh
FINAL SINGLE POINT ENERGY     -1274.332220067842

DIPOLE MOMENT
-------------
                                X             Y             Z
Electronic contribution:      9.59936       8.37071       6.89209
Nuclear contribution   :    -11.28491      -9.45551      -7.29037
                        -----------------------------------------
Total Dipole Moment    :     -1.68555      -1.08481      -0.39828
                        -----------------------------------------
Magnitude (a.u.)       :      2.04365
Magnitude (Debye)      :      5.19454

Rotational constants in cm-1:     0.011623     0.009063     0.006399
Rotational constants in MHz :   348.452654   271.709406   191.823753

                             ****ORCA TERMINATED NORMALLY****
TOTAL RUN TIME: 0 days 1 hours 44 minutes 7 seconds 795 msec
