                         Program Version 4.2.0 -  RELEASE  -
|  1> ! ri-mp2 cc-pvtz cc-pvtz/c TightSCF NoKeepInts
|  2>
|  3> %scf
|  4>   MaxCore 4096
|  5> end
|  6> *xyz  0  1
|  7>     C       14.3791220   16.6031115   16.1092245
|  8>     C       15.3502687   15.4170454   15.9161358
|  9>     O       16.5148777   15.7413074   15.1174717
| 10>     C       17.4301050   16.7500387   15.3006027
| 11>     O       18.4078364   16.8471364   14.5833232
| 12>     C       17.1631696   17.7445816   16.3730962
| 13>     C       16.8761658   19.0106944   15.9968170
| 14>     C       16.4633009   19.4391263   14.6053733
| 15>     N       17.0083779   20.0781916   16.8860437
| 16>     C       17.6564921   19.9913862   18.0903542
| 17>     S       17.8829945   21.3126775   19.0586278
| 18>     N       18.1324607   18.7512244   18.4424479
| 19>     C       17.8636405   17.4969715   17.7108499
| 20>     C       17.2581651   16.3869684   18.5538479
| 21>     C       17.8271427   15.1003458   18.5465172
| 22>     C       17.2593274   14.0660964   19.3092661
| 23>     C       16.1153288   14.3216437   20.0849325
| 24>     C       15.5496970   15.6040918   20.0965298
| 25>     O       14.4417431   15.8522711   20.8385902
| 26>     C       16.1165944   16.6317099   19.3361431
| 27>     H       14.6996651   17.2808929   16.9067653
| 28>     H       13.3902775   16.2254876   16.3970132
| 29>     H       14.2593440   17.1691405   15.1779630
| 30>     H       15.6520267   15.0265009   16.8947622
| 31>     H       14.8096435   14.6089853   15.4065252
| 32>     H       15.8517442   18.6738729   14.1125269
| 33>     H       17.3514212   19.5983381   13.9793759
| 34>     H       15.8808162   20.3682071   14.6115216
| 35>     H       16.7107759   21.0018608   16.6143436
| 36>     H       18.6032791   18.7162967   19.3380747
| 37>     H       18.8928523   17.2214906   17.4358966
| 38>     H       18.7079289   14.8991084   17.9408335
| 39>     H       17.7053603   13.0726560   19.2969533
| 40>     H       15.6733771   13.5251566   20.6749730
| 41>     H       14.2359951   15.0466010   21.3368163
| 42>     H       15.6656828   17.6187845   19.3574611
| 43> *
| 44>
| 45>                          ****END OF INPUT****

CARTESIAN COORDINATES (ANGSTROEM)
---------------------------------
  C     14.379122   16.603112   16.109224
  C     15.350269   15.417045   15.916136
  O     16.514878   15.741307   15.117472
  C     17.430105   16.750039   15.300603
  O     18.407836   16.847136   14.583323
  C     17.163170   17.744582   16.373096
  C     16.876166   19.010694   15.996817
  C     16.463301   19.439126   14.605373
  N     17.008378   20.078192   16.886044
  C     17.656492   19.991386   18.090354
  S     17.882994   21.312677   19.058628
  N     18.132461   18.751224   18.442448
  C     17.863640   17.496972   17.710850
  C     17.258165   16.386968   18.553848
  C     17.827143   15.100346   18.546517
  C     17.259327   14.066096   19.309266
  C     16.115329   14.321644   20.084933
  C     15.549697   15.604092   20.096530
  O     14.441743   15.852271   20.838590
  C     16.116594   16.631710   19.336143
  H     14.699665   17.280893   16.906765
  H     13.390277   16.225488   16.397013
  H     14.259344   17.169141   15.177963
  H     15.652027   15.026501   16.894762
  H     14.809643   14.608985   15.406525
  H     15.851744   18.673873   14.112527
  H     17.351421   19.598338   13.979376
  H     15.880816   20.368207   14.611522
  H     16.710776   21.001861   16.614344
  H     18.603279   18.716297   19.338075
  H     18.892852   17.221491   17.435897
  H     18.707929   14.899108   17.940834
  H     17.705360   13.072656   19.296953
  H     15.673377   13.525157   20.674973
  H     14.235995   15.046601   21.336816
  H     15.665683   17.618785   19.357461

 Total Charge           Charge          ....    0
 Multiplicity           Mult            ....    1
 Number of Electrons    NEL             ....  154
 Basis Dimension        Dim             ....  828

ORBITAL ENERGIES
----------------

  NO   OCC          E(Eh)            E(eV)
   0   2.0000     -91.888966     -2500.4259
   1   2.0000     -20.606670      -560.7360
   2   2.0000     -20.597595      -560.4891
   3   2.0000     -20.550898      -559.2184
   4   2.0000     -15.624804      -425.1725
   5   2.0000     -15.610592      -424.7858
   6   2.0000     -11.398220      -310.1613
   7   2.0000     -11.384763      -309.7952
   8   2.0000     -11.325474      -308.1818
   9   2.0000     -11.323762      -308.1352
  10   2.0000     -11.316227      -307.9302
  11   2.0000     -11.303931      -307.5956
  12   2.0000     -11.272160      -306.7311
  13   2.0000     -11.266453      -306.5758
  14   2.0000     -11.258280      -306.3534
  15   2.0000     -11.255161      -306.2685
  16   2.0000     -11.255029      -306.2649
  17   2.0000     -11.249863      -306.1243
  18   2.0000     -11.249727      -306.1206
  19   2.0000     -11.232339      -305.6475
  20   2.0000      -8.894061      -242.0197
  21   2.0000      -6.575642      -178.9323
  22   2.0000      -6.573633      -178.8777
  23   2.0000      -6.573051      -178.8618
  24   2.0000      -1.442827       -39.2613
  25   2.0000      -1.426399       -38.8143
  26   2.0000      -1.358075       -36.9551
  27   2.0000      -1.338383       -36.4193
  28   2.0000      -1.238707       -33.7069
  29   2.0000      -1.168806       -31.8048
  30   2.0000      -1.126344       -30.6494
  31   2.0000      -1.052948       -28.6522
  32   2.0000      -1.035678       -28.1822
  33   2.0000      -1.026810       -27.9409
  34   2.0000      -1.004794       -27.3418
  35   2.0000      -0.990142       -26.9431
  36   2.0000      -0.927895       -25.2493
  37   2.0000      -0.897581       -24.4244
  38   2.0000      -0.851851       -23.1800
  39   2.0000      -0.845678       -23.0121
  40   2.0000      -0.844253       -22.9733
  41   2.0000      -0.830282       -22.5931
  42   2.0000      -0.752220       -20.4689
  43   2.0000      -0.740508       -20.1502
  44   2.0000      -0.723882       -19.6978
  45   2.0000      -0.705340       -19.1933
  46   2.0000      -0.693171       -18.8621
  47   2.0000      -0.678694       -18.4682
  48   2.0000      -0.676564       -18.4102
  49   2.0000      -0.663187       -18.0462
  50   2.0000      -0.653088       -17.7714
  51   2.0000      -0.647719       -17.6253
  52   2.0000      -0.637564       -17.3490
  53   2.0000      -0.617524       -16.8037
  54   2.0000      -0.612734       -16.6733
  55   2.0000      -0.607772       -16.5383
  56   2.0000      -0.605904       -16.4875
  57   2.0000      -0.585913       -15.9435
  58   2.0000      -0.578991       -15.7552
  59   2.0000      -0.574724       -15.6390
  60   2.0000      -0.566904       -15.4262
  61   2.0000      -0.553628       -15.0650
  62   2.0000      -0.539306       -14.6753
  63   2.0000      -0.535377       -14.5684
  64   2.0000      -0.526746       -14.3335
  65   2.0000      -0.516469       -14.0538
  66   2.0000      -0.504984       -13.7413
  67   2.0000      -0.503927       -13.7126
  68   2.0000      -0.491813       -13.3829
  69   2.0000      -0.462357       -12.5814
  70   2.0000      -0.453471       -12.3396
  71   2.0000      -0.448608       -12.2072
  72   2.0000      -0.360031        -9.7969
  73   2.0000      -0.350269        -9.5313
  74   2.0000      -0.334240        -9.0951
  75   2.0000      -0.328079        -8.9275
  76   2.0000      -0.317803        -8.6479
  77   0.0000       0.087566         2.3828
  78   0.0000       0.096529         2.6267
  79   0.0000       0.119813         3.2603
  80   0.0000       0.126723         3.4483
  81   0.0000       0.128601         3.4994

MULLIKEN ATOMIC CHARGES
-----------------------
   0 C :   -0.329424
   1 C :    0.036740
   2 O :   -0.319066
   3 C :    0.413415
   4 O :   -0.380339
   5 C :   -0.228465
   6 C :    0.153754
   7 C :   -0.299053
   8 N :   -0.135483
   9 C :    0.213803
  10 S :   -0.443253
  11 N :   -0.219290
  12 C :    0.053123
  13 C :    0.001122
  14 C :   -0.205515
  15 C :   -0.128696
  16 C :   -0.274000
  17 C :    0.315883
  18 O :   -0.353676
  19 C :   -0.251298
  20 H :    0.114192
  21 H :    0.118826
  22 H :    0.104938
  23 H :    0.099520
  24 H :    0.126025
  25 H :    0.114322
  26 H :    0.147793
  27 H :    0.099759
  28 H :    0.197190
  29 H :    0.200634
  30 H :    0.167134
  31 H :    0.163122
  32 H :    0.165974
  33 H :    0.135775
  34 H :    0.242324
  35 H :    0.182188
Sum of atomic charges:   -0.0000000

LOEWDIN ATOMIC CHARGES
----------------------
   0 C :    0.101156
   1 C :   -0.012077
   2 O :    0.296623
   3 C :   -0.416600
   4 O :    0.125718
   5 C :   -0.086095
   6 C :   -0.089737
   7 C :    0.129039
   8 N :    0.403881
   9 C :   -0.454145
  10 S :   -0.038589
  11 N :    0.395531
  12 C :   -0.055632
  13 C :   -0.046013
  14 C :    0.016127
  15 C :    0.044695
  16 C :    0.001879
  17 C :   -0.190607
  18 O :    0.397870
  19 C :    0.033030
  20 H :   -0.036393
  21 H :   -0.023066
  22 H :   -0.030673
  23 H :   -0.032660
  24 H :   -0.020037
  25 H :   -0.012481
  26 H :   -0.003407
  27 H :   -0.019180
  28 H :   -0.058624
  29 H :   -0.064575
  30 H :   -0.006433
  31 H :   -0.024747
  32 H :   -0.017691
  33 H :   -0.032943
  34 H :   -0.151805
  35 H :   -0.021339

  Mayer bond orders larger than 0.100000
B(  0-C ,  1-C ) :   0.9534 B(  0-C , 20-H ) :   0.9706 B(  0-C , 21-H ) :   0.9777
B(  0-C , 22-H ) :   0.9766 B(  1-C ,  2-O ) :   0.9056 B(  1-C , 23-H ) :   0.9689
B(  1-C , 24-H ) :   0.9842 B(  2-O ,  3-C ) :   1.1991 B(  3-C ,  4-O ) :   2.1207
B(  3-C ,  5-C ) :   0.9101 B(  5-C ,  6-C ) :   1.7270 B(  5-C , 12-C ) :   0.9415
B(  6-C ,  7-C ) :   0.9411 B(  6-C ,  8-N ) :   1.1132 B(  7-C , 25-H ) :   0.9784
B(  7-C , 26-H ) :   0.9598 B(  7-C , 27-H ) :   0.9835 B(  8-N ,  9-C ) :   1.2030
B(  8-N , 28-H ) :   0.9499 B(  9-C , 10-S ) :   1.6102 B(  9-C , 11-N ) :   1.2829
B( 11-N , 12-C ) :   0.9815 B( 11-N , 29-H ) :   0.9474 B( 12-C , 13-C ) :   0.9531
B( 12-C , 30-H ) :   0.9995 B( 13-C , 14-C ) :   1.3708 B( 13-C , 19-C ) :   1.3533
B( 14-C , 15-C ) :   1.3974 B( 14-C , 31-H ) :   0.9689 B( 15-C , 16-C ) :   1.3633
B( 15-C , 32-H ) :   0.9694 B( 16-C , 17-C ) :   1.3283 B( 16-C , 33-H ) :   0.9832
B( 17-C , 18-O ) :   1.1137 B( 17-C , 19-C ) :   1.3608 B( 18-O , 34-H ) :   0.9783
B( 19-C , 35-H ) :   0.9525

MP2 TOTAL ENERGY:    -1274.320040535 Eh
FINAL SINGLE POINT ENERGY     -1274.320040534991

DIPOLE MOMENT
-------------
                                X             Y             Z
Electronic contribution:      8.86617       6.44801       6.11371
Nuclear contribution   :    -10.40588      -8.22358      -5.90650
                        -----------------------------------------
Total Dipole Moment    :     -1.53971      -1.77557       0.20721
                        -----------------------------------------
Magnitude (a.u.)       :      2.35930
Magnitude (Debye)      :      5.99686

Rotational constants in cm-1:     0.012333     0.009026     0.006511
Rotational constants in MHz :   369.730719   270.593177   195.209546

                             ****ORCA TERMINATED NORMALLY****
TOTAL RUN TIME: 0 days 1 hours 46 minutes 4 seconds 655 msec
