                         Program Version 4.2.0 -  RELEASE  -
|  1> ! ri-mp2 cc-pvtz cc-pvtz/c TightSCF NoKeepInts
|  2>
|  3> %scf
|  4>   MaxCore 4096
|  5> end
|  6> *xyz  0  1
|  7>     C       14.2785775   16.5084065   15.9962792
|  8>     C       15.2298458   15.6446058   15.1425392
|  9>     O       16.3471765   16.4013537   14.6296322
| 10>     C       17.4093650   16.6341666   15.4551387
| 11>     O       18.3747690   15.8923209   15.4702254
| 12>     C       17.2022337   17.7149745   16.4656624
| 13>     C       16.7843833   18.9445801   16.0775812
| 14>     C       16.3093200   19.3467362   14.6953212
| 15>     N       16.8641562   20.0323401   16.9496803
| 16>     C       17.5608653   20.0225699   18.1292770
| 17>     S       17.7089296   21.3777523   19.0653499
| 18>     N       18.1513300   18.8338831   18.4823751
| 19>     C       17.9609306   17.5472506   17.7830623
| 20>     C       17.3915776   16.4361843   18.6538689
| 21>     C       17.9660299   15.1526705   18.6349003
| 22>     C       17.4303438   14.1183816   19.4203087
| 23>     C       16.3090482   14.3694209   20.2296133
| 24>     C       15.7317544   15.6465237   20.2468145
| 25>     O       14.6431546   15.8894616   21.0191996
| 26>     C       16.2670847   16.6740941   19.4636266
| 27>     H       14.7497548   16.8310028   16.9311074
| 28>     H       13.3897930   15.9253991   16.2671745
| 29>     H       13.9391823   17.3903535   15.4424337
| 30>     H       15.5893197   14.7878346   15.7296353
| 31>     H       14.6616033   15.2453380   14.2924401
| 32>     H       15.2969029   18.9783054   14.4992862
| 33>     H       16.9682630   18.9374165   13.9188578
| 34>     H       16.2979060   20.4348190   14.5564434
| 35>     H       16.4635696   20.9191310   16.6879059
| 36>     H       18.6518579   18.8519611   19.3621551
| 37>     H       19.0004845   17.3197939   17.5037983
| 38>     H       18.8254017   14.9542554   17.9976225
| 39>     H       17.8824662   13.1282630   19.3958006
| 40>     H       15.8913145   13.5728669   20.8364678
| 41>     H       14.4538200   15.0802355   21.5177395
| 42>     H       15.8044848   17.6553471   19.4886759
| 43> *
| 44>
| 45>                          ****END OF INPUT****

CARTESIAN COORDINATES (ANGSTROEM)
---------------------------------
  C     14.278578   16.508406   15.996279
  C     15.229846   15.644606   15.142539
  O     16.347176   16.401354   14.629632
  C     17.409365   16.634167   15.455139
  O     18.374769   15.892321   15.470225
  C     17.202234   17.714975   16.465662
  C     16.784383   18.944580   16.077581
  C     16.309320   19.346736   14.695321
  N     16.864156   20.032340   16.949680
  C     17.560865   20.022570   18.129277
  S     17.708930   21.377752   19.065350
  N     18.151330   18.833883   18.482375
  C     17.960931   17.547251   17.783062
  C     17.391578   16.436184   18.653869
  C     17.966030   15.152670   18.634900
  C     17.430344   14.118382   19.420309
  C     16.309048   14.369421   20.229613
  C     15.731754   15.646524   20.246814
  O     14.643155   15.889462   21.019200
  C     16.267085   16.674094   19.463627
  H     14.749755   16.831003   16.931107
  H     13.389793   15.925399   16.267174
  H     13.939182   17.390353   15.442434
  H     15.589320   14.787835   15.729635
  H     14.661603   15.245338   14.292440
  H     15.296903   18.978305   14.499286
  H     16.968263   18.937417   13.918858
  H     16.297906   20.434819   14.556443
  H     16.463570   20.919131   16.687906
  H     18.651858   18.851961   19.362155
  H     19.000484   17.319794   17.503798
  H     18.825402   14.954255   17.997622
  H     17.882466   13.128263   19.395801
  H     15.891315   13.572867   20.836468
  H     14.453820   15.080236   21.517740
  H     15.804485   17.655347   19.488676

 Total Charge           Charge          ....    0
 Multiplicity           Mult            ....    1
 Number of Electrons    NEL             ....  154
 Basis Dimension        Dim             ....  828

ORBITAL ENERGIES
----------------

  NO   OCC          E(Eh)            E(eV)
   0   2.0000     -91.890112     -2500.4571
   1   2.0000     -20.598273      -560.5075
   2   2.0000     -20.586710      -560.1928
   3   2.0000     -20.555395      -559.3407
   4   2.0000     -15.629470      -425.2995
   5   2.0000     -15.608730      -424.7351
   6   2.0000     -11.394614      -310.0632
   7   2.0000     -11.385422      -309.8131
   8   2.0000     -11.335446      -308.4532
   9   2.0000     -11.315245      -307.9035
  10   2.0000     -11.308035      -307.7073
  11   2.0000     -11.306700      -307.6709
  12   2.0000     -11.262582      -306.4704
  13   2.0000     -11.261738      -306.4475
  14   2.0000     -11.258253      -306.3526
  15   2.0000     -11.255378      -306.2744
  16   2.0000     -11.244724      -305.9845
  17   2.0000     -11.240818      -305.8782
  18   2.0000     -11.237488      -305.7876
  19   2.0000     -11.231658      -305.6290
  20   2.0000      -8.895194      -242.0505
  21   2.0000      -6.576769      -178.9630
  22   2.0000      -6.574766      -178.9085
  23   2.0000      -6.574176      -178.8924
  24   2.0000      -1.449036       -39.4303
  25   2.0000      -1.418028       -38.5865
  26   2.0000      -1.359149       -36.9843
  27   2.0000      -1.341040       -36.4915
  28   2.0000      -1.238863       -33.7112
  29   2.0000      -1.159348       -31.5475
  30   2.0000      -1.124559       -30.6008
  31   2.0000      -1.046771       -28.4841
  32   2.0000      -1.035344       -28.1732
  33   2.0000      -1.017030       -27.6748
  34   2.0000      -1.003222       -27.2990
  35   2.0000      -0.989319       -26.9207
  36   2.0000      -0.925087       -25.1729
  37   2.0000      -0.891991       -24.2723
  38   2.0000      -0.850262       -23.1368
  39   2.0000      -0.840758       -22.8782
  40   2.0000      -0.835178       -22.7263
  41   2.0000      -0.826121       -22.4799
  42   2.0000      -0.755251       -20.5514
  43   2.0000      -0.736510       -20.0415
  44   2.0000      -0.729785       -19.8585
  45   2.0000      -0.696212       -18.9449
  46   2.0000      -0.687772       -18.7152
  47   2.0000      -0.678008       -18.4495
  48   2.0000      -0.675170       -18.3723
  49   2.0000      -0.662709       -18.0332
  50   2.0000      -0.653712       -17.7884
  51   2.0000      -0.645846       -17.5744
  52   2.0000      -0.637782       -17.3549
  53   2.0000      -0.611122       -16.6295
  54   2.0000      -0.603876       -16.4323
  55   2.0000      -0.601831       -16.3767
  56   2.0000      -0.596176       -16.2228
  57   2.0000      -0.591404       -16.0929
  58   2.0000      -0.577218       -15.7069
  59   2.0000      -0.573605       -15.6086
  60   2.0000      -0.563177       -15.3248
  61   2.0000      -0.554175       -15.0799
  62   2.0000      -0.546294       -14.8654
  63   2.0000      -0.525596       -14.3022
  64   2.0000      -0.521258       -14.1842
  65   2.0000      -0.512324       -13.9411
  66   2.0000      -0.500887       -13.6298
  67   2.0000      -0.493500       -13.4288
  68   2.0000      -0.487208       -13.2576
  69   2.0000      -0.465865       -12.6768
  70   2.0000      -0.457912       -12.4604
  71   2.0000      -0.453580       -12.3426
  72   2.0000      -0.354268        -9.6401
  73   2.0000      -0.350032        -9.5248
  74   2.0000      -0.329336        -8.9617
  75   2.0000      -0.322639        -8.7794
  76   2.0000      -0.319369        -8.6905
  77   0.0000       0.074515         2.0277
  78   0.0000       0.103593         2.8189
  79   0.0000       0.120608         3.2819
  80   0.0000       0.130458         3.5499
  81   0.0000       0.131357         3.5744

MULLIKEN ATOMIC CHARGES
-----------------------
   0 C :   -0.321888
   1 C :    0.043170
   2 O :   -0.370055
   3 C :    0.459376
   4 O :   -0.380578
   5 C :   -0.266134
   6 C :    0.182558
   7 C :   -0.286761
   8 N :   -0.134491
   9 C :    0.206445
  10 S :   -0.440186
  11 N :   -0.220052
  12 C :    0.076114
  13 C :    0.033063
  14 C :   -0.211176
  15 C :   -0.129974
  16 C :   -0.278367
  17 C :    0.323952
  18 O :   -0.357134
  19 C :   -0.280891
  20 H :    0.117018
  21 H :    0.120189
  22 H :    0.095201
  23 H :    0.097556
  24 H :    0.113775
  25 H :    0.124687
  26 H :    0.128609
  27 H :    0.106968
  28 H :    0.198373
  29 H :    0.201105
  30 H :    0.162236
  31 H :    0.173963
  32 H :    0.164117
  33 H :    0.131397
  34 H :    0.240936
  35 H :    0.176880
Sum of atomic charges:    0.0000000

LOEWDIN ATOMIC CHARGES
----------------------
   0 C :    0.104270
   1 C :   -0.014488
   2 O :    0.285311
   3 C :   -0.419786
   4 O :    0.129587
   5 C :   -0.092164
   6 C :   -0.072531
   7 C :    0.128414
   8 N :    0.405184
   9 C :   -0.456966
  10 S :   -0.036363
  11 N :    0.395835
  12 C :   -0.049200
  13 C :   -0.043468
  14 C :    0.021666
  15 C :    0.042620
  16 C :   -0.000820
  17 C :   -0.192650
  18 O :    0.394686
  19 C :    0.028300
  20 H :   -0.033323
  21 H :   -0.022502
  22 H :   -0.033044
  23 H :   -0.026571
  24 H :   -0.020689
  25 H :   -0.015427
  26 H :   -0.006223
  27 H :   -0.018308
  28 H :   -0.058361
  29 H :   -0.063850
  30 H :   -0.005490
  31 H :   -0.021882
  32 H :   -0.019277
  33 H :   -0.035144
  34 H :   -0.153526
  35 H :   -0.023820

  Mayer bond orders larger than 0.100000
B(  0-C ,  1-C ) :   0.9629 B(  0-C , 20-H ) :   0.9671 B(  0-C , 21-H ) :   0.9783
B(  0-C , 22-H ) :   0.9781 B(  1-C ,  2-O ) :   0.8988 B(  1-C , 23-H ) :   0.9764
B(  1-C , 24-H ) :   0.9840 B(  2-O ,  3-C ) :   1.0962 B(  3-C ,  4-O ) :   2.0775
B(  3-C ,  5-C ) :   0.9677 B(  5-C ,  6-C ) :   1.6842 B(  5-C , 12-C ) :   0.9352
B(  6-C ,  7-C ) :   0.9463 B(  6-C ,  8-N ) :   1.1287 B(  7-C , 25-H ) :   0.9652
B(  7-C , 26-H ) :   0.9679 B(  7-C , 27-H ) :   0.9877 B(  8-N ,  9-C ) :   1.1901
B(  8-N , 28-H ) :   0.9482 B(  9-C , 10-S ) :   1.6123 B(  9-C , 11-N ) :   1.2946
B( 11-N , 12-C ) :   0.9803 B( 11-N , 29-H ) :   0.9484 B( 12-C , 13-C ) :   0.9680
B( 12-C , 30-H ) :   0.9922 B( 13-C , 14-C ) :   1.3855 B( 13-C , 19-C ) :   1.3462
B( 14-C , 15-C ) :   1.3950 B( 14-C , 31-H ) :   0.9589 B( 15-C , 16-C ) :   1.3606
B( 15-C , 32-H ) :   0.9701 B( 16-C , 17-C ) :   1.3316 B( 16-C , 33-H ) :   0.9848
B( 17-C , 18-O ) :   1.1083 B( 17-C , 19-C ) :   1.3602 B( 18-O , 34-H ) :   0.9798
B( 19-C , 35-H ) :   0.9567

MP2 TOTAL ENERGY:    -1274.323150733 Eh
FINAL SINGLE POINT ENERGY     -1274.323150733171

DIPOLE MOMENT
-------------
                                X             Y             Z
Electronic contribution:      9.17696       6.93865       7.08277
Nuclear contribution   :    -10.54631      -8.30888      -7.61975
                        -----------------------------------------
Total Dipole Moment    :     -1.36935      -1.37023      -0.53698
                        -----------------------------------------
Magnitude (a.u.)       :      2.01023
Magnitude (Debye)      :      5.10959

Rotational constants in cm-1:     0.011434     0.009251     0.006516
Rotational constants in MHz :   342.790161   277.344429   195.335187

                             ****ORCA TERMINATED NORMALLY****
TOTAL RUN TIME: 0 days 1 hours 46 minutes 13 seconds 700 msec
