                         Program Version 4.2.0 -  RELEASE  -
|  1> ! ri-mp2 cc-pvtz cc-pvtz/c TightSCF NoKeepInts
|  2>
|  3> %scf
|  4>   MaxCore 4096
|  5> end
|  6> *xyz  0  1
|  7>     C       14.1844090   16.7299127   15.7485443
|  8>     C       15.2410924   15.6114072   15.8511353
|  9>     O       16.3914849   15.8866499   15.0213871
| 10>     C       17.4369748   16.6991630   15.3813482
| 11>     O       18.5323950   16.6000868   14.8623329
| 12>     C       17.1676473   17.7010900   16.4459606
| 13>     C       16.8030156   18.9465990   16.0665584
| 14>     C       16.3443903   19.3558170   14.6830717
| 15>     N       16.9128983   20.0280598   16.9417853
| 16>     C       17.6028664   19.9854420   18.1252915
| 17>     S       17.7953758   21.3272671   19.0723707
| 18>     N       18.1509345   18.7739063   18.4723568
| 19>     C       17.9230811   17.5015551   17.7581381
| 20>     C       17.3673343   16.3721047   18.6090595
| 21>     C       17.9359433   15.0876863   18.5390010
| 22>     C       17.4049187   14.0313100   19.2977450
| 23>     C       16.2954046   14.2616901   20.1293964
| 24>     C       15.7248711   15.5402706   20.1969155
| 25>     O       14.6468832   15.7628147   20.9896505
| 26>     C       16.2541472   16.5897704   19.4390668
| 27>     H       14.4617493   17.6107130   16.3361718
| 28>     H       13.2241865   16.3715508   16.1395504
| 29>     H       14.0305099   17.0278985   14.7041445
| 30>     H       15.5299981   15.4412701   16.8953173
| 31>     H       14.7814928   14.6825704   15.4890353
| 32>     H       15.9306289   18.5128350   14.1170467
| 33>     H       17.1887262   19.7514586   14.1037178
| 34>     H       15.5674607   20.1288462   14.7241284
| 35>     H       16.5622852   20.9337170   16.6722727
| 36>     H       18.6541087   18.7706289   19.3508878
| 37>     H       18.9558483   17.2665529   17.4589875
| 38>     H       18.7883430   14.9063905   17.8875915
| 39>     H       17.8522075   13.0401889   19.2382013
| 40>     H       15.8820269   13.4479966   20.7165758
| 41>     H       14.4651584   14.9428249   21.4736000
| 42>     H       15.7962017   17.5719552   19.4996557
| 43> *
| 44>
| 45>                          ****END OF INPUT****

CARTESIAN COORDINATES (ANGSTROEM)
---------------------------------
  C     14.184409   16.729913   15.748544
  C     15.241092   15.611407   15.851135
  O     16.391485   15.886650   15.021387
  C     17.436975   16.699163   15.381348
  O     18.532395   16.600087   14.862333
  C     17.167647   17.701090   16.445961
  C     16.803016   18.946599   16.066558
  C     16.344390   19.355817   14.683072
  N     16.912898   20.028060   16.941785
  C     17.602866   19.985442   18.125291
  S     17.795376   21.327267   19.072371
  N     18.150935   18.773906   18.472357
  C     17.923081   17.501555   17.758138
  C     17.367334   16.372105   18.609059
  C     17.935943   15.087686   18.539001
  C     17.404919   14.031310   19.297745
  C     16.295405   14.261690   20.129396
  C     15.724871   15.540271   20.196915
  O     14.646883   15.762815   20.989650
  C     16.254147   16.589770   19.439067
  H     14.461749   17.610713   16.336172
  H     13.224187   16.371551   16.139550
  H     14.030510   17.027898   14.704144
  H     15.529998   15.441270   16.895317
  H     14.781493   14.682570   15.489035
  H     15.930629   18.512835   14.117047
  H     17.188726   19.751459   14.103718
  H     15.567461   20.128846   14.724128
  H     16.562285   20.933717   16.672273
  H     18.654109   18.770629   19.350888
  H     18.955848   17.266553   17.458987
  H     18.788343   14.906390   17.887591
  H     17.852207   13.040189   19.238201
  H     15.882027   13.447997   20.716576
  H     14.465158   14.942825   21.473600
  H     15.796202   17.571955   19.499656

 Total Charge           Charge          ....    0
 Multiplicity           Mult            ....    1
 Number of Electrons    NEL             ....  154
 Basis Dimension        Dim             ....  828

ORBITAL ENERGIES
----------------

  NO   OCC          E(Eh)            E(eV)
   0   2.0000     -91.889153     -2500.4310
   1   2.0000     -20.605175      -560.6953
   2   2.0000     -20.599374      -560.5375
   3   2.0000     -20.552960      -559.2745
   4   2.0000     -15.625530      -425.1923
   5   2.0000     -15.610373      -424.7798
   6   2.0000     -11.398496      -310.1689
   7   2.0000     -11.385194      -309.8069
   8   2.0000     -11.326672      -308.2144
   9   2.0000     -11.323801      -308.1363
  10   2.0000     -11.314022      -307.8702
  11   2.0000     -11.304046      -307.5987
  12   2.0000     -11.270632      -306.6895
  13   2.0000     -11.264863      -306.5325
  14   2.0000     -11.261528      -306.4418
  15   2.0000     -11.257837      -306.3413
  16   2.0000     -11.252891      -306.2067
  17   2.0000     -11.247789      -306.0679
  18   2.0000     -11.247647      -306.0640
  19   2.0000     -11.233040      -305.6666
  20   2.0000      -8.894251      -242.0249
  21   2.0000      -6.575833      -178.9375
  22   2.0000      -6.573822      -178.8828
  23   2.0000      -6.573241      -178.8670
  24   2.0000      -1.446504       -39.3614
  25   2.0000      -1.424883       -38.7730
  26   2.0000      -1.361562       -37.0500
  27   2.0000      -1.339118       -36.4393
  28   2.0000      -1.238840       -33.7106
  29   2.0000      -1.167413       -31.7669
  30   2.0000      -1.127366       -30.6772
  31   2.0000      -1.052340       -28.6356
  32   2.0000      -1.037330       -28.2272
  33   2.0000      -1.025136       -27.8954
  34   2.0000      -1.005689       -27.3662
  35   2.0000      -0.990534       -26.9538
  36   2.0000      -0.927938       -25.2505
  37   2.0000      -0.893740       -24.3199
  38   2.0000      -0.852441       -23.1961
  39   2.0000      -0.844388       -22.9770
  40   2.0000      -0.843285       -22.9470
  41   2.0000      -0.833870       -22.6908
  42   2.0000      -0.755833       -20.5673
  43   2.0000      -0.739283       -20.1169
  44   2.0000      -0.727961       -19.8088
  45   2.0000      -0.703279       -19.1372
  46   2.0000      -0.693466       -18.8702
  47   2.0000      -0.680705       -18.5229
  48   2.0000      -0.676641       -18.4123
  49   2.0000      -0.665304       -18.1038
  50   2.0000      -0.653295       -17.7771
  51   2.0000      -0.640762       -17.4360
  52   2.0000      -0.637115       -17.3368
  53   2.0000      -0.618286       -16.8244
  54   2.0000      -0.612978       -16.6800
  55   2.0000      -0.607764       -16.5381
  56   2.0000      -0.607298       -16.5254
  57   2.0000      -0.584595       -15.9076
  58   2.0000      -0.581322       -15.8186
  59   2.0000      -0.577815       -15.7231
  60   2.0000      -0.566754       -15.4222
  61   2.0000      -0.555368       -15.1123
  62   2.0000      -0.539037       -14.6679
  63   2.0000      -0.535883       -14.5821
  64   2.0000      -0.527048       -14.3417
  65   2.0000      -0.517092       -14.0708
  66   2.0000      -0.505008       -13.7420
  67   2.0000      -0.501080       -13.6351
  68   2.0000      -0.491768       -13.3817
  69   2.0000      -0.463593       -12.6150
  70   2.0000      -0.454382       -12.3644
  71   2.0000      -0.453650       -12.3444
  72   2.0000      -0.357684        -9.7331
  73   2.0000      -0.353318        -9.6143
  74   2.0000      -0.332496        -9.0477
  75   2.0000      -0.328291        -8.9333
  76   2.0000      -0.318773        -8.6742
  77   0.0000       0.089730         2.4417
  78   0.0000       0.098246         2.6734
  79   0.0000       0.119354         3.2478
  80   0.0000       0.125552         3.4164
  81   0.0000       0.126569         3.4441

MULLIKEN ATOMIC CHARGES
-----------------------
   0 C :   -0.325953
   1 C :    0.032287
   2 O :   -0.320245
   3 C :    0.422584
   4 O :   -0.379491
   5 C :   -0.204618
   6 C :    0.132205
   7 C :   -0.311483
   8 N :   -0.137420
   9 C :    0.211601
  10 S :   -0.443563
  11 N :   -0.220241
  12 C :    0.043215
  13 C :   -0.000306
  14 C :   -0.210129
  15 C :   -0.130676
  16 C :   -0.273310
  17 C :    0.309204
  18 O :   -0.353877
  19 C :   -0.232248
  20 H :    0.106304
  21 H :    0.118507
  22 H :    0.106836
  23 H :    0.105153
  24 H :    0.124919
  25 H :    0.120175
  26 H :    0.149630
  27 H :    0.105401
  28 H :    0.197457
  29 H :    0.201125
  30 H :    0.168439
  31 H :    0.169821
  32 H :    0.165878
  33 H :    0.135163
  34 H :    0.242017
  35 H :    0.175640
Sum of atomic charges:    0.0000000

LOEWDIN ATOMIC CHARGES
----------------------
   0 C :    0.102144
   1 C :   -0.015492
   2 O :    0.298782
   3 C :   -0.416426
   4 O :    0.125554
   5 C :   -0.085643
   6 C :   -0.094066
   7 C :    0.128383
   8 N :    0.403593
   9 C :   -0.454291
  10 S :   -0.038603
  11 N :    0.395732
  12 C :   -0.054170
  13 C :   -0.046917
  14 C :    0.015289
  15 C :    0.045879
  16 C :    0.001451
  17 C :   -0.190796
  18 O :    0.397302
  19 C :    0.029665
  20 H :   -0.035353
  21 H :   -0.023100
  22 H :   -0.028795
  23 H :   -0.031634
  24 H :   -0.019977
  25 H :   -0.010647
  26 H :   -0.005500
  27 H :   -0.017403
  28 H :   -0.057922
  29 H :   -0.064487
  30 H :   -0.004727
  31 H :   -0.023270
  32 H :   -0.017541
  33 H :   -0.033421
  34 H :   -0.152099
  35 H :   -0.021495

  Mayer bond orders larger than 0.100000
B(  0-C ,  1-C ) :   0.9553 B(  0-C , 20-H ) :   0.9740 B(  0-C , 21-H ) :   0.9782
B(  0-C , 22-H ) :   0.9763 B(  1-C ,  2-O ) :   0.9034 B(  1-C , 23-H ) :   0.9657
B(  1-C , 24-H ) :   0.9854 B(  2-O ,  3-C ) :   1.1806 B(  3-C ,  4-O ) :   2.1213
B(  3-C ,  5-C ) :   0.8997 B(  5-C ,  6-C ) :   1.7384 B(  5-C , 12-C ) :   0.9440
B(  6-C ,  7-C ) :   0.9479 B(  6-C ,  8-N ) :   1.1019 B(  7-C , 25-H ) :   0.9774
B(  7-C , 26-H ) :   0.9625 B(  7-C , 27-H ) :   0.9764 B(  8-N ,  9-C ) :   1.2016
B(  8-N , 28-H ) :   0.9492 B(  9-C , 10-S ) :   1.6104 B(  9-C , 11-N ) :   1.2860
B( 11-N , 12-C ) :   0.9825 B( 11-N , 29-H ) :   0.9474 B( 12-C , 13-C ) :   0.9650
B( 12-C , 30-H ) :   0.9943 B( 13-C , 14-C ) :   1.3823 B( 13-C , 19-C ) :   1.3551
B( 14-C , 15-C ) :   1.3936 B( 14-C , 31-H ) :   0.9641 B( 15-C , 16-C ) :   1.3656
B( 15-C , 32-H ) :   0.9692 B( 16-C , 17-C ) :   1.3282 B( 16-C , 33-H ) :   0.9835
B( 17-C , 18-O ) :   1.1135 B( 17-C , 19-C ) :   1.3634 B( 18-O , 34-H ) :   0.9784
B( 19-C , 35-H ) :   0.9565

MP2 TOTAL ENERGY:    -1274.325943498 Eh
FINAL SINGLE POINT ENERGY     -1274.325943498189

DIPOLE MOMENT
-------------
                                X             Y             Z
Electronic contribution:      9.43200       6.00459       7.04687
Nuclear contribution   :    -10.97539      -7.66751      -7.00812
                        -----------------------------------------
Total Dipole Moment    :     -1.54339      -1.66293       0.03875
                        -----------------------------------------
Magnitude (a.u.)       :      2.26912
Magnitude (Debye)      :      5.76763

Rotational constants in cm-1:     0.011840     0.009034     0.006550
Rotational constants in MHz :   354.943092   270.834948   196.359683

                             ****ORCA TERMINATED NORMALLY****
TOTAL RUN TIME: 0 days 1 hours 44 minutes 5 seconds 581 msec
