                         Program Version 4.2.0 -  RELEASE  -
|  1> ! ri-mp2 cc-pvtz cc-pvtz/c TightSCF NoKeepInts
|  2>
|  3> %scf
|  4>   MaxCore 4096
|  5> end
|  6> *xyz  0  1
|  7>     C       14.5751827   15.9902547   16.4367701
|  8>     C       15.1538114   16.0963322   15.0102353
|  9>     O       16.5600244   15.7678825   14.9953500
| 10>     C       17.5907272   16.5270183   15.4943171
| 11>     O       18.7504080   16.2084412   15.3103655
| 12>     C       17.2323653   17.6339014   16.4239559
| 13>     C       16.8836024   18.8403214   15.9175602
| 14>     C       16.5668819   19.1662451   14.4720611
| 15>     N       16.8827582   19.9818190   16.7209378
| 16>     C       17.4703942   20.0488673   17.9569600
| 17>     S       17.5476706   21.4635150   18.8096521
| 18>     N       18.0192368   18.8849075   18.4371628
| 19>     C       17.8694617   17.5551625   17.8121400
| 20>     C       17.2537040   16.4835928   18.6997905
| 21>     C       17.7333198   15.1627533   18.6396103
| 22>     C       17.1579423   14.1569468   19.4336548
| 23>     C       16.0924737   14.4744710   20.2933319
| 24>     C       15.6101630   15.7891534   20.3525856
| 25>     O       14.5748856   16.0961791   21.1738230
| 26>     C       16.1847276   16.7889330   19.5611253
| 27>     H       14.9849329   15.1173942   16.9615727
| 28>     H       13.4851581   15.8766275   16.3949885
| 29>     H       14.7847029   16.8863768   17.0303913
| 30>     H       14.6330824   15.3639396   14.3795691
| 31>     H       14.9569163   17.0856488   14.5850475
| 32>     H       16.8362070   18.3545168   13.7853354
| 33>     H       17.1298981   20.0481067   14.1395521
| 34>     H       15.4995462   19.3817755   14.3407685
| 35>     H       16.5250291   20.8526090   16.3608327
| 36>     H       18.4505618   18.9604473   19.3499959
| 37>     H       18.9278612   17.3142277   17.6306925
| 38>     H       18.5507567   14.9139783   17.9654802
| 39>     H       17.5362224   13.1375218   19.3774298
| 40>     H       15.6439773   13.6999943   20.9068018
| 41>     H       14.3418149   15.2917303   21.6614491
| 42>     H       15.7905919   17.7984078   19.6167036
| 43> *
| 44>
| 45>                          ****END OF INPUT****

CARTESIAN COORDINATES (ANGSTROEM)
---------------------------------
  C     14.575183   15.990255   16.436770
  C     15.153811   16.096332   15.010235
  O     16.560024   15.767882   14.995350
  C     17.590727   16.527018   15.494317
  O     18.750408   16.208441   15.310365
  C     17.232365   17.633901   16.423956
  C     16.883602   18.840321   15.917560
  C     16.566882   19.166245   14.472061
  N     16.882758   19.981819   16.720938
  C     17.470394   20.048867   17.956960
  S     17.547671   21.463515   18.809652
  N     18.019237   18.884908   18.437163
  C     17.869462   17.555162   17.812140
  C     17.253704   16.483593   18.699790
  C     17.733320   15.162753   18.639610
  C     17.157942   14.156947   19.433655
  C     16.092474   14.474471   20.293332
  C     15.610163   15.789153   20.352586
  O     14.574886   16.096179   21.173823
  C     16.184728   16.788933   19.561125
  H     14.984933   15.117394   16.961573
  H     13.485158   15.876627   16.394989
  H     14.784703   16.886377   17.030391
  H     14.633082   15.363940   14.379569
  H     14.956916   17.085649   14.585047
  H     16.836207   18.354517   13.785335
  H     17.129898   20.048107   14.139552
  H     15.499546   19.381775   14.340768
  H     16.525029   20.852609   16.360833
  H     18.450562   18.960447   19.349996
  H     18.927861   17.314228   17.630692
  H     18.550757   14.913978   17.965480
  H     17.536222   13.137522   19.377430
  H     15.643977   13.699994   20.906802
  H     14.341815   15.291730   21.661449
  H     15.790592   17.798408   19.616704

 Total Charge           Charge          ....    0
 Multiplicity           Mult            ....    1
 Number of Electrons    NEL             ....  154
 Basis Dimension        Dim             ....  828

ORBITAL ENERGIES
----------------

  NO   OCC          E(Eh)            E(eV)
   0   2.0000     -91.889268     -2500.4341
   1   2.0000     -20.602502      -560.6226
   2   2.0000     -20.599944      -560.5530
   3   2.0000     -20.552573      -559.2640
   4   2.0000     -15.625970      -425.2043
   5   2.0000     -15.609964      -424.7687
   6   2.0000     -11.401357      -310.2467
   7   2.0000     -11.385422      -309.8131
   8   2.0000     -11.329714      -308.2972
   9   2.0000     -11.317527      -307.9656
  10   2.0000     -11.312601      -307.8315
  11   2.0000     -11.309491      -307.7469
  12   2.0000     -11.269089      -306.6475
  13   2.0000     -11.265738      -306.5563
  14   2.0000     -11.264109      -306.5120
  15   2.0000     -11.258378      -306.3560
  16   2.0000     -11.246536      -306.0338
  17   2.0000     -11.242004      -305.9105
  18   2.0000     -11.240413      -305.8672
  19   2.0000     -11.229038      -305.5577
  20   2.0000      -8.894382      -242.0284
  21   2.0000      -6.575968      -178.9412
  22   2.0000      -6.573950      -178.8863
  23   2.0000      -6.573372      -178.8705
  24   2.0000      -1.447805       -39.3968
  25   2.0000      -1.419663       -38.6310
  26   2.0000      -1.362477       -37.0749
  27   2.0000      -1.340090       -36.4657
  28   2.0000      -1.239108       -33.7178
  29   2.0000      -1.161981       -31.6191
  30   2.0000      -1.126972       -30.6665
  31   2.0000      -1.049224       -28.5508
  32   2.0000      -1.038100       -28.2481
  33   2.0000      -1.020118       -27.7588
  34   2.0000      -1.007170       -27.4065
  35   2.0000      -0.990425       -26.9508
  36   2.0000      -0.927301       -25.2331
  37   2.0000      -0.896305       -24.3897
  38   2.0000      -0.853827       -23.2338
  39   2.0000      -0.841954       -22.9107
  40   2.0000      -0.837304       -22.7842
  41   2.0000      -0.831716       -22.6321
  42   2.0000      -0.750579       -20.4243
  43   2.0000      -0.740064       -20.1382
  44   2.0000      -0.732589       -19.9348
  45   2.0000      -0.697530       -18.9808
  46   2.0000      -0.690370       -18.7859
  47   2.0000      -0.681019       -18.5315
  48   2.0000      -0.674536       -18.3551
  49   2.0000      -0.665165       -18.1001
  50   2.0000      -0.652133       -17.7454
  51   2.0000      -0.645288       -17.5592
  52   2.0000      -0.638509       -17.3747
  53   2.0000      -0.616520       -16.7764
  54   2.0000      -0.612467       -16.6661
  55   2.0000      -0.608269       -16.5519
  56   2.0000      -0.603458       -16.4209
  57   2.0000      -0.589317       -16.0361
  58   2.0000      -0.579023       -15.7560
  59   2.0000      -0.574126       -15.6228
  60   2.0000      -0.563897       -15.3444
  61   2.0000      -0.558320       -15.1927
  62   2.0000      -0.539699       -14.6860
  63   2.0000      -0.531942       -14.4749
  64   2.0000      -0.520288       -14.1577
  65   2.0000      -0.512553       -13.9473
  66   2.0000      -0.506913       -13.7938
  67   2.0000      -0.502301       -13.6683
  68   2.0000      -0.487545       -13.2668
  69   2.0000      -0.463553       -12.6139
  70   2.0000      -0.454596       -12.3702
  71   2.0000      -0.454154       -12.3582
  72   2.0000      -0.356767        -9.7081
  73   2.0000      -0.350103        -9.5268
  74   2.0000      -0.328939        -8.9509
  75   2.0000      -0.325582        -8.8595
  76   2.0000      -0.319472        -8.6933
  77   0.0000       0.090942         2.4746
  78   0.0000       0.105352         2.8668
  79   0.0000       0.113048         3.0762
  80   0.0000       0.126275         3.4361
  81   0.0000       0.129453         3.5226

MULLIKEN ATOMIC CHARGES
-----------------------
   0 C :   -0.315899
   1 C :    0.024092
   2 O :   -0.318290
   3 C :    0.423599
   4 O :   -0.380937
   5 C :   -0.222481
   6 C :    0.155391
   7 C :   -0.338122
   8 N :   -0.141673
   9 C :    0.211857
  10 S :   -0.444267
  11 N :   -0.233764
  12 C :    0.081242
  13 C :    0.020567
  14 C :   -0.227657
  15 C :   -0.131963
  16 C :   -0.277730
  17 C :    0.320231
  18 O :   -0.355648
  19 C :   -0.255745
  20 H :    0.122471
  21 H :    0.110992
  22 H :    0.107058
  23 H :    0.129563
  24 H :    0.085852
  25 H :    0.126054
  26 H :    0.136849
  27 H :    0.123612
  28 H :    0.196715
  29 H :    0.205211
  30 H :    0.170984
  31 H :    0.173784
  32 H :    0.165008
  33 H :    0.132511
  34 H :    0.241333
  35 H :    0.179200
Sum of atomic charges:   -0.0000000

LOEWDIN ATOMIC CHARGES
----------------------
   0 C :    0.103387
   1 C :   -0.019200
   2 O :    0.303452
   3 C :   -0.416263
   4 O :    0.122458
   5 C :   -0.077098
   6 C :   -0.098829
   7 C :    0.122222
   8 N :    0.401873
   9 C :   -0.456272
  10 S :   -0.039423
  11 N :    0.396765
  12 C :   -0.048429
  13 C :   -0.042250
  14 C :    0.018539
  15 C :    0.044825
  16 C :   -0.000595
  17 C :   -0.190480
  18 O :    0.396208
  19 C :    0.029525
  20 H :   -0.019791
  21 H :   -0.026260
  22 H :   -0.035509
  23 H :   -0.019024
  24 H :   -0.037901
  25 H :   -0.008766
  26 H :   -0.008992
  27 H :   -0.018217
  28 H :   -0.057634
  29 H :   -0.063784
  30 H :   -0.002686
  31 H :   -0.021800
  32 H :   -0.018264
  33 H :   -0.034676
  34 H :   -0.153091
  35 H :   -0.024021

  Mayer bond orders larger than 0.100000
B(  0-C ,  1-C ) :   0.9533 B(  0-C , 20-H ) :   0.9694 B(  0-C , 21-H ) :   0.9771
B(  0-C , 22-H ) :   0.9719 B(  1-C ,  2-O ) :   0.9050 B(  1-C , 23-H ) :   0.9847
B(  1-C , 24-H ) :   0.9738 B(  2-O ,  3-C ) :   1.1747 B(  3-C ,  4-O ) :   2.0997
B(  3-C ,  5-C ) :   0.9102 B(  5-C ,  6-C ) :   1.7249 B(  5-C , 12-C ) :   0.9297
B(  6-C ,  7-C ) :   0.9353 B(  6-C ,  8-N ) :   1.1013 B(  7-C , 25-H ) :   0.9789
B(  7-C , 26-H ) :   0.9718 B(  7-C , 27-H ) :   0.9674 B(  8-N ,  9-C ) :   1.2024
B(  8-N , 28-H ) :   0.9521 B(  9-C , 10-S ) :   1.6068 B(  9-C , 11-N ) :   1.2882
B( 11-N , 12-C ) :   0.9759 B( 11-N , 29-H ) :   0.9462 B( 12-C , 13-C ) :   0.9688
B( 12-C , 30-H ) :   0.9885 B( 13-C , 14-C ) :   1.3849 B( 13-C , 19-C ) :   1.3433
B( 14-C , 15-C ) :   1.4001 B( 14-C , 31-H ) :   0.9611 B( 15-C , 16-C ) :   1.3591
B( 15-C , 32-H ) :   0.9694 B( 16-C , 17-C ) :   1.3314 B( 16-C , 33-H ) :   0.9847
B( 17-C , 18-O ) :   1.1102 B( 17-C , 19-C ) :   1.3633 B( 18-O , 34-H ) :   0.9793
B( 19-C , 35-H ) :   0.9553

MP2 TOTAL ENERGY:    -1274.324893810 Eh
FINAL SINGLE POINT ENERGY     -1274.324893810192

DIPOLE MOMENT
-------------
                                X             Y             Z
Electronic contribution:      8.52006       6.97173       6.73922
Nuclear contribution   :    -10.14576      -8.27203      -7.30182
                        -----------------------------------------
Total Dipole Moment    :     -1.62571      -1.30030      -0.56260
                        -----------------------------------------
Magnitude (a.u.)       :      2.15644
Magnitude (Debye)      :      5.48123

Rotational constants in cm-1:     0.011793     0.009227     0.006473
Rotational constants in MHz :   353.554802   276.625752   194.047651

                             ****ORCA TERMINATED NORMALLY****
TOTAL RUN TIME: 0 days 1 hours 46 minutes 24 seconds 647 msec
