                         Program Version 4.2.0 -  RELEASE  -
|  1> ! ri-mp2 cc-pvtz cc-pvtz/c TightSCF NoKeepInts
|  2>
|  3> %scf
|  4>   MaxCore 4096
|  5> end
|  6> *xyz  0  1
|  7>     C       13.6980073   15.8486096   14.1348230
|  8>     C       15.1260317   15.4497756   14.5432313
|  9>     O       15.8157989   16.6512050   14.9231585
| 10>     C       16.8565819   16.5512210   15.7979847
| 11>     O       17.5177071   15.5307082   15.8978216
| 12>     C       17.0274673   17.7256512   16.7203386
| 13>     C       16.6805697   18.9934217   16.3717198
| 14>     C       15.8761022   19.4442645   15.1680573
| 15>     N       17.1046634   20.0840011   17.1354609
| 16>     C       18.0495065   20.0181825   18.1234556
| 17>     S       18.5840452   21.3704664   18.9115670
| 18>     N       18.5464498   18.7721834   18.4095066
| 19>     C       18.0401897   17.5033824   17.8513108
| 20>     C       17.5572733   16.5302115   18.9188017
| 21>     C       18.0921513   15.2319789   19.0012615
| 22>     C       17.6470308   14.3369864   19.9886208
| 23>     C       16.6596716   14.7444197   20.9021379
| 24>     C       16.1237154   16.0370957   20.8209563
| 25>     O       15.1674642   16.4317176   21.6991415
| 26>     C       16.5684482   16.9254154   19.8365671
| 27>     H       13.1779660   16.3344290   14.9698364
| 28>     H       13.1215318   14.9632620   13.8400112
| 29>     H       13.7183667   16.5434797   13.2861075
| 30>     H       15.0710690   14.7520532   15.3907039
| 31>     H       15.6482743   14.9525063   13.7151283
| 32>     H       16.3413166   19.0988856   14.2362476
| 33>     H       15.7889272   20.5352989   15.0973819
| 34>     H       14.8573538   19.0387880   15.2086044
| 35>     H       16.7655328   21.0082879   16.9220988
| 36>     H       19.2259149   18.7476887   19.1593813
| 37>     H       18.9520969   17.1254136   17.3664657
| 38>     H       18.8447739   14.9115226   18.2846937
| 39>     H       18.0635070   13.3325520   20.0384461
| 40>     H       16.3120603   14.0559393   21.6650768
| 41>     H       15.0147371   15.6959410   22.3107553
| 42>     H       16.1446965   17.9230545   19.7911384
| 43> *
| 44>
| 45>                          ****END OF INPUT****

CARTESIAN COORDINATES (ANGSTROEM)
---------------------------------
  C     13.698007   15.848610   14.134823
  C     15.126032   15.449776   14.543231
  O     15.815799   16.651205   14.923158
  C     16.856582   16.551221   15.797985
  O     17.517707   15.530708   15.897822
  C     17.027467   17.725651   16.720339
  C     16.680570   18.993422   16.371720
  C     15.876102   19.444264   15.168057
  N     17.104663   20.084001   17.135461
  C     18.049506   20.018183   18.123456
  S     18.584045   21.370466   18.911567
  N     18.546450   18.772183   18.409507
  C     18.040190   17.503382   17.851311
  C     17.557273   16.530212   18.918802
  C     18.092151   15.231979   19.001261
  C     17.647031   14.336986   19.988621
  C     16.659672   14.744420   20.902138
  C     16.123715   16.037096   20.820956
  O     15.167464   16.431718   21.699141
  C     16.568448   16.925415   19.836567
  H     13.177966   16.334429   14.969836
  H     13.121532   14.963262   13.840011
  H     13.718367   16.543480   13.286107
  H     15.071069   14.752053   15.390704
  H     15.648274   14.952506   13.715128
  H     16.341317   19.098886   14.236248
  H     15.788927   20.535299   15.097382
  H     14.857354   19.038788   15.208604
  H     16.765533   21.008288   16.922099
  H     19.225915   18.747689   19.159381
  H     18.952097   17.125414   17.366466
  H     18.844774   14.911523   18.284694
  H     18.063507   13.332552   20.038446
  H     16.312060   14.055939   21.665077
  H     15.014737   15.695941   22.310755
  H     16.144696   17.923054   19.791138

 Total Charge           Charge          ....    0
 Multiplicity           Mult            ....    1
 Number of Electrons    NEL             ....  154
 Basis Dimension        Dim             ....  828

ORBITAL ENERGIES
----------------

  NO   OCC          E(Eh)            E(eV)
   0   2.0000     -91.888091     -2500.4021
   1   2.0000     -20.601132      -560.5853
   2   2.0000     -20.591813      -560.3317
   3   2.0000     -20.545980      -559.0845
   4   2.0000     -15.628740      -425.2796
   5   2.0000     -15.605703      -424.6528
   6   2.0000     -11.394565      -310.0619
   7   2.0000     -11.382622      -309.7369
   8   2.0000     -11.338382      -308.5330
   9   2.0000     -11.307749      -307.6995
  10   2.0000     -11.304224      -307.6036
  11   2.0000     -11.300283      -307.4963
  12   2.0000     -11.260859      -306.4236
  13   2.0000     -11.259184      -306.3780
  14   2.0000     -11.254970      -306.2633
  15   2.0000     -11.247766      -306.0673
  16   2.0000     -11.238016      -305.8020
  17   2.0000     -11.235340      -305.7292
  18   2.0000     -11.234164      -305.6971
  19   2.0000     -11.230851      -305.6070
  20   2.0000      -8.893174      -241.9956
  21   2.0000      -6.574751      -178.9081
  22   2.0000      -6.572748      -178.8536
  23   2.0000      -6.572160      -178.8376
  24   2.0000      -1.455292       -39.6005
  25   2.0000      -1.411560       -38.4105
  26   2.0000      -1.357126       -36.9293
  27   2.0000      -1.339989       -36.4630
  28   2.0000      -1.237106       -33.6634
  29   2.0000      -1.152371       -31.3576
  30   2.0000      -1.120851       -30.4999
  31   2.0000      -1.045010       -28.4362
  32   2.0000      -1.036980       -28.2177
  33   2.0000      -1.009911       -27.4811
  34   2.0000      -0.998960       -27.1831
  35   2.0000      -0.984081       -26.7782
  36   2.0000      -0.920674       -25.0528
  37   2.0000      -0.888212       -24.1695
  38   2.0000      -0.847105       -23.0509
  39   2.0000      -0.834881       -22.7183
  40   2.0000      -0.828009       -22.5313
  41   2.0000      -0.819021       -22.2867
  42   2.0000      -0.762309       -20.7435
  43   2.0000      -0.736141       -20.0314
  44   2.0000      -0.726125       -19.7589
  45   2.0000      -0.690548       -18.7908
  46   2.0000      -0.683994       -18.6124
  47   2.0000      -0.681629       -18.5481
  48   2.0000      -0.675955       -18.3937
  49   2.0000      -0.659817       -17.9545
  50   2.0000      -0.649883       -17.6842
  51   2.0000      -0.641908       -17.4672
  52   2.0000      -0.633549       -17.2397
  53   2.0000      -0.603480       -16.4215
  54   2.0000      -0.599262       -16.3068
  55   2.0000      -0.597247       -16.2519
  56   2.0000      -0.595140       -16.1946
  57   2.0000      -0.577827       -15.7235
  58   2.0000      -0.573074       -15.5941
  59   2.0000      -0.565289       -15.3823
  60   2.0000      -0.561141       -15.2694
  61   2.0000      -0.556079       -15.1317
  62   2.0000      -0.542781       -14.7698
  63   2.0000      -0.519209       -14.1284
  64   2.0000      -0.515977       -14.0405
  65   2.0000      -0.510973       -13.9043
  66   2.0000      -0.504435       -13.7264
  67   2.0000      -0.494252       -13.4493
  68   2.0000      -0.480780       -13.0827
  69   2.0000      -0.464889       -12.6503
  70   2.0000      -0.459646       -12.5076
  71   2.0000      -0.454072       -12.3559
  72   2.0000      -0.353166        -9.6101
  73   2.0000      -0.344545        -9.3755
  74   2.0000      -0.327153        -8.9023
  75   2.0000      -0.317234        -8.6324
  76   2.0000      -0.314346        -8.5538
  77   0.0000       0.076578         2.0838
  78   0.0000       0.111446         3.0326
  79   0.0000       0.120369         3.2754
  80   0.0000       0.135646         3.6911
  81   0.0000       0.138421         3.7666

MULLIKEN ATOMIC CHARGES
-----------------------
   0 C :   -0.276083
   1 C :    0.045404
   2 O :   -0.340240
   3 C :    0.412912
   4 O :   -0.415700
   5 C :   -0.172331
   6 C :    0.158254
   7 C :   -0.282759
   8 N :   -0.128669
   9 C :    0.207382
  10 S :   -0.442298
  11 N :   -0.210702
  12 C :    0.042521
  13 C :    0.032139
  14 C :   -0.166659
  15 C :   -0.134649
  16 C :   -0.277294
  17 C :    0.313900
  18 O :   -0.359206
  19 C :   -0.251820
  20 H :    0.096425
  21 H :    0.102303
  22 H :    0.094750
  23 H :    0.091625
  24 H :    0.098156
  25 H :    0.126484
  26 H :    0.103684
  27 H :    0.128251
  28 H :    0.198865
  29 H :    0.199977
  30 H :    0.155221
  31 H :    0.158694
  32 H :    0.160056
  33 H :    0.128231
  34 H :    0.239946
  35 H :    0.163231
Sum of atomic charges:   -0.0000000

LOEWDIN ATOMIC CHARGES
----------------------
   0 C :    0.106332
   1 C :   -0.017072
   2 O :    0.305529
   3 C :   -0.417323
   4 O :    0.106978
   5 C :   -0.092811
   6 C :   -0.064347
   7 C :    0.125231
   8 N :    0.405500
   9 C :   -0.458606
  10 S :   -0.037541
  11 N :    0.396446
  12 C :   -0.048259
  13 C :   -0.040562
  14 C :    0.025184
  15 C :    0.040955
  16 C :   -0.001276
  17 C :   -0.192712
  18 O :    0.392958
  19 C :    0.029403
  20 H :   -0.027223
  21 H :   -0.022944
  22 H :   -0.028495
  23 H :   -0.026110
  24 H :   -0.029176
  25 H :   -0.009136
  26 H :   -0.021154
  27 H :   -0.009807
  28 H :   -0.058723
  29 H :   -0.063106
  30 H :   -0.008159
  31 H :   -0.023903
  32 H :   -0.021026
  33 H :   -0.036193
  34 H :   -0.154886
  35 H :   -0.023967

  Mayer bond orders larger than 0.100000
B(  0-C ,  1-C ) :   0.9709 B(  0-C , 20-H ) :   0.9768 B(  0-C , 21-H ) :   0.9788
B(  0-C , 22-H ) :   0.9776 B(  1-C ,  2-O ) :   0.9084 B(  1-C , 23-H ) :   0.9733
B(  1-C , 24-H ) :   0.9813 B(  2-O ,  3-C ) :   1.1382 B(  3-C ,  4-O ) :   1.9992
B(  3-C ,  5-C ) :   1.0390 B(  5-C ,  6-C ) :   1.6556 B(  5-C , 12-C ) :   0.9498
B(  6-C ,  7-C ) :   0.9542 B(  6-C ,  8-N ) :   1.1353 B(  7-C , 25-H ) :   0.9650
B(  7-C , 26-H ) :   0.9912 B(  7-C , 27-H ) :   0.9636 B(  8-N ,  9-C ) :   1.1852
B(  8-N , 28-H ) :   0.9468 B(  9-C , 10-S ) :   1.6083 B(  9-C , 11-N ) :   1.3067
B( 11-N , 12-C ) :   0.9763 B( 11-N , 29-H ) :   0.9485 B( 12-C , 13-C ) :   0.9732
B( 12-C , 30-H ) :   0.9969 B( 13-C , 14-C ) :   1.3762 B( 13-C , 19-C ) :   1.3654
B( 14-C , 15-C ) :   1.3975 B( 14-C , 31-H ) :   0.9639 B( 15-C , 16-C ) :   1.3585
B( 15-C , 32-H ) :   0.9712 B( 16-C , 17-C ) :   1.3334 B( 16-C , 33-H ) :   0.9860
B( 17-C , 18-O ) :   1.1034 B( 17-C , 19-C ) :   1.3676 B( 18-O , 34-H ) :   0.9806
B( 19-C , 35-H ) :   0.9604

MP2 TOTAL ENERGY:    -1274.339128207 Eh
FINAL SINGLE POINT ENERGY     -1274.339128206523

DIPOLE MOMENT
-------------
                                X             Y             Z
Electronic contribution:     11.17356       8.52864      11.46337
Nuclear contribution   :    -12.60174      -9.87604     -12.46551
                        -----------------------------------------
Total Dipole Moment    :     -1.42818      -1.34740      -1.00214
                        -----------------------------------------
Magnitude (a.u.)       :      2.20442
Magnitude (Debye)      :      5.60318

Rotational constants in cm-1:     0.009648     0.009077     0.005620
Rotational constants in MHz :   289.246570   272.133191   168.471228

                             ****ORCA TERMINATED NORMALLY****
TOTAL RUN TIME: 0 days 1 hours 38 minutes 45 seconds 977 msec
