                         Program Version 4.2.0 -  RELEASE  -
|  1> ! ri-mp2 cc-pvtz cc-pvtz/c TightSCF NoKeepInts
|  2>
|  3> %scf
|  4>   MaxCore 4096
|  5> end
|  6> *xyz  0  1
|  7>     C       15.4888014   15.2002028   13.3389126
|  8>     C       14.5623560   15.7077430   14.4638676
|  9>     O       15.2222531   16.7500181   15.2089399
| 10>     C       16.2580929   16.4618129   16.0535745
| 11>     O       16.6715321   15.3263124   16.2227945
| 12>     C       16.7933713   17.6372465   16.8241764
| 13>     C       16.7488373   18.9127964   16.3539356
| 14>     C       15.9877402   19.4423708   15.1540209
| 15>     N       17.4960649   19.9240729   16.9636663
| 16>     C       18.4745995   19.7109204   17.8963148
| 17>     S       19.3975215   20.9476484   18.4915853
| 18>     N       18.6649438   18.4121368   18.2933566
| 19>     C       17.8098706   17.2707960   17.9142339
| 20>     C       17.1916964   16.5626986   19.1127372
| 21>     C       17.3845785   15.1833951   19.3093754
| 22>     C       16.8167290   14.5331541   20.4178720
| 23>     C       16.0508954   15.2690078   21.3384114
| 24>     C       15.8557758   16.6433933   21.1438470
| 25>     O       15.1138025   17.3555026   22.0291663
| 26>     C       16.4219470   17.2876375   20.0391643
| 27>     H       15.8291041   16.0329765   12.7114201
| 28>     H       14.9544647   14.4873186   12.6993878
| 29>     H       16.3701008   14.6882104   13.7440809
| 30>     H       13.6450246   16.1108755   14.0161013
| 31>     H       14.2809732   14.8783890   15.1273029
| 32>     H       14.9070303   19.3130282   15.2929335
| 33>     H       16.2794656   18.9090930   14.2406718
| 34>     H       16.1655296   20.5094070   14.9728525
| 35>     H       17.3824528   20.8800487   16.6670799
| 36>     H       19.3771007   18.2841418   19.0011597
| 37>     H       18.5535493   16.6252099   17.4247578
| 38>     H       17.9639228   14.6110694   18.5887200
| 39>     H       16.9667650   13.4639198   20.5556382
| 40>     H       15.6091599   14.7704724   22.1946787
| 41>     H       14.8280717   16.7444382   22.7246132
| 42>     H       16.2628757   18.3525353   19.9066492
| 43> *
| 44>
| 45>                          ****END OF INPUT****

CARTESIAN COORDINATES (ANGSTROEM)
---------------------------------
  C     15.488801   15.200203   13.338913
  C     14.562356   15.707743   14.463868
  O     15.222253   16.750018   15.208940
  C     16.258093   16.461813   16.053574
  O     16.671532   15.326312   16.222794
  C     16.793371   17.637246   16.824176
  C     16.748837   18.912796   16.353936
  C     15.987740   19.442371   15.154021
  N     17.496065   19.924073   16.963666
  C     18.474600   19.710920   17.896315
  S     19.397521   20.947648   18.491585
  N     18.664944   18.412137   18.293357
  C     17.809871   17.270796   17.914234
  C     17.191696   16.562699   19.112737
  C     17.384578   15.183395   19.309375
  C     16.816729   14.533154   20.417872
  C     16.050895   15.269008   21.338411
  C     15.855776   16.643393   21.143847
  O     15.113803   17.355503   22.029166
  C     16.421947   17.287637   20.039164
  H     15.829104   16.032977   12.711420
  H     14.954465   14.487319   12.699388
  H     16.370101   14.688210   13.744081
  H     13.645025   16.110875   14.016101
  H     14.280973   14.878389   15.127303
  H     14.907030   19.313028   15.292933
  H     16.279466   18.909093   14.240672
  H     16.165530   20.509407   14.972852
  H     17.382453   20.880049   16.667080
  H     19.377101   18.284142   19.001160
  H     18.553549   16.625210   17.424758
  H     17.963923   14.611069   18.588720
  H     16.966765   13.463920   20.555638
  H     15.609160   14.770472   22.194679
  H     14.828072   16.744438   22.724613
  H     16.262876   18.352535   19.906649

 Total Charge           Charge          ....    0
 Multiplicity           Mult            ....    1
 Number of Electrons    NEL             ....  154
 Basis Dimension        Dim             ....  828

ORBITAL ENERGIES
----------------

  NO   OCC          E(Eh)            E(eV)
   0   2.0000     -91.887687     -2500.3911
   1   2.0000     -20.604478      -560.6764
   2   2.0000     -20.590720      -560.3020
   3   2.0000     -20.545198      -559.0633
   4   2.0000     -15.628174      -425.2642
   5   2.0000     -15.605367      -424.6436
   6   2.0000     -11.397250      -310.1350
   7   2.0000     -11.382174      -309.7247
   8   2.0000     -11.337997      -308.5226
   9   2.0000     -11.306705      -307.6711
  10   2.0000     -11.303896      -307.5946
  11   2.0000     -11.302488      -307.5563
  12   2.0000     -11.261348      -306.4369
  13   2.0000     -11.258988      -306.3726
  14   2.0000     -11.254087      -306.2393
  15   2.0000     -11.246822      -306.0416
  16   2.0000     -11.237025      -305.7750
  17   2.0000     -11.233153      -305.6696
  18   2.0000     -11.229973      -305.5831
  19   2.0000     -11.227397      -305.5130
  20   2.0000      -8.892774      -241.9847
  21   2.0000      -6.574353      -178.8972
  22   2.0000      -6.572348      -178.8427
  23   2.0000      -6.571762      -178.8267
  24   2.0000      -1.453501       -39.5518
  25   2.0000      -1.410463       -38.3807
  26   2.0000      -1.357607       -36.9424
  27   2.0000      -1.339623       -36.4530
  28   2.0000      -1.236755       -33.6538
  29   2.0000      -1.151501       -31.3339
  30   2.0000      -1.120294       -30.4848
  31   2.0000      -1.042256       -28.3612
  32   2.0000      -1.034698       -28.1556
  33   2.0000      -1.008963       -27.4553
  34   2.0000      -0.997965       -27.1560
  35   2.0000      -0.983076       -26.7508
  36   2.0000      -0.920488       -25.0478
  37   2.0000      -0.894998       -24.3541
  38   2.0000      -0.847509       -23.0619
  39   2.0000      -0.834373       -22.7045
  40   2.0000      -0.827072       -22.5058
  41   2.0000      -0.817121       -22.2350
  42   2.0000      -0.753409       -20.5013
  43   2.0000      -0.734300       -19.9813
  44   2.0000      -0.725382       -19.7387
  45   2.0000      -0.690122       -18.7792
  46   2.0000      -0.685158       -18.6441
  47   2.0000      -0.679798       -18.4982
  48   2.0000      -0.670658       -18.2495
  49   2.0000      -0.659774       -17.9534
  50   2.0000      -0.646589       -17.5946
  51   2.0000      -0.640039       -17.4163
  52   2.0000      -0.630727       -17.1630
  53   2.0000      -0.611692       -16.6450
  54   2.0000      -0.602161       -16.3856
  55   2.0000      -0.597315       -16.2538
  56   2.0000      -0.593880       -16.1603
  57   2.0000      -0.585146       -15.9226
  58   2.0000      -0.572092       -15.5674
  59   2.0000      -0.566011       -15.4019
  60   2.0000      -0.560422       -15.2499
  61   2.0000      -0.546789       -14.8789
  62   2.0000      -0.536901       -14.6098
  63   2.0000      -0.527314       -14.3489
  64   2.0000      -0.514737       -14.0067
  65   2.0000      -0.509749       -13.8710
  66   2.0000      -0.499715       -13.5979
  67   2.0000      -0.493483       -13.4284
  68   2.0000      -0.480492       -13.0748
  69   2.0000      -0.465022       -12.6539
  70   2.0000      -0.455448       -12.3934
  71   2.0000      -0.453095       -12.3293
  72   2.0000      -0.352894        -9.6027
  73   2.0000      -0.343638        -9.3509
  74   2.0000      -0.326768        -8.8918
  75   2.0000      -0.316823        -8.6212
  76   2.0000      -0.313336        -8.5263
  77   0.0000       0.078128         2.1260
  78   0.0000       0.112770         3.0686
  79   0.0000       0.120781         3.2866
  80   0.0000       0.136634         3.7180
  81   0.0000       0.140907         3.8343

MULLIKEN ATOMIC CHARGES
-----------------------
   0 C :   -0.302296
   1 C :    0.033755
   2 O :   -0.344745
   3 C :    0.422065
   4 O :   -0.431994
   5 C :   -0.173535
   6 C :    0.170017
   7 C :   -0.283225
   8 N :   -0.128918
   9 C :    0.207638
  10 S :   -0.443049
  11 N :   -0.210403
  12 C :    0.040259
  13 C :    0.031569
  14 C :   -0.164557
  15 C :   -0.134269
  16 C :   -0.276661
  17 C :    0.314604
  18 O :   -0.359122
  19 C :   -0.250260
  20 H :    0.089183
  21 H :    0.098340
  22 H :    0.123266
  23 H :    0.109569
  24 H :    0.104220
  25 H :    0.132133
  26 H :    0.122828
  27 H :    0.102246
  28 H :    0.198809
  29 H :    0.199914
  30 H :    0.154703
  31 H :    0.157874
  32 H :    0.159398
  33 H :    0.127865
  34 H :    0.239773
  35 H :    0.163007
Sum of atomic charges:   -0.0000000

LOEWDIN ATOMIC CHARGES
----------------------
   0 C :    0.104248
   1 C :   -0.015423
   2 O :    0.304681
   3 C :   -0.413207
   4 O :    0.103541
   5 C :   -0.089795
   6 C :   -0.063870
   7 C :    0.124510
   8 N :    0.405346
   9 C :   -0.458862
  10 S :   -0.038096
  11 N :    0.396583
  12 C :   -0.048210
  13 C :   -0.040369
  14 C :    0.024947
  15 C :    0.040958
  16 C :   -0.000982
  17 C :   -0.192238
  18 O :    0.393098
  19 C :    0.030076
  20 H :   -0.032034
  21 H :   -0.026488
  22 H :   -0.024984
  23 H :   -0.024949
  24 H :   -0.026418
  25 H :   -0.008674
  26 H :   -0.010806
  27 H :   -0.021350
  28 H :   -0.058865
  29 H :   -0.063006
  30 H :   -0.008717
  31 H :   -0.024311
  32 H :   -0.021215
  33 H :   -0.036239
  34 H :   -0.154989
  35 H :   -0.023892

  Mayer bond orders larger than 0.100000
B(  0-C ,  1-C ) :   0.9620 B(  0-C , 20-H ) :   0.9775 B(  0-C , 21-H ) :   0.9768
B(  0-C , 22-H ) :   0.9724 B(  1-C ,  2-O ) :   0.9020 B(  1-C , 23-H ) :   0.9848
B(  1-C , 24-H ) :   0.9779 B(  2-O ,  3-C ) :   1.1539 B(  3-C ,  4-O ) :   1.9555
B(  3-C ,  5-C ) :   1.0669 B(  5-C ,  6-C ) :   1.6506 B(  5-C , 12-C ) :   0.9502
B(  6-C ,  7-C ) :   0.9528 B(  6-C ,  8-N ) :   1.1363 B(  7-C , 25-H ) :   0.9629
B(  7-C , 26-H ) :   0.9660 B(  7-C , 27-H ) :   0.9915 B(  8-N ,  9-C ) :   1.1856
B(  8-N , 28-H ) :   0.9469 B(  9-C , 10-S ) :   1.6073 B(  9-C , 11-N ) :   1.3065
B( 11-N , 12-C ) :   0.9772 B( 11-N , 29-H ) :   0.9484 B( 12-C , 13-C ) :   0.9754
B( 12-C , 30-H ) :   0.9976 B( 13-C , 14-C ) :   1.3746 B( 13-C , 19-C ) :   1.3681
B( 14-C , 15-C ) :   1.3971 B( 14-C , 31-H ) :   0.9643 B( 15-C , 16-C ) :   1.3588
B( 15-C , 32-H ) :   0.9713 B( 16-C , 17-C ) :   1.3334 B( 16-C , 33-H ) :   0.9861
B( 17-C , 18-O ) :   1.1030 B( 17-C , 19-C ) :   1.3676 B( 18-O , 34-H ) :   0.9808
B( 19-C , 35-H ) :   0.9600

MP2 TOTAL ENERGY:    -1274.341480477 Eh
FINAL SINGLE POINT ENERGY     -1274.341480476803

DIPOLE MOMENT
-------------
                                X             Y             Z
Electronic contribution:      8.14306       8.95435      13.25229
Nuclear contribution   :     -9.72868     -10.07142     -14.29821
                        -----------------------------------------
Total Dipole Moment    :     -1.58562      -1.11707      -1.04592
                        -----------------------------------------
Magnitude (a.u.)       :      2.20363
Magnitude (Debye)      :      5.60118

Rotational constants in cm-1:     0.010135     0.008699     0.005442
Rotational constants in MHz :   303.839202   260.790951   163.161859

                             ****ORCA TERMINATED NORMALLY****
TOTAL RUN TIME: 0 days 1 hours 33 minutes 46 seconds 302 msec
