                         Program Version 4.2.0 -  RELEASE  -
|  1> ! ri-mp2 cc-pvtz cc-pvtz/c TightSCF NoKeepInts
|  2>
|  3> %scf
|  4>   MaxCore 4096
|  5> end
|  6> *xyz  0  1
|  7>     C       14.8777752   15.7295018   13.0109123
|  8>     C       14.8123484   15.4153972   14.5151511
|  9>     O       15.4508413   16.5063076   15.2055247
| 10>     C       16.4210637   16.2725172   16.1385556
| 11>     O       16.8210165   15.1505506   16.4028939
| 12>     C       16.9239543   17.4972650   16.8529666
| 13>     C       16.9065233   18.7397647   16.2991102
| 14>     C       16.2030088   19.1929547   15.0343221
| 15>     N       17.6276038   19.7880849   16.8769823
| 16>     C       18.5584195   19.6360754   17.8685170
| 17>     S       19.4556629   20.9087016   18.4261942
| 18>     N       18.7238703   18.3661695   18.3589236
| 19>     C       17.8846810   17.2026847   18.0132868
| 20>     C       17.2059494   16.5753882   19.2239925
| 21>     C       17.3876814   15.2130618   19.5229751
| 22>     C       16.7639307   14.6376825   20.6427599
| 23>     C       15.9529506   15.4319771   21.4714868
| 24>     C       15.7689465   16.7895465   21.1748276
| 25>     O       14.9836162   17.5578590   21.9712948
| 26>     C       16.3908240   17.3591969   20.0591713
| 27>     H       14.3743752   16.6790223   12.7906269
| 28>     H       14.3870762   14.9378178   12.4316632
| 29>     H       15.9203043   15.8022800   12.6768005
| 30>     H       13.7677786   15.3257897   14.8402703
| 31>     H       15.3127237   14.4552107   14.6995608
| 32>     H       15.1175722   19.0610701   15.1261344
| 33>     H       16.5439723   18.6114015   14.1687156
| 34>     H       16.3817765   20.2497317   14.8014916
| 35>     H       17.5325593   20.7225874   16.5130898
| 36>     H       19.3998684   18.2845772   19.1078623
| 37>     H       18.6492135   16.5261522   17.6043458
| 38>     H       18.0024864   14.5949470   18.8729929
| 39>     H       16.9060731   13.5806281   20.8599963
| 40>     H       15.4680557   14.9912489   22.3360700
| 41>     H       14.6628930   16.9945318   22.6913616
| 42>     H       16.2396037   18.4123165   19.8471698
| 43> *
| 44>
| 45>                          ****END OF INPUT****

CARTESIAN COORDINATES (ANGSTROEM)
---------------------------------
  C     14.877775   15.729502   13.010912
  C     14.812348   15.415397   14.515151
  O     15.450841   16.506308   15.205525
  C     16.421064   16.272517   16.138556
  O     16.821016   15.150551   16.402894
  C     16.923954   17.497265   16.852967
  C     16.906523   18.739765   16.299110
  C     16.203009   19.192955   15.034322
  N     17.627604   19.788085   16.876982
  C     18.558419   19.636075   17.868517
  S     19.455663   20.908702   18.426194
  N     18.723870   18.366169   18.358924
  C     17.884681   17.202685   18.013287
  C     17.205949   16.575388   19.223992
  C     17.387681   15.213062   19.522975
  C     16.763931   14.637683   20.642760
  C     15.952951   15.431977   21.471487
  C     15.768946   16.789547   21.174828
  O     14.983616   17.557859   21.971295
  C     16.390824   17.359197   20.059171
  H     14.374375   16.679022   12.790627
  H     14.387076   14.937818   12.431663
  H     15.920304   15.802280   12.676800
  H     13.767779   15.325790   14.840270
  H     15.312724   14.455211   14.699561
  H     15.117572   19.061070   15.126134
  H     16.543972   18.611401   14.168716
  H     16.381777   20.249732   14.801492
  H     17.532559   20.722587   16.513090
  H     19.399868   18.284577   19.107862
  H     18.649213   16.526152   17.604346
  H     18.002486   14.594947   18.872993
  H     16.906073   13.580628   20.859996
  H     15.468056   14.991249   22.336070
  H     14.662893   16.994532   22.691362
  H     16.239604   18.412316   19.847170

 Total Charge           Charge          ....    0
 Multiplicity           Mult            ....    1
 Number of Electrons    NEL             ....  154
 Basis Dimension        Dim             ....  828

ORBITAL ENERGIES
----------------

  NO   OCC          E(Eh)            E(eV)
   0   2.0000     -91.887626     -2500.3894
   1   2.0000     -20.605228      -560.6967
   2   2.0000     -20.590611      -560.2990
   3   2.0000     -20.544169      -559.0353
   4   2.0000     -15.628193      -425.2648
   5   2.0000     -15.605223      -424.6397
   6   2.0000     -11.396712      -310.1203
   7   2.0000     -11.382082      -309.7222
   8   2.0000     -11.338197      -308.5280
   9   2.0000     -11.306539      -307.6666
  10   2.0000     -11.303625      -307.5873
  11   2.0000     -11.299235      -307.4678
  12   2.0000     -11.261390      -306.4380
  13   2.0000     -11.259085      -306.3753
  14   2.0000     -11.253872      -306.2334
  15   2.0000     -11.246608      -306.0358
  16   2.0000     -11.236850      -305.7702
  17   2.0000     -11.234650      -305.7104
  18   2.0000     -11.233000      -305.6655
  19   2.0000     -11.229751      -305.5771
  20   2.0000      -8.892714      -241.9830
  21   2.0000      -6.574292      -178.8956
  22   2.0000      -6.572288      -178.8411
  23   2.0000      -6.571702      -178.8251
  24   2.0000      -1.453826       -39.5606
  25   2.0000      -1.410354       -38.3777
  26   2.0000      -1.357424       -36.9374
  27   2.0000      -1.339598       -36.4523
  28   2.0000      -1.236693       -33.6521
  29   2.0000      -1.151314       -31.3288
  30   2.0000      -1.120160       -30.4811
  31   2.0000      -1.045080       -28.4381
  32   2.0000      -1.036762       -28.2117
  33   2.0000      -1.008844       -27.4520
  34   2.0000      -0.998239       -27.1635
  35   2.0000      -0.983408       -26.7599
  36   2.0000      -0.920085       -25.0368
  37   2.0000      -0.890930       -24.2434
  38   2.0000      -0.846897       -23.0453
  39   2.0000      -0.833933       -22.6925
  40   2.0000      -0.826870       -22.5003
  41   2.0000      -0.817184       -22.2367
  42   2.0000      -0.762296       -20.7431
  43   2.0000      -0.736092       -20.0301
  44   2.0000      -0.725236       -19.7347
  45   2.0000      -0.689201       -18.7541
  46   2.0000      -0.684041       -18.6137
  47   2.0000      -0.680187       -18.5088
  48   2.0000      -0.674762       -18.3612
  49   2.0000      -0.653993       -17.7961
  50   2.0000      -0.652247       -17.7485
  51   2.0000      -0.639624       -17.4051
  52   2.0000      -0.631300       -17.1785
  53   2.0000      -0.606076       -16.4922
  54   2.0000      -0.602605       -16.3977
  55   2.0000      -0.597052       -16.2466
  56   2.0000      -0.593912       -16.1612
  57   2.0000      -0.581226       -15.8160
  58   2.0000      -0.572005       -15.5650
  59   2.0000      -0.564605       -15.3637
  60   2.0000      -0.562336       -15.3019
  61   2.0000      -0.546048       -14.8587
  62   2.0000      -0.545597       -14.8465
  63   2.0000      -0.529924       -14.4200
  64   2.0000      -0.514720       -14.0062
  65   2.0000      -0.508031       -13.8242
  66   2.0000      -0.499508       -13.5923
  67   2.0000      -0.493301       -13.4234
  68   2.0000      -0.481438       -13.1006
  69   2.0000      -0.464442       -12.6381
  70   2.0000      -0.459627       -12.5071
  71   2.0000      -0.452056       -12.3011
  72   2.0000      -0.352900        -9.6029
  73   2.0000      -0.343504        -9.3472
  74   2.0000      -0.326705        -8.8901
  75   2.0000      -0.316771        -8.6198
  76   2.0000      -0.313143        -8.5211
  77   0.0000       0.078046         2.1237
  78   0.0000       0.112932         3.0730
  79   0.0000       0.120790         3.2869
  80   0.0000       0.136299         3.7089
  81   0.0000       0.139173         3.7871

MULLIKEN ATOMIC CHARGES
-----------------------
   0 C :   -0.277582
   1 C :    0.021668
   2 O :   -0.340857
   3 C :    0.429487
   4 O :   -0.428255
   5 C :   -0.181509
   6 C :    0.164623
   7 C :   -0.288441
   8 N :   -0.128875
   9 C :    0.207518
  10 S :   -0.443142
  11 N :   -0.210652
  12 C :    0.040282
  13 C :    0.032273
  14 C :   -0.164757
  15 C :   -0.134116
  16 C :   -0.276678
  17 C :    0.314526
  18 O :   -0.359256
  19 C :   -0.250556
  20 H :    0.092802
  21 H :    0.102210
  22 H :    0.096535
  23 H :    0.098268
  24 H :    0.121902
  25 H :    0.131974
  26 H :    0.123821
  27 H :    0.105608
  28 H :    0.198712
  29 H :    0.199973
  30 H :    0.154802
  31 H :    0.157909
  32 H :    0.159362
  33 H :    0.127799
  34 H :    0.239784
  35 H :    0.162838
Sum of atomic charges:   -0.0000000

LOEWDIN ATOMIC CHARGES
----------------------
   0 C :    0.103085
   1 C :   -0.010309
   2 O :    0.308374
   3 C :   -0.414688
   4 O :    0.101474
   5 C :   -0.090517
   6 C :   -0.063740
   7 C :    0.124350
   8 N :    0.405361
   9 C :   -0.458919
  10 S :   -0.038157
  11 N :    0.396641
  12 C :   -0.048372
  13 C :   -0.040371
  14 C :    0.025289
  15 C :    0.041062
  16 C :   -0.001017
  17 C :   -0.192344
  18 O :    0.393006
  19 C :    0.029898
  20 H :   -0.029938
  21 H :   -0.023953
  22 H :   -0.027232
  23 H :   -0.029384
  24 H :   -0.027500
  25 H :   -0.009258
  26 H :   -0.010390
  27 H :   -0.021262
  28 H :   -0.058904
  29 H :   -0.062981
  30 H :   -0.008671
  31 H :   -0.024188
  32 H :   -0.021201
  33 H :   -0.036261
  34 H :   -0.155004
  35 H :   -0.023978

  Mayer bond orders larger than 0.100000
B(  0-C ,  1-C ) :   0.9705 B(  0-C , 20-H ) :   0.9787 B(  0-C , 21-H ) :   0.9773
B(  0-C , 22-H ) :   0.9778 B(  1-C ,  2-O ) :   0.8861 B(  1-C , 23-H ) :   0.9816
B(  1-C , 24-H ) :   0.9736 B(  2-O ,  3-C ) :   1.1696 B(  3-C ,  4-O ) :   1.9783
B(  3-C ,  5-C ) :   1.0485 B(  5-C ,  6-C ) :   1.6520 B(  5-C , 12-C ) :   0.9512
B(  6-C ,  7-C ) :   0.9512 B(  6-C ,  8-N ) :   1.1367 B(  7-C , 25-H ) :   0.9629
B(  7-C , 26-H ) :   0.9661 B(  7-C , 27-H ) :   0.9928 B(  8-N ,  9-C ) :   1.1851
B(  8-N , 28-H ) :   0.9469 B(  9-C , 10-S ) :   1.6072 B(  9-C , 11-N ) :   1.3072
B( 11-N , 12-C ) :   0.9768 B( 11-N , 29-H ) :   0.9485 B( 12-C , 13-C ) :   0.9754
B( 12-C , 30-H ) :   0.9977 B( 13-C , 14-C ) :   1.3756 B( 13-C , 19-C ) :   1.3670
B( 14-C , 15-C ) :   1.3973 B( 14-C , 31-H ) :   0.9641 B( 15-C , 16-C ) :   1.3587
B( 15-C , 32-H ) :   0.9713 B( 16-C , 17-C ) :   1.3334 B( 16-C , 33-H ) :   0.9861
B( 17-C , 18-O ) :   1.1029 B( 17-C , 19-C ) :   1.3678 B( 18-O , 34-H ) :   0.9808
B( 19-C , 35-H ) :   0.9602

MP2 TOTAL ENERGY:    -1274.341485446 Eh
FINAL SINGLE POINT ENERGY     -1274.341485446491

DIPOLE MOMENT
-------------
                                X             Y             Z
Electronic contribution:      9.35106       7.96108      13.93196
Nuclear contribution   :    -10.92281      -9.11651     -15.00135
                        -----------------------------------------
Total Dipole Moment    :     -1.57175      -1.15544      -1.06939
                        -----------------------------------------
Magnitude (a.u.)       :      2.22464
Magnitude (Debye)      :      5.65459

Rotational constants in cm-1:     0.010267     0.008402     0.005349
Rotational constants in MHz :   307.811321   251.897951   160.373739

                             ****ORCA TERMINATED NORMALLY****
TOTAL RUN TIME: 0 days 1 hours 34 minutes 44 seconds 117 msec
