                         Program Version 4.2.0 -  RELEASE  -
|  1> ! ri-mp2 cc-pvtz cc-pvtz/c TightSCF NoKeepInts
|  2>
|  3> %scf
|  4>   MaxCore 4096
|  5> end
|  6> *xyz  0  1
|  7>     C       14.3238082   15.2635499   15.0965738
|  8>     C       15.4118550   15.4979645   16.1588501
|  9>     O       16.6214288   15.8701544   15.4714617
| 10>     C       16.8698030   17.1899114   15.2323660
| 11>     O       16.9407433   17.6014661   14.0891401
| 12>     C       17.0120568   18.0523652   16.4582157
| 13>     C       16.8751893   19.3974933   16.3378804
| 14>     C       16.2034464   20.1428050   15.2032346
| 15>     N       17.3507286   20.2666331   17.3213100
| 16>     C       18.1909266   19.8940025   18.3348620
| 17>     S       18.8221810   20.9907736   19.3993905
| 18>     N       18.5029305   18.5599706   18.4074275
| 19>     C       17.8834070   17.4916902   17.5995736
| 20>     C       17.2678112   16.4012101   18.4632575
| 21>     C       17.7847250   15.0926641   18.4423824
| 22>     C       17.2151023   14.0888360   19.2435686
| 23>     C       16.1260897   14.3983317   20.0765698
| 24>     C       15.6182742   15.7043807   20.1084518
| 25>     O       14.5667358   16.0062518   20.9102432
| 26>     C       16.1858188   16.7012396   19.3085563
| 27>     H       14.1230309   16.1841033   14.5340400
| 28>     H       13.3885974   14.9377197   15.5677352
| 29>     H       14.6391500   14.4888486   14.3862813
| 30>     H       15.0824307   16.2691180   16.8661424
| 31>     H       15.5749738   14.5644144   16.7127845
| 32>     H       15.3380030   19.5855491   14.8232448
| 33>     H       16.9003078   20.2734242   14.3649015
| 34>     H       15.8435362   21.1343759   15.5023232
| 35>     H       17.1613366   21.2539695   17.2521507
| 36>     H       19.1119004   18.3122726   19.1774612
| 37>     H       18.7831862   17.1069237   17.0980430
| 38>     H       18.6236516   14.8503195   17.7945160
| 39>     H       17.6179931   13.0774263   19.2176760
| 40>     H       15.6835202   13.6257715   20.6972128
| 41>     H       14.3568596   15.2149093   21.4293480
| 42>     H       15.7854606   17.7091606   19.3508238
| 43> *
| 44>
| 45>                          ****END OF INPUT****

CARTESIAN COORDINATES (ANGSTROEM)
---------------------------------
  C     14.323808   15.263550   15.096574
  C     15.411855   15.497964   16.158850
  O     16.621429   15.870154   15.471462
  C     16.869803   17.189911   15.232366
  O     16.940743   17.601466   14.089140
  C     17.012057   18.052365   16.458216
  C     16.875189   19.397493   16.337880
  C     16.203446   20.142805   15.203235
  N     17.350729   20.266633   17.321310
  C     18.190927   19.894002   18.334862
  S     18.822181   20.990774   19.399390
  N     18.502930   18.559971   18.407428
  C     17.883407   17.491690   17.599574
  C     17.267811   16.401210   18.463257
  C     17.784725   15.092664   18.442382
  C     17.215102   14.088836   19.243569
  C     16.126090   14.398332   20.076570
  C     15.618274   15.704381   20.108452
  O     14.566736   16.006252   20.910243
  C     16.185819   16.701240   19.308556
  H     14.123031   16.184103   14.534040
  H     13.388597   14.937720   15.567735
  H     14.639150   14.488849   14.386281
  H     15.082431   16.269118   16.866142
  H     15.574974   14.564414   16.712785
  H     15.338003   19.585549   14.823245
  H     16.900308   20.273424   14.364901
  H     15.843536   21.134376   15.502323
  H     17.161337   21.253970   17.252151
  H     19.111900   18.312273   19.177461
  H     18.783186   17.106924   17.098043
  H     18.623652   14.850319   17.794516
  H     17.617993   13.077426   19.217676
  H     15.683520   13.625771   20.697213
  H     14.356860   15.214909   21.429348
  H     15.785461   17.709161   19.350824

 Total Charge           Charge          ....    0
 Multiplicity           Mult            ....    1
 Number of Electrons    NEL             ....  154
 Basis Dimension        Dim             ....  828

ORBITAL ENERGIES
----------------

  NO   OCC          E(Eh)            E(eV)
   0   2.0000     -91.891576     -2500.4969
   1   2.0000     -20.603812      -560.6582
   2   2.0000     -20.587281      -560.2084
   3   2.0000     -20.548926      -559.1647
   4   2.0000     -15.630572      -425.3295
   5   2.0000     -15.610680      -424.7882
   6   2.0000     -11.392978      -310.0187
   7   2.0000     -11.386154      -309.8330
   8   2.0000     -11.336992      -308.4952
   9   2.0000     -11.321810      -308.0821
  10   2.0000     -11.315069      -307.8987
  11   2.0000     -11.296417      -307.3911
  12   2.0000     -11.267903      -306.6152
  13   2.0000     -11.262660      -306.4726
  14   2.0000     -11.259248      -306.3797
  15   2.0000     -11.254711      -306.2562
  16   2.0000     -11.252019      -306.1830
  17   2.0000     -11.246408      -306.0303
  18   2.0000     -11.246212      -306.0250
  19   2.0000     -11.224131      -305.4241
  20   2.0000      -8.896627      -242.0895
  21   2.0000      -6.578193      -179.0017
  22   2.0000      -6.576200      -178.9475
  23   2.0000      -6.575603      -178.9312
  24   2.0000      -1.446914       -39.3725
  25   2.0000      -1.423590       -38.7378
  26   2.0000      -1.356415       -36.9099
  27   2.0000      -1.342979       -36.5443
  28   2.0000      -1.241763       -33.7901
  29   2.0000      -1.164888       -31.6982
  30   2.0000      -1.123777       -30.5795
  31   2.0000      -1.049279       -28.5523
  32   2.0000      -1.031977       -28.0815
  33   2.0000      -1.022969       -27.8364
  34   2.0000      -1.001594       -27.2548
  35   2.0000      -0.988681       -26.9034
  36   2.0000      -0.926701       -25.2168
  37   2.0000      -0.882414       -24.0117
  38   2.0000      -0.851816       -23.1791
  39   2.0000      -0.844403       -22.9774
  40   2.0000      -0.841989       -22.9117
  41   2.0000      -0.834106       -22.6972
  42   2.0000      -0.757202       -20.6045
  43   2.0000      -0.738744       -20.1023
  44   2.0000      -0.719684       -19.5836
  45   2.0000      -0.702341       -19.1117
  46   2.0000      -0.691661       -18.8211
  47   2.0000      -0.678370       -18.4594
  48   2.0000      -0.671377       -18.2691
  49   2.0000      -0.670941       -18.2572
  50   2.0000      -0.649332       -17.6692
  51   2.0000      -0.648542       -17.6477
  52   2.0000      -0.637661       -17.3516
  53   2.0000      -0.613625       -16.6976
  54   2.0000      -0.608232       -16.5508
  55   2.0000      -0.603448       -16.4206
  56   2.0000      -0.595827       -16.2133
  57   2.0000      -0.582475       -15.8500
  58   2.0000      -0.575880       -15.6705
  59   2.0000      -0.570916       -15.5354
  60   2.0000      -0.562073       -15.2948
  61   2.0000      -0.548696       -14.9308
  62   2.0000      -0.542787       -14.7700
  63   2.0000      -0.529675       -14.4132
  64   2.0000      -0.520695       -14.1688
  65   2.0000      -0.516550       -14.0561
  66   2.0000      -0.504835       -13.7373
  67   2.0000      -0.498009       -13.5515
  68   2.0000      -0.485865       -13.2211
  69   2.0000      -0.467340       -12.7170
  70   2.0000      -0.454520       -12.3681
  71   2.0000      -0.447219       -12.1694
  72   2.0000      -0.357995        -9.7415
  73   2.0000      -0.353324        -9.6144
  74   2.0000      -0.331544        -9.0218
  75   2.0000      -0.328814        -8.9475
  76   2.0000      -0.321610        -8.7514
  77   0.0000       0.074990         2.0406
  78   0.0000       0.094998         2.5850
  79   0.0000       0.120413         3.2766
  80   0.0000       0.127755         3.4764
  81   0.0000       0.128423         3.4946

MULLIKEN ATOMIC CHARGES
-----------------------
   0 C :   -0.258101
   1 C :    0.008087
   2 O :   -0.351803
   3 C :    0.443134
   4 O :   -0.378631
   5 C :   -0.265709
   6 C :    0.168170
   7 C :   -0.269790
   8 N :   -0.129360
   9 C :    0.208663
  10 S :   -0.437571
  11 N :   -0.207775
  12 C :    0.042762
  13 C :    0.008040
  14 C :   -0.168384
  15 C :   -0.146717
  16 C :   -0.268805
  17 C :    0.308453
  18 O :   -0.355396
  19 C :   -0.233743
  20 H :    0.092766
  21 H :    0.089919
  22 H :    0.103113
  23 H :    0.102519
  24 H :    0.117956
  25 H :    0.121665
  26 H :    0.139442
  27 H :    0.095207
  28 H :    0.199784
  29 H :    0.200049
  30 H :    0.153499
  31 H :    0.152357
  32 H :    0.166712
  33 H :    0.135213
  34 H :    0.241887
  35 H :    0.172387
Sum of atomic charges:   -0.0000000

LOEWDIN ATOMIC CHARGES
----------------------
   0 C :    0.106237
   1 C :   -0.027421
   2 O :    0.300999
   3 C :   -0.426723
   4 O :    0.125043
   5 C :   -0.104907
   6 C :   -0.062412
   7 C :    0.129558
   8 N :    0.407104
   9 C :   -0.457329
  10 S :   -0.033110
  11 N :    0.395288
  12 C :   -0.053638
  13 C :   -0.042749
  14 C :    0.021261
  15 C :    0.041898
  16 C :    0.000956
  17 C :   -0.192098
  18 O :    0.396432
  19 C :    0.034099
  20 H :   -0.028387
  21 H :   -0.028390
  22 H :   -0.023784
  23 H :   -0.036859
  24 H :   -0.022949
  25 H :   -0.007474
  26 H :   -0.003923
  27 H :   -0.022373
  28 H :   -0.056263
  29 H :   -0.063366
  30 H :   -0.011230
  31 H :   -0.026384
  32 H :   -0.019166
  33 H :   -0.033624
  34 H :   -0.152293
  35 H :   -0.022023

  Mayer bond orders larger than 0.100000
B(  0-C ,  1-C ) :   0.9816 B(  0-C , 20-H ) :   0.9764 B(  0-C , 21-H ) :   0.9773
B(  0-C , 22-H ) :   0.9797 B(  1-C ,  2-O ) :   0.8808 B(  1-C , 23-H ) :   0.9613
B(  1-C , 24-H ) :   0.9767 B(  2-O ,  3-C ) :   1.1374 B(  3-C ,  4-O ) :   2.0862
B(  3-C ,  5-C ) :   0.9945 B(  5-C ,  6-C ) :   1.6525 B(  5-C , 12-C ) :   0.9612
B(  6-C ,  7-C ) :   0.9597 B(  6-C ,  8-N ) :   1.1479 B(  7-C , 25-H ) :   0.9713
B(  7-C , 26-H ) :   0.9541 B(  7-C , 27-H ) :   0.9860 B(  8-N ,  9-C ) :   1.1891
B(  8-N , 28-H ) :   0.9478 B(  9-C , 10-S ) :   1.6139 B(  9-C , 11-N ) :   1.2988
B( 11-N , 12-C ) :   0.9762 B( 11-N , 29-H ) :   0.9481 B( 12-C , 13-C ) :   0.9653
B( 12-C , 30-H ) :   1.0060 B( 13-C , 14-C ) :   1.3540 B( 13-C , 19-C ) :   1.3571
B( 14-C , 15-C ) :   1.3958 B( 14-C , 31-H ) :   0.9744 B( 15-C , 16-C ) :   1.3602
B( 15-C , 32-H ) :   0.9695 B( 16-C , 17-C ) :   1.3295 B( 16-C , 33-H ) :   0.9831
B( 17-C , 18-O ) :   1.1093 B( 17-C , 19-C ) :   1.3652 B( 18-O , 34-H ) :   0.9786
B( 19-C , 35-H ) :   0.9588

MP2 TOTAL ENERGY:    -1274.325026450 Eh
FINAL SINGLE POINT ENERGY     -1274.325026449544

DIPOLE MOMENT
-------------
                                X             Y             Z
Electronic contribution:     10.08723       8.70881       7.67802
Nuclear contribution   :    -11.35037     -10.28309      -7.35720
                        -----------------------------------------
Total Dipole Moment    :     -1.26313      -1.57428       0.32081
                        -----------------------------------------
Magnitude (a.u.)       :      2.04372
Magnitude (Debye)      :      5.19472

Rotational constants in cm-1:     0.011805     0.008989     0.006057
Rotational constants in MHz :   353.905373   269.487133   181.580909

                             ****ORCA TERMINATED NORMALLY****
TOTAL RUN TIME: 0 days 2 hours 5 minutes 54 seconds 150 msec
