                         Program Version 4.2.0 -  RELEASE  -
|  1> ! ri-mp2 cc-pvtz cc-pvtz/c TightSCF NoKeepInts
|  2>
|  3> %scf
|  4>   MaxCore 4096
|  5> end
|  6> *xyz  0  1
|  7>     C       14.5201866   16.0698835   16.0003810
|  8>     C       15.6650628   15.0346727   15.8888284
|  9>     O       16.9594795   15.6030840   15.5627671
| 10>     C       17.1121170   16.9057313   15.1885794
| 11>     O       17.1527517   17.2051935   14.0093088
| 12>     C       17.1180256   17.8844872   16.3330711
| 13>     C       16.9736307   19.2111906   16.0840617
| 14>     C       16.4251336   19.8468675   14.8234637
| 15>     N       17.3214736   20.1689418   17.0384746
| 16>     C       18.0403135   19.9008075   18.1714367
| 17>     S       18.5264848   21.0965604   19.2052265
| 18>     N       18.3585679   18.5849865   18.3937148
| 19>     C       17.8555129   17.4396171   17.6110540
| 20>     C       17.1557493   16.4074934   18.4843497
| 21>     C       17.6910522   15.1144646   18.6330351
| 22>     C       17.0527077   14.1678466   19.4519840
| 23>     C       15.8753376   14.5201645   20.1339648
| 24>     C       15.3501501   15.8129101   20.0009517
| 25>     O       14.2155718   16.1573496   20.6598627
| 26>     C       15.9888369   16.7532111   19.1866463
| 27>     H       14.6898487   16.7862479   16.8100703
| 28>     H       13.5745432   15.5563875   16.2125610
| 29>     H       14.3919781   16.6208247   15.0598555
| 30>     H       15.7370092   14.4699412   16.8266148
| 31>     H       15.3982745   14.3164823   15.1026244
| 32>     H       17.1950224   19.8751574   14.0413469
| 33>     H       16.0689204   20.8712979   14.9838559
| 34>     H       15.5802135   19.2687007   14.4287626
| 35>     H       17.1261325   21.1422874   16.8660433
| 36>     H       18.8721196   18.4153644   19.2495480
| 37>     H       18.8130389   17.0352928   17.2526910
| 38>     H       18.5990508   14.8391090   18.1022897
| 39>     H       17.4707639   13.1678182   19.5562847
| 40>     H       15.3786505   13.7922006   20.7672785
| 41>     H       13.9583289   15.4044910   21.2134612
| 42>     H       15.5749591   17.7529337   19.1035504
| 43> *
| 44>
| 45>                          ****END OF INPUT****

CARTESIAN COORDINATES (ANGSTROEM)
---------------------------------
  C     14.520187   16.069883   16.000381
  C     15.665063   15.034673   15.888828
  O     16.959480   15.603084   15.562767
  C     17.112117   16.905731   15.188579
  O     17.152752   17.205193   14.009309
  C     17.118026   17.884487   16.333071
  C     16.973631   19.211191   16.084062
  C     16.425134   19.846867   14.823464
  N     17.321474   20.168942   17.038475
  C     18.040313   19.900807   18.171437
  S     18.526485   21.096560   19.205226
  N     18.358568   18.584986   18.393715
  C     17.855513   17.439617   17.611054
  C     17.155749   16.407493   18.484350
  C     17.691052   15.114465   18.633035
  C     17.052708   14.167847   19.451984
  C     15.875338   14.520164   20.133965
  C     15.350150   15.812910   20.000952
  O     14.215572   16.157350   20.659863
  C     15.988837   16.753211   19.186646
  H     14.689849   16.786248   16.810070
  H     13.574543   15.556387   16.212561
  H     14.391978   16.620825   15.059855
  H     15.737009   14.469941   16.826615
  H     15.398274   14.316482   15.102624
  H     17.195022   19.875157   14.041347
  H     16.068920   20.871298   14.983856
  H     15.580213   19.268701   14.428763
  H     17.126133   21.142287   16.866043
  H     18.872120   18.415364   19.249548
  H     18.813039   17.035293   17.252691
  H     18.599051   14.839109   18.102290
  H     17.470764   13.167818   19.556285
  H     15.378650   13.792201   20.767278
  H     13.958329   15.404491   21.213461
  H     15.574959   17.752934   19.103550

 Total Charge           Charge          ....    0
 Multiplicity           Mult            ....    1
 Number of Electrons    NEL             ....  154
 Basis Dimension        Dim             ....  828

ORBITAL ENERGIES
----------------

  NO   OCC          E(Eh)            E(eV)
   0   2.0000     -91.891078     -2500.4834
   1   2.0000     -20.602850      -560.6320
   2   2.0000     -20.579188      -559.9882
   3   2.0000     -20.549026      -559.1674
   4   2.0000     -15.630076      -425.3160
   5   2.0000     -15.609789      -424.7640
   6   2.0000     -11.392783      -310.0134
   7   2.0000     -11.385539      -309.8163
   8   2.0000     -11.336349      -308.4777
   9   2.0000     -11.320539      -308.0475
  10   2.0000     -11.313234      -307.8487
  11   2.0000     -11.300766      -307.5095
  12   2.0000     -11.266919      -306.5884
  13   2.0000     -11.261042      -306.4285
  14   2.0000     -11.257844      -306.3415
  15   2.0000     -11.253751      -306.2301
  16   2.0000     -11.250603      -306.1445
  17   2.0000     -11.245870      -306.0157
  18   2.0000     -11.244558      -305.9800
  19   2.0000     -11.230971      -305.6103
  20   2.0000      -8.896132      -242.0760
  21   2.0000      -6.577698      -178.9883
  22   2.0000      -6.575706      -178.9341
  23   2.0000      -6.575109      -178.9178
  24   2.0000      -1.442215       -39.2447
  25   2.0000      -1.422623       -38.7115
  26   2.0000      -1.351535       -36.7771
  27   2.0000      -1.342291       -36.5256
  28   2.0000      -1.240946       -33.7679
  29   2.0000      -1.163535       -31.6614
  30   2.0000      -1.122684       -30.5498
  31   2.0000      -1.047873       -28.5141
  32   2.0000      -1.031977       -28.0815
  33   2.0000      -1.021693       -27.8017
  34   2.0000      -1.002035       -27.2668
  35   2.0000      -0.988346       -26.8943
  36   2.0000      -0.925580       -25.1863
  37   2.0000      -0.898048       -24.4371
  38   2.0000      -0.849464       -23.1151
  39   2.0000      -0.843632       -22.9564
  40   2.0000      -0.840820       -22.8799
  41   2.0000      -0.821273       -22.3480
  42   2.0000      -0.745937       -20.2980
  43   2.0000      -0.737834       -20.0775
  44   2.0000      -0.721070       -19.6213
  45   2.0000      -0.700856       -19.0713
  46   2.0000      -0.689878       -18.7725
  47   2.0000      -0.676132       -18.3985
  48   2.0000      -0.672259       -18.2931
  49   2.0000      -0.660197       -17.9649
  50   2.0000      -0.654614       -17.8129
  51   2.0000      -0.645211       -17.5571
  52   2.0000      -0.639314       -17.3966
  53   2.0000      -0.623905       -16.9773
  54   2.0000      -0.612674       -16.6717
  55   2.0000      -0.605203       -16.4684
  56   2.0000      -0.602069       -16.3831
  57   2.0000      -0.581524       -15.8241
  58   2.0000      -0.573449       -15.6043
  59   2.0000      -0.566478       -15.4146
  60   2.0000      -0.549580       -14.9548
  61   2.0000      -0.546874       -14.8812
  62   2.0000      -0.542448       -14.7608
  63   2.0000      -0.532498       -14.4900
  64   2.0000      -0.528568       -14.3831
  65   2.0000      -0.515907       -14.0386
  66   2.0000      -0.503715       -13.7068
  67   2.0000      -0.492778       -13.4092
  68   2.0000      -0.481992       -13.1157
  69   2.0000      -0.468692       -12.7538
  70   2.0000      -0.453167       -12.3313
  71   2.0000      -0.445789       -12.1305
  72   2.0000      -0.357404        -9.7255
  73   2.0000      -0.351598        -9.5675
  74   2.0000      -0.330633        -8.9970
  75   2.0000      -0.327550        -8.9131
  76   2.0000      -0.320906        -8.7323
  77   0.0000       0.072935         1.9847
  78   0.0000       0.098796         2.6884
  79   0.0000       0.120864         3.2889
  80   0.0000       0.127578         3.4716
  81   0.0000       0.130831         3.5601

MULLIKEN ATOMIC CHARGES
-----------------------
   0 C :   -0.338162
   1 C :    0.031249
   2 O :   -0.378391
   3 C :    0.466438
   4 O :   -0.385981
   5 C :   -0.275592
   6 C :    0.171623
   7 C :   -0.271427
   8 N :   -0.127580
   9 C :    0.207017
  10 S :   -0.438172
  11 N :   -0.210501
  12 C :    0.061715
  13 C :    0.027426
  14 C :   -0.173864
  15 C :   -0.135702
  16 C :   -0.275203
  17 C :    0.320669
  18 O :   -0.356875
  19 C :   -0.275622
  20 H :    0.113504
  21 H :    0.116665
  22 H :    0.111686
  23 H :    0.113483
  24 H :    0.121951
  25 H :    0.138783
  26 H :    0.094621
  27 H :    0.123981
  28 H :    0.199068
  29 H :    0.200253
  30 H :    0.151048
  31 H :    0.153971
  32 H :    0.165782
  33 H :    0.134438
  34 H :    0.241711
  35 H :    0.175989
Sum of atomic charges:    0.0000000

LOEWDIN ATOMIC CHARGES
----------------------
   0 C :    0.104472
   1 C :   -0.009595
   2 O :    0.284313
   3 C :   -0.428305
   4 O :    0.124295
   5 C :   -0.100434
   6 C :   -0.060971
   7 C :    0.129914
   8 N :    0.407196
   9 C :   -0.457504
  10 S :   -0.033796
  11 N :    0.395231
  12 C :   -0.053824
  13 C :   -0.041955
  14 C :    0.021777
  15 C :    0.040086
  16 C :   -0.000586
  17 C :   -0.191951
  18 O :    0.396175
  19 C :    0.034671
  20 H :   -0.035822
  21 H :   -0.020781
  22 H :   -0.027734
  23 H :   -0.027533
  24 H :   -0.026733
  25 H :   -0.003969
  26 H :   -0.022825
  27 H :   -0.007634
  28 H :   -0.056741
  29 H :   -0.063578
  30 H :   -0.011187
  31 H :   -0.026223
  32 H :   -0.019619
  33 H :   -0.034016
  34 H :   -0.152617
  35 H :   -0.022199

  Mayer bond orders larger than 0.100000
B(  0-C ,  1-C ) :   0.9606 B(  0-C , 20-H ) :   0.9674 B(  0-C , 21-H ) :   0.9754
B(  0-C , 22-H ) :   0.9737 B(  1-C ,  2-O ) :   0.8925 B(  1-C , 23-H ) :   0.9715
B(  1-C , 24-H ) :   0.9865 B(  2-O ,  3-C ) :   1.1147 B(  3-C ,  4-O ) :   2.0740
B(  3-C ,  5-C ) :   1.0091 B(  5-C ,  6-C ) :   1.6445 B(  5-C , 12-C ) :   0.9597
B(  6-C ,  7-C ) :   0.9603 B(  6-C ,  8-N ) :   1.1465 B(  7-C , 25-H ) :   0.9549
B(  7-C , 26-H ) :   0.9870 B(  7-C , 27-H ) :   0.9696 B(  8-N ,  9-C ) :   1.1889
B(  8-N , 28-H ) :   0.9478 B(  9-C , 10-S ) :   1.6138 B(  9-C , 11-N ) :   1.2998
B( 11-N , 12-C ) :   0.9762 B( 11-N , 29-H ) :   0.9482 B( 12-C , 13-C ) :   0.9604
B( 12-C , 30-H ) :   1.0027 B( 13-C , 14-C ) :   1.3560 B( 13-C , 19-C ) :   1.3563
B( 14-C , 15-C ) :   1.3953 B( 14-C , 31-H ) :   0.9722 B( 15-C , 16-C ) :   1.3557
B( 15-C , 32-H ) :   0.9701 B( 16-C , 17-C ) :   1.3330 B( 16-C , 33-H ) :   0.9837
B( 17-C , 18-O ) :   1.1084 B( 17-C , 19-C ) :   1.3582 B( 18-O , 34-H ) :   0.9790
B( 19-C , 35-H ) :   0.9566

MP2 TOTAL ENERGY:    -1274.319673267 Eh
FINAL SINGLE POINT ENERGY     -1274.319673266815

DIPOLE MOMENT
-------------
                                X             Y             Z
Electronic contribution:      9.17387       7.59798       6.08929
Nuclear contribution   :    -10.43378      -9.19834      -5.87053
                        -----------------------------------------
Total Dipole Moment    :     -1.25991      -1.60037       0.21875
                        -----------------------------------------
Magnitude (a.u.)       :      2.04852
Magnitude (Debye)      :      5.20691

Rotational constants in cm-1:     0.012361     0.009091     0.006347
Rotational constants in MHz :   370.587139   272.549059   190.283576

                             ****ORCA TERMINATED NORMALLY****
TOTAL RUN TIME: 0 days 2 hours 8 minutes 41 seconds 551 msec
