                         Program Version 4.2.0 -  RELEASE  -
|  1> ! ri-mp2 cc-pvtz cc-pvtz/c TightSCF NoKeepInts
|  2>
|  3> %scf
|  4>   MaxCore 4096
|  5> end
|  6> *xyz  0  1
|  7>     C       14.4800515   15.1602712   15.9694554
|  8>     C       14.9132712   16.4550393   15.2597086
|  9>     O       16.2510374   16.2512023   14.7589337
| 10>     C       17.3570785   16.5187852   15.5219333
| 11>     O       18.3387281   15.8001915   15.4826170
| 12>     C       17.2618673   17.6861616   16.4514901
| 13>     C       16.9768168   18.9247386   15.9803544
| 14>     C       16.5204467   19.2838534   14.5800798
| 15>     N       17.1706676   20.0533124   16.7792380
| 16>     C       17.8618829   20.0475355   17.9623619
| 17>     S       18.1486504   21.4382268   18.8096637
| 18>     N       18.3228701   18.8288056   18.3971510
| 19>     C       18.0020428   17.5268677   17.7784425
| 20>     C       17.3171177   16.5327518   18.7041132
| 21>     C       17.7494531   15.1954566   18.7515551
| 22>     C       17.1001797   14.2641335   19.5788983
| 23>     C       16.0071373   14.6732881   20.3619717
| 24>     C       15.5701168   16.0040991   20.3109295
| 25>     O       14.5077068   16.3991179   21.0564935
| 26>     C       16.2177078   16.9289917   19.4855190
| 27>     H       15.1103339   14.9685092   16.8476704
| 28>     H       14.5624108   14.3007522   15.2922031
| 29>     H       13.4390850   15.2341472   16.3066740
| 30>     H       14.2377940   16.6295094   14.4122099
| 31>     H       14.8272694   17.3098322   15.9409406
| 32>     H       16.9508615   18.6105792   13.8277614
| 33>     H       16.8321559   20.2974582   14.2975997
| 34>     H       15.4287719   19.2355541   14.4934696
| 35>     H       16.8683539   20.9589768   16.4563917
| 36>     H       18.8235117   18.8514092   19.2768648
| 37>     H       19.0121037   17.1750975   17.5199169
| 38>     H       18.5846606   14.8746744   18.1319707
| 39>     H       17.4420621   13.2307628   19.6058026
| 40>     H       15.5016693   13.9563643   21.0005947
| 41>     H       14.2292443   15.6399335   21.5907871
| 42>     H       15.8618813   17.9536100   19.4562330
| 43> *
| 44>
| 45>                          ****END OF INPUT****

CARTESIAN COORDINATES (ANGSTROEM)
---------------------------------
  C     14.480052   15.160271   15.969455
  C     14.913271   16.455039   15.259709
  O     16.251037   16.251202   14.758934
  C     17.357078   16.518785   15.521933
  O     18.338728   15.800192   15.482617
  C     17.261867   17.686162   16.451490
  C     16.976817   18.924739   15.980354
  C     16.520447   19.283853   14.580080
  N     17.170668   20.053312   16.779238
  C     17.861883   20.047535   17.962362
  S     18.148650   21.438227   18.809664
  N     18.322870   18.828806   18.397151
  C     18.002043   17.526868   17.778443
  C     17.317118   16.532752   18.704113
  C     17.749453   15.195457   18.751555
  C     17.100180   14.264133   19.578898
  C     16.007137   14.673288   20.361972
  C     15.570117   16.004099   20.310929
  O     14.507707   16.399118   21.056493
  C     16.217708   16.928992   19.485519
  H     15.110334   14.968509   16.847670
  H     14.562411   14.300752   15.292203
  H     13.439085   15.234147   16.306674
  H     14.237794   16.629509   14.412210
  H     14.827269   17.309832   15.940941
  H     16.950861   18.610579   13.827761
  H     16.832156   20.297458   14.297600
  H     15.428772   19.235554   14.493470
  H     16.868354   20.958977   16.456392
  H     18.823512   18.851409   19.276865
  H     19.012104   17.175097   17.519917
  H     18.584661   14.874674   18.131971
  H     17.442062   13.230763   19.605803
  H     15.501669   13.956364   21.000595
  H     14.229244   15.639933   21.590787
  H     15.861881   17.953610   19.456233

 Total Charge           Charge          ....    0
 Multiplicity           Mult            ....    1
 Number of Electrons    NEL             ....  154
 Basis Dimension        Dim             ....  828

ORBITAL ENERGIES
----------------

  NO   OCC          E(Eh)            E(eV)
   0   2.0000     -91.890423     -2500.4655
   1   2.0000     -20.601116      -560.5849
   2   2.0000     -20.599246      -560.5340
   3   2.0000     -20.550485      -559.2071
   4   2.0000     -15.629467      -425.2994
   5   2.0000     -15.609658      -424.7604
   6   2.0000     -11.397909      -310.1529
   7   2.0000     -11.386149      -309.8329
   8   2.0000     -11.335779      -308.4622
   9   2.0000     -11.316469      -307.9368
  10   2.0000     -11.309189      -307.7387
  11   2.0000     -11.306326      -307.6608
  12   2.0000     -11.266302      -306.5717
  13   2.0000     -11.263726      -306.5016
  14   2.0000     -11.262724      -306.4743
  15   2.0000     -11.256535      -306.3059
  16   2.0000     -11.245791      -306.0135
  17   2.0000     -11.241935      -305.9086
  18   2.0000     -11.238696      -305.8205
  19   2.0000     -11.229305      -305.5649
  20   2.0000      -8.895519      -242.0594
  21   2.0000      -6.577096      -178.9719
  22   2.0000      -6.575088      -178.9172
  23   2.0000      -6.574502      -178.9013
  24   2.0000      -1.449525       -39.4436
  25   2.0000      -1.418985       -38.6125
  26   2.0000      -1.361825       -37.0571
  27   2.0000      -1.341617       -36.5072
  28   2.0000      -1.239628       -33.7320
  29   2.0000      -1.160869       -31.5889
  30   2.0000      -1.126203       -30.6455
  31   2.0000      -1.048224       -28.5236
  32   2.0000      -1.037203       -28.2237
  33   2.0000      -1.018470       -27.7140
  34   2.0000      -1.005483       -27.3606
  35   2.0000      -0.989833       -26.9347
  36   2.0000      -0.926419       -25.2092
  37   2.0000      -0.888670       -24.1819
  38   2.0000      -0.854674       -23.2569
  39   2.0000      -0.842193       -22.9172
  40   2.0000      -0.836499       -22.7623
  41   2.0000      -0.834572       -22.7099
  42   2.0000      -0.750691       -20.4273
  43   2.0000      -0.739899       -20.1337
  44   2.0000      -0.731734       -19.9115
  45   2.0000      -0.696962       -18.9653
  46   2.0000      -0.688669       -18.7396
  47   2.0000      -0.681882       -18.5550
  48   2.0000      -0.676498       -18.4084
  49   2.0000      -0.661134       -17.9904
  50   2.0000      -0.656986       -17.8775
  51   2.0000      -0.646027       -17.5793
  52   2.0000      -0.638048       -17.3622
  53   2.0000      -0.614248       -16.7145
  54   2.0000      -0.608580       -16.5603
  55   2.0000      -0.606330       -16.4991
  56   2.0000      -0.602337       -16.3904
  57   2.0000      -0.583469       -15.8770
  58   2.0000      -0.577302       -15.7092
  59   2.0000      -0.568129       -15.4596
  60   2.0000      -0.561804       -15.2875
  61   2.0000      -0.554268       -15.0824
  62   2.0000      -0.548765       -14.9327
  63   2.0000      -0.530863       -14.4455
  64   2.0000      -0.519658       -14.1406
  65   2.0000      -0.513204       -13.9650
  66   2.0000      -0.503036       -13.6883
  67   2.0000      -0.501067       -13.6347
  68   2.0000      -0.487844       -13.2749
  69   2.0000      -0.470260       -12.7964
  70   2.0000      -0.457456       -12.4480
  71   2.0000      -0.449425       -12.2295
  72   2.0000      -0.356405        -9.6983
  73   2.0000      -0.351867        -9.5748
  74   2.0000      -0.329770        -8.9735
  75   2.0000      -0.323959        -8.8154
  76   2.0000      -0.319936        -8.7059
  77   0.0000       0.079874         2.1735
  78   0.0000       0.103316         2.8114
  79   0.0000       0.117165         3.1882
  80   0.0000       0.129715         3.5297
  81   0.0000       0.131889         3.5889

MULLIKEN ATOMIC CHARGES
-----------------------
   0 C :   -0.270951
   1 C :    0.012259
   2 O :   -0.332312
   3 C :    0.421374
   4 O :   -0.381522
   5 C :   -0.236727
   6 C :    0.162619
   7 C :   -0.313161
   8 N :   -0.135484
   9 C :    0.207907
  10 S :   -0.441025
  11 N :   -0.220221
  12 C :    0.066738
  13 C :    0.012035
  14 C :   -0.211489
  15 C :   -0.128434
  16 C :   -0.276775
  17 C :    0.310614
  18 O :   -0.356819
  19 C :   -0.240540
  20 H :    0.108676
  21 H :    0.107534
  22 H :    0.091549
  23 H :    0.114694
  24 H :    0.099503
  25 H :    0.140294
  26 H :    0.119985
  27 H :    0.120711
  28 H :    0.198439
  29 H :    0.201398
  30 H :    0.165254
  31 H :    0.174398
  32 H :    0.164302
  33 H :    0.131968
  34 H :    0.241314
  35 H :    0.171896
Sum of atomic charges:   -0.0000000

LOEWDIN ATOMIC CHARGES
----------------------
   0 C :    0.108083
   1 C :   -0.025013
   2 O :    0.305297
   3 C :   -0.418103
   4 O :    0.121574
   5 C :   -0.090585
   6 C :   -0.083947
   7 C :    0.128727
   8 N :    0.403312
   9 C :   -0.456694
  10 S :   -0.036895
  11 N :    0.396002
  12 C :   -0.049555
  13 C :   -0.044712
  14 C :    0.020859
  15 C :    0.043571
  16 C :   -0.000325
  17 C :   -0.191766
  18 O :    0.394855
  19 C :    0.027075
  20 H :   -0.024074
  21 H :   -0.022849
  22 H :   -0.026412
  23 H :   -0.026086
  24 H :   -0.038983
  25 H :   -0.005778
  26 H :   -0.014108
  27 H :   -0.015504
  28 H :   -0.057883
  29 H :   -0.063606
  30 H :   -0.004834
  31 H :   -0.021354
  32 H :   -0.018761
  33 H :   -0.034784
  34 H :   -0.153239
  35 H :   -0.023506

  Mayer bond orders larger than 0.100000
B(  0-C ,  1-C ) :   0.9834 B(  0-C , 20-H ) :   0.9695 B(  0-C , 21-H ) :   0.9780
B(  0-C , 22-H ) :   0.9761 B(  1-C ,  2-O ) :   0.8929 B(  1-C , 23-H ) :   0.9790
B(  1-C , 24-H ) :   0.9607 B(  2-O ,  3-C ) :   1.1555 B(  3-C ,  4-O ) :   2.0917
B(  3-C ,  5-C ) :   0.9356 B(  5-C ,  6-C ) :   1.7075 B(  5-C , 12-C ) :   0.9382
B(  6-C ,  7-C ) :   0.9371 B(  6-C ,  8-N ) :   1.1184 B(  7-C , 25-H ) :   0.9701
B(  7-C , 26-H ) :   0.9842 B(  7-C , 27-H ) :   0.9650 B(  8-N ,  9-C ) :   1.1921
B(  8-N , 28-H ) :   0.9492 B(  9-C , 10-S ) :   1.6115 B(  9-C , 11-N ) :   1.2935
B( 11-N , 12-C ) :   0.9854 B( 11-N , 29-H ) :   0.9482 B( 12-C , 13-C ) :   0.9665
B( 12-C , 30-H ) :   0.9911 B( 13-C , 14-C ) :   1.3867 B( 13-C , 19-C ) :   1.3566
B( 14-C , 15-C ) :   1.3919 B( 14-C , 31-H ) :   0.9597 B( 15-C , 16-C ) :   1.3608
B( 15-C , 32-H ) :   0.9703 B( 16-C , 17-C ) :   1.3312 B( 16-C , 33-H ) :   0.9849
B( 17-C , 18-O ) :   1.1088 B( 17-C , 19-C ) :   1.3669 B( 18-O , 34-H ) :   0.9794
B( 19-C , 35-H ) :   0.9567

MP2 TOTAL ENERGY:    -1274.332928051 Eh
FINAL SINGLE POINT ENERGY     -1274.332928050900

DIPOLE MOMENT
-------------
                                X             Y             Z
Electronic contribution:      9.58605       8.57233       6.90428
Nuclear contribution   :    -11.23956      -9.60639      -7.31347
                        -----------------------------------------
Total Dipole Moment    :     -1.65351      -1.03406      -0.40919
                        -----------------------------------------
Magnitude (a.u.)       :      1.99269
Magnitude (Debye)      :      5.06501

Rotational constants in cm-1:     0.011557     0.009116     0.006371
Rotational constants in MHz :   346.484768   273.298314   190.985285

                             ****ORCA TERMINATED NORMALLY****
TOTAL RUN TIME: 0 days 1 hours 43 minutes 58 seconds 915 msec
