                         Program Version 4.2.0 -  RELEASE  -
|  1> ! ri-mp2 cc-pvtz cc-pvtz/c TightSCF NoKeepInts
|  2>
|  3> %scf
|  4>   MaxCore 4096
|  5> end
|  6> *xyz  0  1
|  7>     C       13.7447109   15.6118600   15.0212360
|  8>     C       14.8301404   16.3985703   15.7734328
|  9>     O       16.0849110   16.1179180   15.1246624
| 10>     C       17.2632232   16.7209708   15.4825901
| 11>     O       18.3336196   16.3468598   15.0421030
| 12>     C       17.1685701   17.7627280   16.5439236
| 13>     C       16.7830436   19.0175192   16.2128510
| 14>     C       16.1725511   19.4660468   14.9003379
| 15>     N       17.0056681   20.0868956   17.0815324
| 16>     C       17.8208916   20.0228920   18.1815369
| 17>     S       18.1353486   21.3536580   19.1111988
| 18>     N       18.3835152   18.7999976   18.4575966
| 19>     C       18.0560565   17.5373815   17.7647941
| 20>     C       17.5448617   16.4187053   18.6587051
| 21>     C       18.0148642   15.1051540   18.4819057
| 22>     C       17.5280092   14.0593868   19.2836714
| 23>     C       16.5603411   14.3296069   20.2665834
| 24>     C       16.0848284   15.6368676   20.4388914
| 25>     O       15.1422314   15.8985491   21.3788475
| 26>     C       16.5701110   16.6761067   19.6383989
| 27>     H       12.7609138   15.7782056   15.4766655
| 28>     H       13.9590179   14.5359914   15.0503212
| 29>     H       13.6962719   15.9253620   13.9709040
| 30>     H       14.5836272   17.4654890   15.7348619
| 31>     H       14.8643082   16.0802016   16.8246252
| 32>     H       16.1593765   18.6732023   14.1425631
| 33>     H       16.7457203   20.2974422   14.4698434
| 34>     H       15.1395617   19.8067326   15.0417459
| 35>     H       16.6353063   20.9991598   16.8652421
| 36>     H       18.9796423   18.7795103   19.2757394
| 37>     H       19.0466542   17.2743285   17.3637547
| 38>     H       18.7542917   14.8935316   17.7119287
| 39>     H       17.8980584   13.0457073   19.1383121
| 40>     H       16.1807117   13.5241545   20.8867181
| 41>     H       14.9695291   15.0726109   21.8557844
| 42>     H       16.1865117   17.6806963   19.7841914
| 43> *
| 44>
| 45>                          ****END OF INPUT****

CARTESIAN COORDINATES (ANGSTROEM)
---------------------------------
  C     13.744711   15.611860   15.021236
  C     14.830140   16.398570   15.773433
  O     16.084911   16.117918   15.124662
  C     17.263223   16.720971   15.482590
  O     18.333620   16.346860   15.042103
  C     17.168570   17.762728   16.543924
  C     16.783044   19.017519   16.212851
  C     16.172551   19.466047   14.900338
  N     17.005668   20.086896   17.081532
  C     17.820892   20.022892   18.181537
  S     18.135349   21.353658   19.111199
  N     18.383515   18.799998   18.457597
  C     18.056057   17.537381   17.764794
  C     17.544862   16.418705   18.658705
  C     18.014864   15.105154   18.481906
  C     17.528009   14.059387   19.283671
  C     16.560341   14.329607   20.266583
  C     16.084828   15.636868   20.438891
  O     15.142231   15.898549   21.378847
  C     16.570111   16.676107   19.638399
  H     12.760914   15.778206   15.476665
  H     13.959018   14.535991   15.050321
  H     13.696272   15.925362   13.970904
  H     14.583627   17.465489   15.734862
  H     14.864308   16.080202   16.824625
  H     16.159377   18.673202   14.142563
  H     16.745720   20.297442   14.469843
  H     15.139562   19.806733   15.041746
  H     16.635306   20.999160   16.865242
  H     18.979642   18.779510   19.275739
  H     19.046654   17.274328   17.363755
  H     18.754292   14.893532   17.711929
  H     17.898058   13.045707   19.138312
  H     16.180712   13.524154   20.886718
  H     14.969529   15.072611   21.855784
  H     16.186512   17.680696   19.784191

 Total Charge           Charge          ....    0
 Multiplicity           Mult            ....    1
 Number of Electrons    NEL             ....  154
 Basis Dimension        Dim             ....  828

ORBITAL ENERGIES
----------------

  NO   OCC          E(Eh)            E(eV)
   0   2.0000     -91.889158     -2500.4311
   1   2.0000     -20.605249      -560.6973
   2   2.0000     -20.600844      -560.5775
   3   2.0000     -20.551948      -559.2469
   4   2.0000     -15.626146      -425.2091
   5   2.0000     -15.609760      -424.7632
   6   2.0000     -11.399241      -310.1891
   7   2.0000     -11.385437      -309.8135
   8   2.0000     -11.330338      -308.3142
   9   2.0000     -11.318494      -307.9919
  10   2.0000     -11.311776      -307.8091
  11   2.0000     -11.305782      -307.6460
  12   2.0000     -11.267969      -306.6170
  13   2.0000     -11.266392      -306.5741
  14   2.0000     -11.262387      -306.4651
  15   2.0000     -11.259086      -306.3753
  16   2.0000     -11.247450      -306.0587
  17   2.0000     -11.243351      -305.9471
  18   2.0000     -11.241716      -305.9026
  19   2.0000     -11.235499      -305.7335
  20   2.0000      -8.894273      -242.0255
  21   2.0000      -6.575857      -178.9382
  22   2.0000      -6.573842      -178.8833
  23   2.0000      -6.573263      -178.8676
  24   2.0000      -1.450405       -39.4675
  25   2.0000      -1.420544       -38.6550
  26   2.0000      -1.364257       -37.1233
  27   2.0000      -1.339776       -36.4572
  28   2.0000      -1.238827       -33.7102
  29   2.0000      -1.162821       -31.6420
  30   2.0000      -1.126899       -30.6645
  31   2.0000      -1.049657       -28.5626
  32   2.0000      -1.042353       -28.3639
  33   2.0000      -1.020577       -27.7713
  34   2.0000      -1.006474       -27.3876
  35   2.0000      -0.989617       -26.9288
  36   2.0000      -0.927009       -25.2252
  37   2.0000      -0.881801       -23.9950
  38   2.0000      -0.855888       -23.2899
  39   2.0000      -0.842543       -22.9268
  40   2.0000      -0.839080       -22.8325
  41   2.0000      -0.837565       -22.7913
  42   2.0000      -0.758627       -20.6433
  43   2.0000      -0.739777       -20.1304
  44   2.0000      -0.733454       -19.9583
  45   2.0000      -0.698427       -19.0052
  46   2.0000      -0.690323       -18.7846
  47   2.0000      -0.682145       -18.5621
  48   2.0000      -0.675084       -18.3700
  49   2.0000      -0.665780       -18.1168
  50   2.0000      -0.658394       -17.9158
  51   2.0000      -0.649711       -17.6795
  52   2.0000      -0.638118       -17.3641
  53   2.0000      -0.613725       -16.7003
  54   2.0000      -0.608623       -16.5615
  55   2.0000      -0.604290       -16.4436
  56   2.0000      -0.594668       -16.1817
  57   2.0000      -0.581802       -15.8316
  58   2.0000      -0.578715       -15.7476
  59   2.0000      -0.572310       -15.5733
  60   2.0000      -0.562631       -15.3100
  61   2.0000      -0.560366       -15.2483
  62   2.0000      -0.553023       -15.0485
  63   2.0000      -0.528182       -14.3726
  64   2.0000      -0.521961       -14.2033
  65   2.0000      -0.515879       -14.0378
  66   2.0000      -0.509435       -13.8624
  67   2.0000      -0.502451       -13.6724
  68   2.0000      -0.489353       -13.3160
  69   2.0000      -0.468043       -12.7361
  70   2.0000      -0.457368       -12.4456
  71   2.0000      -0.452627       -12.3166
  72   2.0000      -0.355916        -9.6850
  73   2.0000      -0.352936        -9.6039
  74   2.0000      -0.328862        -8.9488
  75   2.0000      -0.326204        -8.8765
  76   2.0000      -0.319195        -8.6857
  77   0.0000       0.089845         2.4448
  78   0.0000       0.103745         2.8230
  79   0.0000       0.114189         3.1073
  80   0.0000       0.127171         3.4605
  81   0.0000       0.129233         3.5166

MULLIKEN ATOMIC CHARGES
-----------------------
   0 C :   -0.258001
   1 C :    0.029806
   2 O :   -0.302553
   3 C :    0.407972
   4 O :   -0.382268
   5 C :   -0.192463
   6 C :    0.134552
   7 C :   -0.332721
   8 N :   -0.139149
   9 C :    0.210734
  10 S :   -0.443977
  11 N :   -0.222861
  12 C :    0.053584
  13 C :    0.026433
  14 C :   -0.221608
  15 C :   -0.127924
  16 C :   -0.276898
  17 C :    0.316498
  18 O :   -0.355380
  19 C :   -0.253042
  20 H :    0.089924
  21 H :    0.105905
  22 H :    0.097629
  23 H :    0.082996
  24 H :    0.111590
  25 H :    0.127131
  26 H :    0.139180
  27 H :    0.122585
  28 H :    0.196494
  29 H :    0.202211
  30 H :    0.167943
  31 H :    0.173028
  32 H :    0.164787
  33 H :    0.132398
  34 H :    0.241493
  35 H :    0.173971
Sum of atomic charges:    0.0000000

LOEWDIN ATOMIC CHARGES
----------------------
   0 C :    0.111745
   1 C :   -0.026040
   2 O :    0.308211
   3 C :   -0.415608
   4 O :    0.120732
   5 C :   -0.082190
   6 C :   -0.097538
   7 C :    0.123799
   8 N :    0.402194
   9 C :   -0.455133
  10 S :   -0.039093
  11 N :    0.395920
  12 C :   -0.050405
  13 C :   -0.044199
  14 C :    0.018305
  15 C :    0.045619
  16 C :    0.000341
  17 C :   -0.191222
  18 O :    0.395552
  19 C :    0.027816
  20 H :   -0.024646
  21 H :   -0.022977
  22 H :   -0.026007
  23 H :   -0.036930
  24 H :   -0.028489
  25 H :   -0.008295
  26 H :   -0.008895
  27 H :   -0.017497
  28 H :   -0.057130
  29 H :   -0.063994
  30 H :   -0.003676
  31 H :   -0.021813
  32 H :   -0.018259
  33 H :   -0.034516
  34 H :   -0.152881
  35 H :   -0.022797

  Mayer bond orders larger than 0.100000
B(  0-C ,  1-C ) :   0.9805 B(  0-C , 20-H ) :   0.9770 B(  0-C , 21-H ) :   0.9781
B(  0-C , 22-H ) :   0.9773 B(  1-C ,  2-O ) :   0.9102 B(  1-C , 23-H ) :   0.9668
B(  1-C , 24-H ) :   0.9698 B(  2-O ,  3-C ) :   1.1908 B(  3-C ,  4-O ) :   2.1076
B(  3-C ,  5-C ) :   0.9075 B(  5-C ,  6-C ) :   1.7281 B(  5-C , 12-C ) :   0.9443
B(  6-C ,  7-C ) :   0.9367 B(  6-C ,  8-N ) :   1.1057 B(  7-C , 25-H ) :   0.9787
B(  7-C , 26-H ) :   0.9704 B(  7-C , 27-H ) :   0.9674 B(  8-N ,  9-C ) :   1.1999
B(  8-N , 28-H ) :   0.9517 B(  9-C , 10-S ) :   1.6094 B(  9-C , 11-N ) :   1.2889
B( 11-N , 12-C ) :   0.9833 B( 11-N , 29-H ) :   0.9471 B( 12-C , 13-C ) :   0.9663
B( 12-C , 30-H ) :   0.9900 B( 13-C , 14-C ) :   1.3820 B( 13-C , 19-C ) :   1.3543
B( 14-C , 15-C ) :   1.3950 B( 14-C , 31-H ) :   0.9614 B( 15-C , 16-C ) :   1.3631
B( 15-C , 32-H ) :   0.9694 B( 16-C , 17-C ) :   1.3303 B( 16-C , 33-H ) :   0.9846
B( 17-C , 18-O ) :   1.1100 B( 17-C , 19-C ) :   1.3638 B( 18-O , 34-H ) :   0.9791
B( 19-C , 35-H ) :   0.9565

MP2 TOTAL ENERGY:    -1274.331395191 Eh
FINAL SINGLE POINT ENERGY     -1274.331395191402

DIPOLE MOMENT
-------------
                                X             Y             Z
Electronic contribution:     11.31744       7.34991       8.77789
Nuclear contribution   :    -13.03725      -8.59038      -9.01490
                        -----------------------------------------
Total Dipole Moment    :     -1.71981      -1.24047      -0.23701
                        -----------------------------------------
Magnitude (a.u.)       :      2.13370
Magnitude (Debye)      :      5.42343

Rotational constants in cm-1:     0.010705     0.009069     0.006199
Rotational constants in MHz :   320.923098   271.870728   185.842857

                             ****ORCA TERMINATED NORMALLY****
TOTAL RUN TIME: 0 days 1 hours 43 minutes 5 seconds 684 msec
