                         Program Version 4.2.0 -  RELEASE  -
|  1> ! ri-mp2 cc-pvtz cc-pvtz/c TightSCF NoKeepInts
|  2>
|  3> %scf
|  4>   MaxCore 4096
|  5> end
|  6> *xyz  0  1
|  7>     C       14.2680139   14.9436404   14.3788394
|  8>     C       14.7958081   16.0165155   15.3453038
|  9>     O       16.0685834   16.4551945   14.8450433
| 10>     C       17.1008388   16.4558428   15.7304483
| 11>     O       17.7982116   15.4707122   15.8915750
| 12>     C       17.1945683   17.6809091   16.5907292
| 13>     C       16.9391057   18.9243196   16.1079517
| 14>     C       16.3378349   19.2892710   14.7650559
| 15>     N       17.2939565   20.0594933   16.8407657
| 16>     C       18.1003591   20.0442870   17.9472320
| 17>     S       18.5680963   21.4381280   18.7043154
| 18>     N       18.5173364   18.8113681   18.3824185
| 19>     C       18.0476812   17.5162588   17.8523580
| 20>     C       17.3936328   16.6284339   18.9023183
| 21>     C       17.8234179   15.3020947   19.0864913
| 22>     C       17.2135081   14.4804069   20.0491002
| 23>     C       16.1647316   14.9895896   20.8340482
| 24>     C       15.7320950   16.3100151   20.6499842
| 25>     O       14.7147764   16.8021501   21.4008748
| 26>     C       16.3402228   17.1250882   19.6898211
| 27>     H       14.9634548   14.0958718   14.3295739
| 28>     H       14.1525974   15.3546989   13.3682437
| 29>     H       13.2928744   14.5686853   14.7125003
| 30>     H       14.0950203   16.8595156   15.3984190
| 31>     H       14.8935931   15.5801302   16.3500082
| 32>     H       16.8561032   18.7687783   13.9494086
| 33>     H       16.4067887   20.3624119   14.5482531
| 34>     H       15.2776893   19.0130047   14.7220823
| 35>     H       17.0185133   20.9734009   16.5180003
| 36>     H       19.0983199   18.8270309   19.2113278
| 37>     H       19.0010035   17.0817786   17.5168525
| 38>     H       18.6243653   14.9027055   18.4681248
| 39>     H       17.5515042   13.4537222   20.1788970
| 40>     H       15.6901931   14.3576505   21.5774275
| 41>     H       14.4590741   16.1117008   22.0310218
| 42>     H       15.9931265   18.1451951   19.5631848
| 43> *
| 44>
| 45>                          ****END OF INPUT****

CARTESIAN COORDINATES (ANGSTROEM)
---------------------------------
  C     14.268014   14.943640   14.378839
  C     14.795808   16.016516   15.345304
  O     16.068583   16.455195   14.845043
  C     17.100839   16.455843   15.730448
  O     17.798212   15.470712   15.891575
  C     17.194568   17.680909   16.590729
  C     16.939106   18.924320   16.107952
  C     16.337835   19.289271   14.765056
  N     17.293957   20.059493   16.840766
  C     18.100359   20.044287   17.947232
  S     18.568096   21.438128   18.704315
  N     18.517336   18.811368   18.382418
  C     18.047681   17.516259   17.852358
  C     17.393633   16.628434   18.902318
  C     17.823418   15.302095   19.086491
  C     17.213508   14.480407   20.049100
  C     16.164732   14.989590   20.834048
  C     15.732095   16.310015   20.649984
  O     14.714776   16.802150   21.400875
  C     16.340223   17.125088   19.689821
  H     14.963455   14.095872   14.329574
  H     14.152597   15.354699   13.368244
  H     13.292874   14.568685   14.712500
  H     14.095020   16.859516   15.398419
  H     14.893593   15.580130   16.350008
  H     16.856103   18.768778   13.949409
  H     16.406789   20.362412   14.548253
  H     15.277689   19.013005   14.722082
  H     17.018513   20.973401   16.518000
  H     19.098320   18.827031   19.211328
  H     19.001003   17.081779   17.516852
  H     18.624365   14.902705   18.468125
  H     17.551504   13.453722   20.178897
  H     15.690193   14.357651   21.577427
  H     14.459074   16.111701   22.031022
  H     15.993127   18.145195   19.563185

 Total Charge           Charge          ....    0
 Multiplicity           Mult            ....    1
 Number of Electrons    NEL             ....  154
 Basis Dimension        Dim             ....  828

ORBITAL ENERGIES
----------------

  NO   OCC          E(Eh)            E(eV)
   0   2.0000     -91.890096     -2500.4566
   1   2.0000     -20.595226      -560.4246
   2   2.0000     -20.587494      -560.2142
   3   2.0000     -20.553514      -559.2896
   4   2.0000     -15.631008      -425.3413
   5   2.0000     -15.607730      -424.7079
   6   2.0000     -11.394132      -310.0501
   7   2.0000     -11.384944      -309.8001
   8   2.0000     -11.340317      -308.5857
   9   2.0000     -11.311540      -307.8027
  10   2.0000     -11.306405      -307.6629
  11   2.0000     -11.305803      -307.6465
  12   2.0000     -11.262900      -306.4791
  13   2.0000     -11.260485      -306.4134
  14   2.0000     -11.258707      -306.3650
  15   2.0000     -11.251448      -306.1675
  16   2.0000     -11.241528      -305.8975
  17   2.0000     -11.237770      -305.7953
  18   2.0000     -11.234201      -305.6982
  19   2.0000     -11.230231      -305.5901
  20   2.0000      -8.895171      -242.0499
  21   2.0000      -6.576744      -178.9623
  22   2.0000      -6.574743      -178.9079
  23   2.0000      -6.574152      -178.8918
  24   2.0000      -1.453209       -39.5438
  25   2.0000      -1.414977       -38.5035
  26   2.0000      -1.360561       -37.0228
  27   2.0000      -1.341965       -36.5167
  28   2.0000      -1.239006       -33.7151
  29   2.0000      -1.155990       -31.4561
  30   2.0000      -1.123110       -30.5614
  31   2.0000      -1.045047       -28.4372
  32   2.0000      -1.036707       -28.2102
  33   2.0000      -1.013617       -27.5819
  34   2.0000      -1.001946       -27.2643
  35   2.0000      -0.986656       -26.8483
  36   2.0000      -0.923416       -25.1274
  37   2.0000      -0.880682       -23.9646
  38   2.0000      -0.852305       -23.1924
  39   2.0000      -0.840632       -22.8748
  40   2.0000      -0.832357       -22.6496
  41   2.0000      -0.831110       -22.6156
  42   2.0000      -0.758913       -20.6511
  43   2.0000      -0.736736       -20.0476
  44   2.0000      -0.729224       -19.8432
  45   2.0000      -0.693359       -18.8673
  46   2.0000      -0.688171       -18.7261
  47   2.0000      -0.681045       -18.5322
  48   2.0000      -0.673002       -18.3133
  49   2.0000      -0.661214       -17.9925
  50   2.0000      -0.649655       -17.6780
  51   2.0000      -0.645840       -17.5742
  52   2.0000      -0.636932       -17.3318
  53   2.0000      -0.609303       -16.5800
  54   2.0000      -0.602234       -16.3876
  55   2.0000      -0.601861       -16.3775
  56   2.0000      -0.598336       -16.2816
  57   2.0000      -0.583084       -15.8665
  58   2.0000      -0.576353       -15.6834
  59   2.0000      -0.565814       -15.3966
  60   2.0000      -0.563218       -15.3259
  61   2.0000      -0.554215       -15.0810
  62   2.0000      -0.541164       -14.7258
  63   2.0000      -0.520331       -14.1589
  64   2.0000      -0.514948       -14.0124
  65   2.0000      -0.512209       -13.9379
  66   2.0000      -0.503794       -13.7089
  67   2.0000      -0.496959       -13.5229
  68   2.0000      -0.483887       -13.1672
  69   2.0000      -0.466920       -12.7055
  70   2.0000      -0.458840       -12.4857
  71   2.0000      -0.453533       -12.3413
  72   2.0000      -0.355650        -9.6777
  73   2.0000      -0.347947        -9.4681
  74   2.0000      -0.329144        -8.9565
  75   2.0000      -0.319510        -8.6943
  76   2.0000      -0.318347        -8.6627
  77   0.0000       0.072652         1.9770
  78   0.0000       0.107364         2.9215
  79   0.0000       0.118934         3.2364
  80   0.0000       0.133271         3.6265
  81   0.0000       0.138566         3.7706

MULLIKEN ATOMIC CHARGES
-----------------------
   0 C :   -0.255588
   1 C :    0.035528
   2 O :   -0.369251
   3 C :    0.449499
   4 O :   -0.384580
   5 C :   -0.220279
   6 C :    0.155290
   7 C :   -0.288139
   8 N :   -0.128245
   9 C :    0.206041
  10 S :   -0.439537
  11 N :   -0.212352
  12 C :    0.052075
  13 C :    0.028170
  14 C :   -0.182264
  15 C :   -0.132461
  16 C :   -0.278037
  17 C :    0.314040
  18 O :   -0.358334
  19 C :   -0.253792
  20 H :    0.109446
  21 H :    0.093791
  22 H :    0.087323
  23 H :    0.091344
  24 H :    0.099161
  25 H :    0.132988
  26 H :    0.107557
  27 H :    0.120583
  28 H :    0.198466
  29 H :    0.199996
  30 H :    0.157697
  31 H :    0.165396
  32 H :    0.161976
  33 H :    0.129906
  34 H :    0.240588
  35 H :    0.165998
Sum of atomic charges:   -0.0000000

LOEWDIN ATOMIC CHARGES
----------------------
   0 C :    0.109560
   1 C :   -0.020497
   2 O :    0.298638
   3 C :   -0.427498
   4 O :    0.126465
   5 C :   -0.097237
   6 C :   -0.066811
   7 C :    0.127064
   8 N :    0.405648
   9 C :   -0.458134
  10 S :   -0.035588
  11 N :    0.396115
  12 C :   -0.049093
  13 C :   -0.042383
  14 C :    0.023695
  15 C :    0.041805
  16 C :   -0.001041
  17 C :   -0.193224
  18 O :    0.393324
  19 C :    0.027856
  20 H :   -0.020500
  21 H :   -0.027238
  22 H :   -0.027159
  23 H :   -0.035783
  24 H :   -0.025168
  25 H :   -0.006348
  26 H :   -0.019328
  27 H :   -0.012167
  28 H :   -0.058185
  29 H :   -0.063301
  30 H :   -0.007015
  31 H :   -0.022812
  32 H :   -0.020102
  33 H :   -0.035616
  34 H :   -0.154125
  35 H :   -0.023818

  Mayer bond orders larger than 0.100000
B(  0-C ,  1-C ) :   0.9837 B(  0-C , 20-H ) :   0.9764 B(  0-C , 21-H ) :   0.9786
B(  0-C , 22-H ) :   0.9757 B(  1-C ,  2-O ) :   0.8877 B(  1-C , 23-H ) :   0.9758
B(  1-C , 24-H ) :   0.9706 B(  2-O ,  3-C ) :   1.0857 B(  3-C ,  4-O ) :   2.0591
B(  3-C ,  5-C ) :   1.0107 B(  5-C ,  6-C ) :   1.6684 B(  5-C , 12-C ) :   0.9486
B(  6-C ,  7-C ) :   0.9488 B(  6-C ,  8-N ) :   1.1362 B(  7-C , 25-H ) :   0.9653
B(  7-C , 26-H ) :   0.9889 B(  7-C , 27-H ) :   0.9673 B(  8-N ,  9-C ) :   1.1843
B(  8-N , 28-H ) :   0.9473 B(  9-C , 10-S ) :   1.6124 B(  9-C , 11-N ) :   1.3025
B( 11-N , 12-C ) :   0.9812 B( 11-N , 29-H ) :   0.9486 B( 12-C , 13-C ) :   0.9714
B( 12-C , 30-H ) :   0.9939 B( 13-C , 14-C ) :   1.3806 B( 13-C , 19-C ) :   1.3612
B( 14-C , 15-C ) :   1.3961 B( 14-C , 31-H ) :   0.9613 B( 15-C , 16-C ) :   1.3598
B( 15-C , 32-H ) :   0.9706 B( 16-C , 17-C ) :   1.3322 B( 16-C , 33-H ) :   0.9854
B( 17-C , 18-O ) :   1.1054 B( 17-C , 19-C ) :   1.3670 B( 18-O , 34-H ) :   0.9801
B( 19-C , 35-H ) :   0.9594

MP2 TOTAL ENERGY:    -1274.325830076 Eh
FINAL SINGLE POINT ENERGY     -1274.325830075657

DIPOLE MOMENT
-------------
                                X             Y             Z
Electronic contribution:     10.58123       9.71704       9.84773
Nuclear contribution   :    -12.12524     -10.81753     -10.39504
                        -----------------------------------------
Total Dipole Moment    :     -1.54402      -1.10049      -0.54731
                        -----------------------------------------
Magnitude (a.u.)       :      1.97348
Magnitude (Debye)      :      5.01618

Rotational constants in cm-1:     0.010101     0.009276     0.005863
Rotational constants in MHz :   302.807316   278.095969   175.764886

                             ****ORCA TERMINATED NORMALLY****
TOTAL RUN TIME: 0 days 1 hours 36 minutes 23 seconds 92 msec
