                         Program Version 4.2.0 -  RELEASE  -
|  1> ! ri-mp2 cc-pvtz cc-pvtz/c TightSCF NoKeepInts
|  2>
|  3> %scf
|  4>   MaxCore 4096
|  5> end
|  6> *xyz  0  1
|  7>     C       14.2393055   14.8912957   15.0758217
|  8>     C       15.1739266   15.7160734   14.1825548
|  9>     O       15.6214877   16.8004433   15.0173748
| 10>     C       16.7333345   16.6483577   15.7900349
| 11>     O       17.2295931   15.5479891   15.9659908
| 12>     C       17.1301293   17.8329663   16.6322325
| 13>     C       16.8644201   19.1379037   16.3528303
| 14>     C       15.9333018   19.7236120   15.3010250
| 15>     N       17.4149936   20.1494826   17.1597849
| 16>     C       18.3240610   19.9357202   18.1675373
| 17>     S       18.9607816   21.1749534   19.0579947
| 18>     N       18.7163126   18.6423289   18.3894157
| 19>     C       18.1355760   17.4667126   17.7329572
| 20>     C       17.4836207   16.5712795   18.7649449
| 21>     C       17.9680200   15.2783007   18.9982283
| 22>     C       17.3233110   14.4483670   19.9268890
| 23>     C       16.1956639   14.9223573   20.6293281
| 24>     C       15.7151572   16.2234427   20.4034331
| 25>     O       14.6270780   16.7286079   21.0589853
| 26>     C       16.3629409   17.0404133   19.4734293
| 27>     H       14.8415159   14.4225708   15.8697534
| 28>     H       13.7692760   14.0845993   14.5087655
| 29>     H       13.4758545   15.5118275   15.5566693
| 30>     H       15.9633192   15.1225330   13.6991072
| 31>     H       14.5366030   16.1395367   13.3893212
| 32>     H       15.4779375   19.0066488   14.6198232
| 33>     H       16.4643837   20.4272107   14.6535544
| 34>     H       15.0891227   20.2401014   15.7760058
| 35>     H       17.1573085   21.1139628   17.0078672
| 36>     H       19.3586752   18.4955351   19.1608808
| 37>     H       19.0208604   17.0059619   17.2646512
| 38>     H       18.8267032   14.9129387   18.4389209
| 39>     H       17.6992281   13.4413111   20.0885643
| 40>     H       15.7064703   14.2709466   21.3430261
| 41>     H       14.2585715   16.0800548   21.6786884
| 42>     H       15.9881549   18.0436534   19.3016083
| 43> *
| 44>
| 45>                          ****END OF INPUT****

CARTESIAN COORDINATES (ANGSTROEM)
---------------------------------
  C     14.239306   14.891296   15.075822
  C     15.173927   15.716073   14.182555
  O     15.621488   16.800443   15.017375
  C     16.733335   16.648358   15.790035
  O     17.229593   15.547989   15.965991
  C     17.130129   17.832966   16.632233
  C     16.864420   19.137904   16.352830
  C     15.933302   19.723612   15.301025
  N     17.414994   20.149483   17.159785
  C     18.324061   19.935720   18.167537
  S     18.960782   21.174953   19.057995
  N     18.716313   18.642329   18.389416
  C     18.135576   17.466713   17.732957
  C     17.483621   16.571279   18.764945
  C     17.968020   15.278301   18.998228
  C     17.323311   14.448367   19.926889
  C     16.195664   14.922357   20.629328
  C     15.715157   16.223443   20.403433
  O     14.627078   16.728608   21.058985
  C     16.362941   17.040413   19.473429
  H     14.841516   14.422571   15.869753
  H     13.769276   14.084599   14.508766
  H     13.475855   15.511827   15.556669
  H     15.963319   15.122533   13.699107
  H     14.536603   16.139537   13.389321
  H     15.477937   19.006649   14.619823
  H     16.464384   20.427211   14.653554
  H     15.089123   20.240101   15.776006
  H     17.157308   21.113963   17.007867
  H     19.358675   18.495535   19.160881
  H     19.020860   17.005962   17.264651
  H     18.826703   14.912939   18.438921
  H     17.699228   13.441311   20.088564
  H     15.706470   14.270947   21.343026
  H     14.258571   16.080055   21.678688
  H     15.988155   18.043653   19.301608

 Total Charge           Charge          ....    0
 Multiplicity           Mult            ....    1
 Number of Electrons    NEL             ....  154
 Basis Dimension        Dim             ....  828

ORBITAL ENERGIES
----------------

  NO   OCC          E(Eh)            E(eV)
   0   2.0000     -91.885346     -2500.3274
   1   2.0000     -20.604273      -560.6708
   2   2.0000     -20.590621      -560.2993
   3   2.0000     -20.544300      -559.0388
   4   2.0000     -15.627370      -425.2423
   5   2.0000     -15.603828      -424.6018
   6   2.0000     -11.396319      -310.1096
   7   2.0000     -11.381667      -309.7109
   8   2.0000     -11.338938      -308.5482
   9   2.0000     -11.308231      -307.7126
  10   2.0000     -11.301942      -307.5415
  11   2.0000     -11.300116      -307.4918
  12   2.0000     -11.264968      -306.5354
  13   2.0000     -11.256558      -306.3065
  14   2.0000     -11.250566      -306.1435
  15   2.0000     -11.246338      -306.0284
  16   2.0000     -11.237692      -305.7931
  17   2.0000     -11.232081      -305.6405
  18   2.0000     -11.229285      -305.5644
  19   2.0000     -11.221012      -305.3393
  20   2.0000      -8.890504      -241.9229
  21   2.0000      -6.572090      -178.8357
  22   2.0000      -6.570080      -178.7810
  23   2.0000      -6.569498      -178.7651
  24   2.0000      -1.456839       -39.6426
  25   2.0000      -1.403630       -38.1947
  26   2.0000      -1.356930       -36.9239
  27   2.0000      -1.335998       -36.3543
  28   2.0000      -1.237127       -33.6639
  29   2.0000      -1.152260       -31.3546
  30   2.0000      -1.117931       -30.4204
  31   2.0000      -1.041690       -28.3458
  32   2.0000      -1.034346       -28.1460
  33   2.0000      -1.009622       -27.4732
  34   2.0000      -0.997736       -27.1498
  35   2.0000      -0.981509       -26.7082
  36   2.0000      -0.919154       -25.0115
  37   2.0000      -0.889681       -24.2094
  38   2.0000      -0.846628       -23.0379
  39   2.0000      -0.833024       -22.6677
  40   2.0000      -0.827595       -22.5200
  41   2.0000      -0.816394       -22.2152
  42   2.0000      -0.757221       -20.6050
  43   2.0000      -0.736818       -20.0498
  44   2.0000      -0.726156       -19.7597
  45   2.0000      -0.689215       -18.7545
  46   2.0000      -0.684028       -18.6134
  47   2.0000      -0.679909       -18.5013
  48   2.0000      -0.670171       -18.2363
  49   2.0000      -0.653154       -17.7732
  50   2.0000      -0.648098       -17.6356
  51   2.0000      -0.642133       -17.4733
  52   2.0000      -0.630744       -17.1634
  53   2.0000      -0.610179       -16.6038
  54   2.0000      -0.604349       -16.4452
  55   2.0000      -0.597473       -16.2581
  56   2.0000      -0.590893       -16.0790
  57   2.0000      -0.581559       -15.8250
  58   2.0000      -0.571510       -15.5516
  59   2.0000      -0.561769       -15.2865
  60   2.0000      -0.559230       -15.2174
  61   2.0000      -0.543038       -14.7768
  62   2.0000      -0.532668       -14.4946
  63   2.0000      -0.524426       -14.2704
  64   2.0000      -0.515832       -14.0365
  65   2.0000      -0.506098       -13.7716
  66   2.0000      -0.500916       -13.6306
  67   2.0000      -0.491794       -13.3824
  68   2.0000      -0.482635       -13.1332
  69   2.0000      -0.463852       -12.6220
  70   2.0000      -0.455741       -12.4014
  71   2.0000      -0.448122       -12.1940
  72   2.0000      -0.354575        -9.6485
  73   2.0000      -0.341976        -9.3056
  74   2.0000      -0.324675        -8.8349
  75   2.0000      -0.315136        -8.5753
  76   2.0000      -0.313810        -8.5392
  77   0.0000       0.078775         2.1436
  78   0.0000       0.112753         3.0682
  79   0.0000       0.121299         3.3007
  80   0.0000       0.136393         3.7114
  81   0.0000       0.142732         3.8839

MULLIKEN ATOMIC CHARGES
-----------------------
   0 C :   -0.289219
   1 C :    0.035488
   2 O :   -0.346427
   3 C :    0.435619
   4 O :   -0.426818
   5 C :   -0.235106
   6 C :    0.191928
   7 C :   -0.299854
   8 N :   -0.139701
   9 C :    0.209050
  10 S :   -0.447359
  11 N :   -0.200722
  12 C :    0.072494
  13 C :    0.029714
  14 C :   -0.133709
  15 C :   -0.136377
  16 C :   -0.276258
  17 C :    0.301811
  18 O :   -0.362553
  19 C :   -0.255641
  20 H :    0.115626
  21 H :    0.092199
  22 H :    0.098429
  23 H :    0.110960
  24 H :    0.097219
  25 H :    0.141540
  26 H :    0.115893
  27 H :    0.114805
  28 H :    0.199709
  29 H :    0.197994
  30 H :    0.149409
  31 H :    0.147106
  32 H :    0.158499
  33 H :    0.133535
  34 H :    0.239388
  35 H :    0.161326
Sum of atomic charges:   -0.0000000

LOEWDIN ATOMIC CHARGES
----------------------
   0 C :    0.101604
   1 C :   -0.017081
   2 O :    0.312074
   3 C :   -0.418268
   4 O :    0.110138
   5 C :   -0.085440
   6 C :   -0.065110
   7 C :    0.128052
   8 N :    0.400269
   9 C :   -0.456852
  10 S :   -0.040882
  11 N :    0.397034
  12 C :   -0.052546
  13 C :   -0.044157
  14 C :    0.024192
  15 C :    0.042266
  16 C :    0.001767
  17 C :   -0.183521
  18 O :    0.385186
  19 C :    0.031671
  20 H :   -0.021238
  21 H :   -0.031767
  22 H :   -0.027636
  23 H :   -0.026022
  24 H :   -0.026793
  25 H :   -0.020948
  26 H :   -0.017906
  27 H :   -0.012839
  28 H :   -0.054998
  29 H :   -0.058611
  30 H :   -0.006735
  31 H :   -0.024251
  32 H :   -0.022463
  33 H :   -0.037816
  34 H :   -0.156307
  35 H :   -0.024071

  Mayer bond orders larger than 0.100000
B(  0-C ,  1-C ) :   0.9659 B(  0-C , 20-H ) :   0.9752 B(  0-C , 21-H ) :   0.9767
B(  0-C , 22-H ) :   0.9765 B(  1-C ,  2-O ) :   0.8841 B(  1-C , 23-H ) :   0.9752
B(  1-C , 24-H ) :   0.9859 B(  2-O ,  3-C ) :   1.1612 B(  3-C ,  4-O ) :   1.9690
B(  3-C ,  5-C ) :   1.0708 B(  5-C ,  6-C ) :   1.6287 B(  5-C , 12-C ) :   0.9605
B(  6-C ,  7-C ) :   0.9555 B(  6-C ,  8-N ) :   1.1467 B(  7-C , 25-H ) :   0.9697
B(  7-C , 26-H ) :   0.9691 B(  7-C , 27-H ) :   0.9682 B(  8-N ,  9-C ) :   1.1848
B(  8-N , 28-H ) :   0.9491 B(  9-C , 10-S ) :   1.6046 B(  9-C , 11-N ) :   1.3095
B( 11-N , 12-C ) :   0.9833 B( 11-N , 29-H ) :   0.9499 B( 12-C , 13-C ) :   0.9639
B( 12-C , 30-H ) :   0.9965 B( 13-C , 14-C ) :   1.3688 B( 13-C , 19-C ) :   1.3734
B( 14-C , 15-C ) :   1.3980 B( 14-C , 31-H ) :   0.9683 B( 15-C , 16-C ) :   1.3633
B( 15-C , 32-H ) :   0.9721 B( 16-C , 17-C ) :   1.3433 B( 16-C , 33-H ) :   0.9812
B( 17-C , 18-O ) :   1.1068 B( 17-C , 19-C ) :   1.3664 B( 18-O , 34-H ) :   0.9806
B( 19-C , 35-H ) :   0.9606

MP2 TOTAL ENERGY:    -1274.339572833 Eh
FINAL SINGLE POINT ENERGY     -1274.339572832903

DIPOLE MOMENT
-------------
                                X             Y             Z
Electronic contribution:     10.58880       9.60994       9.66297
Nuclear contribution   :    -11.97192     -10.80316     -10.91310
                        -----------------------------------------
Total Dipole Moment    :     -1.38312      -1.19322      -1.25013
                        -----------------------------------------
Magnitude (a.u.)       :      2.21351
Magnitude (Debye)      :      5.62629

Rotational constants in cm-1:     0.010905     0.008958     0.005989
Rotational constants in MHz :   326.937641   268.564279   179.532088

                             ****ORCA TERMINATED NORMALLY****
TOTAL RUN TIME: 0 days 1 hours 37 minutes 14 seconds 450 msec
