                         Program Version 4.2.0 -  RELEASE  -
|  1> ! ri-mp2 cc-pvtz cc-pvtz/c TightSCF NoKeepInts
|  2>
|  3> %scf
|  4>   MaxCore 4096
|  5> end
|  6> *xyz  0  1
|  7>     C       14.2783410   16.5083905   15.6251182
|  8>     C       15.3481339   15.4572134   15.9863263
|  9>     O       16.5677821   15.6821828   15.2455324
| 10>     C       17.3585286   16.8025759   15.2967876
| 11>     O       18.2151331   17.0029273   14.4562251
| 12>     C       17.1214604   17.7631317   16.4137961
| 13>     C       16.8477229   19.0460099   16.0817124
| 14>     C       16.3896595   19.5237065   14.7201919
| 15>     N       17.0227080   20.0876929   16.9938279
| 16>     C       17.7152782   19.9636489   18.1689094
| 17>     S       17.9995642   21.2576015   19.1585835
| 18>     N       18.1866846   18.7093380   18.4705309
| 19>     C       17.8634310   17.4760725   17.7254179
| 20>     C       17.2838028   16.3658240   18.5849586
| 21>     C       17.8290970   15.0699044   18.5357087
| 22>     C       17.2830902   14.0376064   19.3167282
| 23>     C       16.1857112   14.3045521   20.1535359
| 24>     C       15.6429493   15.5958587   20.2058747
| 25>     O       14.5791958   15.8545559   21.0067167
| 26>     C       16.1864234   16.6213522   19.4255302
| 27>     H       14.4758703   17.4732293   16.1037569
| 28>     H       13.2924177   16.1714784   15.9682416
| 29>     H       14.2255796   16.6529012   14.5386675
| 30>     H       15.5172112   15.4475514   17.0655187
| 31>     H       14.9644341   14.4652060   15.7149815
| 32>     H       15.7477742   18.7831790   14.2282476
| 33>     H       17.2561150   19.6879293   14.0656336
| 34>     H       15.8232872   20.4610646   14.7754140
| 35>     H       16.7288778   21.0217641   16.7556687
| 36>     H       18.6911489   18.6459559   19.3461107
| 37>     H       18.8775588   17.1915539   17.4074634
| 38>     H       18.6735265   14.8598875   17.8831818
| 39>     H       17.7101655   13.0368315   19.2715992
| 40>     H       15.7613727   13.5096079   20.7583946
| 41>     H       14.3848516   15.0468801   21.5062388
| 42>     H       15.7521116   17.6148344   19.4768686
| 43> *
| 44>
| 45>                          ****END OF INPUT****

CARTESIAN COORDINATES (ANGSTROEM)
---------------------------------
  C     14.278341   16.508391   15.625118
  C     15.348134   15.457213   15.986326
  O     16.567782   15.682183   15.245532
  C     17.358529   16.802576   15.296788
  O     18.215133   17.002927   14.456225
  C     17.121460   17.763132   16.413796
  C     16.847723   19.046010   16.081712
  C     16.389660   19.523706   14.720192
  N     17.022708   20.087693   16.993828
  C     17.715278   19.963649   18.168909
  S     17.999564   21.257601   19.158583
  N     18.186685   18.709338   18.470531
  C     17.863431   17.476073   17.725418
  C     17.283803   16.365824   18.584959
  C     17.829097   15.069904   18.535709
  C     17.283090   14.037606   19.316728
  C     16.185711   14.304552   20.153536
  C     15.642949   15.595859   20.205875
  O     14.579196   15.854556   21.006717
  C     16.186423   16.621352   19.425530
  H     14.475870   17.473229   16.103757
  H     13.292418   16.171478   15.968242
  H     14.225580   16.652901   14.538668
  H     15.517211   15.447551   17.065519
  H     14.964434   14.465206   15.714981
  H     15.747774   18.783179   14.228248
  H     17.256115   19.687929   14.065634
  H     15.823287   20.461065   14.775414
  H     16.728878   21.021764   16.755669
  H     18.691149   18.645956   19.346111
  H     18.877559   17.191554   17.407463
  H     18.673527   14.859887   17.883182
  H     17.710165   13.036831   19.271599
  H     15.761373   13.509608   20.758395
  H     14.384852   15.046880   21.506239
  H     15.752112   17.614834   19.476869

 Total Charge           Charge          ....    0
 Multiplicity           Mult            ....    1
 Number of Electrons    NEL             ....  154
 Basis Dimension        Dim             ....  828

ORBITAL ENERGIES
----------------

  NO   OCC          E(Eh)            E(eV)
   0   2.0000     -91.889735     -2500.4468
   1   2.0000     -20.605719      -560.7101
   2   2.0000     -20.597723      -560.4925
   3   2.0000     -20.550900      -559.2184
   4   2.0000     -15.626118      -425.2083
   5   2.0000     -15.610818      -424.7920
   6   2.0000     -11.397598      -310.1444
   7   2.0000     -11.385167      -309.8061
   8   2.0000     -11.327211      -308.2291
   9   2.0000     -11.324520      -308.1559
  10   2.0000     -11.316801      -307.9458
  11   2.0000     -11.301129      -307.5194
  12   2.0000     -11.271101      -306.7022
  13   2.0000     -11.265627      -306.5533
  14   2.0000     -11.257747      -306.3389
  15   2.0000     -11.256533      -306.3058
  16   2.0000     -11.254036      -306.2379
  17   2.0000     -11.248813      -306.0958
  18   2.0000     -11.248615      -306.0904
  19   2.0000     -11.232645      -305.6558
  20   2.0000      -8.894815      -242.0402
  21   2.0000      -6.576391      -178.9527
  22   2.0000      -6.574387      -178.8982
  23   2.0000      -6.573801      -178.8822
  24   2.0000      -1.444542       -39.3080
  25   2.0000      -1.425460       -38.7887
  26   2.0000      -1.359119       -36.9835
  27   2.0000      -1.339693       -36.4549
  28   2.0000      -1.239641       -33.7323
  29   2.0000      -1.167774       -31.7767
  30   2.0000      -1.126013       -30.6404
  31   2.0000      -1.052215       -28.6322
  32   2.0000      -1.036015       -28.1914
  33   2.0000      -1.025757       -27.9123
  34   2.0000      -1.004280       -27.3278
  35   2.0000      -0.990121       -26.9426
  36   2.0000      -0.927656       -25.2428
  37   2.0000      -0.896463       -24.3940
  38   2.0000      -0.851668       -23.1751
  39   2.0000      -0.844913       -22.9912
  40   2.0000      -0.844075       -22.9685
  41   2.0000      -0.831850       -22.6358
  42   2.0000      -0.754184       -20.5224
  43   2.0000      -0.740143       -20.1403
  44   2.0000      -0.721903       -19.6440
  45   2.0000      -0.704148       -19.1609
  46   2.0000      -0.693387       -18.8680
  47   2.0000      -0.679727       -18.4963
  48   2.0000      -0.677155       -18.4263
  49   2.0000      -0.665322       -18.1043
  50   2.0000      -0.651510       -17.7285
  51   2.0000      -0.646347       -17.5880
  52   2.0000      -0.636162       -17.3109
  53   2.0000      -0.620874       -16.8948
  54   2.0000      -0.613934       -16.7060
  55   2.0000      -0.608573       -16.5601
  56   2.0000      -0.604859       -16.4591
  57   2.0000      -0.584837       -15.9142
  58   2.0000      -0.579079       -15.7575
  59   2.0000      -0.567166       -15.4334
  60   2.0000      -0.565830       -15.3970
  61   2.0000      -0.551913       -15.0183
  62   2.0000      -0.539699       -14.6859
  63   2.0000      -0.536904       -14.6099
  64   2.0000      -0.529396       -14.4056
  65   2.0000      -0.518151       -14.0996
  66   2.0000      -0.505594       -13.7579
  67   2.0000      -0.504744       -13.7348
  68   2.0000      -0.488080       -13.2813
  69   2.0000      -0.464305       -12.6344
  70   2.0000      -0.453545       -12.3416
  71   2.0000      -0.448790       -12.2122
  72   2.0000      -0.358689        -9.7604
  73   2.0000      -0.352142        -9.5823
  74   2.0000      -0.333209        -9.0671
  75   2.0000      -0.328678        -8.9438
  76   2.0000      -0.319122        -8.6838
  77   0.0000       0.085906         2.3376
  78   0.0000       0.095866         2.6086
  79   0.0000       0.120614         3.2821
  80   0.0000       0.126278         3.4362
  81   0.0000       0.128884         3.5071

MULLIKEN ATOMIC CHARGES
-----------------------
   0 C :   -0.328897
   1 C :    0.039691
   2 O :   -0.317883
   3 C :    0.419094
   4 O :   -0.377305
   5 C :   -0.218179
   6 C :    0.141511
   7 C :   -0.293254
   8 N :   -0.134670
   9 C :    0.212731
  10 S :   -0.441697
  11 N :   -0.217078
  12 C :    0.023609
  13 C :    0.005808
  14 C :   -0.198295
  15 C :   -0.131379
  16 C :   -0.270638
  17 C :    0.305690
  18 O :   -0.353968
  19 C :   -0.228767
  20 H :    0.107433
  21 H :    0.114477
  22 H :    0.109096
  23 H :    0.100379
  24 H :    0.123799
  25 H :    0.116132
  26 H :    0.150011
  27 H :    0.100337
  28 H :    0.197866
  29 H :    0.201137
  30 H :    0.165233
  31 H :    0.161034
  32 H :    0.165513
  33 H :    0.135629
  34 H :    0.241953
  35 H :    0.173847
Sum of atomic charges:   -0.0000000

LOEWDIN ATOMIC CHARGES
----------------------
   0 C :    0.101634
   1 C :   -0.015712
   2 O :    0.301865
   3 C :   -0.417381
   4 O :    0.125627
   5 C :   -0.091041
   6 C :   -0.086039
   7 C :    0.129189
   8 N :    0.405018
   9 C :   -0.455249
  10 S :   -0.036883
  11 N :    0.395882
  12 C :   -0.055532
  13 C :   -0.047443
  14 C :    0.017685
  15 C :    0.045621
  16 C :    0.002144
  17 C :   -0.191184
  18 O :    0.397657
  19 C :    0.030654
  20 H :   -0.035827
  21 H :   -0.023383
  22 H :   -0.028134
  23 H :   -0.036431
  24 H :   -0.019910
  25 H :   -0.011080
  26 H :   -0.002960
  27 H :   -0.019682
  28 H :   -0.058116
  29 H :   -0.064067
  30 H :   -0.008029
  31 H :   -0.025160
  32 H :   -0.017681
  33 H :   -0.033111
  34 H :   -0.152000
  35 H :   -0.020938

  Mayer bond orders larger than 0.100000
B(  0-C ,  1-C ) :   0.9570 B(  0-C , 20-H ) :   0.9723 B(  0-C , 21-H ) :   0.9777
B(  0-C , 22-H ) :   0.9763 B(  1-C ,  2-O ) :   0.9006 B(  1-C , 23-H ) :   0.9619
B(  1-C , 24-H ) :   0.9847 B(  2-O ,  3-C ) :   1.1915 B(  3-C ,  4-O ) :   2.1191
B(  3-C ,  5-C ) :   0.9109 B(  5-C ,  6-C ) :   1.7148 B(  5-C , 12-C ) :   0.9560
B(  6-C ,  7-C ) :   0.9429 B(  6-C ,  8-N ) :   1.1173 B(  7-C , 25-H ) :   0.9766
B(  7-C , 26-H ) :   0.9586 B(  7-C , 27-H ) :   0.9833 B(  8-N ,  9-C ) :   1.2004
B(  8-N , 28-H ) :   0.9492 B(  9-C , 10-S ) :   1.6117 B(  9-C , 11-N ) :   1.2856
B( 11-N , 12-C ) :   0.9790 B( 11-N , 29-H ) :   0.9466 B( 12-C , 13-C ) :   0.9580
B( 12-C , 30-H ) :   1.0021 B( 13-C , 14-C ) :   1.3766 B( 13-C , 19-C ) :   1.3574
B( 14-C , 15-C ) :   1.3940 B( 14-C , 31-H ) :   0.9684 B( 15-C , 16-C ) :   1.3644
B( 15-C , 32-H ) :   0.9694 B( 16-C , 17-C ) :   1.3289 B( 16-C , 33-H ) :   0.9831
B( 17-C , 18-O ) :   1.1128 B( 17-C , 19-C ) :   1.3617 B( 18-O , 34-H ) :   0.9784
B( 19-C , 35-H ) :   0.9578

MP2 TOTAL ENERGY:    -1274.322209254 Eh
FINAL SINGLE POINT ENERGY     -1274.322209253781

DIPOLE MOMENT
-------------
                                X             Y             Z
Electronic contribution:      9.32907       6.42199       7.18814
Nuclear contribution   :    -10.84837      -8.15610      -6.98412
                        -----------------------------------------
Total Dipole Moment    :     -1.51930      -1.73411       0.20402
                        -----------------------------------------
Magnitude (a.u.)       :      2.31453
Magnitude (Debye)      :      5.88306

Rotational constants in cm-1:     0.011930     0.009068     0.006379
Rotational constants in MHz :   357.652049   271.860169   191.250986

                             ****ORCA TERMINATED NORMALLY****
TOTAL RUN TIME: 0 days 1 hours 43 minutes 6 seconds 724 msec
