                         Program Version 4.2.0 -  RELEASE  -
|  1> ! ri-mp2 cc-pvtz cc-pvtz/c TightSCF NoKeepInts
|  2>
|  3> %scf
|  4>   MaxCore 4096
|  5> end
|  6> *xyz  0  1
|  7>     C       15.1763638   14.7872198   13.7139087
|  8>     C       14.5326878   15.7638813   14.7213167
|  9>     O       15.4557761   16.8138241   15.0749666
| 10>     C       16.5252312   16.5740918   15.8928584
| 11>     O       17.0144378   15.4673877   16.0429393
| 12>     C       16.9255558   17.7461649   16.7441329
| 13>     C       16.8181309   19.0323099   16.3164767
| 14>     C       16.1048551   19.5478273   15.0817259
| 15>     N       17.4486921   20.0693434   17.0088927
| 16>     C       18.3808063   19.8885538   17.9946622
| 17>     S       19.1708644   21.1626726   18.6932507
| 18>     N       18.6420835   18.5913478   18.3557233
| 19>     C       17.8975577   17.4083107   17.8823795
| 20>     C       17.2594052   16.6092063   19.0110892
| 21>     C       17.5341816   15.2382845   19.1639548
| 22>     C       16.9464803   14.5035046   20.2073645
| 23>     C       16.0776648   15.1456625   21.1063509
| 24>     C       15.8005925   16.5113837   20.9550069
| 25>     O       14.9589270   17.1329084   21.8191085
| 26>     C       16.3866486   17.2398549   19.9149040
| 27>     H       15.6300429   15.3345696   12.8785869
| 28>     H       14.4173285   14.1096079   13.3049532
| 29>     H       15.9499153   14.1692553   14.1848093
| 30>     H       13.6455626   16.2137330   14.2574614
| 31>     H       14.2070692   15.2203018   15.6186576
| 32>     H       15.0237859   19.3774924   15.1592269
| 33>     H       16.4650239   19.0360528   14.1804198
| 34>     H       16.2549473   20.6222887   14.9203203
| 35>     H       17.2838561   21.0259021   16.7393392
| 36>     H       19.3180000   18.4857361   19.1017278
| 37>     H       18.7147114   16.8370796   17.4181801
| 38>     H       18.1942105   14.7380711   18.4590941
| 39>     H       17.1615400   13.4415808   20.3116548
| 40>     H       15.6205872   14.5816639   21.9125073
| 41>     H       14.6804711   16.4762000   22.4748065
| 42>     H       16.1630054   18.2967250   19.8152420
| 43> *
| 44>
| 45>                          ****END OF INPUT****

CARTESIAN COORDINATES (ANGSTROEM)
---------------------------------
  C     15.176364   14.787220   13.713909
  C     14.532688   15.763881   14.721317
  O     15.455776   16.813824   15.074967
  C     16.525231   16.574092   15.892858
  O     17.014438   15.467388   16.042939
  C     16.925556   17.746165   16.744133
  C     16.818131   19.032310   16.316477
  C     16.104855   19.547827   15.081726
  N     17.448692   20.069343   17.008893
  C     18.380806   19.888554   17.994662
  S     19.170864   21.162673   18.693251
  N     18.642083   18.591348   18.355723
  C     17.897558   17.408311   17.882379
  C     17.259405   16.609206   19.011089
  C     17.534182   15.238284   19.163955
  C     16.946480   14.503505   20.207364
  C     16.077665   15.145662   21.106351
  C     15.800592   16.511384   20.955007
  O     14.958927   17.132908   21.819108
  C     16.386649   17.239855   19.914904
  H     15.630043   15.334570   12.878587
  H     14.417328   14.109608   13.304953
  H     15.949915   14.169255   14.184809
  H     13.645563   16.213733   14.257461
  H     14.207069   15.220302   15.618658
  H     15.023786   19.377492   15.159227
  H     16.465024   19.036053   14.180420
  H     16.254947   20.622289   14.920320
  H     17.283856   21.025902   16.739339
  H     19.318000   18.485736   19.101728
  H     18.714711   16.837080   17.418180
  H     18.194211   14.738071   18.459094
  H     17.161540   13.441581   20.311655
  H     15.620587   14.581664   21.912507
  H     14.680471   16.476200   22.474806
  H     16.163005   18.296725   19.815242

 Total Charge           Charge          ....    0
 Multiplicity           Mult            ....    1
 Number of Electrons    NEL             ....  154
 Basis Dimension        Dim             ....  828

ORBITAL ENERGIES
----------------

  NO   OCC          E(Eh)            E(eV)
   0   2.0000     -91.887683     -2500.3910
   1   2.0000     -20.600200      -560.5599
   2   2.0000     -20.591752      -560.3301
   3   2.0000     -20.547607      -559.1288
   4   2.0000     -15.627970      -425.2587
   5   2.0000     -15.605429      -424.6453
   6   2.0000     -11.397240      -310.1347
   7   2.0000     -11.382236      -309.7264
   8   2.0000     -11.337122      -308.4988
   9   2.0000     -11.307795      -307.7008
  10   2.0000     -11.304086      -307.5998
  11   2.0000     -11.303619      -307.5871
  12   2.0000     -11.260103      -306.4030
  13   2.0000     -11.258607      -306.3623
  14   2.0000     -11.255047      -306.2654
  15   2.0000     -11.247944      -306.0721
  16   2.0000     -11.238084      -305.8038
  17   2.0000     -11.234115      -305.6958
  18   2.0000     -11.230988      -305.6107
  19   2.0000     -11.222714      -305.3856
  20   2.0000      -8.892771      -241.9846
  21   2.0000      -6.574349      -178.8971
  22   2.0000      -6.572346      -178.8426
  23   2.0000      -6.571759      -178.8266
  24   2.0000      -1.451924       -39.5089
  25   2.0000      -1.411497       -38.4088
  26   2.0000      -1.358677       -36.9715
  27   2.0000      -1.339415       -36.4473
  28   2.0000      -1.236638       -33.6506
  29   2.0000      -1.152328       -31.3564
  30   2.0000      -1.120442       -30.4888
  31   2.0000      -1.042269       -28.3616
  32   2.0000      -1.033430       -28.1211
  33   2.0000      -1.009840       -27.4791
  34   2.0000      -0.997879       -27.1537
  35   2.0000      -0.982856       -26.7449
  36   2.0000      -0.920638       -25.0518
  37   2.0000      -0.891989       -24.2722
  38   2.0000      -0.847561       -23.0633
  39   2.0000      -0.835284       -22.7292
  40   2.0000      -0.828098       -22.5337
  41   2.0000      -0.819704       -22.3053
  42   2.0000      -0.751596       -20.4520
  43   2.0000      -0.733076       -19.9480
  44   2.0000      -0.726043       -19.7566
  45   2.0000      -0.690777       -18.7970
  46   2.0000      -0.685427       -18.6514
  47   2.0000      -0.680113       -18.5068
  48   2.0000      -0.669229       -18.2106
  49   2.0000      -0.662620       -18.0308
  50   2.0000      -0.645083       -17.5536
  51   2.0000      -0.640786       -17.4367
  52   2.0000      -0.632147       -17.2016
  53   2.0000      -0.606069       -16.4920
  54   2.0000      -0.599994       -16.3267
  55   2.0000      -0.598019       -16.2729
  56   2.0000      -0.594751       -16.1840
  57   2.0000      -0.587518       -15.9872
  58   2.0000      -0.572760       -15.5856
  59   2.0000      -0.567599       -15.4451
  60   2.0000      -0.560068       -15.2402
  61   2.0000      -0.546849       -14.8805
  62   2.0000      -0.536833       -14.6080
  63   2.0000      -0.521127       -14.1806
  64   2.0000      -0.515532       -14.0283
  65   2.0000      -0.510657       -13.8957
  66   2.0000      -0.501874       -13.6567
  67   2.0000      -0.494040       -13.4435
  68   2.0000      -0.479772       -13.0553
  69   2.0000      -0.462156       -12.5759
  70   2.0000      -0.457522       -12.4498
  71   2.0000      -0.450163       -12.2496
  72   2.0000      -0.352598        -9.5947
  73   2.0000      -0.344458        -9.3732
  74   2.0000      -0.326790        -8.8924
  75   2.0000      -0.316881        -8.6228
  76   2.0000      -0.314501        -8.5580
  77   0.0000       0.077324         2.1041
  78   0.0000       0.111503         3.0341
  79   0.0000       0.121668         3.3107
  80   0.0000       0.135916         3.6985
  81   0.0000       0.140487         3.8228

MULLIKEN ATOMIC CHARGES
-----------------------
   0 C :   -0.295742
   1 C :    0.041219
   2 O :   -0.351350
   3 C :    0.417171
   4 O :   -0.422260
   5 C :   -0.152971
   6 C :    0.156413
   7 C :   -0.280586
   8 N :   -0.128911
   9 C :    0.207740
  10 S :   -0.443015
  11 N :   -0.210979
  12 C :    0.039725
  13 C :    0.032430
  14 C :   -0.169146
  15 C :   -0.134536
  16 C :   -0.277270
  17 C :    0.313981
  18 O :   -0.358887
  19 C :   -0.250356
  20 H :    0.089882
  21 H :    0.093421
  22 H :    0.126849
  23 H :    0.102992
  24 H :    0.093840
  25 H :    0.129381
  26 H :    0.124238
  27 H :    0.101433
  28 H :    0.198753
  29 H :    0.199830
  30 H :    0.155728
  31 H :    0.159254
  32 H :    0.159956
  33 H :    0.128246
  34 H :    0.239869
  35 H :    0.163658
Sum of atomic charges:   -0.0000000

LOEWDIN ATOMIC CHARGES
----------------------
   0 C :    0.104552
   1 C :   -0.014214
   2 O :    0.298733
   3 C :   -0.412946
   4 O :    0.112528
   5 C :   -0.091186
   6 C :   -0.065124
   7 C :    0.125124
   8 N :    0.405264
   9 C :   -0.458612
  10 S :   -0.038144
  11 N :    0.396340
  12 C :   -0.048154
  13 C :   -0.040560
  14 C :    0.024292
  15 C :    0.040710
  16 C :   -0.001261
  17 C :   -0.192444
  18 O :    0.393163
  19 C :    0.029865
  20 H :   -0.029735
  21 H :   -0.029038
  22 H :   -0.026088
  23 H :   -0.024862
  24 H :   -0.027652
  25 H :   -0.009237
  26 H :   -0.009709
  27 H :   -0.021175
  28 H :   -0.058795
  29 H :   -0.063217
  30 H :   -0.008358
  31 H :   -0.024125
  32 H :   -0.021115
  33 H :   -0.036188
  34 H :   -0.154891
  35 H :   -0.023740

  Mayer bond orders larger than 0.100000
B(  0-C ,  1-C ) :   0.9697 B(  0-C , 20-H ) :   0.9758 B(  0-C , 21-H ) :   0.9767
B(  0-C , 22-H ) :   0.9709 B(  1-C ,  2-O ) :   0.9083 B(  1-C , 23-H ) :   0.9850
B(  1-C , 24-H ) :   0.9777 B(  2-O ,  3-C ) :   1.1180 B(  3-C ,  4-O ) :   1.9753
B(  3-C ,  5-C ) :   1.0482 B(  5-C ,  6-C ) :   1.6556 B(  5-C , 12-C ) :   0.9459
B(  6-C ,  7-C ) :   0.9545 B(  6-C ,  8-N ) :   1.1330 B(  7-C , 25-H ) :   0.9629
B(  7-C , 26-H ) :   0.9659 B(  7-C , 27-H ) :   0.9912 B(  8-N ,  9-C ) :   1.1864
B(  8-N , 28-H ) :   0.9470 B(  9-C , 10-S ) :   1.6077 B(  9-C , 11-N ) :   1.3056
B( 11-N , 12-C ) :   0.9760 B( 11-N , 29-H ) :   0.9485 B( 12-C , 13-C ) :   0.9733
B( 12-C , 30-H ) :   0.9969 B( 13-C , 14-C ) :   1.3763 B( 13-C , 19-C ) :   1.3664
B( 14-C , 15-C ) :   1.3972 B( 14-C , 31-H ) :   0.9638 B( 15-C , 16-C ) :   1.3589
B( 15-C , 32-H ) :   0.9712 B( 16-C , 17-C ) :   1.3332 B( 16-C , 33-H ) :   0.9860
B( 17-C , 18-O ) :   1.1035 B( 17-C , 19-C ) :   1.3674 B( 18-O , 34-H ) :   0.9807
B( 19-C , 35-H ) :   0.9600

MP2 TOTAL ENERGY:    -1274.335630460 Eh
FINAL SINGLE POINT ENERGY     -1274.335630460073

DIPOLE MOMENT
-------------
                                X             Y             Z
Electronic contribution:      8.93042      10.17162      12.17911
Nuclear contribution   :    -10.53275     -11.37271     -13.11576
                        -----------------------------------------
Total Dipole Moment    :     -1.60234      -1.20109      -0.93666
                        -----------------------------------------
Magnitude (a.u.)       :      2.21075
Magnitude (Debye)      :      5.61928

Rotational constants in cm-1:     0.009902     0.009014     0.005511
Rotational constants in MHz :   296.863397   270.237906   165.221391

                             ****ORCA TERMINATED NORMALLY****
TOTAL RUN TIME: 0 days 1 hours 34 minutes 28 seconds 788 msec
