                         Program Version 4.2.0 -  RELEASE  -
|  1> ! ri-mp2 cc-pvtz cc-pvtz/c TightSCF NoKeepInts
|  2>
|  3> %scf
|  4>   MaxCore 4096
|  5> end
|  6> *xyz  0  1
|  7>     C       13.8015413   15.5596022   14.6882976
|  8>     C       15.2712957   15.5765566   14.2349450
|  9>     O       15.8882096   16.7347367   14.8276272
| 10>     C       16.8823194   16.5887730   15.7523794
| 11>     O       17.5207157   15.5556649   15.8689052
| 12>     C       17.0579117   17.7567042   16.6832124
| 13>     C       16.7614335   19.0363130   16.3303847
| 14>     C       16.0103366   19.5189541   15.1047344
| 15>     N       17.1921292   20.1099398   17.1143012
| 16>     C       18.0993667   20.0112020   18.1341600
| 17>     S       18.6468442   21.3432458   18.9475067
| 18>     N       18.5477073   18.7494710   18.4307153
| 19>     C       18.0234888   17.4992788   17.8478185
| 20>     C       17.4737417   16.5372180   18.8928643
| 21>     C       17.9681535   15.2240645   18.9902046
| 22>     C       17.4611580   14.3393039   19.9567344
| 23>     C       16.4521798   14.7720714   20.8342683
| 24>     C       15.9564702   16.0796946   20.7381130
| 25>     O       14.9794665   16.4988174   21.5814299
| 26>     C       16.4628722   16.9578297   19.7746151
| 27>     H       13.7358473   15.4656358   15.7796662
| 28>     H       13.2706555   14.7113097   14.2393449
| 29>     H       13.2913492   16.4830347   14.3875313
| 30>     H       15.7630576   14.6397253   14.5301363
| 31>     H       15.3162798   15.6547595   13.1410915
| 32>     H       16.4997860   19.1726042   14.1858740
| 33>     H       15.9509507   20.6124364   15.0436232
| 34>     H       14.9814322   19.1377773   15.1057977
| 35>     H       16.8886286   21.0450415   16.8946292
| 36>     H       19.1990857   18.7008108   19.2039416
| 37>     H       18.9401383   17.0958235   17.3934513
| 38>     H       18.7374641   14.8843024   18.3008014
| 39>     H       17.8466357   13.3232115   20.0179723
| 40>     H       16.0567183   14.0915430   21.5808449
| 41>     H       14.7821381   15.7653448   22.1829415
| 42>     H       16.0694911   17.9671977   19.7171355
| 43> *
| 44>
| 45>                          ****END OF INPUT****

CARTESIAN COORDINATES (ANGSTROEM)
---------------------------------
  C     13.801541   15.559602   14.688298
  C     15.271296   15.576557   14.234945
  O     15.888210   16.734737   14.827627
  C     16.882319   16.588773   15.752379
  O     17.520716   15.555665   15.868905
  C     17.057912   17.756704   16.683212
  C     16.761433   19.036313   16.330385
  C     16.010337   19.518954   15.104734
  N     17.192129   20.109940   17.114301
  C     18.099367   20.011202   18.134160
  S     18.646844   21.343246   18.947507
  N     18.547707   18.749471   18.430715
  C     18.023489   17.499279   17.847818
  C     17.473742   16.537218   18.892864
  C     17.968153   15.224065   18.990205
  C     17.461158   14.339304   19.956734
  C     16.452180   14.772071   20.834268
  C     15.956470   16.079695   20.738113
  O     14.979466   16.498817   21.581430
  C     16.462872   16.957830   19.774615
  H     13.735847   15.465636   15.779666
  H     13.270656   14.711310   14.239345
  H     13.291349   16.483035   14.387531
  H     15.763058   14.639725   14.530136
  H     15.316280   15.654759   13.141091
  H     16.499786   19.172604   14.185874
  H     15.950951   20.612436   15.043623
  H     14.981432   19.137777   15.105798
  H     16.888629   21.045041   16.894629
  H     19.199086   18.700811   19.203942
  H     18.940138   17.095824   17.393451
  H     18.737464   14.884302   18.300801
  H     17.846636   13.323211   20.017972
  H     16.056718   14.091543   21.580845
  H     14.782138   15.765345   22.182941
  H     16.069491   17.967198   19.717136

 Total Charge           Charge          ....    0
 Multiplicity           Mult            ....    1
 Number of Electrons    NEL             ....  154
 Basis Dimension        Dim             ....  828

ORBITAL ENERGIES
----------------

  NO   OCC          E(Eh)            E(eV)
   0   2.0000     -91.887860     -2500.3958
   1   2.0000     -20.602952      -560.6348
   2   2.0000     -20.591633      -560.3268
   3   2.0000     -20.544997      -559.0578
   4   2.0000     -15.628439      -425.2714
   5   2.0000     -15.605509      -424.6475
   6   2.0000     -11.396285      -310.1087
   7   2.0000     -11.382365      -309.7299
   8   2.0000     -11.338190      -308.5278
   9   2.0000     -11.307586      -307.6950
  10   2.0000     -11.304030      -307.5983
  11   2.0000     -11.299092      -307.4639
  12   2.0000     -11.261054      -306.4289
  13   2.0000     -11.258974      -306.3723
  14   2.0000     -11.254775      -306.2580
  15   2.0000     -11.247615      -306.0632
  16   2.0000     -11.237853      -305.7975
  17   2.0000     -11.233991      -305.6924
  18   2.0000     -11.232124      -305.6416
  19   2.0000     -11.230695      -305.6028
  20   2.0000      -8.892944      -241.9893
  21   2.0000      -6.574522      -178.9018
  22   2.0000      -6.572519      -178.8473
  23   2.0000      -6.571931      -178.8313
  24   2.0000      -1.453613       -39.5548
  25   2.0000      -1.411382       -38.4057
  26   2.0000      -1.357320       -36.9346
  27   2.0000      -1.339782       -36.4573
  28   2.0000      -1.236924       -33.6584
  29   2.0000      -1.152180       -31.3524
  30   2.0000      -1.120553       -30.4918
  31   2.0000      -1.044151       -28.4128
  32   2.0000      -1.036213       -28.1968
  33   2.0000      -1.009730       -27.4762
  34   2.0000      -0.998769       -27.1779
  35   2.0000      -0.983691       -26.7676
  36   2.0000      -0.920598       -25.0507
  37   2.0000      -0.891189       -24.2505
  38   2.0000      -0.847175       -23.0528
  39   2.0000      -0.834615       -22.7110
  40   2.0000      -0.827848       -22.5269
  41   2.0000      -0.816098       -22.2072
  42   2.0000      -0.761147       -20.7119
  43   2.0000      -0.736368       -20.0376
  44   2.0000      -0.725936       -19.7537
  45   2.0000      -0.690986       -18.8027
  46   2.0000      -0.685160       -18.6441
  47   2.0000      -0.679140       -18.4804
  48   2.0000      -0.671136       -18.2625
  49   2.0000      -0.660092       -17.9620
  50   2.0000      -0.648679       -17.6514
  51   2.0000      -0.643751       -17.5174
  52   2.0000      -0.632859       -17.2210
  53   2.0000      -0.604109       -16.4387
  54   2.0000      -0.598896       -16.2968
  55   2.0000      -0.595895       -16.2151
  56   2.0000      -0.593607       -16.1529
  57   2.0000      -0.583572       -15.8798
  58   2.0000      -0.573306       -15.6004
  59   2.0000      -0.561607       -15.2821
  60   2.0000      -0.560025       -15.2390
  61   2.0000      -0.557951       -15.1826
  62   2.0000      -0.539511       -14.6808
  63   2.0000      -0.527846       -14.3634
  64   2.0000      -0.515683       -14.0325
  65   2.0000      -0.508858       -13.8467
  66   2.0000      -0.499503       -13.5922
  67   2.0000      -0.493982       -13.4419
  68   2.0000      -0.481139       -13.0925
  69   2.0000      -0.465023       -12.6539
  70   2.0000      -0.456721       -12.4280
  71   2.0000      -0.453437       -12.3386
  72   2.0000      -0.353056        -9.6072
  73   2.0000      -0.344394        -9.3714
  74   2.0000      -0.326940        -8.8965
  75   2.0000      -0.317041        -8.6271
  76   2.0000      -0.314174        -8.5491
  77   0.0000       0.077278         2.1028
  78   0.0000       0.111633         3.0377
  79   0.0000       0.119987         3.2650
  80   0.0000       0.136060         3.7024
  81   0.0000       0.139949         3.8082

MULLIKEN ATOMIC CHARGES
-----------------------
   0 C :   -0.267154
   1 C :    0.012759
   2 O :   -0.345045
   3 C :    0.431002
   4 O :   -0.423469
   5 C :   -0.179932
   6 C :    0.160585
   7 C :   -0.281584
   8 N :   -0.128880
   9 C :    0.207492
  10 S :   -0.442676
  11 N :   -0.210396
  12 C :    0.042483
  13 C :    0.031275
  14 C :   -0.165703
  15 C :   -0.134583
  16 C :   -0.277193
  17 C :    0.313958
  18 O :   -0.359156
  19 C :   -0.251592
  20 H :    0.100899
  21 H :    0.096193
  22 H :    0.089991
  23 H :    0.120705
  24 H :    0.099433
  25 H :    0.125793
  26 H :    0.102039
  27 H :    0.129063
  28 H :    0.198766
  29 H :    0.199878
  30 H :    0.155393
  31 H :    0.158458
  32 H :    0.159859
  33 H :    0.128164
  34 H :    0.239912
  35 H :    0.163263
Sum of atomic charges:   -0.0000000

LOEWDIN ATOMIC CHARGES
----------------------
   0 C :    0.104004
   1 C :   -0.012840
   2 O :    0.307838
   3 C :   -0.415578
   4 O :    0.103769
   5 C :   -0.091998
   6 C :   -0.064160
   7 C :    0.124925
   8 N :    0.405429
   9 C :   -0.458717
  10 S :   -0.037841
  11 N :    0.396541
  12 C :   -0.048301
  13 C :   -0.040482
  14 C :    0.025155
  15 C :    0.040915
  16 C :   -0.001264
  17 C :   -0.192679
  18 O :    0.392989
  19 C :    0.029500
  20 H :   -0.025048
  21 H :   -0.025107
  22 H :   -0.029908
  23 H :   -0.026555
  24 H :   -0.029788
  25 H :   -0.009186
  26 H :   -0.021294
  27 H :   -0.009970
  28 H :   -0.058799
  29 H :   -0.063083
  30 H :   -0.008320
  31 H :   -0.024001
  32 H :   -0.021108
  33 H :   -0.036212
  34 H :   -0.154917
  35 H :   -0.023911

  Mayer bond orders larger than 0.100000
B(  0-C ,  1-C ) :   0.9715 B(  0-C , 20-H ) :   0.9768 B(  0-C , 21-H ) :   0.9765
B(  0-C , 22-H ) :   0.9793 B(  1-C ,  2-O ) :   0.8888 B(  1-C , 23-H ) :   0.9724
B(  1-C , 24-H ) :   0.9834 B(  2-O ,  3-C ) :   1.1503 B(  3-C ,  4-O ) :   1.9866
B(  3-C ,  5-C ) :   1.0373 B(  5-C ,  6-C ) :   1.6580 B(  5-C , 12-C ) :   0.9500
B(  6-C ,  7-C ) :   0.9546 B(  6-C ,  8-N ) :   1.1356 B(  7-C , 25-H ) :   0.9653
B(  7-C , 26-H ) :   0.9908 B(  7-C , 27-H ) :   0.9636 B(  8-N ,  9-C ) :   1.1854
B(  8-N , 28-H ) :   0.9468 B(  9-C , 10-S ) :   1.6078 B(  9-C , 11-N ) :   1.3067
B( 11-N , 12-C ) :   0.9766 B( 11-N , 29-H ) :   0.9486 B( 12-C , 13-C ) :   0.9734
B( 12-C , 30-H ) :   0.9972 B( 13-C , 14-C ) :   1.3765 B( 13-C , 19-C ) :   1.3660
B( 14-C , 15-C ) :   1.3974 B( 14-C , 31-H ) :   0.9639 B( 15-C , 16-C ) :   1.3586
B( 15-C , 32-H ) :   0.9712 B( 16-C , 17-C ) :   1.3334 B( 16-C , 33-H ) :   0.9860
B( 17-C , 18-O ) :   1.1033 B( 17-C , 19-C ) :   1.3675 B( 18-O , 34-H ) :   0.9807
B( 19-C , 35-H ) :   0.9603

MP2 TOTAL ENERGY:    -1274.339924672 Eh
FINAL SINGLE POINT ENERGY     -1274.339924672424

DIPOLE MOMENT
-------------
                                X             Y             Z
Electronic contribution:     10.84786       8.95261      10.70288
Nuclear contribution   :    -12.23205     -10.28484     -11.82173
                        -----------------------------------------
Total Dipole Moment    :     -1.38418      -1.33223      -1.11885
                        -----------------------------------------
Magnitude (a.u.)       :      2.22320
Magnitude (Debye)      :      5.65093

Rotational constants in cm-1:     0.009691     0.009251     0.005698
Rotational constants in MHz :   290.526853   277.330713   170.812425

                             ****ORCA TERMINATED NORMALLY****
TOTAL RUN TIME: 0 days 1 hours 53 minutes 39 seconds 430 msec
