                         Program Version 4.2.0 -  RELEASE  -
|  1> ! ri-mp2 cc-pvtz cc-pvtz/c TightSCF NoKeepInts
|  2>
|  3> %scf
|  4>   MaxCore 4096
|  5> end
|  6> *xyz  0  1
|  7>     C       14.5906860   14.9217931   15.3739450
|  8>     C       15.0774399   15.8347139   14.2245365
|  9>     O       15.9094211   16.9154647   14.7020788
| 10>     C       16.8804296   16.7235355   15.6434763
| 11>     O       17.5045485   15.6792104   15.7323169
| 12>     C       17.0601811   17.8598596   16.6098554
| 13>     C       16.8260029   19.1573664   16.2787542
| 14>     C       16.1532705   19.6950108   15.0310032
| 15>     N       17.2583843   20.1938537   17.1101975
| 16>     C       18.1104160   20.0341539   18.1694927
| 17>     S       18.6645342   21.3228913   19.0456752
| 18>     N       18.4974854   18.7489743   18.4525687
| 19>     C       17.9598405   17.5348302   17.8086270
| 20>     C       17.3222006   16.5637696   18.7936787
| 21>     C       17.7492173   15.2252803   18.8595489
| 22>     C       17.1567826   14.3297684   19.7656184
| 23>     C       16.1291637   14.7770525   20.6137145
| 24>     C       15.7001465   16.1099095   20.5484226
| 25>     O       14.7046090   16.5430529   21.3624158
| 26>     C       16.2913578   16.9986594   19.6448317
| 27>     H       15.4008797   14.2978121   15.7705036
| 28>     H       13.8061027   14.2462332   15.0125516
| 29>     H       14.1733406   15.5165230   16.1961190
| 30>     H       15.6447023   15.2258459   13.5079746
| 31>     H       14.2118722   16.2544565   13.6962241
| 32>     H       15.1067361   19.3690881   14.9838737
| 33>     H       16.6620142   19.3350344   14.1279017
| 34>     H       16.1552777   20.7908209   14.9841349
| 35>     H       17.0006003   21.1451574   16.9019063
| 36>     H       19.1089250   18.6558926   19.2538207
| 37>     H       18.8820088   17.1096668   17.3861950
| 38>     H       18.5328296   14.8750797   18.1916765
| 39>     H       17.4912701   13.2946055   19.8029449
| 40>     H       15.6678684   14.0884194   21.3136532
| 41>     H       14.4488197   15.7991789   21.9281106
| 42>     H       15.9476352   18.0270353   19.6096515
| 43> *
| 44>
| 45>                          ****END OF INPUT****

CARTESIAN COORDINATES (ANGSTROEM)
---------------------------------
  C     14.590686   14.921793   15.373945
  C     15.077440   15.834714   14.224536
  O     15.909421   16.915465   14.702079
  C     16.880430   16.723536   15.643476
  O     17.504548   15.679210   15.732317
  C     17.060181   17.859860   16.609855
  C     16.826003   19.157366   16.278754
  C     16.153271   19.695011   15.031003
  N     17.258384   20.193854   17.110197
  C     18.110416   20.034154   18.169493
  S     18.664534   21.322891   19.045675
  N     18.497485   18.748974   18.452569
  C     17.959840   17.534830   17.808627
  C     17.322201   16.563770   18.793679
  C     17.749217   15.225280   18.859549
  C     17.156783   14.329768   19.765618
  C     16.129164   14.777052   20.613714
  C     15.700147   16.109910   20.548423
  O     14.704609   16.543053   21.362416
  C     16.291358   16.998659   19.644832
  H     15.400880   14.297812   15.770504
  H     13.806103   14.246233   15.012552
  H     14.173341   15.516523   16.196119
  H     15.644702   15.225846   13.507975
  H     14.211872   16.254456   13.696224
  H     15.106736   19.369088   14.983874
  H     16.662014   19.335034   14.127902
  H     16.155278   20.790821   14.984135
  H     17.000600   21.145157   16.901906
  H     19.108925   18.655893   19.253821
  H     18.882009   17.109667   17.386195
  H     18.532830   14.875080   18.191676
  H     17.491270   13.294605   19.802945
  H     15.667868   14.088419   21.313653
  H     14.448820   15.799179   21.928111
  H     15.947635   18.027035   19.609651

 Total Charge           Charge          ....    0
 Multiplicity           Mult            ....    1
 Number of Electrons    NEL             ....  154
 Basis Dimension        Dim             ....  828

ORBITAL ENERGIES
----------------

  NO   OCC          E(Eh)            E(eV)
   0   2.0000     -91.887923     -2500.3975
   1   2.0000     -20.597082      -560.4751
   2   2.0000     -20.592566      -560.3522
   3   2.0000     -20.546066      -559.0869
   4   2.0000     -15.628326      -425.2684
   5   2.0000     -15.605718      -424.6532
   6   2.0000     -11.396121      -310.1042
   7   2.0000     -11.382526      -309.7343
   8   2.0000     -11.337609      -308.5120
   9   2.0000     -11.308647      -307.7239
  10   2.0000     -11.304198      -307.6029
  11   2.0000     -11.304076      -307.5995
  12   2.0000     -11.260340      -306.4094
  13   2.0000     -11.258386      -306.3563
  14   2.0000     -11.255722      -306.2838
  15   2.0000     -11.248725      -306.0934
  16   2.0000     -11.238873      -305.8253
  17   2.0000     -11.234966      -305.7190
  18   2.0000     -11.231656      -305.6289
  19   2.0000     -11.226579      -305.4907
  20   2.0000      -8.893008      -241.9910
  21   2.0000      -6.574585      -178.9036
  22   2.0000      -6.572582      -178.8490
  23   2.0000      -6.571995      -178.8331
  24   2.0000      -1.449964       -39.4555
  25   2.0000      -1.412322       -38.4312
  26   2.0000      -1.355810       -36.8935
  27   2.0000      -1.339626       -36.4531
  28   2.0000      -1.236895       -33.6576
  29   2.0000      -1.153086       -31.3771
  30   2.0000      -1.120586       -30.4927
  31   2.0000      -1.042387       -28.3648
  32   2.0000      -1.032964       -28.1084
  33   2.0000      -1.010617       -27.5003
  34   2.0000      -0.998739       -27.1771
  35   2.0000      -0.983725       -26.7685
  36   2.0000      -0.921269       -25.0690
  37   2.0000      -0.896917       -24.4064
  38   2.0000      -0.847713       -23.0674
  39   2.0000      -0.835600       -22.7378
  40   2.0000      -0.828859       -22.5544
  41   2.0000      -0.816456       -22.2169
  42   2.0000      -0.746568       -20.3151
  43   2.0000      -0.733523       -19.9602
  44   2.0000      -0.726328       -19.7644
  45   2.0000      -0.690676       -18.7943
  46   2.0000      -0.685614       -18.6565
  47   2.0000      -0.677976       -18.4487
  48   2.0000      -0.669684       -18.2230
  49   2.0000      -0.658596       -17.9213
  50   2.0000      -0.651921       -17.7397
  51   2.0000      -0.644530       -17.5386
  52   2.0000      -0.631487       -17.1836
  53   2.0000      -0.617669       -16.8076
  54   2.0000      -0.603217       -16.4144
  55   2.0000      -0.598785       -16.2938
  56   2.0000      -0.595877       -16.2146
  57   2.0000      -0.577555       -15.7161
  58   2.0000      -0.573823       -15.6145
  59   2.0000      -0.563784       -15.3413
  60   2.0000      -0.555550       -15.1173
  61   2.0000      -0.546211       -14.8632
  62   2.0000      -0.537667       -14.6307
  63   2.0000      -0.527355       -14.3501
  64   2.0000      -0.516193       -14.0463
  65   2.0000      -0.509288       -13.8584
  66   2.0000      -0.499522       -13.5927
  67   2.0000      -0.494204       -13.4480
  68   2.0000      -0.479698       -13.0532
  69   2.0000      -0.463533       -12.6134
  70   2.0000      -0.458162       -12.4672
  71   2.0000      -0.449297       -12.2260
  72   2.0000      -0.352750        -9.5988
  73   2.0000      -0.345252        -9.3948
  74   2.0000      -0.327032        -8.8990
  75   2.0000      -0.317076        -8.6281
  76   2.0000      -0.315262        -8.5787
  77   0.0000       0.076503         2.0818
  78   0.0000       0.110196         2.9986
  79   0.0000       0.121483         3.3057
  80   0.0000       0.135199         3.6790
  81   0.0000       0.141258         3.8438

MULLIKEN ATOMIC CHARGES
-----------------------
   0 C :   -0.316589
   1 C :    0.048714
   2 O :   -0.362985
   3 C :    0.442358
   4 O :   -0.422184
   5 C :   -0.175021
   6 C :    0.153209
   7 C :   -0.279606
   8 N :   -0.127923
   9 C :    0.208172
  10 S :   -0.442538
  11 N :   -0.211346
  12 C :    0.042559
  13 C :    0.034089
  14 C :   -0.175099
  15 C :   -0.133887
  16 C :   -0.277412
  17 C :    0.314780
  18 O :   -0.358823
  19 C :   -0.253528
  20 H :    0.128917
  21 H :    0.099583
  22 H :    0.098226
  23 H :    0.099040
  24 H :    0.103491
  25 H :    0.127028
  26 H :    0.126677
  27 H :    0.101151
  28 H :    0.198723
  29 H :    0.199794
  30 H :    0.156035
  31 H :    0.161098
  32 H :    0.160511
  33 H :    0.128597
  34 H :    0.240034
  35 H :    0.164155
Sum of atomic charges:   -0.0000000

LOEWDIN ATOMIC CHARGES
----------------------
   0 C :    0.105797
   1 C :   -0.012976
   2 O :    0.295793
   3 C :   -0.415377
   4 O :    0.109282
   5 C :   -0.092633
   6 C :   -0.064573
   7 C :    0.125396
   8 N :    0.405437
   9 C :   -0.458338
  10 S :   -0.037851
  11 N :    0.396414
  12 C :   -0.048244
  13 C :   -0.040695
  14 C :    0.024483
  15 C :    0.040495
  16 C :   -0.001193
  17 C :   -0.192724
  18 O :    0.393185
  19 C :    0.029452
  20 H :   -0.024043
  21 H :   -0.026026
  22 H :   -0.027749
  23 H :   -0.028787
  24 H :   -0.025262
  25 H :   -0.009713
  26 H :   -0.008637
  27 H :   -0.021375
  28 H :   -0.058726
  29 H :   -0.063296
  30 H :   -0.008111
  31 H :   -0.023849
  32 H :   -0.020986
  33 H :   -0.036081
  34 H :   -0.154769
  35 H :   -0.023720

  Mayer bond orders larger than 0.100000
B(  0-C ,  1-C ) :   0.9589 B(  0-C , 20-H ) :   0.9713 B(  0-C , 21-H ) :   0.9762
B(  0-C , 22-H ) :   0.9741 B(  1-C ,  2-O ) :   0.9040 B(  1-C , 23-H ) :   0.9829
B(  1-C , 24-H ) :   0.9831 B(  2-O ,  3-C ) :   1.1133 B(  3-C ,  4-O ) :   1.9886
B(  3-C ,  5-C ) :   1.0373 B(  5-C ,  6-C ) :   1.6575 B(  5-C , 12-C ) :   0.9487
B(  6-C ,  7-C ) :   0.9558 B(  6-C ,  8-N ) :   1.1389 B(  7-C , 25-H ) :   0.9640
B(  7-C , 26-H ) :   0.9649 B(  7-C , 27-H ) :   0.9906 B(  8-N ,  9-C ) :   1.1852
B(  8-N , 28-H ) :   0.9470 B(  9-C , 10-S ) :   1.6084 B(  9-C , 11-N ) :   1.3055
B( 11-N , 12-C ) :   0.9776 B( 11-N , 29-H ) :   0.9485 B( 12-C , 13-C ) :   0.9715
B( 12-C , 30-H ) :   0.9966 B( 13-C , 14-C ) :   1.3773 B( 13-C , 19-C ) :   1.3647
B( 14-C , 15-C ) :   1.3963 B( 14-C , 31-H ) :   0.9628 B( 15-C , 16-C ) :   1.3590
B( 15-C , 32-H ) :   0.9709 B( 16-C , 17-C ) :   1.3334 B( 16-C , 33-H ) :   0.9858
B( 17-C , 18-O ) :   1.1039 B( 17-C , 19-C ) :   1.3665 B( 18-O , 34-H ) :   0.9805
B( 19-C , 35-H ) :   0.9599

MP2 TOTAL ENERGY:    -1274.335388219 Eh
FINAL SINGLE POINT ENERGY     -1274.335388218585

DIPOLE MOMENT
-------------
                                X             Y             Z
Electronic contribution:      9.36532      10.12199       9.32070
Nuclear contribution   :    -10.83041     -11.42022     -10.38830
                        -----------------------------------------
Total Dipole Moment    :     -1.46509      -1.29823      -1.06760
                        -----------------------------------------
Magnitude (a.u.)       :      2.22973
Magnitude (Debye)      :      5.66751

Rotational constants in cm-1:     0.010465     0.009253     0.005832
Rotational constants in MHz :   313.735654   277.383736   174.850209

                             ****ORCA TERMINATED NORMALLY****
TOTAL RUN TIME: 0 days 1 hours 47 minutes 53 seconds 545 msec
