                         Program Version 4.2.0 -  RELEASE  -
|  1> ! ri-mp2 cc-pvtz cc-pvtz/c TightSCF NoKeepInts
|  2>
|  3> %scf
|  4>   MaxCore 4096
|  5> end
|  6> *xyz  0  1
|  7>     C       14.3430834   15.0674332   14.9996966
|  8>     C       15.8254519   14.7536050   15.3017880
|  9>     O       16.6176309   15.8919610   15.7248623
| 10>     C       16.3089844   17.2141659   15.5328286
| 11>     O       15.6194466   17.6121187   14.6106058
| 12>     C       16.9303767   18.0993914   16.5815944
| 13>     C       16.9934898   19.4456539   16.4124037
| 14>     C       16.2777354   20.2737132   15.3650053
| 15>     N       17.7876994   20.2395082   17.2431659
| 16>     C       18.6897451   19.7521200   18.1494920
| 17>     S       19.6653204   20.7494303   19.0380335
| 18>     N       18.7581620   18.3873992   18.2691701
| 19>     C       17.8631404   17.4234738   17.6017124
| 20>     C       17.1463780   16.5114157   18.5890937
| 21>     C       17.5097639   15.1570776   18.7063582
| 22>     C       16.8455563   14.3163029   19.6153067
| 23>     C       15.8124614   14.8353613   20.4145899
| 24>     C       15.4522922   16.1855649   20.3025917
| 25>     O       14.4562927   16.6894301   21.0740173
| 26>     C       16.1152143   17.0197655   19.3970271
| 27>     H       13.8932565   15.6609798   15.8054839
| 28>     H       13.7717826   14.1359733   14.9080637
| 29>     H       14.2334141   15.6111974   14.0533214
| 30>     H       15.8752198   13.9869745   16.0858475
| 31>     H       16.2754732   14.3234979   14.3977077
| 32>     H       16.6480608   20.0309286   14.3608238
| 33>     H       16.4002199   21.3532558   15.5115891
| 34>     H       15.2005722   20.0632578   15.3766939
| 35>     H       17.7627825   21.2423034   17.1498540
| 36>     H       19.4093813   18.0585482   18.9706597
| 37>     H       18.5929726   16.8547970   17.0081801
| 38>     H       18.3054762   14.7545086   18.0852514
| 39>     H       17.1319476   13.2693789   19.6989835
| 40>     H       15.2968705   14.1904004   21.1185145
| 41>     H       14.1438128   15.9755873   21.6498716
| 42>     H       15.8275324   18.0635192   19.3278112
| 43> *
| 44>
| 45>                          ****END OF INPUT****

CARTESIAN COORDINATES (ANGSTROEM)
---------------------------------
  C     14.343083   15.067433   14.999697
  C     15.825452   14.753605   15.301788
  O     16.617631   15.891961   15.724862
  C     16.308984   17.214166   15.532829
  O     15.619447   17.612119   14.610606
  C     16.930377   18.099391   16.581594
  C     16.993490   19.445654   16.412404
  C     16.277735   20.273713   15.365005
  N     17.787699   20.239508   17.243166
  C     18.689745   19.752120   18.149492
  S     19.665320   20.749430   19.038033
  N     18.758162   18.387399   18.269170
  C     17.863140   17.423474   17.601712
  C     17.146378   16.511416   18.589094
  C     17.509764   15.157078   18.706358
  C     16.845556   14.316303   19.615307
  C     15.812461   14.835361   20.414590
  C     15.452292   16.185565   20.302592
  O     14.456293   16.689430   21.074017
  C     16.115214   17.019765   19.397027
  H     13.893256   15.660980   15.805484
  H     13.771783   14.135973   14.908064
  H     14.233414   15.611197   14.053321
  H     15.875220   13.986974   16.085847
  H     16.275473   14.323498   14.397708
  H     16.648061   20.030929   14.360824
  H     16.400220   21.353256   15.511589
  H     15.200572   20.063258   15.376694
  H     17.762783   21.242303   17.149854
  H     19.409381   18.058548   18.970660
  H     18.592973   16.854797   17.008180
  H     18.305476   14.754509   18.085251
  H     17.131948   13.269379   19.698983
  H     15.296871   14.190400   21.118514
  H     14.143813   15.975587   21.649872
  H     15.827532   18.063519   19.327811

 Total Charge           Charge          ....    0
 Multiplicity           Mult            ....    1
 Number of Electrons    NEL             ....  154
 Basis Dimension        Dim             ....  828

ORBITAL ENERGIES
----------------

  NO   OCC          E(Eh)            E(eV)
   0   2.0000     -91.888240     -2500.4061
   1   2.0000     -20.597218      -560.4788
   2   2.0000     -20.594969      -560.4176
   3   2.0000     -20.540302      -558.9300
   4   2.0000     -15.628479      -425.2725
   5   2.0000     -15.606317      -424.6695
   6   2.0000     -11.396388      -310.1115
   7   2.0000     -11.382855      -309.7432
   8   2.0000     -11.336412      -308.4794
   9   2.0000     -11.314437      -307.8815
  10   2.0000     -11.306605      -307.6684
  11   2.0000     -11.301792      -307.5374
  12   2.0000     -11.261274      -306.4348
  13   2.0000     -11.258276      -306.3533
  14   2.0000     -11.255990      -306.2911
  15   2.0000     -11.251023      -306.1559
  16   2.0000     -11.244173      -305.9695
  17   2.0000     -11.239336      -305.8379
  18   2.0000     -11.239249      -305.8355
  19   2.0000     -11.223605      -305.4098
  20   2.0000      -8.893318      -241.9995
  21   2.0000      -6.574893      -178.9119
  22   2.0000      -6.572893      -178.8575
  23   2.0000      -6.572305      -178.8415
  24   2.0000      -1.443080       -39.2682
  25   2.0000      -1.416875       -38.5551
  26   2.0000      -1.352591       -36.8059
  27   2.0000      -1.339665       -36.4541
  28   2.0000      -1.237600       -33.6768
  29   2.0000      -1.157896       -31.5080
  30   2.0000      -1.120122       -30.4801
  31   2.0000      -1.042701       -28.3733
  32   2.0000      -1.035416       -28.1751
  33   2.0000      -1.015605       -27.6360
  34   2.0000      -0.995712       -27.0947
  35   2.0000      -0.983786       -26.7702
  36   2.0000      -0.921426       -25.0733
  37   2.0000      -0.897804       -24.4305
  38   2.0000      -0.846401       -23.0317
  39   2.0000      -0.838428       -22.8148
  40   2.0000      -0.834702       -22.7134
  41   2.0000      -0.817316       -22.2403
  42   2.0000      -0.744745       -20.2655
  43   2.0000      -0.732606       -19.9352
  44   2.0000      -0.718763       -19.5585
  45   2.0000      -0.695661       -18.9299
  46   2.0000      -0.687388       -18.7048
  47   2.0000      -0.675305       -18.3760
  48   2.0000      -0.672062       -18.2877
  49   2.0000      -0.658089       -17.9075
  50   2.0000      -0.648787       -17.6544
  51   2.0000      -0.641488       -17.4558
  52   2.0000      -0.634383       -17.2624
  53   2.0000      -0.614430       -16.7195
  54   2.0000      -0.607154       -16.5215
  55   2.0000      -0.600799       -16.3486
  56   2.0000      -0.599149       -16.3037
  57   2.0000      -0.577548       -15.7159
  58   2.0000      -0.570020       -15.5110
  59   2.0000      -0.567277       -15.4364
  60   2.0000      -0.558018       -15.1844
  61   2.0000      -0.541449       -14.7336
  62   2.0000      -0.535372       -14.5682
  63   2.0000      -0.524904       -14.2834
  64   2.0000      -0.521041       -14.1782
  65   2.0000      -0.512829       -13.9548
  66   2.0000      -0.501208       -13.6386
  67   2.0000      -0.497426       -13.5356
  68   2.0000      -0.485001       -13.1976
  69   2.0000      -0.462380       -12.5820
  70   2.0000      -0.453317       -12.3354
  71   2.0000      -0.440765       -11.9938
  72   2.0000      -0.352205        -9.5840
  73   2.0000      -0.350038        -9.5250
  74   2.0000      -0.327577        -8.9138
  75   2.0000      -0.321845        -8.7578
  76   2.0000      -0.317485        -8.6392
  77   0.0000       0.077662         2.1133
  78   0.0000       0.103981         2.8295
  79   0.0000       0.125259         3.4085
  80   0.0000       0.132827         3.6144
  81   0.0000       0.137771         3.7489

MULLIKEN ATOMIC CHARGES
-----------------------
   0 C :   -0.304139
   1 C :    0.051416
   2 O :   -0.362485
   3 C :    0.442664
   4 O :   -0.430022
   5 C :   -0.233937
   6 C :    0.176379
   7 C :   -0.267459
   8 N :   -0.126125
   9 C :    0.211124
  10 S :   -0.443203
  11 N :   -0.216171
  12 C :    0.068532
  13 C :    0.046293
  14 C :   -0.189632
  15 C :   -0.131343
  16 C :   -0.277662
  17 C :    0.317473
  18 O :   -0.356710
  19 C :   -0.251964
  20 H :    0.100476
  21 H :    0.096844
  22 H :    0.124494
  23 H :    0.099296
  24 H :    0.097233
  25 H :    0.129604
  26 H :    0.094375
  27 H :    0.132331
  28 H :    0.199503
  29 H :    0.200386
  30 H :    0.151841
  31 H :    0.154269
  32 H :    0.162056
  33 H :    0.130453
  34 H :    0.240688
  35 H :    0.163122
Sum of atomic charges:    0.0000000

LOEWDIN ATOMIC CHARGES
----------------------
   0 C :    0.104014
   1 C :   -0.008895
   2 O :    0.296358
   3 C :   -0.414803
   4 O :    0.104532
   5 C :   -0.095426
   6 C :   -0.056717
   7 C :    0.130627
   8 N :    0.407028
   9 C :   -0.456433
  10 S :   -0.037494
  11 N :    0.394530
  12 C :   -0.054746
  13 C :   -0.038689
  14 C :    0.017259
  15 C :    0.038283
  16 C :   -0.001203
  17 C :   -0.189758
  18 O :    0.395132
  19 C :    0.032770
  20 H :   -0.026630
  21 H :   -0.027189
  22 H :   -0.024860
  23 H :   -0.026740
  24 H :   -0.029204
  25 H :   -0.005024
  26 H :   -0.023850
  27 H :   -0.004740
  28 H :   -0.057290
  29 H :   -0.064631
  30 H :   -0.013691
  31 H :   -0.029000
  32 H :   -0.021366
  33 H :   -0.035439
  34 H :   -0.153898
  35 H :   -0.022817

  Mayer bond orders larger than 0.100000
B(  0-C ,  1-C ) :   0.9680 B(  0-C , 20-H ) :   0.9756 B(  0-C , 21-H ) :   0.9746
B(  0-C , 22-H ) :   0.9723 B(  1-C ,  2-O ) :   0.8995 B(  1-C , 23-H ) :   0.9773
B(  1-C , 24-H ) :   0.9827 B(  2-O ,  3-C ) :   1.1515 B(  3-C ,  4-O ) :   1.9750
B(  3-C ,  5-C ) :   1.0563 B(  5-C ,  6-C ) :   1.6381 B(  5-C , 12-C ) :   0.9571
B(  6-C ,  7-C ) :   0.9653 B(  6-C ,  8-N ) :   1.1534 B(  7-C , 25-H ) :   0.9587
B(  7-C , 26-H ) :   0.9905 B(  7-C , 27-H ) :   0.9618 B(  8-N ,  9-C ) :   1.1880
B(  8-N , 28-H ) :   0.9466 B(  9-C , 10-S ) :   1.6042 B(  9-C , 11-N ) :   1.3103
B( 11-N , 12-C ) :   0.9678 B( 11-N , 29-H ) :   0.9487 B( 12-C , 13-C ) :   0.9624
B( 12-C , 30-H ) :   1.0003 B( 13-C , 14-C ) :   1.3520 B( 13-C , 19-C ) :   1.3796
B( 14-C , 15-C ) :   1.3909 B( 14-C , 31-H ) :   0.9711 B( 15-C , 16-C ) :   1.3601
B( 15-C , 32-H ) :   0.9703 B( 16-C , 17-C ) :   1.3336 B( 16-C , 33-H ) :   0.9849
B( 17-C , 18-O ) :   1.1045 B( 17-C , 19-C ) :   1.3639 B( 18-O , 34-H ) :   0.9797
B( 19-C , 35-H ) :   0.9597

MP2 TOTAL ENERGY:    -1274.334028100 Eh
FINAL SINGLE POINT ENERGY     -1274.334028100367

DIPOLE MOMENT
-------------
                                X             Y             Z
Electronic contribution:      9.85924       9.87032       8.71764
Nuclear contribution   :    -10.90290     -11.66800      -9.03599
                        -----------------------------------------
Total Dipole Moment    :     -1.04365      -1.79768      -0.31835
                        -----------------------------------------
Magnitude (a.u.)       :      2.10290
Magnitude (Debye)      :      5.34516

Rotational constants in cm-1:     0.011482     0.008615     0.005930
Rotational constants in MHz :   344.230488   258.257506   177.769397

                             ****ORCA TERMINATED NORMALLY****
TOTAL RUN TIME: 0 days 1 hours 58 minutes 33 seconds 73 msec
