                         Program Version 4.2.0 -  RELEASE  -
|  1> ! ri-mp2 cc-pvtz cc-pvtz/c TightSCF NoKeepInts
|  2>
|  3> %scf
|  4>   MaxCore 4096
|  5> end
|  6> *xyz  0  1
|  7>     C       15.4814792   15.0235455   13.4948295
|  8>     C       14.5192368   15.8145564   14.4094033
|  9>     O       15.2102981   16.8003330   15.2093982
| 10>     C       16.2716975   16.5052253   16.0216419
| 11>     O       16.7048938   15.3753371   16.1714300
| 12>     C       16.7958772   17.6724329   16.8123303
| 13>     C       16.7381566   18.9547805   16.3624538
| 14>     C       15.9735289   19.4946550   15.1693359
| 15>     N       17.4750908   19.9640096   16.9879041
| 16>     C       18.4574268   19.7461236   17.9154305
| 17>     S       19.3682245   20.9827786   18.5292705
| 18>     N       18.6623669   18.4430923   18.2906441
| 19>     C       17.8180920   17.2993171   17.8949416
| 20>     C       17.2094016   16.5657681   19.0829626
| 21>     C       17.4150587   15.1851456   19.2559592
| 22>     C       16.8559910   14.5113624   20.3548157
| 23>     C       16.0860961   15.2248066   21.2894983
| 24>     C       15.8781957   16.6004507   21.1184731
| 25>     O       15.1322391   17.2909331   22.0174815
| 26>     C       16.4356696   17.2681613   20.0233439
| 27>     H       16.1899139   15.6969314   12.9970026
| 28>     H       14.9144780   14.4941985   12.7196479
| 29>     H       16.0477430   14.2693593   14.0540572
| 30>     H       13.7720708   16.3253160   13.7886114
| 31>     H       13.9863670   15.1119620   15.0639826
| 32>     H       14.8931990   19.3653616   15.3111254
| 33>     H       16.2616110   18.9685752   14.2506997
| 34>     H       16.1523075   20.5628389   14.9959635
| 35>     H       17.3506734   20.9234470   16.7072868
| 36>     H       19.3772232   18.3109655   18.9949421
| 37>     H       18.5675455   16.6693043   17.3941170
| 38>     H       17.9974842   14.6302061   18.5242656
| 39>     H       17.0158751   13.4413493   20.4741801
| 40>     H       15.6510862   14.7080549   22.1383695
| 41>     H       14.8537155   16.6656808   22.7031636
| 42>     H       16.2666858   18.3336345   19.9090373
| 43> *
| 44>
| 45>                          ****END OF INPUT****

CARTESIAN COORDINATES (ANGSTROEM)
---------------------------------
  C     15.481479   15.023546   13.494829
  C     14.519237   15.814556   14.409403
  O     15.210298   16.800333   15.209398
  C     16.271697   16.505225   16.021642
  O     16.704894   15.375337   16.171430
  C     16.795877   17.672433   16.812330
  C     16.738157   18.954780   16.362454
  C     15.973529   19.494655   15.169336
  N     17.475091   19.964010   16.987904
  C     18.457427   19.746124   17.915430
  S     19.368224   20.982779   18.529270
  N     18.662367   18.443092   18.290644
  C     17.818092   17.299317   17.894942
  C     17.209402   16.565768   19.082963
  C     17.415059   15.185146   19.255959
  C     16.855991   14.511362   20.354816
  C     16.086096   15.224807   21.289498
  C     15.878196   16.600451   21.118473
  O     15.132239   17.290933   22.017481
  C     16.435670   17.268161   20.023344
  H     16.189914   15.696931   12.997003
  H     14.914478   14.494198   12.719648
  H     16.047743   14.269359   14.054057
  H     13.772071   16.325316   13.788611
  H     13.986367   15.111962   15.063983
  H     14.893199   19.365362   15.311125
  H     16.261611   18.968575   14.250700
  H     16.152307   20.562839   14.995964
  H     17.350673   20.923447   16.707287
  H     19.377223   18.310965   18.994942
  H     18.567546   16.669304   17.394117
  H     17.997484   14.630206   18.524266
  H     17.015875   13.441349   20.474180
  H     15.651086   14.708055   22.138369
  H     14.853715   16.665681   22.703164
  H     16.266686   18.333634   19.909037

 Total Charge           Charge          ....    0
 Multiplicity           Mult            ....    1
 Number of Electrons    NEL             ....  154
 Basis Dimension        Dim             ....  828

ORBITAL ENERGIES
----------------

  NO   OCC          E(Eh)            E(eV)
   0   2.0000     -91.887359     -2500.3821
   1   2.0000     -20.603296      -560.6442
   2   2.0000     -20.590593      -560.2985
   3   2.0000     -20.544770      -559.0516
   4   2.0000     -15.627667      -425.2504
   5   2.0000     -15.605049      -424.6350
   6   2.0000     -11.397627      -310.1452
   7   2.0000     -11.381833      -309.7154
   8   2.0000     -11.337226      -308.5016
   9   2.0000     -11.306565      -307.6673
  10   2.0000     -11.304893      -307.6218
  11   2.0000     -11.303546      -307.5851
  12   2.0000     -11.260752      -306.4206
  13   2.0000     -11.258739      -306.3659
  14   2.0000     -11.253909      -306.2344
  15   2.0000     -11.246705      -306.0384
  16   2.0000     -11.236884      -305.7712
  17   2.0000     -11.232965      -305.6645
  18   2.0000     -11.229818      -305.5789
  19   2.0000     -11.226228      -305.4812
  20   2.0000      -8.892450      -241.9759
  21   2.0000      -6.574029      -178.8884
  22   2.0000      -6.572024      -178.8339
  23   2.0000      -6.571438      -178.8179
  24   2.0000      -1.450550       -39.4715
  25   2.0000      -1.410335       -38.3772
  26   2.0000      -1.357553       -36.9409
  27   2.0000      -1.339199       -36.4414
  28   2.0000      -1.236370       -33.6433
  29   2.0000      -1.151255       -31.3272
  30   2.0000      -1.119795       -30.4712
  31   2.0000      -1.041953       -28.3530
  32   2.0000      -1.034432       -28.1483
  33   2.0000      -1.008770       -27.4500
  34   2.0000      -0.997600       -27.1461
  35   2.0000      -0.982682       -26.7401
  36   2.0000      -0.920330       -25.0435
  37   2.0000      -0.896435       -24.3932
  38   2.0000      -0.847387       -23.0586
  39   2.0000      -0.834290       -22.7022
  40   2.0000      -0.826925       -22.5018
  41   2.0000      -0.817242       -22.2383
  42   2.0000      -0.748832       -20.3768
  43   2.0000      -0.731875       -19.9153
  44   2.0000      -0.725053       -19.7297
  45   2.0000      -0.690081       -18.7781
  46   2.0000      -0.684668       -18.6308
  47   2.0000      -0.679097       -18.4792
  48   2.0000      -0.669241       -18.2110
  49   2.0000      -0.663414       -18.0524
  50   2.0000      -0.645188       -17.5564
  51   2.0000      -0.641030       -17.4433
  52   2.0000      -0.631924       -17.1955
  53   2.0000      -0.609484       -16.5849
  54   2.0000      -0.601499       -16.3676
  55   2.0000      -0.597217       -16.2511
  56   2.0000      -0.593690       -16.1551
  57   2.0000      -0.585782       -15.9399
  58   2.0000      -0.571787       -15.5591
  59   2.0000      -0.566384       -15.4121
  60   2.0000      -0.559867       -15.2348
  61   2.0000      -0.545603       -14.8466
  62   2.0000      -0.537440       -14.6245
  63   2.0000      -0.523757       -14.2522
  64   2.0000      -0.514510       -14.0005
  65   2.0000      -0.510769       -13.8987
  66   2.0000      -0.500594       -13.6218
  67   2.0000      -0.493318       -13.4239
  68   2.0000      -0.480358       -13.0712
  69   2.0000      -0.463453       -12.6112
  70   2.0000      -0.455830       -12.4038
  71   2.0000      -0.449576       -12.2336
  72   2.0000      -0.352427        -9.5900
  73   2.0000      -0.343422        -9.3450
  74   2.0000      -0.326467        -8.8836
  75   2.0000      -0.316499        -8.6124
  76   2.0000      -0.313212        -8.5229
  77   0.0000       0.078700         2.1415
  78   0.0000       0.112924         3.0728
  79   0.0000       0.119820         3.2605
  80   0.0000       0.136721         3.7204
  81   0.0000       0.140660         3.8276

MULLIKEN ATOMIC CHARGES
-----------------------
   0 C :   -0.305827
   1 C :    0.041503
   2 O :   -0.347918
   3 C :    0.421882
   4 O :   -0.429913
   5 C :   -0.170191
   6 C :    0.168846
   7 C :   -0.283591
   8 N :   -0.129047
   9 C :    0.207712
  10 S :   -0.443603
  11 N :   -0.210386
  12 C :    0.039918
  13 C :    0.032515
  14 C :   -0.165445
  15 C :   -0.134322
  16 C :   -0.276776
  17 C :    0.314435
  18 O :   -0.359104
  19 C :   -0.250010
  20 H :    0.089632
  21 H :    0.097347
  22 H :    0.130490
  23 H :    0.105846
  24 H :    0.098224
  25 H :    0.132190
  26 H :    0.121364
  27 H :    0.102937
  28 H :    0.198663
  29 H :    0.199782
  30 H :    0.154778
  31 H :    0.158113
  32 H :    0.159323
  33 H :    0.127808
  34 H :    0.239736
  35 H :    0.163088
Sum of atomic charges:   -0.0000000

LOEWDIN ATOMIC CHARGES
----------------------
   0 C :    0.103747
   1 C :   -0.012211
   2 O :    0.299959
   3 C :   -0.413678
   4 O :    0.107941
   5 C :   -0.089571
   6 C :   -0.064407
   7 C :    0.124344
   8 N :    0.405180
   9 C :   -0.458892
  10 S :   -0.038554
  11 N :    0.396549
  12 C :   -0.048146
  13 C :   -0.040273
  14 C :    0.024756
  15 C :    0.040876
  16 C :   -0.001072
  17 C :   -0.192223
  18 O :    0.393098
  19 C :    0.030141
  20 H :   -0.030410
  21 H :   -0.027760
  22 H :   -0.025111
  23 H :   -0.024704
  24 H :   -0.026969
  25 H :   -0.008795
  26 H :   -0.010911
  27 H :   -0.021369
  28 H :   -0.058974
  29 H :   -0.063063
  30 H :   -0.008737
  31 H :   -0.024341
  32 H :   -0.021261
  33 H :   -0.036277
  34 H :   -0.155023
  35 H :   -0.023858

  Mayer bond orders larger than 0.100000
B(  0-C ,  1-C ) :   0.9637 B(  0-C , 20-H ) :   0.9765 B(  0-C , 21-H ) :   0.9772
B(  0-C , 22-H ) :   0.9706 B(  1-C ,  2-O ) :   0.9050 B(  1-C , 23-H ) :   0.9845
B(  1-C , 24-H ) :   0.9806 B(  2-O ,  3-C ) :   1.1539 B(  3-C ,  4-O ) :   1.9636
B(  3-C ,  5-C ) :   1.0594 B(  5-C ,  6-C ) :   1.6501 B(  5-C , 12-C ) :   0.9498
B(  6-C ,  7-C ) :   0.9520 B(  6-C ,  8-N ) :   1.1360 B(  7-C , 25-H ) :   0.9625
B(  7-C , 26-H ) :   0.9666 B(  7-C , 27-H ) :   0.9922 B(  8-N ,  9-C ) :   1.1860
B(  8-N , 28-H ) :   0.9471 B(  9-C , 10-S ) :   1.6068 B(  9-C , 11-N ) :   1.3063
B( 11-N , 12-C ) :   0.9777 B( 11-N , 29-H ) :   0.9485 B( 12-C , 13-C ) :   0.9754
B( 12-C , 30-H ) :   0.9975 B( 13-C , 14-C ) :   1.3752 B( 13-C , 19-C ) :   1.3680
B( 14-C , 15-C ) :   1.3973 B( 14-C , 31-H ) :   0.9642 B( 15-C , 16-C ) :   1.3588
B( 15-C , 32-H ) :   0.9714 B( 16-C , 17-C ) :   1.3334 B( 16-C , 33-H ) :   0.9861
B( 17-C , 18-O ) :   1.1030 B( 17-C , 19-C ) :   1.3676 B( 18-O , 34-H ) :   0.9808
B( 19-C , 35-H ) :   0.9600

MP2 TOTAL ENERGY:    -1274.337642893 Eh
FINAL SINGLE POINT ENERGY     -1274.337642893227

DIPOLE MOMENT
-------------
                                X             Y             Z
Electronic contribution:      8.22253       9.26717      13.00320
Nuclear contribution   :     -9.81965     -10.39885     -14.09008
                        -----------------------------------------
Total Dipole Moment    :     -1.59712      -1.13168      -1.08689
                        -----------------------------------------
Magnitude (a.u.)       :      2.23893
Magnitude (Debye)      :      5.69091

Rotational constants in cm-1:     0.010055     0.008771     0.005458
Rotational constants in MHz :   301.429820   262.948910   163.639067

                             ****ORCA TERMINATED NORMALLY****
TOTAL RUN TIME: 0 days 1 hours 54 minutes 55 seconds 716 msec
