                         Program Version 4.2.0 -  RELEASE  -
|  1> ! ri-mp2 cc-pvtz cc-pvtz/c TightSCF NoKeepInts
|  2>
|  3> %scf
|  4>   MaxCore 4096
|  5> end
|  6> *xyz  0  1
|  7>     C       14.4531293   15.2231241   14.9908469
|  8>     C       15.6569106   15.0487205   15.9401036
|  9>     O       16.7697613   15.8925674   15.5631193
| 10>     C       16.5893768   17.2275992   15.3370602
| 11>     O       16.1174969   17.6289110   14.2882196
| 12>     C       16.9749740   18.0965952   16.5074880
| 13>     C       16.9314408   19.4506636   16.3981523
| 14>     C       16.2386235   20.2650599   15.3246540
| 15>     N       17.5623779   20.2719778   17.3351889
| 16>     C       18.4380269   19.8275269   18.2875588
| 17>     S       19.2392203   20.8651886   19.2958521
| 18>     N       18.6362098   18.4719535   18.3465005
| 19>     C       17.8792436   17.4632535   17.5818027
| 20>     C       17.1993714   16.4481470   18.4888937
| 21>     C       17.7145726   15.1450500   18.6176472
| 22>     C       17.0830990   14.2084964   19.4532361
| 23>     C       15.9326306   14.5807680   20.1698498
| 24>     C       15.4246341   15.8819215   20.0515122
| 25>     O       14.3146671   16.2442034   20.7420632
| 26>     C       16.0534248   16.8110902   19.2167776
| 27>     H       13.9903572   16.2106045   15.1106394
| 28>     H       13.6874483   14.4672080   15.2025438
| 29>     H       14.7648594   15.1096836   13.9446563
| 30>     H       15.3315004   15.2803714   16.9614648
| 31>     H       15.9831851   14.0009537   15.9253314
| 32>     H       15.2168751   19.9003174   15.1590430
| 33>     H       16.7748915   20.1813418   14.3705423
| 34>     H       16.1654022   21.3303454   15.5732652
| 35>     H       17.4481105   21.2715852   17.2816744
| 36>     H       19.2686630   18.1715084   19.0774919
| 37>     H       18.7033326   16.9937795   17.0256201
| 38>     H       18.6024976   14.8556377   18.0612065
| 39>     H       17.4865297   13.2012991   19.5455369
| 40>     H       15.4426514   13.8611845   20.8178555
| 41>     H       14.0606248   15.4954054   21.3025907
| 42>     H       15.6508799   17.8159565   19.1420111
| 43> *
| 44>
| 45>                          ****END OF INPUT****

CARTESIAN COORDINATES (ANGSTROEM)
---------------------------------
  C     14.453129   15.223124   14.990847
  C     15.656911   15.048720   15.940104
  O     16.769761   15.892567   15.563119
  C     16.589377   17.227599   15.337060
  O     16.117497   17.628911   14.288220
  C     16.974974   18.096595   16.507488
  C     16.931441   19.450664   16.398152
  C     16.238623   20.265060   15.324654
  N     17.562378   20.271978   17.335189
  C     18.438027   19.827527   18.287559
  S     19.239220   20.865189   19.295852
  N     18.636210   18.471954   18.346501
  C     17.879244   17.463254   17.581803
  C     17.199371   16.448147   18.488894
  C     17.714573   15.145050   18.617647
  C     17.083099   14.208496   19.453236
  C     15.932631   14.580768   20.169850
  C     15.424634   15.881922   20.051512
  O     14.314667   16.244203   20.742063
  C     16.053425   16.811090   19.216778
  H     13.990357   16.210604   15.110639
  H     13.687448   14.467208   15.202544
  H     14.764859   15.109684   13.944656
  H     15.331500   15.280371   16.961465
  H     15.983185   14.000954   15.925331
  H     15.216875   19.900317   15.159043
  H     16.774891   20.181342   14.370542
  H     16.165402   21.330345   15.573265
  H     17.448110   21.271585   17.281674
  H     19.268663   18.171508   19.077492
  H     18.703333   16.993779   17.025620
  H     18.602498   14.855638   18.061207
  H     17.486530   13.201299   19.545537
  H     15.442651   13.861184   20.817856
  H     14.060625   15.495405   21.302591
  H     15.650880   17.815956   19.142011

 Total Charge           Charge          ....    0
 Multiplicity           Mult            ....    1
 Number of Electrons    NEL             ....  154
 Basis Dimension        Dim             ....  828

ORBITAL ENERGIES
----------------

  NO   OCC          E(Eh)            E(eV)
   0   2.0000     -91.890611     -2500.4706
   1   2.0000     -20.602151      -560.6130
   2   2.0000     -20.581648      -560.0551
   3   2.0000     -20.545451      -559.0701
   4   2.0000     -15.630961      -425.3401
   5   2.0000     -15.608706      -424.7345
   6   2.0000     -11.392908      -310.0168
   7   2.0000     -11.384934      -309.7998
   8   2.0000     -11.339227      -308.5560
   9   2.0000     -11.320084      -308.0351
  10   2.0000     -11.310352      -307.7703
  11   2.0000     -11.297224      -307.4131
  12   2.0000     -11.265662      -306.5542
  13   2.0000     -11.261147      -306.4314
  14   2.0000     -11.258911      -306.3705
  15   2.0000     -11.253039      -306.2108
  16   2.0000     -11.249749      -306.1212
  17   2.0000     -11.244423      -305.9763
  18   2.0000     -11.243837      -305.9603
  19   2.0000     -11.220445      -305.3238
  20   2.0000      -8.895666      -242.0634
  21   2.0000      -6.577234      -178.9756
  22   2.0000      -6.575240      -178.9214
  23   2.0000      -6.574645      -178.9052
  24   2.0000      -1.443049       -39.2674
  25   2.0000      -1.421875       -38.6912
  26   2.0000      -1.351571       -36.7781
  27   2.0000      -1.342501       -36.5313
  28   2.0000      -1.240543       -33.7569
  29   2.0000      -1.162869       -31.6433
  30   2.0000      -1.122234       -30.5375
  31   2.0000      -1.046888       -28.4873
  32   2.0000      -1.030327       -28.0366
  33   2.0000      -1.020858       -27.7790
  34   2.0000      -0.998579       -27.1727
  35   2.0000      -0.986532       -26.8449
  36   2.0000      -0.924776       -25.1644
  37   2.0000      -0.888399       -24.1746
  38   2.0000      -0.849498       -23.1160
  39   2.0000      -0.842819       -22.9343
  40   2.0000      -0.839566       -22.8457
  41   2.0000      -0.825089       -22.4518
  42   2.0000      -0.749536       -20.3959
  43   2.0000      -0.736636       -20.0449
  44   2.0000      -0.716751       -19.5038
  45   2.0000      -0.700216       -19.0538
  46   2.0000      -0.689386       -18.7591
  47   2.0000      -0.678134       -18.4530
  48   2.0000      -0.667650       -18.1677
  49   2.0000      -0.665371       -18.1057
  50   2.0000      -0.649917       -17.6851
  51   2.0000      -0.645678       -17.5698
  52   2.0000      -0.637641       -17.3511
  53   2.0000      -0.612221       -16.6594
  54   2.0000      -0.610775       -16.6200
  55   2.0000      -0.602746       -16.4016
  56   2.0000      -0.602549       -16.3962
  57   2.0000      -0.581263       -15.8170
  58   2.0000      -0.571490       -15.5510
  59   2.0000      -0.568260       -15.4631
  60   2.0000      -0.556270       -15.1369
  61   2.0000      -0.542485       -14.7618
  62   2.0000      -0.536091       -14.5878
  63   2.0000      -0.528189       -14.3728
  64   2.0000      -0.523263       -14.2387
  65   2.0000      -0.515489       -14.0272
  66   2.0000      -0.502781       -13.6814
  67   2.0000      -0.494105       -13.4453
  68   2.0000      -0.481166       -13.0932
  69   2.0000      -0.464067       -12.6279
  70   2.0000      -0.455188       -12.3863
  71   2.0000      -0.442197       -12.0328
  72   2.0000      -0.355930        -9.6854
  73   2.0000      -0.353982        -9.6324
  74   2.0000      -0.330485        -8.9930
  75   2.0000      -0.327048        -8.8994
  76   2.0000      -0.320151        -8.7118
  77   0.0000       0.071284         1.9397
  78   0.0000       0.098794         2.6883
  79   0.0000       0.122870         3.3435
  80   0.0000       0.128925         3.5082
  81   0.0000       0.131714         3.5841

MULLIKEN ATOMIC CHARGES
-----------------------
   0 C :   -0.277751
   1 C :    0.028036
   2 O :   -0.384398
   3 C :    0.475731
   4 O :   -0.402798
   5 C :   -0.278495
   6 C :    0.182919
   7 C :   -0.265795
   8 N :   -0.127144
   9 C :    0.210673
  10 S :   -0.439556
  11 N :   -0.214485
  12 C :    0.066695
  13 C :   -0.018964
  14 C :   -0.147401
  15 C :   -0.136558
  16 C :   -0.272846
  17 C :    0.307920
  18 O :   -0.356695
  19 C :   -0.229750
  20 H :    0.094590
  21 H :    0.096718
  22 H :    0.112196
  23 H :    0.101619
  24 H :    0.105936
  25 H :    0.129309
  26 H :    0.133686
  27 H :    0.094184
  28 H :    0.199867
  29 H :    0.200874
  30 H :    0.152310
  31 H :    0.153670
  32 H :    0.164100
  33 H :    0.134046
  34 H :    0.241622
  35 H :    0.165937
Sum of atomic charges:    0.0000000

LOEWDIN ATOMIC CHARGES
----------------------
   0 C :    0.104949
   1 C :   -0.019416
   2 O :    0.285694
   3 C :   -0.418931
   4 O :    0.119611
   5 C :   -0.102612
   6 C :   -0.053628
   7 C :    0.130864
   8 N :    0.407807
   9 C :   -0.457301
  10 S :   -0.034495
  11 N :    0.394818
  12 C :   -0.054620
  13 C :   -0.041265
  14 C :    0.019555
  15 C :    0.041844
  16 C :   -0.000330
  17 C :   -0.191662
  18 O :    0.396418
  19 C :    0.031191
  20 H :   -0.029662
  21 H :   -0.028035
  22 H :   -0.022295
  23 H :   -0.033404
  24 H :   -0.023153
  25 H :   -0.005368
  26 H :   -0.003976
  27 H :   -0.023461
  28 H :   -0.056663
  29 H :   -0.064152
  30 H :   -0.011760
  31 H :   -0.027316
  32 H :   -0.019700
  33 H :   -0.034174
  34 H :   -0.152680
  35 H :   -0.022693

  Mayer bond orders larger than 0.100000
B(  0-C ,  1-C ) :   0.9825 B(  0-C , 20-H ) :   0.9739 B(  0-C , 21-H ) :   0.9752
B(  0-C , 22-H ) :   0.9752 B(  1-C ,  2-O ) :   0.8943 B(  1-C , 23-H ) :   0.9662
B(  1-C , 24-H ) :   0.9795 B(  2-O ,  3-C ) :   1.0866 B(  3-C ,  4-O ) :   2.0267
B(  3-C ,  5-C ) :   1.0652 B(  5-C ,  6-C ) :   1.6272 B(  5-C , 12-C ) :   0.9548
B(  6-C ,  7-C ) :   0.9671 B(  6-C ,  8-N ) :   1.1562 B(  7-C , 25-H ) :   0.9641
B(  7-C , 26-H ) :   0.9557 B(  7-C , 27-H ) :   0.9891 B(  8-N ,  9-C ) :   1.1858
B(  8-N , 28-H ) :   0.9465 B(  9-C , 10-S ) :   1.6081 B(  9-C , 11-N ) :   1.3093
B( 11-N , 12-C ) :   0.9634 B( 11-N , 29-H ) :   0.9486 B( 12-C , 13-C ) :   0.9662
B( 12-C , 30-H ) :   1.0016 B( 13-C , 14-C ) :   1.3566 B( 13-C , 19-C ) :   1.3753
B( 14-C , 15-C ) :   1.3924 B( 14-C , 31-H ) :   0.9725 B( 15-C , 16-C ) :   1.3597
B( 15-C , 32-H ) :   0.9699 B( 16-C , 17-C ) :   1.3317 B( 16-C , 33-H ) :   0.9838
B( 17-C , 18-O ) :   1.1074 B( 17-C , 19-C ) :   1.3651 B( 18-O , 34-H ) :   0.9788
B( 19-C , 35-H ) :   0.9599

MP2 TOTAL ENERGY:    -1274.326146667 Eh
FINAL SINGLE POINT ENERGY     -1274.326146666525

DIPOLE MOMENT
-------------
                                X             Y             Z
Electronic contribution:      9.73822       9.22499       7.83661
Nuclear contribution   :    -10.80145     -10.86020      -7.67713
                        -----------------------------------------
Total Dipole Moment    :     -1.06323      -1.63521       0.15948
                        -----------------------------------------
Magnitude (a.u.)       :      1.95698
Magnitude (Debye)      :      4.97426

Rotational constants in cm-1:     0.011930     0.008798     0.006065
Rotational constants in MHz :   357.652663   263.749886   181.822600

                             ****ORCA TERMINATED NORMALLY****
TOTAL RUN TIME: 0 days 1 hours 43 minutes 45 seconds 264 msec
