                         Program Version 4.2.0 -  RELEASE  -
|  1> ! ri-mp2 cc-pvtz cc-pvtz/c TightSCF NoKeepInts
|  2>
|  3> %scf
|  4>   MaxCore 4096
|  5> end
|  6> *xyz  0  1
|  7>     C       14.7296461   15.0936477   16.5537224
|  8>     C       15.5120346   15.3308695   15.2531958
|  9>     O       16.8761892   15.6877442   15.5493741
| 10>     C       17.2545237   16.9481775   15.2041609
| 11>     O       17.4933893   17.2294559   14.0435613
| 12>     C       17.1283566   17.9463913   16.3178877
| 13>     C       16.9600122   19.2593539   16.0190399
| 14>     C       16.4743408   19.8348905   14.7049518
| 15>     N       17.2194031   20.2563902   16.9610638
| 16>     C       17.8875481   20.0463042   18.1366331
| 17>     S       18.2791864   21.2877867   19.1565856
| 18>     N       18.2392845   18.7492178   18.4134429
| 19>     C       17.8103080   17.5644260   17.6440849
| 20>     C       17.1143430   16.5270971   18.5131264
| 21>     C       17.6248386   15.2196718   18.6142626
| 22>     C       17.0130608   14.2777716   19.4587325
| 23>     C       15.8842952   14.6476682   20.2102035
| 24>     C       15.3795187   15.9521443   20.1178655
| 25>     O       14.2909724   16.3123577   20.8428655
| 26>     C       15.9932657   16.8889362   19.2801452
| 27>     H       15.2452897   14.3670636   17.1922125
| 28>     H       13.7302769   14.7007496   16.3315580
| 29>     H       14.6052688   16.0306966   17.1069836
| 30>     H       15.5103559   14.4040035   14.6649783
| 31>     H       15.0154421   16.1057939   14.6523902
| 32>     H       15.7114189   19.1904839   14.2508958
| 33>     H       17.3042019   19.9122116   13.9903101
| 34>     H       16.0306323   20.8311687   14.8180411
| 35>     H       17.0017276   21.2169275   16.7483458
| 36>     H       18.7146211   18.6213098   19.2981785
| 37>     H       18.7988046   17.1863753   17.3462572
| 38>     H       18.4961004   14.9312697   18.0317038
| 39>     H       17.4128240   13.2673970   19.5269447
| 40>     H       15.4074740   13.9230397   20.8620826
| 41>     H       14.0408275   15.5531399   21.3907550
| 42>     H       15.5972170   17.8980673   19.2314572
| 43> *
| 44>
| 45>                          ****END OF INPUT****

CARTESIAN COORDINATES (ANGSTROEM)
---------------------------------
  C     14.729646   15.093648   16.553722
  C     15.512035   15.330869   15.253196
  O     16.876189   15.687744   15.549374
  C     17.254524   16.948177   15.204161
  O     17.493389   17.229456   14.043561
  C     17.128357   17.946391   16.317888
  C     16.960012   19.259354   16.019040
  C     16.474341   19.834891   14.704952
  N     17.219403   20.256390   16.961064
  C     17.887548   20.046304   18.136633
  S     18.279186   21.287787   19.156586
  N     18.239284   18.749218   18.413443
  C     17.810308   17.564426   17.644085
  C     17.114343   16.527097   18.513126
  C     17.624839   15.219672   18.614263
  C     17.013061   14.277772   19.458732
  C     15.884295   14.647668   20.210203
  C     15.379519   15.952144   20.117866
  O     14.290972   16.312358   20.842865
  C     15.993266   16.888936   19.280145
  H     15.245290   14.367064   17.192213
  H     13.730277   14.700750   16.331558
  H     14.605269   16.030697   17.106984
  H     15.510356   14.404003   14.664978
  H     15.015442   16.105794   14.652390
  H     15.711419   19.190484   14.250896
  H     17.304202   19.912212   13.990310
  H     16.030632   20.831169   14.818041
  H     17.001728   21.216928   16.748346
  H     18.714621   18.621310   19.298178
  H     18.798805   17.186375   17.346257
  H     18.496100   14.931270   18.031704
  H     17.412824   13.267397   19.526945
  H     15.407474   13.923040   20.862083
  H     14.040828   15.553140   21.390755
  H     15.597217   17.898067   19.231457

 Total Charge           Charge          ....    0
 Multiplicity           Mult            ....    1
 Number of Electrons    NEL             ....  154
 Basis Dimension        Dim             ....  828

ORBITAL ENERGIES
----------------

  NO   OCC          E(Eh)            E(eV)
   0   2.0000     -91.891004     -2500.4813
   1   2.0000     -20.599407      -560.5384
   2   2.0000     -20.581825      -560.0599
   3   2.0000     -20.554033      -559.3037
   4   2.0000     -15.630077      -425.3160
   5   2.0000     -15.609581      -424.7583
   6   2.0000     -11.393457      -310.0317
   7   2.0000     -11.385491      -309.8150
   8   2.0000     -11.336526      -308.4826
   9   2.0000     -11.316543      -307.9388
  10   2.0000     -11.313131      -307.8459
  11   2.0000     -11.299974      -307.4879
  12   2.0000     -11.263956      -306.5078
  13   2.0000     -11.258472      -306.3586
  14   2.0000     -11.257402      -306.3295
  15   2.0000     -11.255346      -306.2735
  16   2.0000     -11.246843      -306.0422
  17   2.0000     -11.241776      -305.9043
  18   2.0000     -11.241322      -305.8919
  19   2.0000     -11.221149      -305.3430
  20   2.0000      -8.896048      -242.0738
  21   2.0000      -6.577613      -178.9860
  22   2.0000      -6.575622      -178.9318
  23   2.0000      -6.575024      -178.9155
  24   2.0000      -1.450277       -39.4640
  25   2.0000      -1.419180       -38.6178
  26   2.0000      -1.356564       -36.9140
  27   2.0000      -1.342209       -36.5234
  28   2.0000      -1.240624       -33.7591
  29   2.0000      -1.160274       -31.5727
  30   2.0000      -1.123255       -30.5653
  31   2.0000      -1.045874       -28.4597
  32   2.0000      -1.033685       -28.1280
  33   2.0000      -1.018208       -27.7069
  34   2.0000      -1.000903       -27.2360
  35   2.0000      -0.987827       -26.8801
  36   2.0000      -0.924815       -25.1655
  37   2.0000      -0.884291       -24.0628
  38   2.0000      -0.848748       -23.0956
  39   2.0000      -0.841254       -22.8917
  40   2.0000      -0.837276       -22.7834
  41   2.0000      -0.825107       -22.4523
  42   2.0000      -0.761335       -20.7170
  43   2.0000      -0.735924       -20.0255
  44   2.0000      -0.724839       -19.7239
  45   2.0000      -0.697819       -18.9886
  46   2.0000      -0.689627       -18.7657
  47   2.0000      -0.678932       -18.4747
  48   2.0000      -0.674802       -18.3623
  49   2.0000      -0.666606       -18.1393
  50   2.0000      -0.648416       -17.6443
  51   2.0000      -0.645008       -17.5516
  52   2.0000      -0.634497       -17.2655
  53   2.0000      -0.609637       -16.5891
  54   2.0000      -0.603460       -16.4210
  55   2.0000      -0.601761       -16.3747
  56   2.0000      -0.593132       -16.1400
  57   2.0000      -0.580364       -15.7925
  58   2.0000      -0.575762       -15.6673
  59   2.0000      -0.572565       -15.5803
  60   2.0000      -0.565634       -15.3917
  61   2.0000      -0.549808       -14.9610
  62   2.0000      -0.540630       -14.7113
  63   2.0000      -0.524928       -14.2840
  64   2.0000      -0.514949       -14.0125
  65   2.0000      -0.510555       -13.8929
  66   2.0000      -0.508090       -13.8258
  67   2.0000      -0.501654       -13.6507
  68   2.0000      -0.480110       -13.0645
  69   2.0000      -0.464098       -12.6287
  70   2.0000      -0.452531       -12.3140
  71   2.0000      -0.452215       -12.3054
  72   2.0000      -0.355963        -9.6862
  73   2.0000      -0.349701        -9.5159
  74   2.0000      -0.329926        -8.9778
  75   2.0000      -0.324064        -8.8182
  76   2.0000      -0.320726        -8.7274
  77   0.0000       0.072851         1.9824
  78   0.0000       0.100243         2.7277
  79   0.0000       0.120324         3.2742
  80   0.0000       0.129681         3.5288
  81   0.0000       0.131227         3.5709

MULLIKEN ATOMIC CHARGES
-----------------------
   0 C :   -0.308461
   1 C :    0.046603
   2 O :   -0.366937
   3 C :    0.428912
   4 O :   -0.378120
   5 C :   -0.209102
   6 C :    0.154899
   7 C :   -0.271929
   8 N :   -0.128986
   9 C :    0.207868
  10 S :   -0.437425
  11 N :   -0.211342
  12 C :    0.027321
  13 C :    0.040820
  14 C :   -0.165742
  15 C :   -0.151534
  16 C :   -0.269766
  17 C :    0.325976
  18 O :   -0.358551
  19 C :   -0.268260
  20 H :    0.109814
  21 H :    0.113693
  22 H :    0.103526
  23 H :    0.111118
  24 H :    0.086120
  25 H :    0.119476
  26 H :    0.139102
  27 H :    0.096209
  28 H :    0.199751
  29 H :    0.201081
  30 H :    0.152084
  31 H :    0.150286
  32 H :    0.165085
  33 H :    0.132880
  34 H :    0.241118
  35 H :    0.172415
Sum of atomic charges:   -0.0000000

LOEWDIN ATOMIC CHARGES
----------------------
   0 C :    0.105245
   1 C :   -0.016466
   2 O :    0.291865
   3 C :   -0.428048
   4 O :    0.128354
   5 C :   -0.101818
   6 C :   -0.062750
   7 C :    0.129132
   8 N :    0.407190
   9 C :   -0.457540
  10 S :   -0.033268
  11 N :    0.395982
  12 C :   -0.053450
  13 C :   -0.041197
  14 C :    0.021234
  15 C :    0.040884
  16 C :    0.000266
  17 C :   -0.190904
  18 O :    0.396022
  19 C :    0.034075
  20 H :   -0.024481
  21 H :   -0.027033
  22 H :   -0.031404
  23 H :   -0.025044
  24 H :   -0.030470
  25 H :   -0.008672
  26 H :   -0.004412
  27 H :   -0.022100
  28 H :   -0.056718
  29 H :   -0.063299
  30 H :   -0.012239
  31 H :   -0.027570
  32 H :   -0.020390
  33 H :   -0.034817
  34 H :   -0.153286
  35 H :   -0.022873

  Mayer bond orders larger than 0.100000
B(  0-C ,  1-C ) :   0.9725 B(  0-C , 20-H ) :   0.9706 B(  0-C , 21-H ) :   0.9782
B(  0-C , 22-H ) :   0.9725 B(  1-C ,  2-O ) :   0.8863 B(  1-C , 23-H ) :   0.9868
B(  1-C , 24-H ) :   0.9749 B(  2-O ,  3-C ) :   1.1081 B(  3-C ,  4-O ) :   2.0847
B(  3-C ,  5-C ) :   1.0083 B(  5-C ,  6-C ) :   1.6400 B(  5-C , 12-C ) :   0.9649
B(  6-C ,  7-C ) :   0.9599 B(  6-C ,  8-N ) :   1.1420 B(  7-C , 25-H ) :   0.9721
B(  7-C , 26-H ) :   0.9552 B(  7-C , 27-H ) :   0.9859 B(  8-N ,  9-C ) :   1.1887
B(  8-N , 28-H ) :   0.9482 B(  9-C , 10-S ) :   1.6147 B(  9-C , 11-N ) :   1.2981
B( 11-N , 12-C ) :   0.9795 B( 11-N , 29-H ) :   0.9474 B( 12-C , 13-C ) :   0.9566
B( 12-C , 30-H ) :   1.0050 B( 13-C , 14-C ) :   1.3629 B( 13-C , 19-C ) :   1.3544
B( 14-C , 15-C ) :   1.3965 B( 14-C , 31-H ) :   0.9712 B( 15-C , 16-C ) :   1.3544
B( 15-C , 32-H ) :   0.9705 B( 16-C , 17-C ) :   1.3333 B( 16-C , 33-H ) :   0.9843
B( 17-C , 18-O ) :   1.1063 B( 17-C , 19-C ) :   1.3552 B( 18-O , 34-H ) :   0.9794
B( 19-C , 35-H ) :   0.9602

MP2 TOTAL ENERGY:    -1274.317675129 Eh
FINAL SINGLE POINT ENERGY     -1274.317675129141

DIPOLE MOMENT
-------------
                                X             Y             Z
Electronic contribution:      8.69782       9.64577       5.92389
Nuclear contribution   :     -9.92219     -11.24286      -6.05333
                        -----------------------------------------
Total Dipole Moment    :     -1.22436      -1.59709      -0.12944
                        -----------------------------------------
Magnitude (a.u.)       :      2.01657
Magnitude (Debye)      :      5.12570

Rotational constants in cm-1:     0.012153     0.009069     0.006112
Rotational constants in MHz :   364.336928   271.886463   183.246679

                             ****ORCA TERMINATED NORMALLY****
TOTAL RUN TIME: 0 days 1 hours 44 minutes 50 seconds 589 msec
