                         Program Version 4.2.0 -  RELEASE  -
|  1> ! ri-mp2 cc-pvtz cc-pvtz/c TightSCF NoKeepInts
|  2>
|  3> %scf
|  4>   MaxCore 4096
|  5> end
|  6> *xyz  0  1
|  7>     C       14.4863260   15.0217136   14.7413347
|  8>     C       15.7147012   14.8076232   15.6508864
|  9>     O       16.6432106   15.9204470   15.7081202
| 10>     C       16.3255390   17.2404437   15.5159385
| 11>     O       15.6182765   17.6338896   14.6054361
| 12>     C       16.9189717   18.1257753   16.5808778
| 13>     C       16.9468799   19.4757024   16.4322473
| 14>     C       16.2148083   20.3001047   15.3932706
| 15>     N       17.7156177   20.2778299   17.2788742
| 16>     C       18.6264560   19.8011458   18.1820830
| 17>     S       19.5704802   20.8104965   19.0908339
| 18>     N       18.7316082   18.4371210   18.2810036
| 19>     C       17.8660608   17.4598358   17.5946900
| 20>     C       17.1733941   16.5112138   18.5647465
| 21>     C       17.6098794   15.1799825   18.6965578
| 22>     C       16.9658695   14.3026848   19.5852379
| 23>     C       15.8796952   14.7619611   20.3499528
| 24>     C       15.4473985   16.0896310   20.2247107
| 25>     O       14.4000763   16.5359421   20.9627299
| 26>     C       16.0897269   16.9599844   19.3385377
| 27>     H       13.8409824   15.8213270   15.1260045
| 28>     H       13.8860396   14.1054030   14.6924943
| 29>     H       14.7951904   15.2768503   13.7196578
| 30>     H       15.3497331   14.6085317   16.6672743
| 31>     H       16.2565585   13.9118277   15.3217606
| 32>     H       15.1425551   20.0657737   15.4000719
| 33>     H       16.5922068   20.0774053   14.3870271
| 34>     H       16.3133388   21.3803157   15.5524667
| 35>     H       17.6642124   21.2809178   17.2004907
| 36>     H       19.3893331   18.1155292   18.9797900
| 37>     H       18.6127544   16.9211237   16.9940366
| 38>     H       18.4472014   14.8234598   18.1023501
| 39>     H       17.3095474   13.2740497   19.6808405
| 40>     H       15.3799138   14.0888385   21.0388888
| 41>     H       14.1171700   15.8094454   21.5381854
| 42>     H       15.7452868   17.9856736   19.2585910
| 43> *
| 44>
| 45>                          ****END OF INPUT****

CARTESIAN COORDINATES (ANGSTROEM)
---------------------------------
  C     14.486326   15.021714   14.741335
  C     15.714701   14.807623   15.650886
  O     16.643211   15.920447   15.708120
  C     16.325539   17.240444   15.515939
  O     15.618277   17.633890   14.605436
  C     16.918972   18.125775   16.580878
  C     16.946880   19.475702   16.432247
  C     16.214808   20.300105   15.393271
  N     17.715618   20.277830   17.278874
  C     18.626456   19.801146   18.182083
  S     19.570480   20.810496   19.090834
  N     18.731608   18.437121   18.281004
  C     17.866061   17.459836   17.594690
  C     17.173394   16.511214   18.564746
  C     17.609879   15.179982   18.696558
  C     16.965870   14.302685   19.585238
  C     15.879695   14.761961   20.349953
  C     15.447399   16.089631   20.224711
  O     14.400076   16.535942   20.962730
  C     16.089727   16.959984   19.338538
  H     13.840982   15.821327   15.126004
  H     13.886040   14.105403   14.692494
  H     14.795190   15.276850   13.719658
  H     15.349733   14.608532   16.667274
  H     16.256559   13.911828   15.321761
  H     15.142555   20.065774   15.400072
  H     16.592207   20.077405   14.387027
  H     16.313339   21.380316   15.552467
  H     17.664212   21.280918   17.200491
  H     19.389333   18.115529   18.979790
  H     18.612754   16.921124   16.994037
  H     18.447201   14.823460   18.102350
  H     17.309547   13.274050   19.680840
  H     15.379914   14.088838   21.038889
  H     14.117170   15.809445   21.538185
  H     15.745287   17.985674   19.258591

 Total Charge           Charge          ....    0
 Multiplicity           Mult            ....    1
 Number of Electrons    NEL             ....  154
 Basis Dimension        Dim             ....  828

ORBITAL ENERGIES
----------------

  NO   OCC          E(Eh)            E(eV)
   0   2.0000     -91.888739     -2500.4197
   1   2.0000     -20.598939      -560.5256
   2   2.0000     -20.590103      -560.2852
   3   2.0000     -20.541783      -558.9703
   4   2.0000     -15.629018      -425.2872
   5   2.0000     -15.606796      -424.6825
   6   2.0000     -11.395850      -310.0968
   7   2.0000     -11.383335      -309.7563
   8   2.0000     -11.336830      -308.4908
   9   2.0000     -11.316412      -307.9352
  10   2.0000     -11.307204      -307.6847
  11   2.0000     -11.300660      -307.5066
  12   2.0000     -11.262819      -306.4769
  13   2.0000     -11.257702      -306.3377
  14   2.0000     -11.257618      -306.3354
  15   2.0000     -11.251468      -306.1680
  16   2.0000     -11.245997      -306.0191
  17   2.0000     -11.241075      -305.8852
  18   2.0000     -11.240688      -305.8747
  19   2.0000     -11.221277      -305.3465
  20   2.0000      -8.893813      -242.0130
  21   2.0000      -6.575387      -178.9254
  22   2.0000      -6.573388      -178.8710
  23   2.0000      -6.572798      -178.8549
  24   2.0000      -1.441432       -39.2234
  25   2.0000      -1.418600       -38.6021
  26   2.0000      -1.352460       -36.8023
  27   2.0000      -1.340161       -36.4676
  28   2.0000      -1.238142       -33.6916
  29   2.0000      -1.159486       -31.5512
  30   2.0000      -1.120476       -30.4897
  31   2.0000      -1.043890       -28.4057
  32   2.0000      -1.033926       -28.1346
  33   2.0000      -1.017370       -27.6841
  34   2.0000      -0.996128       -27.1060
  35   2.0000      -0.984190       -26.7812
  36   2.0000      -0.922233       -25.0952
  37   2.0000      -0.894297       -24.3351
  38   2.0000      -0.847161       -23.0524
  39   2.0000      -0.839749       -22.8507
  40   2.0000      -0.836253       -22.7556
  41   2.0000      -0.819786       -22.3075
  42   2.0000      -0.745514       -20.2865
  43   2.0000      -0.733282       -19.9536
  44   2.0000      -0.716827       -19.5059
  45   2.0000      -0.697135       -18.9700
  46   2.0000      -0.687656       -18.7121
  47   2.0000      -0.676059       -18.3965
  48   2.0000      -0.667841       -18.1729
  49   2.0000      -0.663203       -18.0467
  50   2.0000      -0.648520       -17.6471
  51   2.0000      -0.644287       -17.5319
  52   2.0000      -0.635446       -17.2914
  53   2.0000      -0.609196       -16.5771
  54   2.0000      -0.606165       -16.4946
  55   2.0000      -0.601807       -16.3760
  56   2.0000      -0.600187       -16.3319
  57   2.0000      -0.578874       -15.7520
  58   2.0000      -0.571251       -15.5445
  59   2.0000      -0.568142       -15.4599
  60   2.0000      -0.560121       -15.2417
  61   2.0000      -0.540547       -14.7090
  62   2.0000      -0.534768       -14.5518
  63   2.0000      -0.525514       -14.3000
  64   2.0000      -0.523557       -14.2467
  65   2.0000      -0.513059       -13.9610
  66   2.0000      -0.500473       -13.6186
  67   2.0000      -0.495158       -13.4739
  68   2.0000      -0.485185       -13.2026
  69   2.0000      -0.462873       -12.5954
  70   2.0000      -0.451069       -12.2742
  71   2.0000      -0.440391       -11.9836
  72   2.0000      -0.353176        -9.6104
  73   2.0000      -0.351217        -9.5571
  74   2.0000      -0.328251        -8.9322
  75   2.0000      -0.323628        -8.8064
  76   2.0000      -0.318069        -8.6551
  77   0.0000       0.075190         2.0460
  78   0.0000       0.103055         2.8043
  79   0.0000       0.124609         3.3908
  80   0.0000       0.131810         3.5867
  81   0.0000       0.135573         3.6891

MULLIKEN ATOMIC CHARGES
-----------------------
   0 C :   -0.282875
   1 C :    0.039897
   2 O :   -0.376543
   3 C :    0.450003
   4 O :   -0.421804
   5 C :   -0.247460
   6 C :    0.182303
   7 C :   -0.265888
   8 N :   -0.127125
   9 C :    0.211933
  10 S :   -0.442684
  11 N :   -0.217642
  12 C :    0.078144
  13 C :    0.030676
  14 C :   -0.187554
  15 C :   -0.130178
  16 C :   -0.278194
  17 C :    0.314970
  18 O :   -0.355999
  19 C :   -0.246762
  20 H :    0.102582
  21 H :    0.095985
  22 H :    0.112486
  23 H :    0.100541
  24 H :    0.098341
  25 H :    0.132012
  26 H :    0.130141
  27 H :    0.094476
  28 H :    0.199496
  29 H :    0.200592
  30 H :    0.151304
  31 H :    0.155293
  32 H :    0.162308
  33 H :    0.131806
  34 H :    0.240997
  35 H :    0.164427
Sum of atomic charges:   -0.0000000

LOEWDIN ATOMIC CHARGES
----------------------
   0 C :    0.103207
   1 C :   -0.012932
   2 O :    0.291114
   3 C :   -0.413419
   4 O :    0.111424
   5 C :   -0.097796
   6 C :   -0.056011
   7 C :    0.130783
   8 N :    0.407182
   9 C :   -0.456196
  10 S :   -0.037006
  11 N :    0.394326
  12 C :   -0.054768
  13 C :   -0.038631
  14 C :    0.017253
  15 C :    0.038972
  16 C :   -0.001787
  17 C :   -0.190088
  18 O :    0.395555
  19 C :    0.032050
  20 H :   -0.027279
  21 H :   -0.027898
  22 H :   -0.023837
  23 H :   -0.029426
  24 H :   -0.025582
  25 H :   -0.004854
  26 H :   -0.004749
  27 H :   -0.023791
  28 H :   -0.057227
  29 H :   -0.064739
  30 H :   -0.013190
  31 H :   -0.028528
  32 H :   -0.020831
  33 H :   -0.035096
  34 H :   -0.153528
  35 H :   -0.022676

  Mayer bond orders larger than 0.100000
B(  0-C ,  1-C ) :   0.9828 B(  0-C , 20-H ) :   0.9744 B(  0-C , 21-H ) :   0.9734
B(  0-C , 22-H ) :   0.9735 B(  1-C ,  2-O ) :   0.8964 B(  1-C , 23-H ) :   0.9704
B(  1-C , 24-H ) :   0.9797 B(  2-O ,  3-C ) :   1.1093 B(  3-C ,  4-O ) :   1.9908
B(  3-C ,  5-C ) :   1.0695 B(  5-C ,  6-C ) :   1.6343 B(  5-C , 12-C ) :   0.9569
B(  6-C ,  7-C ) :   0.9647 B(  6-C ,  8-N ) :   1.1528 B(  7-C , 25-H ) :   0.9615
B(  7-C , 26-H ) :   0.9584 B(  7-C , 27-H ) :   0.9907 B(  8-N ,  9-C ) :   1.1875
B(  8-N , 28-H ) :   0.9464 B(  9-C , 10-S ) :   1.6040 B(  9-C , 11-N ) :   1.3110
B( 11-N , 12-C ) :   0.9649 B( 11-N , 29-H ) :   0.9486 B( 12-C , 13-C ) :   0.9609
B( 12-C , 30-H ) :   1.0002 B( 13-C , 14-C ) :   1.3514 B( 13-C , 19-C ) :   1.3802
B( 14-C , 15-C ) :   1.3924 B( 14-C , 31-H ) :   0.9724 B( 15-C , 16-C ) :   1.3579
B( 15-C , 32-H ) :   0.9705 B( 16-C , 17-C ) :   1.3330 B( 16-C , 33-H ) :   0.9847
B( 17-C , 18-O ) :   1.1061 B( 17-C , 19-C ) :   1.3649 B( 18-O , 34-H ) :   0.9794
B( 19-C , 35-H ) :   0.9591

MP2 TOTAL ENERGY:    -1274.330003822 Eh
FINAL SINGLE POINT ENERGY     -1274.330003822434

DIPOLE MOMENT
-------------
                                X             Y             Z
Electronic contribution:      9.65217       9.99664       8.69077
Nuclear contribution   :    -10.67654     -11.76472      -8.84370
                        -----------------------------------------
Total Dipole Moment    :     -1.02437      -1.76808      -0.15292
                        -----------------------------------------
Magnitude (a.u.)       :      2.04911
Magnitude (Debye)      :      5.20841

Rotational constants in cm-1:     0.011650     0.008596     0.005943
Rotational constants in MHz :   349.256365   257.690076   178.171163

                             ****ORCA TERMINATED NORMALLY****
TOTAL RUN TIME: 0 days 1 hours 38 minutes 30 seconds 253 msec
