                         Program Version 4.2.0 -  RELEASE  -
|  1> ! ri-mp2 cc-pvtz cc-pvtz/c TightSCF NoKeepInts
|  2>
|  3> %scf
|  4>   MaxCore 4096
|  5> end
|  6> *xyz  0  1
|  7>     C       14.3472295   16.0835435   15.9560046
|  8>     C       15.2052145   15.6789362   14.7394689
|  9>     O       16.2812852   16.6170713   14.5582710
| 10>     C       17.2724809   16.6298680   15.4921813
| 11>     O       18.0455975   15.6955152   15.6094782
| 12>     C       17.1828566   17.7480468   16.4884328
| 13>     C       16.8084574   19.0027402   16.1287076
| 14>     C       16.2310691   19.4489755   14.8000734
| 15>     N       16.9943038   20.0788774   16.9997763
| 16>     C       17.7438469   20.0259668   18.1443558
| 17>     S       18.0120116   21.3671632   19.0740418
| 18>     N       18.2796221   18.8046348   18.4678876
| 19>     C       17.9872591   17.5345206   17.7748104
| 20>     C       17.3883176   16.4694889   18.6834330
| 21>     C       17.9552763   15.1843582   18.7520470
| 22>     C       17.3938038   14.1989393   19.5811900
| 23>     C       16.2554186   14.5013857   20.3479613
| 24>     C       15.6867917   15.7806299   20.2793049
| 25>     O       14.5826732   16.0731373   21.0115962
| 26>     C       16.2478069   16.7592939   19.4527504
| 27>     H       14.9069998   15.9649775   16.8921179
| 28>     H       13.4563076   15.4470543   16.0202582
| 29>     H       14.0153051   17.1255918   15.8747171
| 30>     H       15.6009584   14.6629370   14.8764889
| 31>     H       14.5751339   15.6781474   13.8407293
| 32>     H       15.2250152   19.0377432   14.6537835
| 33>     H       16.8586987   19.1076017   13.9670393
| 34>     H       16.1556481   20.5399458   14.7151060
| 35>     H       16.6292853   20.9873602   16.7620398
| 36>     H       18.8141125   18.7891384   19.3274290
| 37>     H       18.9991911   17.2471901   17.4533707
| 38>     H       18.8260248   14.9449370   18.1456792
| 39>     H       17.8382870   13.2060278   19.6216296
| 40>     H       15.8175181   13.7424190   20.9877286
| 41>     H       14.3732996   15.2919009   21.5453719
| 42>     H       15.7938926   17.7439353   19.4127385
| 43> *
| 44>
| 45>                          ****END OF INPUT****

CARTESIAN COORDINATES (ANGSTROEM)
---------------------------------
  C     14.347229   16.083544   15.956005
  C     15.205215   15.678936   14.739469
  O     16.281285   16.617071   14.558271
  C     17.272481   16.629868   15.492181
  O     18.045597   15.695515   15.609478
  C     17.182857   17.748047   16.488433
  C     16.808457   19.002740   16.128708
  C     16.231069   19.448975   14.800073
  N     16.994304   20.078877   16.999776
  C     17.743847   20.025967   18.144356
  S     18.012012   21.367163   19.074042
  N     18.279622   18.804635   18.467888
  C     17.987259   17.534521   17.774810
  C     17.388318   16.469489   18.683433
  C     17.955276   15.184358   18.752047
  C     17.393804   14.198939   19.581190
  C     16.255419   14.501386   20.347961
  C     15.686792   15.780630   20.279305
  O     14.582673   16.073137   21.011596
  C     16.247807   16.759294   19.452750
  H     14.907000   15.964977   16.892118
  H     13.456308   15.447054   16.020258
  H     14.015305   17.125592   15.874717
  H     15.600958   14.662937   14.876489
  H     14.575134   15.678147   13.840729
  H     15.225015   19.037743   14.653783
  H     16.858699   19.107602   13.967039
  H     16.155648   20.539946   14.715106
  H     16.629285   20.987360   16.762040
  H     18.814113   18.789138   19.327429
  H     18.999191   17.247190   17.453371
  H     18.826025   14.944937   18.145679
  H     17.838287   13.206028   19.621630
  H     15.817518   13.742419   20.987729
  H     14.373300   15.291901   21.545372
  H     15.793893   17.743935   19.412738

 Total Charge           Charge          ....    0
 Multiplicity           Mult            ....    1
 Number of Electrons    NEL             ....  154
 Basis Dimension        Dim             ....  828

ORBITAL ENERGIES
----------------

  NO   OCC          E(Eh)            E(eV)
   0   2.0000     -91.889689     -2500.4456
   1   2.0000     -20.595522      -560.4327
   2   2.0000     -20.586952      -560.1994
   3   2.0000     -20.552332      -559.2574
   4   2.0000     -15.630154      -425.3181
   5   2.0000     -15.607491      -424.7014
   6   2.0000     -11.393858      -310.0426
   7   2.0000     -11.384494      -309.7878
   8   2.0000     -11.338582      -308.5385
   9   2.0000     -11.311922      -307.8130
  10   2.0000     -11.306142      -307.6558
  11   2.0000     -11.303923      -307.5954
  12   2.0000     -11.260909      -306.4249
  13   2.0000     -11.259691      -306.3918
  14   2.0000     -11.258890      -306.3700
  15   2.0000     -11.251908      -306.1800
  16   2.0000     -11.241991      -305.9101
  17   2.0000     -11.237956      -305.8003
  18   2.0000     -11.234594      -305.7088
  19   2.0000     -11.230604      -305.6003
  20   2.0000      -8.894764      -242.0388
  21   2.0000      -6.576337      -178.9512
  22   2.0000      -6.574337      -178.8968
  23   2.0000      -6.573746      -178.8807
  24   2.0000      -1.451448       -39.4959
  25   2.0000      -1.415318       -38.5128
  26   2.0000      -1.357786       -36.9472
  27   2.0000      -1.341329       -36.4994
  28   2.0000      -1.238591       -33.7038
  29   2.0000      -1.156274       -31.4638
  30   2.0000      -1.122684       -30.5498
  31   2.0000      -1.044572       -28.4243
  32   2.0000      -1.033625       -28.1264
  33   2.0000      -1.013844       -27.5881
  34   2.0000      -1.001950       -27.2644
  35   2.0000      -0.987330       -26.8666
  36   2.0000      -0.923506       -25.1299
  37   2.0000      -0.894252       -24.3338
  38   2.0000      -0.849268       -23.1097
  39   2.0000      -0.838333       -22.8122
  40   2.0000      -0.832004       -22.6400
  41   2.0000      -0.819650       -22.3038
  42   2.0000      -0.753869       -20.5138
  43   2.0000      -0.736060       -20.0292
  44   2.0000      -0.728669       -19.8281
  45   2.0000      -0.693669       -18.8757
  46   2.0000      -0.686561       -18.6823
  47   2.0000      -0.678015       -18.4497
  48   2.0000      -0.673066       -18.3151
  49   2.0000      -0.662254       -18.0208
  50   2.0000      -0.653496       -17.7825
  51   2.0000      -0.646216       -17.5844
  52   2.0000      -0.636131       -17.3100
  53   2.0000      -0.610413       -16.6102
  54   2.0000      -0.602733       -16.4012
  55   2.0000      -0.601004       -16.3542
  56   2.0000      -0.599161       -16.3040
  57   2.0000      -0.583223       -15.8703
  58   2.0000      -0.575586       -15.6625
  59   2.0000      -0.563065       -15.3218
  60   2.0000      -0.562318       -15.3014
  61   2.0000      -0.550772       -14.9873
  62   2.0000      -0.546338       -14.8666
  63   2.0000      -0.526197       -14.3186
  64   2.0000      -0.519714       -14.1421
  65   2.0000      -0.512040       -13.9333
  66   2.0000      -0.499080       -13.5807
  67   2.0000      -0.494858       -13.4658
  68   2.0000      -0.482481       -13.1290
  69   2.0000      -0.464051       -12.6275
  70   2.0000      -0.458084       -12.4651
  71   2.0000      -0.452065       -12.3013
  72   2.0000      -0.354487        -9.6461
  73   2.0000      -0.347839        -9.4652
  74   2.0000      -0.328768        -8.9462
  75   2.0000      -0.319434        -8.6922
  76   2.0000      -0.318531        -8.6677
  77   0.0000       0.072786         1.9806
  78   0.0000       0.106886         2.9085
  79   0.0000       0.119457         3.2506
  80   0.0000       0.132902         3.6165
  81   0.0000       0.137548         3.7429

MULLIKEN ATOMIC CHARGES
-----------------------
   0 C :   -0.318803
   1 C :    0.037127
   2 O :   -0.375369
   3 C :    0.463498
   4 O :   -0.394842
   5 C :   -0.221673
   6 C :    0.150139
   7 C :   -0.283223
   8 N :   -0.127652
   9 C :    0.206647
  10 S :   -0.440007
  11 N :   -0.211901
  12 C :    0.061020
  13 C :    0.027590
  14 C :   -0.178238
  15 C :   -0.134068
  16 C :   -0.277401
  17 C :    0.324854
  18 O :   -0.359539
  19 C :   -0.272728
  20 H :    0.120899
  21 H :    0.114015
  22 H :    0.094547
  23 H :    0.107838
  24 H :    0.109145
  25 H :    0.122088
  26 H :    0.129827
  27 H :    0.104022
  28 H :    0.197914
  29 H :    0.199496
  30 H :    0.157020
  31 H :    0.165933
  32 H :    0.161980
  33 H :    0.130700
  34 H :    0.240516
  35 H :    0.168628
Sum of atomic charges:    0.0000000

LOEWDIN ATOMIC CHARGES
----------------------
   0 C :    0.103969
   1 C :   -0.020304
   2 O :    0.292983
   3 C :   -0.420013
   4 O :    0.123079
   5 C :   -0.095347
   6 C :   -0.067367
   7 C :    0.126373
   8 N :    0.405988
   9 C :   -0.458060
  10 S :   -0.036062
  11 N :    0.396175
  12 C :   -0.048357
  13 C :   -0.043255
  14 C :    0.024098
  15 C :    0.042196
  16 C :   -0.000898
  17 C :   -0.193920
  18 O :    0.393866
  19 C :    0.029180
  20 H :   -0.025961
  21 H :   -0.024069
  22 H :   -0.030752
  23 H :   -0.025762
  24 H :   -0.023040
  25 H :   -0.012972
  26 H :   -0.006792
  27 H :   -0.020215
  28 H :   -0.058390
  29 H :   -0.063427
  30 H :   -0.006832
  31 H :   -0.022699
  32 H :   -0.020030
  33 H :   -0.035498
  34 H :   -0.154118
  35 H :   -0.023765

  Mayer bond orders larger than 0.100000
B(  0-C ,  1-C ) :   0.9618 B(  0-C , 20-H ) :   0.9663 B(  0-C , 21-H ) :   0.9781
B(  0-C , 22-H ) :   0.9754 B(  1-C ,  2-O ) :   0.8997 B(  1-C , 23-H ) :   0.9810
B(  1-C , 24-H ) :   0.9838 B(  2-O ,  3-C ) :   1.0807 B(  3-C ,  4-O ) :   2.0380
B(  3-C ,  5-C ) :   1.0103 B(  5-C ,  6-C ) :   1.6793 B(  5-C , 12-C ) :   0.9443
B(  6-C ,  7-C ) :   0.9528 B(  6-C ,  8-N ) :   1.1385 B(  7-C , 25-H ) :   0.9647
B(  7-C , 26-H ) :   0.9658 B(  7-C , 27-H ) :   0.9895 B(  8-N ,  9-C ) :   1.1847
B(  8-N , 28-H ) :   0.9473 B(  9-C , 10-S ) :   1.6125 B(  9-C , 11-N ) :   1.3013
B( 11-N , 12-C ) :   0.9816 B( 11-N , 29-H ) :   0.9488 B( 12-C , 13-C ) :   0.9659
B( 12-C , 30-H ) :   0.9949 B( 13-C , 14-C ) :   1.3835 B( 13-C , 19-C ) :   1.3553
B( 14-C , 15-C ) :   1.3971 B( 14-C , 31-H ) :   0.9604 B( 15-C , 16-C ) :   1.3600
B( 15-C , 32-H ) :   0.9708 B( 16-C , 17-C ) :   1.3326 B( 16-C , 33-H ) :   0.9849
B( 17-C , 18-O ) :   1.1055 B( 17-C , 19-C ) :   1.3590 B( 18-O , 34-H ) :   0.9802
B( 19-C , 35-H ) :   0.9610

MP2 TOTAL ENERGY:    -1274.328394825 Eh
FINAL SINGLE POINT ENERGY     -1274.328394824756

DIPOLE MOMENT
-------------
                                X             Y             Z
Electronic contribution:      9.41802       7.79177       7.38888
Nuclear contribution   :    -10.77662      -9.08306      -8.14224
                        -----------------------------------------
Total Dipole Moment    :     -1.35860      -1.29129      -0.75336
                        -----------------------------------------
Magnitude (a.u.)       :      2.02009
Magnitude (Debye)      :      5.13467

Rotational constants in cm-1:     0.011122     0.009334     0.006357
Rotational constants in MHz :   333.425536   279.828014   190.577685

                             ****ORCA TERMINATED NORMALLY****
TOTAL RUN TIME: 0 days 1 hours 45 minutes 8 seconds 253 msec
