                         Program Version 4.2.0 -  RELEASE  -
|  1> ! ri-mp2 cc-pvtz cc-pvtz/c TightSCF NoKeepInts
|  2>
|  3> %scf
|  4>   MaxCore 4096
|  5> end
|  6> *xyz  0  1
|  7>     C       14.8223739   14.5833546   16.5262439
|  8>     C       15.2540805   15.6087664   15.4661188
|  9>     O       16.6898110   15.7117781   15.4475941
| 10>     C       17.2118944   16.9357795   15.1575781
| 11>     O       17.5914007   17.1904167   14.0293556
| 12>     C       17.1559347   17.9359385   16.2740780
| 13>     C       17.0921748   19.2556959   15.9659634
| 14>     C       16.6510414   19.8541811   14.6464617
| 15>     N       17.4324333   20.2367695   16.8985443
| 16>     C       18.0905441   19.9828483   18.0710148
| 17>     S       18.5854501   21.1963362   19.0796599
| 18>     N       18.3422556   18.6638513   18.3536826
| 19>     C       17.8148217   17.5110887   17.5967859
| 20>     C       17.0464892   16.5441184   18.4830652
| 21>     C       17.5060756   15.2275720   18.6717041
| 22>     C       16.8457455   14.3625346   19.5610575
| 23>     C       15.7217308   14.8201138   20.2709078
| 24>     C       15.2648246   16.1328587   20.0870280
| 25>     O       14.1802490   16.5771080   20.7700085
| 26>     C       15.9226568   16.9910500   19.1995330
| 27>     H       15.4318170   13.6733988   16.4611285
| 28>     H       13.7722055   14.3036145   16.3801177
| 29>     H       14.9157711   14.9962758   17.5322924
| 30>     H       14.9022930   15.2945310   14.4745065
| 31>     H       14.7883658   16.5755296   15.7016146
| 32>     H       17.4940426   19.8944127   13.9440765
| 33>     H       16.2523764   20.8696766   14.7567744
| 34>     H       15.8663810   19.2469064   14.1785915
| 35>     H       17.2918328   21.2099954   16.6783808
| 36>     H       18.8138104   18.5050805   19.2354692
| 37>     H       18.7683504   17.0544164   17.2946216
| 38>     H       18.3799422   14.8746967   18.1298514
| 39>     H       17.2074410   13.3450054   19.6998736
| 40>     H       15.2103274   14.1558889   20.9599778
| 41>     H       13.9011501   15.8678522   21.3687213
| 42>     H       15.5689056   18.0105589   19.0856171
| 43> *
| 44>
| 45>                          ****END OF INPUT****

CARTESIAN COORDINATES (ANGSTROEM)
---------------------------------
  C     14.822374   14.583355   16.526244
  C     15.254080   15.608766   15.466119
  O     16.689811   15.711778   15.447594
  C     17.211894   16.935779   15.157578
  O     17.591401   17.190417   14.029356
  C     17.155935   17.935938   16.274078
  C     17.092175   19.255696   15.965963
  C     16.651041   19.854181   14.646462
  N     17.432433   20.236770   16.898544
  C     18.090544   19.982848   18.071015
  S     18.585450   21.196336   19.079660
  N     18.342256   18.663851   18.353683
  C     17.814822   17.511089   17.596786
  C     17.046489   16.544118   18.483065
  C     17.506076   15.227572   18.671704
  C     16.845745   14.362535   19.561058
  C     15.721731   14.820114   20.270908
  C     15.264825   16.132859   20.087028
  O     14.180249   16.577108   20.770008
  C     15.922657   16.991050   19.199533
  H     15.431817   13.673399   16.461129
  H     13.772205   14.303614   16.380118
  H     14.915771   14.996276   17.532292
  H     14.902293   15.294531   14.474506
  H     14.788366   16.575530   15.701615
  H     17.494043   19.894413   13.944076
  H     16.252376   20.869677   14.756774
  H     15.866381   19.246906   14.178591
  H     17.291833   21.209995   16.678381
  H     18.813810   18.505080   19.235469
  H     18.768350   17.054416   17.294622
  H     18.379942   14.874697   18.129851
  H     17.207441   13.345005   19.699874
  H     15.210327   14.155889   20.959978
  H     13.901150   15.867852   21.368721
  H     15.568906   18.010559   19.085617

 Total Charge           Charge          ....    0
 Multiplicity           Mult            ....    1
 Number of Electrons    NEL             ....  154
 Basis Dimension        Dim             ....  828

ORBITAL ENERGIES
----------------

  NO   OCC          E(Eh)            E(eV)
   0   2.0000     -91.890985     -2500.4808
   1   2.0000     -20.601961      -560.6078
   2   2.0000     -20.584193      -560.1244
   3   2.0000     -20.553989      -559.3025
   4   2.0000     -15.629616      -425.3035
   5   2.0000     -15.609983      -424.7692
   6   2.0000     -11.392639      -310.0095
   7   2.0000     -11.385565      -309.8170
   8   2.0000     -11.335311      -308.4495
   9   2.0000     -11.319935      -308.0311
  10   2.0000     -11.314264      -307.8768
  11   2.0000     -11.300169      -307.4932
  12   2.0000     -11.266767      -306.5843
  13   2.0000     -11.260374      -306.4104
  14   2.0000     -11.257880      -306.3425
  15   2.0000     -11.255456      -306.2765
  16   2.0000     -11.249657      -306.1187
  17   2.0000     -11.245131      -305.9956
  18   2.0000     -11.244213      -305.9706
  19   2.0000     -11.222791      -305.3877
  20   2.0000      -8.896034      -242.0734
  21   2.0000      -6.577600      -178.9856
  22   2.0000      -6.575607      -178.9314
  23   2.0000      -6.575011      -178.9151
  24   2.0000      -1.449280       -39.4369
  25   2.0000      -1.421742       -38.6876
  26   2.0000      -1.357612       -36.9425
  27   2.0000      -1.342223       -36.5237
  28   2.0000      -1.240944       -33.7678
  29   2.0000      -1.162991       -31.6466
  30   2.0000      -1.123951       -30.5843
  31   2.0000      -1.047913       -28.5152
  32   2.0000      -1.033637       -28.1267
  33   2.0000      -1.021086       -27.7852
  34   2.0000      -1.001902       -27.2631
  35   2.0000      -0.988236       -26.8913
  36   2.0000      -0.925898       -25.1950
  37   2.0000      -0.878565       -23.9070
  38   2.0000      -0.850104       -23.1325
  39   2.0000      -0.843115       -22.9423
  40   2.0000      -0.839887       -22.8545
  41   2.0000      -0.832609       -22.6565
  42   2.0000      -0.761821       -20.7302
  43   2.0000      -0.737900       -20.0793
  44   2.0000      -0.725951       -19.7541
  45   2.0000      -0.700396       -19.0587
  46   2.0000      -0.690485       -18.7891
  47   2.0000      -0.682685       -18.5768
  48   2.0000      -0.674933       -18.3659
  49   2.0000      -0.662103       -18.0167
  50   2.0000      -0.648864       -17.6565
  51   2.0000      -0.642233       -17.4760
  52   2.0000      -0.627972       -17.0880
  53   2.0000      -0.620636       -16.8884
  54   2.0000      -0.611605       -16.6426
  55   2.0000      -0.605048       -16.4642
  56   2.0000      -0.602555       -16.3964
  57   2.0000      -0.581575       -15.8255
  58   2.0000      -0.575284       -15.6543
  59   2.0000      -0.566789       -15.4231
  60   2.0000      -0.558483       -15.1971
  61   2.0000      -0.547624       -14.9016
  62   2.0000      -0.539465       -14.6796
  63   2.0000      -0.527593       -14.3565
  64   2.0000      -0.518640       -14.1129
  65   2.0000      -0.514505       -14.0004
  66   2.0000      -0.503524       -13.7016
  67   2.0000      -0.500243       -13.6123
  68   2.0000      -0.486885       -13.2488
  69   2.0000      -0.463726       -12.6186
  70   2.0000      -0.455284       -12.3889
  71   2.0000      -0.451497       -12.2859
  72   2.0000      -0.356879        -9.7112
  73   2.0000      -0.353190        -9.6108
  74   2.0000      -0.330331        -8.9888
  75   2.0000      -0.327336        -8.9073
  76   2.0000      -0.320770        -8.7286
  77   0.0000       0.075465         2.0535
  78   0.0000       0.099060         2.6956
  79   0.0000       0.121581         3.3084
  80   0.0000       0.127828         3.4784
  81   0.0000       0.129856         3.5335

MULLIKEN ATOMIC CHARGES
-----------------------
   0 C :   -0.289095
   1 C :    0.036382
   2 O :   -0.355146
   3 C :    0.436507
   4 O :   -0.370037
   5 C :   -0.238134
   6 C :    0.166446
   7 C :   -0.274214
   8 N :   -0.129325
   9 C :    0.208684
  10 S :   -0.438099
  11 N :   -0.208722
  12 C :    0.028702
  13 C :   -0.009542
  14 C :   -0.155107
  15 C :   -0.139934
  16 C :   -0.267328
  17 C :    0.296362
  18 O :   -0.359465
  19 C :   -0.212290
  20 H :    0.100919
  21 H :    0.105014
  22 H :    0.105804
  23 H :    0.113234
  24 H :    0.082833
  25 H :    0.140480
  26 H :    0.096235
  27 H :    0.118123
  28 H :    0.199387
  29 H :    0.200332
  30 H :    0.153007
  31 H :    0.152017
  32 H :    0.163199
  33 H :    0.133728
  34 H :    0.241432
  35 H :    0.167613
Sum of atomic charges:   -0.0000000

LOEWDIN ATOMIC CHARGES
----------------------
   0 C :    0.110521
   1 C :   -0.020753
   2 O :    0.293381
   3 C :   -0.426727
   4 O :    0.132450
   5 C :   -0.102884
   6 C :   -0.065698
   7 C :    0.128978
   8 N :    0.407007
   9 C :   -0.457200
  10 S :   -0.033653
  11 N :    0.396131
  12 C :   -0.054651
  13 C :   -0.042757
  14 C :    0.021925
  15 C :    0.045054
  16 C :    0.000740
  17 C :   -0.192649
  18 O :    0.396731
  19 C :    0.031282
  20 H :   -0.025261
  21 H :   -0.026207
  22 H :   -0.029428
  23 H :   -0.028921
  24 H :   -0.035608
  25 H :   -0.004266
  26 H :   -0.021824
  27 H :   -0.008861
  28 H :   -0.056543
  29 H :   -0.063353
  30 H :   -0.011454
  31 H :   -0.027120
  32 H :   -0.019583
  33 H :   -0.034281
  34 H :   -0.152627
  35 H :   -0.021890

  Mayer bond orders larger than 0.100000
B(  0-C ,  1-C ) :   0.9756 B(  0-C , 20-H ) :   0.9748 B(  0-C , 21-H ) :   0.9809
B(  0-C , 22-H ) :   0.9760 B(  1-C ,  2-O ) :   0.8988 B(  1-C , 23-H ) :   0.9829
B(  1-C , 24-H ) :   0.9661 B(  2-O ,  3-C ) :   1.1145 B(  3-C ,  4-O ) :   2.1044
B(  3-C ,  5-C ) :   0.9940 B(  5-C ,  6-C ) :   1.6458 B(  5-C , 12-C ) :   0.9699
B(  6-C ,  7-C ) :   0.9580 B(  6-C ,  8-N ) :   1.1436 B(  7-C , 25-H ) :   0.9551
B(  7-C , 26-H ) :   0.9850 B(  7-C , 27-H ) :   0.9736 B(  8-N ,  9-C ) :   1.1902
B(  8-N , 28-H ) :   0.9485 B(  9-C , 10-S ) :   1.6142 B(  9-C , 11-N ) :   1.2969
B( 11-N , 12-C ) :   0.9772 B( 11-N , 29-H ) :   0.9480 B( 12-C , 13-C ) :   0.9529
B( 12-C , 30-H ) :   1.0068 B( 13-C , 14-C ) :   1.3663 B( 13-C , 19-C ) :   1.3678
B( 14-C , 15-C ) :   1.3933 B( 14-C , 31-H ) :   0.9705 B( 15-C , 16-C ) :   1.3595
B( 15-C , 32-H ) :   0.9709 B( 16-C , 17-C ) :   1.3329 B( 16-C , 33-H ) :   0.9845
B( 17-C , 18-O ) :   1.1079 B( 17-C , 19-C ) :   1.3665 B( 18-O , 34-H ) :   0.9790
B( 19-C , 35-H ) :   0.9589

MP2 TOTAL ENERGY:    -1274.320219479 Eh
FINAL SINGLE POINT ENERGY     -1274.320219478681

DIPOLE MOMENT
-------------
                                X             Y             Z
Electronic contribution:      8.92361      10.12106       5.38313
Nuclear contribution   :    -10.32613     -11.57711      -5.26437
                        -----------------------------------------
Total Dipole Moment    :     -1.40252      -1.45605       0.11877
                        -----------------------------------------
Magnitude (a.u.)       :      2.02515
Magnitude (Debye)      :      5.14753

Rotational constants in cm-1:     0.012254     0.008937     0.006063
Rotational constants in MHz :   367.361105   267.913835   181.753298

                             ****ORCA TERMINATED NORMALLY****
TOTAL RUN TIME: 0 days 1 hours 44 minutes 5 seconds 80 msec
