                         Program Version 4.2.0 -  RELEASE  -
|  1> ! ri-mp2 cc-pvtz cc-pvtz/c TightSCF NoKeepInts
|  2>
|  3> %scf
|  4>   MaxCore 4096
|  5> end
|  6> *xyz  0  1
|  7>     C       14.3865768   15.0379195   15.4626810
|  8>     C       15.8874276   14.8030511   15.1780398
|  9>     O       16.7098454   15.8904741   15.6551240
| 10>     C       16.3847520   17.2079502   15.4761914
| 11>     O       15.6957559   17.5900630   14.5459937
| 12>     C       16.9725342   18.0962012   16.5397985
| 13>     C       17.0339269   19.4420502   16.3713260
| 14>     C       16.3487663   20.2626640   15.2982078
| 15>     N       17.7975439   20.2400612   17.2263403
| 16>     C       18.6694387   19.7567064   18.1640987
| 17>     S       19.6096267   20.7587512   19.0848480
| 18>     N       18.7385929   18.3921761   18.2883530
| 19>     C       17.8728701   17.4235636   17.5895082
| 20>     C       17.1214560   16.5094520   18.5487994
| 21>     C       17.4685495   15.1506849   18.6634002
| 22>     C       16.7686761   14.3072176   19.5425721
| 23>     C       15.7157678   14.8278747   20.3144539
| 24>     C       15.3713663   16.1823328   20.2048558
| 25>     O       14.3554216   16.6874971   20.9488920
| 26>     C       16.0697276   17.0191990   19.3289008
| 27>     H       14.2324037   15.3451116   16.5049305
| 28>     H       13.8222426   14.1126556   15.2958687
| 29>     H       13.9604709   15.8032965   14.8031761
| 30>     H       16.2104878   13.8728779   15.6627398
| 31>     H       16.0273995   14.6845285   14.0954302
| 32>     H       16.7439482   20.0092951   14.3062009
| 33>     H       16.4718029   21.3430531   15.4379908
| 34>     H       15.2709143   20.0558280   15.2839719
| 35>     H       17.7718350   21.2426893   17.1312626
| 36>     H       19.3663379   18.0666013   19.0124307
| 37>     H       18.6247886   16.8571037   17.0219745
| 38>     H       18.2784339   14.7464229   18.0620274
| 39>     H       17.0423368   13.2567052   19.6236637
| 40>     H       15.1723576   14.1806335   20.9949598
| 41>     H       14.0197732   15.9713838   21.5086878
| 42>     H       15.7928448   18.0659243   19.2603002
| 43> *
| 44>
| 45>                          ****END OF INPUT****

CARTESIAN COORDINATES (ANGSTROEM)
---------------------------------
  C     14.386577   15.037919   15.462681
  C     15.887428   14.803051   15.178040
  O     16.709845   15.890474   15.655124
  C     16.384752   17.207950   15.476191
  O     15.695756   17.590063   14.545994
  C     16.972534   18.096201   16.539798
  C     17.033927   19.442050   16.371326
  C     16.348766   20.262664   15.298208
  N     17.797544   20.240061   17.226340
  C     18.669439   19.756706   18.164099
  S     19.609627   20.758751   19.084848
  N     18.738593   18.392176   18.288353
  C     17.872870   17.423564   17.589508
  C     17.121456   16.509452   18.548799
  C     17.468550   15.150685   18.663400
  C     16.768676   14.307218   19.542572
  C     15.715768   14.827875   20.314454
  C     15.371366   16.182333   20.204856
  O     14.355422   16.687497   20.948892
  C     16.069728   17.019199   19.328901
  H     14.232404   15.345112   16.504931
  H     13.822243   14.112656   15.295869
  H     13.960471   15.803297   14.803176
  H     16.210488   13.872878   15.662740
  H     16.027400   14.684529   14.095430
  H     16.743948   20.009295   14.306201
  H     16.471803   21.343053   15.437991
  H     15.270914   20.055828   15.283972
  H     17.771835   21.242689   17.131263
  H     19.366338   18.066601   19.012431
  H     18.624789   16.857104   17.021974
  H     18.278434   14.746423   18.062027
  H     17.042337   13.256705   19.623664
  H     15.172358   14.180634   20.994960
  H     14.019773   15.971384   21.508688
  H     15.792845   18.065924   19.260300

 Total Charge           Charge          ....    0
 Multiplicity           Mult            ....    1
 Number of Electrons    NEL             ....  154
 Basis Dimension        Dim             ....  828

ORBITAL ENERGIES
----------------

  NO   OCC          E(Eh)            E(eV)
   0   2.0000     -91.888725     -2500.4193
   1   2.0000     -20.597506      -560.4866
   2   2.0000     -20.595597      -560.4347
   3   2.0000     -20.541077      -558.9511
   4   2.0000     -15.629072      -425.2887
   5   2.0000     -15.606880      -424.6848
   6   2.0000     -11.395269      -310.0810
   7   2.0000     -11.383445      -309.7593
   8   2.0000     -11.337014      -308.4958
   9   2.0000     -11.314787      -307.8910
  10   2.0000     -11.307172      -307.6838
  11   2.0000     -11.300083      -307.4909
  12   2.0000     -11.261549      -306.4423
  13   2.0000     -11.258676      -306.3642
  14   2.0000     -11.256211      -306.2971
  15   2.0000     -11.251547      -306.1702
  16   2.0000     -11.244574      -305.9804
  17   2.0000     -11.239788      -305.8502
  18   2.0000     -11.239546      -305.8436
  19   2.0000     -11.222915      -305.3910
  20   2.0000      -8.893797      -242.0125
  21   2.0000      -6.575371      -178.9249
  22   2.0000      -6.573372      -178.8705
  23   2.0000      -6.572782      -178.8545
  24   2.0000      -1.446584       -39.3635
  25   2.0000      -1.417193       -38.5638
  26   2.0000      -1.352795       -36.8114
  27   2.0000      -1.340122       -36.4666
  28   2.0000      -1.238056       -33.6892
  29   2.0000      -1.158393       -31.5215
  30   2.0000      -1.120960       -30.5029
  31   2.0000      -1.043219       -28.3874
  32   2.0000      -1.034578       -28.1523
  33   2.0000      -1.015937       -27.6450
  34   2.0000      -0.996106       -27.1054
  35   2.0000      -0.984487       -26.7892
  36   2.0000      -0.921947       -25.0875
  37   2.0000      -0.897058       -24.4102
  38   2.0000      -0.846702       -23.0399
  39   2.0000      -0.838741       -22.8233
  40   2.0000      -0.835049       -22.7228
  41   2.0000      -0.816513       -22.2185
  42   2.0000      -0.748192       -20.3593
  43   2.0000      -0.733768       -19.9669
  44   2.0000      -0.721371       -19.6295
  45   2.0000      -0.696127       -18.9426
  46   2.0000      -0.688681       -18.7399
  47   2.0000      -0.677031       -18.4230
  48   2.0000      -0.671705       -18.2780
  49   2.0000      -0.657733       -17.8978
  50   2.0000      -0.648249       -17.6398
  51   2.0000      -0.639971       -17.4145
  52   2.0000      -0.634001       -17.2520
  53   2.0000      -0.617456       -16.8018
  54   2.0000      -0.607511       -16.5312
  55   2.0000      -0.601052       -16.3555
  56   2.0000      -0.599626       -16.3167
  57   2.0000      -0.577931       -15.7263
  58   2.0000      -0.570118       -15.5137
  59   2.0000      -0.566614       -15.4184
  60   2.0000      -0.556922       -15.1546
  61   2.0000      -0.543497       -14.7893
  62   2.0000      -0.534857       -14.5542
  63   2.0000      -0.525097       -14.2886
  64   2.0000      -0.523166       -14.2361
  65   2.0000      -0.513262       -13.9666
  66   2.0000      -0.500777       -13.6268
  67   2.0000      -0.498188       -13.5564
  68   2.0000      -0.484170       -13.1749
  69   2.0000      -0.463163       -12.6033
  70   2.0000      -0.454786       -12.3753
  71   2.0000      -0.443361       -12.0645
  72   2.0000      -0.352874        -9.6022
  73   2.0000      -0.350443        -9.5360
  74   2.0000      -0.328012        -8.9257
  75   2.0000      -0.322142        -8.7659
  76   2.0000      -0.317933        -8.6514
  77   0.0000       0.076822         2.0904
  78   0.0000       0.103801         2.8246
  79   0.0000       0.124845         3.3972
  80   0.0000       0.132344         3.6013
  81   0.0000       0.137131         3.7315

MULLIKEN ATOMIC CHARGES
-----------------------
   0 C :   -0.319048
   1 C :    0.039894
   2 O :   -0.363659
   3 C :    0.456957
   4 O :   -0.437882
   5 C :   -0.238187
   6 C :    0.173042
   7 C :   -0.268223
   8 N :   -0.125392
   9 C :    0.211227
  10 S :   -0.442223
  11 N :   -0.215920
  12 C :    0.069113
  13 C :    0.039923
  14 C :   -0.183887
  15 C :   -0.132231
  16 C :   -0.277071
  17 C :    0.316903
  18 O :   -0.356801
  19 C :   -0.251888
  20 H :    0.104438
  21 H :    0.097753
  22 H :    0.126567
  23 H :    0.106649
  24 H :    0.109204
  25 H :    0.129613
  26 H :    0.094686
  27 H :    0.133133
  28 H :    0.199532
  29 H :    0.200275
  30 H :    0.152735
  31 H :    0.154516
  32 H :    0.161214
  33 H :    0.130805
  34 H :    0.240715
  35 H :    0.163519
Sum of atomic charges:   -0.0000000

LOEWDIN ATOMIC CHARGES
----------------------
   0 C :    0.105055
   1 C :   -0.013375
   2 O :    0.299972
   3 C :   -0.414234
   4 O :    0.099871
   5 C :   -0.095436
   6 C :   -0.056665
   7 C :    0.131184
   8 N :    0.407139
   9 C :   -0.456184
  10 S :   -0.036827
  11 N :    0.394555
  12 C :   -0.054344
  13 C :   -0.039568
  14 C :    0.017287
  15 C :    0.038681
  16 C :   -0.001007
  17 C :   -0.190316
  18 O :    0.395322
  19 C :    0.032668
  20 H :   -0.026805
  21 H :   -0.026886
  22 H :   -0.025887
  23 H :   -0.025352
  24 H :   -0.028652
  25 H :   -0.004866
  26 H :   -0.023681
  27 H :   -0.004503
  28 H :   -0.057186
  29 H :   -0.064562
  30 H :   -0.013421
  31 H :   -0.028862
  32 H :   -0.021264
  33 H :   -0.035295
  34 H :   -0.153825
  35 H :   -0.022735

  Mayer bond orders larger than 0.100000
B(  0-C ,  1-C ) :   0.9574 B(  0-C , 20-H ) :   0.9731 B(  0-C , 21-H ) :   0.9774
B(  0-C , 22-H ) :   0.9729 B(  1-C ,  2-O ) :   0.8979 B(  1-C , 23-H ) :   0.9825
B(  1-C , 24-H ) :   0.9850 B(  2-O ,  3-C ) :   1.1481 B(  3-C ,  4-O ) :   1.9639
B(  3-C ,  5-C ) :   1.0625 B(  5-C ,  6-C ) :   1.6395 B(  5-C , 12-C ) :   0.9554
B(  6-C ,  7-C ) :   0.9648 B(  6-C ,  8-N ) :   1.1563 B(  7-C , 25-H ) :   0.9590
B(  7-C , 26-H ) :   0.9901 B(  7-C , 27-H ) :   0.9616 B(  8-N ,  9-C ) :   1.1870
B(  8-N , 28-H ) :   0.9465 B(  9-C , 10-S ) :   1.6056 B(  9-C , 11-N ) :   1.3093
B( 11-N , 12-C ) :   0.9701 B( 11-N , 29-H ) :   0.9486 B( 12-C , 13-C ) :   0.9611
B( 12-C , 30-H ) :   0.9999 B( 13-C , 14-C ) :   1.3543 B( 13-C , 19-C ) :   1.3796
B( 14-C , 15-C ) :   1.3926 B( 14-C , 31-H ) :   0.9706 B( 15-C , 16-C ) :   1.3600
B( 15-C , 32-H ) :   0.9706 B( 16-C , 17-C ) :   1.3336 B( 16-C , 33-H ) :   0.9848
B( 17-C , 18-O ) :   1.1053 B( 17-C , 19-C ) :   1.3640 B( 18-O , 34-H ) :   0.9797
B( 19-C , 35-H ) :   0.9596

MP2 TOTAL ENERGY:    -1274.339277805 Eh
FINAL SINGLE POINT ENERGY     -1274.339277804648

DIPOLE MOMENT
-------------
                                X             Y             Z
Electronic contribution:      9.78352       9.84629       7.96656
Nuclear contribution   :    -10.79622     -11.61489      -8.28897
                        -----------------------------------------
Total Dipole Moment    :     -1.01269      -1.76860      -0.32241
                        -----------------------------------------
Magnitude (a.u.)       :      2.06336
Magnitude (Debye)      :      5.24463

Rotational constants in cm-1:     0.011843     0.008600     0.006019
Rotational constants in MHz :   355.039349   257.820936   180.457070

                             ****ORCA TERMINATED NORMALLY****
TOTAL RUN TIME: 0 days 1 hours 53 minutes 22 seconds 200 msec
