                         Program Version 4.2.0 -  RELEASE  -
|  1> ! ri-mp2 cc-pvtz cc-pvtz/c TightSCF NoKeepInts
|  2>
|  3> %scf
|  4>   MaxCore 4096
|  5> end
|  6> *xyz  0  1
|  7>     C       14.2455744   15.9233366   15.8153024
|  8>     C       15.2328358   15.6266563   14.6693635
|  9>     O       16.2017895   16.6866309   14.6092171
| 10>     C       17.2117299   16.6611714   15.5223410
| 11>     O       17.9544539   15.7006854   15.6310800
| 12>     C       17.1756391   17.7829981   16.5174032
| 13>     C       16.8143519   19.0460506   16.1734710
| 14>     C       16.1997938   19.5087154   14.8674553
| 15>     N       17.0448659   20.1144911   17.0434465
| 16>     C       17.8184475   20.0408178   18.1707569
| 17>     S       18.1345621   21.3718257   19.1001290
| 18>     N       18.3355121   18.8071906   18.4775671
| 19>     C       18.0063247   17.5472174   17.7827351
| 20>     C       17.4057457   16.4889418   18.6980264
| 21>     C       17.9758503   15.2060965   18.7818299
| 22>     C       17.4127415   14.2272794   19.6177120
| 23>     C       16.2694771   14.5340998   20.3754915
| 24>     C       15.6974068   15.8109069   20.2909359
| 25>     O       14.5888016   16.1075173   21.0148294
| 26>     C       16.2601098   16.7829822   19.4577958
| 27>     H       14.7519321   15.8908803   16.7886760
| 28>     H       13.4422348   15.1767521   15.8297551
| 29>     H       13.7901153   16.9135642   15.6920090
| 30>     H       15.7191286   14.6523170   14.8180722
| 31>     H       14.6792886   15.5895505   13.7223157
| 32>     H       15.1858433   19.1065025   14.7514763
| 33>     H       16.7973449   19.1683865   14.0122515
| 34>     H       16.1304649   20.6008750   14.7937534
| 35>     H       16.6919786   21.0310154   16.8187521
| 36>     H       18.8863301   18.7764067   19.3262733
| 37>     H       19.0048557   17.2425177   17.4365359
| 38>     H       18.8496560   14.9631063   18.1815137
| 39>     H       17.8593853   13.2359261   19.6700013
| 40>     H       15.8302586   13.7802628   21.0203663
| 41>     H       14.3778123   15.3301663   21.5535624
| 42>     H       15.8043573   17.7661594   19.4057967
| 43> *
| 44>
| 45>                          ****END OF INPUT****

CARTESIAN COORDINATES (ANGSTROEM)
---------------------------------
  C     14.245574   15.923337   15.815302
  C     15.232836   15.626656   14.669363
  O     16.201790   16.686631   14.609217
  C     17.211730   16.661171   15.522341
  O     17.954454   15.700685   15.631080
  C     17.175639   17.782998   16.517403
  C     16.814352   19.046051   16.173471
  C     16.199794   19.508715   14.867455
  N     17.044866   20.114491   17.043447
  C     17.818448   20.040818   18.170757
  S     18.134562   21.371826   19.100129
  N     18.335512   18.807191   18.477567
  C     18.006325   17.547217   17.782735
  C     17.405746   16.488942   18.698026
  C     17.975850   15.206096   18.781830
  C     17.412741   14.227279   19.617712
  C     16.269477   14.534100   20.375491
  C     15.697407   15.810907   20.290936
  O     14.588802   16.107517   21.014829
  C     16.260110   16.782982   19.457796
  H     14.751932   15.890880   16.788676
  H     13.442235   15.176752   15.829755
  H     13.790115   16.913564   15.692009
  H     15.719129   14.652317   14.818072
  H     14.679289   15.589550   13.722316
  H     15.185843   19.106503   14.751476
  H     16.797345   19.168386   14.012251
  H     16.130465   20.600875   14.793753
  H     16.691979   21.031015   16.818752
  H     18.886330   18.776407   19.326273
  H     19.004856   17.242518   17.436536
  H     18.849656   14.963106   18.181514
  H     17.859385   13.235926   19.670001
  H     15.830259   13.780263   21.020366
  H     14.377812   15.330166   21.553562
  H     15.804357   17.766159   19.405797

 Total Charge           Charge          ....    0
 Multiplicity           Mult            ....    1
 Number of Electrons    NEL             ....  154
 Basis Dimension        Dim             ....  828

ORBITAL ENERGIES
----------------

  NO   OCC          E(Eh)            E(eV)
   0   2.0000     -91.889239     -2500.4333
   1   2.0000     -20.594908      -560.4159
   2   2.0000     -20.589894      -560.2795
   3   2.0000     -20.551033      -559.2220
   4   2.0000     -15.629761      -425.3074
   5   2.0000     -15.607058      -424.6896
   6   2.0000     -11.394103      -310.0493
   7   2.0000     -11.384053      -309.7758
   8   2.0000     -11.338321      -308.5314
   9   2.0000     -11.311227      -307.7941
  10   2.0000     -11.305626      -307.6417
  11   2.0000     -11.301759      -307.5365
  12   2.0000     -11.260208      -306.4058
  13   2.0000     -11.259521      -306.3871
  14   2.0000     -11.258110      -306.3487
  15   2.0000     -11.251212      -306.1610
  16   2.0000     -11.241323      -305.8919
  17   2.0000     -11.237344      -305.7837
  18   2.0000     -11.234090      -305.6951
  19   2.0000     -11.230020      -305.5844
  20   2.0000      -8.894314      -242.0266
  21   2.0000      -6.575888      -178.9390
  22   2.0000      -6.573888      -178.8846
  23   2.0000      -6.573297      -178.8685
  24   2.0000      -1.452825       -39.5334
  25   2.0000      -1.414694       -38.4958
  26   2.0000      -1.357909       -36.9506
  27   2.0000      -1.340856       -36.4865
  28   2.0000      -1.238132       -33.6913
  29   2.0000      -1.155621       -31.4461
  30   2.0000      -1.122331       -30.5402
  31   2.0000      -1.044227       -28.4149
  32   2.0000      -1.033777       -28.1305
  33   2.0000      -1.013083       -27.5674
  34   2.0000      -1.001095       -27.2412
  35   2.0000      -0.986353       -26.8400
  36   2.0000      -0.922852       -25.1121
  37   2.0000      -0.893167       -24.3043
  38   2.0000      -0.848599       -23.0916
  39   2.0000      -0.837571       -22.7915
  40   2.0000      -0.831341       -22.6219
  41   2.0000      -0.818420       -22.2703
  42   2.0000      -0.755647       -20.5622
  43   2.0000      -0.736575       -20.0432
  44   2.0000      -0.728319       -19.8186
  45   2.0000      -0.693220       -18.8635
  46   2.0000      -0.686124       -18.6704
  47   2.0000      -0.678536       -18.4639
  48   2.0000      -0.672978       -18.3127
  49   2.0000      -0.661344       -17.9961
  50   2.0000      -0.653119       -17.7723
  51   2.0000      -0.645596       -17.5676
  52   2.0000      -0.635204       -17.2848
  53   2.0000      -0.607920       -16.5424
  54   2.0000      -0.601950       -16.3799
  55   2.0000      -0.599336       -16.3088
  56   2.0000      -0.598426       -16.2840
  57   2.0000      -0.582868       -15.8607
  58   2.0000      -0.575295       -15.6546
  59   2.0000      -0.562572       -15.3084
  60   2.0000      -0.561976       -15.2922
  61   2.0000      -0.552077       -15.0228
  62   2.0000      -0.544254       -14.8099
  63   2.0000      -0.525310       -14.2944
  64   2.0000      -0.519179       -14.1276
  65   2.0000      -0.511561       -13.9203
  66   2.0000      -0.499354       -13.5881
  67   2.0000      -0.495544       -13.4844
  68   2.0000      -0.482302       -13.1241
  69   2.0000      -0.463870       -12.6226
  70   2.0000      -0.458675       -12.4812
  71   2.0000      -0.451275       -12.2798
  72   2.0000      -0.354012        -9.6332
  73   2.0000      -0.347503        -9.4561
  74   2.0000      -0.328314        -8.9339
  75   2.0000      -0.318648        -8.6709
  76   2.0000      -0.317906        -8.6507
  77   0.0000       0.073521         2.0006
  78   0.0000       0.107326         2.9205
  79   0.0000       0.119691         3.2570
  80   0.0000       0.133321         3.6278
  81   0.0000       0.139553         3.7974

MULLIKEN ATOMIC CHARGES
-----------------------
   0 C :   -0.305267
   1 C :    0.032794
   2 O :   -0.370740
   3 C :    0.454736
   4 O :   -0.401068
   5 C :   -0.204881
   6 C :    0.148632
   7 C :   -0.282444
   8 N :   -0.127215
   9 C :    0.207717
  10 S :   -0.440567
  11 N :   -0.210822
  12 C :    0.054701
  13 C :    0.033353
  14 C :   -0.174006
  15 C :   -0.133404
  16 C :   -0.277956
  17 C :    0.322850
  18 O :   -0.359600
  19 C :   -0.271947
  20 H :    0.116153
  21 H :    0.108177
  22 H :    0.092502
  23 H :    0.110256
  24 H :    0.106992
  25 H :    0.124454
  26 H :    0.128043
  27 H :    0.102845
  28 H :    0.198165
  29 H :    0.199320
  30 H :    0.156123
  31 H :    0.163109
  32 H :    0.161434
  33 H :    0.130259
  34 H :    0.240416
  35 H :    0.166887
Sum of atomic charges:    0.0000000

LOEWDIN ATOMIC CHARGES
----------------------
   0 C :    0.103922
   1 C :   -0.020326
   2 O :    0.297746
   3 C :   -0.419235
   4 O :    0.118829
   5 C :   -0.095718
   6 C :   -0.066699
   7 C :    0.126349
   8 N :    0.405801
   9 C :   -0.457764
  10 S :   -0.036487
  11 N :    0.396115
  12 C :   -0.048358
  13 C :   -0.042528
  14 C :    0.024403
  15 C :    0.041933
  16 C :   -0.000986
  17 C :   -0.193731
  18 O :    0.393650
  19 C :    0.029298
  20 H :   -0.025534
  21 H :   -0.024786
  22 H :   -0.030111
  23 H :   -0.025678
  24 H :   -0.024323
  25 H :   -0.011696
  26 H :   -0.007413
  27 H :   -0.020524
  28 H :   -0.058398
  29 H :   -0.063491
  30 H :   -0.007222
  31 H :   -0.023069
  32 H :   -0.020299
  33 H :   -0.035638
  34 H :   -0.154259
  35 H :   -0.023772

  Mayer bond orders larger than 0.100000
B(  0-C ,  1-C ) :   0.9620 B(  0-C , 20-H ) :   0.9684 B(  0-C , 21-H ) :   0.9778
B(  0-C , 22-H ) :   0.9774 B(  1-C ,  2-O ) :   0.8971 B(  1-C , 23-H ) :   0.9779
B(  1-C , 24-H ) :   0.9847 B(  2-O ,  3-C ) :   1.0888 B(  3-C ,  4-O ) :   2.0263
B(  3-C ,  5-C ) :   1.0185 B(  5-C ,  6-C ) :   1.6732 B(  5-C , 12-C ) :   0.9480
B(  6-C ,  7-C ) :   0.9541 B(  6-C ,  8-N ) :   1.1399 B(  7-C , 25-H ) :   0.9644
B(  7-C , 26-H ) :   0.9659 B(  7-C , 27-H ) :   0.9895 B(  8-N ,  9-C ) :   1.1846
B(  8-N , 28-H ) :   0.9472 B(  9-C , 10-S ) :   1.6116 B(  9-C , 11-N ) :   1.3026
B( 11-N , 12-C ) :   0.9818 B( 11-N , 29-H ) :   0.9488 B( 12-C , 13-C ) :   0.9674
B( 12-C , 30-H ) :   0.9950 B( 13-C , 14-C ) :   1.3811 B( 13-C , 19-C ) :   1.3585
B( 14-C , 15-C ) :   1.3964 B( 14-C , 31-H ) :   0.9617 B( 15-C , 16-C ) :   1.3599
B( 15-C , 32-H ) :   0.9709 B( 16-C , 17-C ) :   1.3328 B( 16-C , 33-H ) :   0.9850
B( 17-C , 18-O ) :   1.1049 B( 17-C , 19-C ) :   1.3601 B( 18-O , 34-H ) :   0.9802
B( 19-C , 35-H ) :   0.9609

MP2 TOTAL ENERGY:    -1274.331270039 Eh
FINAL SINGLE POINT ENERGY     -1274.331270038728

DIPOLE MOMENT
-------------
                                X             Y             Z
Electronic contribution:      9.67492       8.22914       7.77499
Nuclear contribution   :    -11.01296      -9.55246      -8.60331
                        -----------------------------------------
Total Dipole Moment    :     -1.33805      -1.32332      -0.82833
                        -----------------------------------------
Magnitude (a.u.)       :      2.05613
Magnitude (Debye)      :      5.22627

Rotational constants in cm-1:     0.010982     0.009274     0.006274
Rotational constants in MHz :   329.246684   278.020699   188.089770

                             ****ORCA TERMINATED NORMALLY****
TOTAL RUN TIME: 0 days 1 hours 42 minutes 44 seconds 946 msec
