                         Program Version 4.2.0 -  RELEASE  -
|  1> ! ri-mp2 cc-pvtz cc-pvtz/c TightSCF NoKeepInts
|  2>
|  3> %scf
|  4>   MaxCore 4096
|  5> end
|  6> *xyz  0  1
|  7>     C       14.4774464   16.5308560   16.1376708
|  8>     C       15.1103913   15.8870010   14.8842908
|  9>     O       16.5197484   16.1398270   14.6212947
| 10>     C       17.5099341   16.5324160   15.4902343
| 11>     O       18.5855603   15.9624185   15.4898887
| 12>     C       17.2050627   17.6176575   16.4696255
| 13>     C       16.8148032   18.8304912   16.0065839
| 14>     C       16.4377878   19.1697424   14.5767902
| 15>     N       16.8384382   19.9547214   16.8345504
| 16>     C       17.4807287   20.0029825   18.0436315
| 17>     S       17.5786871   21.3998382   18.9232593
| 18>     N       18.0646690   18.8365232   18.4730973
| 19>     C       17.9031766   17.5176364   17.8283529
| 20>     C       17.3270403   16.4321783   18.7261039
| 21>     C       17.8564760   15.1298222   18.6881307
| 22>     C       17.3194895   14.1162480   19.4991383
| 23>     C       16.2422644   14.4071946   20.3536308
| 24>     C       15.7096980   15.7031829   20.3902472
| 25>     O       14.6634494   15.9844897   21.2068572
| 26>     C       16.2459658   16.7103826   19.5814877
| 27>     H       15.0005896   16.2246988   17.0506016
| 28>     H       13.4404523   16.1877195   16.2385823
| 29>     H       14.4435503   17.6225748   16.0785580
| 30>     H       14.9885801   14.8005825   14.9873045
| 31>     H       14.5300128   16.1810750   14.0002560
| 32>     H       15.4375997   18.8004392   14.3252641
| 33>     H       17.1461915   18.7235937   13.8666495
| 34>     H       16.4473675   20.2506212   14.3891007
| 35>     H       16.4493403   20.8270926   16.5136327
| 36>     H       18.5320678   18.8979175   19.3690169
| 37>     H       18.9557706   17.2909652   17.6018040
| 38>     H       18.6837643   14.9015618   18.0188198
| 39>     H       17.7371034   13.1115105   19.4603388
| 40>     H       15.8238180   13.6267477   20.9805915
| 41>     H       14.4644520   15.1815545   21.7117347
| 42>     H       15.8155227   17.7057357   19.6208787
| 43> *
| 44>
| 45>                          ****END OF INPUT****

CARTESIAN COORDINATES (ANGSTROEM)
---------------------------------
  C     14.477446   16.530856   16.137671
  C     15.110391   15.887001   14.884291
  O     16.519748   16.139827   14.621295
  C     17.509934   16.532416   15.490234
  O     18.585560   15.962418   15.489889
  C     17.205063   17.617657   16.469625
  C     16.814803   18.830491   16.006584
  C     16.437788   19.169742   14.576790
  N     16.838438   19.954721   16.834550
  C     17.480729   20.002983   18.043632
  S     17.578687   21.399838   18.923259
  N     18.064669   18.836523   18.473097
  C     17.903177   17.517636   17.828353
  C     17.327040   16.432178   18.726104
  C     17.856476   15.129822   18.688131
  C     17.319489   14.116248   19.499138
  C     16.242264   14.407195   20.353631
  C     15.709698   15.703183   20.390247
  O     14.663449   15.984490   21.206857
  C     16.245966   16.710383   19.581488
  H     15.000590   16.224699   17.050602
  H     13.440452   16.187720   16.238582
  H     14.443550   17.622575   16.078558
  H     14.988580   14.800583   14.987304
  H     14.530013   16.181075   14.000256
  H     15.437600   18.800439   14.325264
  H     17.146191   18.723594   13.866649
  H     16.447367   20.250621   14.389101
  H     16.449340   20.827093   16.513633
  H     18.532068   18.897917   19.369017
  H     18.955771   17.290965   17.601804
  H     18.683764   14.901562   18.018820
  H     17.737103   13.111510   19.460339
  H     15.823818   13.626748   20.980591
  H     14.464452   15.181555   21.711735
  H     15.815523   17.705736   19.620879

 Total Charge           Charge          ....    0
 Multiplicity           Mult            ....    1
 Number of Electrons    NEL             ....  154
 Basis Dimension        Dim             ....  828

ORBITAL ENERGIES
----------------

  NO   OCC          E(Eh)            E(eV)
   0   2.0000     -91.889858     -2500.4502
   1   2.0000     -20.598847      -560.5231
   2   2.0000     -20.594796      -560.4129
   3   2.0000     -20.548946      -559.1652
   4   2.0000     -15.628641      -425.2769
   5   2.0000     -15.608939      -424.7408
   6   2.0000     -11.398532      -310.1698
   7   2.0000     -11.385251      -309.8084
   8   2.0000     -11.332904      -308.3840
   9   2.0000     -11.316063      -307.9257
  10   2.0000     -11.313460      -307.8549
  11   2.0000     -11.308595      -307.7225
  12   2.0000     -11.264816      -306.5312
  13   2.0000     -11.263668      -306.5000
  14   2.0000     -11.259907      -306.3977
  15   2.0000     -11.256385      -306.3018
  16   2.0000     -11.245178      -305.9968
  17   2.0000     -11.241007      -305.8834
  18   2.0000     -11.237988      -305.8012
  19   2.0000     -11.237883      -305.7983
  20   2.0000      -8.894951      -242.0439
  21   2.0000      -6.576530      -178.9565
  22   2.0000      -6.574523      -178.9019
  23   2.0000      -6.573937      -178.8859
  24   2.0000      -1.442053       -39.2403
  25   2.0000      -1.418597       -38.6020
  26   2.0000      -1.355461       -36.8840
  27   2.0000      -1.340671       -36.4815
  28   2.0000      -1.238725       -33.7074
  29   2.0000      -1.160025       -31.5659
  30   2.0000      -1.125201       -30.6183
  31   2.0000      -1.047400       -28.5012
  32   2.0000      -1.040817       -28.3221
  33   2.0000      -1.018033       -27.7021
  34   2.0000      -1.004482       -27.3333
  35   2.0000      -0.990322       -26.9480
  36   2.0000      -0.926142       -25.2016
  37   2.0000      -0.901194       -24.5227
  38   2.0000      -0.851746       -23.1772
  39   2.0000      -0.841156       -22.8890
  40   2.0000      -0.835598       -22.7378
  41   2.0000      -0.826038       -22.4776
  42   2.0000      -0.746706       -20.3189
  43   2.0000      -0.734289       -19.9810
  44   2.0000      -0.729114       -19.8402
  45   2.0000      -0.695757       -18.9325
  46   2.0000      -0.687277       -18.7018
  47   2.0000      -0.676798       -18.4166
  48   2.0000      -0.673045       -18.3145
  49   2.0000      -0.665322       -18.1043
  50   2.0000      -0.655798       -17.8452
  51   2.0000      -0.651129       -17.7181
  52   2.0000      -0.639921       -17.4131
  53   2.0000      -0.614865       -16.7313
  54   2.0000      -0.605068       -16.4647
  55   2.0000      -0.603143       -16.4123
  56   2.0000      -0.601562       -16.3693
  57   2.0000      -0.589245       -16.0342
  58   2.0000      -0.577021       -15.7015
  59   2.0000      -0.572439       -15.5769
  60   2.0000      -0.563630       -15.3372
  61   2.0000      -0.556778       -15.1507
  62   2.0000      -0.545913       -14.8551
  63   2.0000      -0.531897       -14.4736
  64   2.0000      -0.522488       -14.2176
  65   2.0000      -0.513177       -13.9642
  66   2.0000      -0.500907       -13.6304
  67   2.0000      -0.493472       -13.4281
  68   2.0000      -0.485042       -13.1987
  69   2.0000      -0.467683       -12.7263
  70   2.0000      -0.457641       -12.4530
  71   2.0000      -0.448487       -12.2039
  72   2.0000      -0.354409        -9.6440
  73   2.0000      -0.349157        -9.5011
  74   2.0000      -0.329245        -8.9592
  75   2.0000      -0.323765        -8.8101
  76   2.0000      -0.319218        -8.6864
  77   0.0000       0.080406         2.1880
  78   0.0000       0.105234         2.8636
  79   0.0000       0.116312         3.1650
  80   0.0000       0.126793         3.4502
  81   0.0000       0.130687         3.5562

MULLIKEN ATOMIC CHARGES
-----------------------
   0 C :   -0.336427
   1 C :    0.033469
   2 O :   -0.353444
   3 C :    0.438622
   4 O :   -0.378871
   5 C :   -0.223094
   6 C :    0.134276
   7 C :   -0.301361
   8 N :   -0.138088
   9 C :    0.208927
  10 S :   -0.441879
  11 N :   -0.227860
  12 C :    0.090634
  13 C :    0.009748
  14 C :   -0.219124
  15 C :   -0.131003
  16 C :   -0.276695
  17 C :    0.322078
  18 O :   -0.356868
  19 C :   -0.262781
  20 H :    0.128487
  21 H :    0.126492
  22 H :    0.102045
  23 H :    0.116359
  24 H :    0.106949
  25 H :    0.116231
  26 H :    0.138756
  27 H :    0.112555
  28 H :    0.197871
  29 H :    0.204081
  30 H :    0.166429
  31 H :    0.180254
  32 H :    0.164472
  33 H :    0.132075
  34 H :    0.241085
  35 H :    0.175600
Sum of atomic charges:   -0.0000000

LOEWDIN ATOMIC CHARGES
----------------------
   0 C :    0.102520
   1 C :   -0.012635
   2 O :    0.286039
   3 C :   -0.417360
   4 O :    0.121746
   5 C :   -0.087514
   6 C :   -0.082226
   7 C :    0.128692
   8 N :    0.403895
   9 C :   -0.457048
  10 S :   -0.037574
  11 N :    0.396484
  12 C :   -0.048267
  13 C :   -0.044234
  14 C :    0.019697
  15 C :    0.044126
  16 C :   -0.000820
  17 C :   -0.192408
  18 O :    0.395226
  19 C :    0.027185
  20 H :   -0.025033
  21 H :   -0.020114
  22 H :   -0.034422
  23 H :   -0.023294
  24 H :   -0.025658
  25 H :   -0.016566
  26 H :   -0.004505
  27 H :   -0.016469
  28 H :   -0.059157
  29 H :   -0.063701
  30 H :   -0.004609
  31 H :   -0.021182
  32 H :   -0.018722
  33 H :   -0.035032
  34 H :   -0.153411
  35 H :   -0.023652

  Mayer bond orders larger than 0.100000
B(  0-C ,  1-C ) :   0.9638 B(  0-C , 20-H ) :   0.9627 B(  0-C , 21-H ) :   0.9768
B(  0-C , 22-H ) :   0.9726 B(  1-C ,  2-O ) :   0.9052 B(  1-C , 23-H ) :   0.9802
B(  1-C , 24-H ) :   0.9794 B(  2-O ,  3-C ) :   1.1332 B(  3-C ,  4-O ) :   2.0795
B(  3-C ,  5-C ) :   0.9450 B(  5-C ,  6-C ) :   1.7194 B(  5-C , 12-C ) :   0.9229
B(  6-C ,  7-C ) :   0.9425 B(  6-C ,  8-N ) :   1.1048 B(  7-C , 25-H ) :   0.9676
B(  7-C , 26-H ) :   0.9666 B(  7-C , 27-H ) :   0.9875 B(  8-N ,  9-C ) :   1.1942
B(  8-N , 28-H ) :   0.9480 B(  9-C , 10-S ) :   1.6090 B(  9-C , 11-N ) :   1.2934
B( 11-N , 12-C ) :   0.9740 B( 11-N , 29-H ) :   0.9472 B( 12-C , 13-C ) :   0.9708
B( 12-C , 30-H ) :   0.9901 B( 13-C , 14-C ) :   1.3879 B( 13-C , 19-C ) :   1.3459
B( 14-C , 15-C ) :   1.3971 B( 14-C , 31-H ) :   0.9567 B( 15-C , 16-C ) :   1.3598
B( 15-C , 32-H ) :   0.9701 B( 16-C , 17-C ) :   1.3327 B( 16-C , 33-H ) :   0.9845
B( 17-C , 18-O ) :   1.1084 B( 17-C , 19-C ) :   1.3613 B( 18-O , 34-H ) :   0.9795
B( 19-C , 35-H ) :   0.9579

MP2 TOTAL ENERGY:    -1274.318578012 Eh
FINAL SINGLE POINT ENERGY     -1274.318578012034

DIPOLE MOMENT
-------------
                                X             Y             Z
Electronic contribution:      8.81620       6.50102       7.27992
Nuclear contribution   :    -10.42893      -7.82223      -7.81740
                        -----------------------------------------
Total Dipole Moment    :     -1.61273      -1.32122      -0.53748
                        -----------------------------------------
Magnitude (a.u.)       :      2.15300
Magnitude (Debye)      :      5.47248

Rotational constants in cm-1:     0.011312     0.009285     0.006445
Rotational constants in MHz :   339.126584   278.371254   193.211575

                             ****ORCA TERMINATED NORMALLY****
TOTAL RUN TIME: 0 days 1 hours 47 minutes 57 seconds 6 msec
