                         Program Version 4.2.0 -  RELEASE  -
|  1> ! ri-mp2 cc-pvtz cc-pvtz/c TightSCF NoKeepInts
|  2>
|  3> %scf
|  4>   MaxCore 4096
|  5> end
|  6> *xyz  0  1
|  7>     C       14.2451206   15.0088836   15.2419404
|  8>     C       14.8893189   16.4022675   15.3261848
|  9>     O       16.2251682   16.2843315   14.7987395
| 10>     C       17.3056585   16.4738531   15.6148466
| 11>     O       18.2258352   15.6773549   15.6383734
| 12>     C       17.2542207   17.6715253   16.5131258
| 13>     C       16.9630532   18.9048354   16.0288367
| 14>     C       16.4715565   19.2555552   14.6384214
| 15>     N       17.1891217   20.0453738   16.8023385
| 16>     C       17.9182384   20.0575549   17.9618596
| 17>     S       18.2420071   21.4619910   18.7723695
| 18>     N       18.3848585   18.8442692   18.4037907
| 19>     C       18.0323018   17.5335206   17.8227562
| 20>     C       17.3687761   16.5726968   18.7986621
| 21>     C       17.8073565   15.2398694   18.8925092
| 22>     C       17.1842451   14.3434817   19.7766963
| 23>     C       16.1117968   14.7833605   20.5715076
| 24>     C       15.6688008   16.1096553   20.4751494
| 25>     O       14.6272132   16.5346214   21.2336055
| 26>     C       16.2902015   16.9995955   19.5930624
| 27>     H       14.8050767   14.2881788   15.8516995
| 28>     H       14.2349644   14.6486232   14.2055164
| 29>     H       13.2113761   15.0374935   15.6071967
| 30>     H       14.3065500   17.1057229   14.7183875
| 31>     H       14.8792104   16.7462079   16.3692587
| 32>     H       16.8885813   18.5828172   13.8783687
| 33>     H       16.7705761   20.2694417   14.3435259
| 34>     H       15.3786268   19.2031906   14.5794127
| 35>     H       16.8814044   20.9469928   16.4734570
| 36>     H       18.9128142   18.8793673   19.2669810
| 37>     H       19.0309751   17.1661863   17.5427211
| 38>     H       18.6275236   14.8949304   18.2660118
| 39>     H       17.5306306   13.3131690   19.8386703
| 40>     H       15.6268635   14.0935101   21.2542985
| 41>     H       14.3648480   15.7975546   21.8056570
| 42>     H       15.9321297   18.0220168   19.5320614
| 43> *
| 44>
| 45>                          ****END OF INPUT****

CARTESIAN COORDINATES (ANGSTROEM)
---------------------------------
  C     14.245121   15.008884   15.241940
  C     14.889319   16.402268   15.326185
  O     16.225168   16.284332   14.798739
  C     17.305658   16.473853   15.614847
  O     18.225835   15.677355   15.638373
  C     17.254221   17.671525   16.513126
  C     16.963053   18.904835   16.028837
  C     16.471556   19.255555   14.638421
  N     17.189122   20.045374   16.802339
  C     17.918238   20.057555   17.961860
  S     18.242007   21.461991   18.772369
  N     18.384858   18.844269   18.403791
  C     18.032302   17.533521   17.822756
  C     17.368776   16.572697   18.798662
  C     17.807356   15.239869   18.892509
  C     17.184245   14.343482   19.776696
  C     16.111797   14.783361   20.571508
  C     15.668801   16.109655   20.475149
  O     14.627213   16.534621   21.233605
  C     16.290201   16.999596   19.593062
  H     14.805077   14.288179   15.851700
  H     14.234964   14.648623   14.205516
  H     13.211376   15.037493   15.607197
  H     14.306550   17.105723   14.718388
  H     14.879210   16.746208   16.369259
  H     16.888581   18.582817   13.878369
  H     16.770576   20.269442   14.343526
  H     15.378627   19.203191   14.579413
  H     16.881404   20.946993   16.473457
  H     18.912814   18.879367   19.266981
  H     19.030975   17.166186   17.542721
  H     18.627524   14.894930   18.266012
  H     17.530631   13.313169   19.838670
  H     15.626864   14.093510   21.254298
  H     14.364848   15.797555   21.805657
  H     15.932130   18.022017   19.532061

 Total Charge           Charge          ....    0
 Multiplicity           Mult            ....    1
 Number of Electrons    NEL             ....  154
 Basis Dimension        Dim             ....  828

ORBITAL ENERGIES
----------------

  NO   OCC          E(Eh)            E(eV)
   0   2.0000     -91.890244     -2500.4606
   1   2.0000     -20.599182      -560.5322
   2   2.0000     -20.598022      -560.5007
   3   2.0000     -20.551101      -559.2239
   4   2.0000     -15.629672      -425.3050
   5   2.0000     -15.608975      -424.7418
   6   2.0000     -11.397043      -310.1293
   7   2.0000     -11.385685      -309.8202
   8   2.0000     -11.337429      -308.5071
   9   2.0000     -11.314922      -307.8947
  10   2.0000     -11.308061      -307.7080
  11   2.0000     -11.307032      -307.6800
  12   2.0000     -11.265371      -306.5463
  13   2.0000     -11.262859      -306.4780
  14   2.0000     -11.262259      -306.4617
  15   2.0000     -11.254867      -306.2605
  16   2.0000     -11.244309      -305.9732
  17   2.0000     -11.240709      -305.8752
  18   2.0000     -11.237145      -305.7783
  19   2.0000     -11.231016      -305.6115
  20   2.0000      -8.895338      -242.0545
  21   2.0000      -6.576916      -178.9670
  22   2.0000      -6.574908      -178.9123
  23   2.0000      -6.574322      -178.8964
  24   2.0000      -1.451054       -39.4852
  25   2.0000      -1.417762       -38.5793
  26   2.0000      -1.362272       -37.0693
  27   2.0000      -1.341783       -36.5118
  28   2.0000      -1.239481       -33.7280
  29   2.0000      -1.159228       -31.5442
  30   2.0000      -1.125025       -30.6135
  31   2.0000      -1.047011       -28.4906
  32   2.0000      -1.038888       -28.2696
  33   2.0000      -1.017000       -27.6740
  34   2.0000      -1.004727       -27.3400
  35   2.0000      -0.988769       -26.9058
  36   2.0000      -0.925502       -25.1842
  37   2.0000      -0.883562       -24.0429
  38   2.0000      -0.855361       -23.2756
  39   2.0000      -0.842298       -22.9201
  40   2.0000      -0.835921       -22.7466
  41   2.0000      -0.834257       -22.7013
  42   2.0000      -0.754838       -20.5402
  43   2.0000      -0.738902       -20.1066
  44   2.0000      -0.731050       -19.8929
  45   2.0000      -0.695903       -18.9365
  46   2.0000      -0.687953       -18.7201
  47   2.0000      -0.681317       -18.5396
  48   2.0000      -0.676547       -18.4098
  49   2.0000      -0.662972       -18.0404
  50   2.0000      -0.656909       -17.8754
  51   2.0000      -0.646606       -17.5950
  52   2.0000      -0.639172       -17.3927
  53   2.0000      -0.610918       -16.6239
  54   2.0000      -0.605248       -16.4696
  55   2.0000      -0.601511       -16.3680
  56   2.0000      -0.597674       -16.2635
  57   2.0000      -0.580382       -15.7930
  58   2.0000      -0.577904       -15.7256
  59   2.0000      -0.572444       -15.5770
  60   2.0000      -0.562480       -15.3059
  61   2.0000      -0.559284       -15.2189
  62   2.0000      -0.547999       -14.9118
  63   2.0000      -0.525338       -14.2952
  64   2.0000      -0.517639       -14.0857
  65   2.0000      -0.514301       -13.9949
  66   2.0000      -0.502024       -13.6608
  67   2.0000      -0.500176       -13.6105
  68   2.0000      -0.488669       -13.2974
  69   2.0000      -0.471097       -12.8192
  70   2.0000      -0.457776       -12.4567
  71   2.0000      -0.450505       -12.2589
  72   2.0000      -0.356288        -9.6951
  73   2.0000      -0.350506        -9.5377
  74   2.0000      -0.329540        -8.9673
  75   2.0000      -0.322238        -8.7685
  76   2.0000      -0.319793        -8.7020
  77   0.0000       0.077786         2.1167
  78   0.0000       0.104008         2.8302
  79   0.0000       0.118464         3.2236
  80   0.0000       0.131272         3.5721
  81   0.0000       0.134164         3.6508

MULLIKEN ATOMIC CHARGES
-----------------------
   0 C :   -0.250782
   1 C :    0.010156
   2 O :   -0.334772
   3 C :    0.438359
   4 O :   -0.380976
   5 C :   -0.259067
   6 C :    0.183063
   7 C :   -0.319033
   8 N :   -0.134445
   9 C :    0.206061
  10 S :   -0.441084
  11 N :   -0.217370
  12 C :    0.063177
  13 C :    0.024988
  14 C :   -0.205338
  15 C :   -0.129289
  16 C :   -0.277041
  17 C :    0.314237
  18 O :   -0.357082
  19 C :   -0.257240
  20 H :    0.104303
  21 H :    0.100244
  22 H :    0.088806
  23 H :    0.095230
  24 H :    0.109627
  25 H :    0.141823
  26 H :    0.119355
  27 H :    0.121448
  28 H :    0.198273
  29 H :    0.201131
  30 H :    0.163102
  31 H :    0.173144
  32 H :    0.163899
  33 H :    0.130907
  34 H :    0.241154
  35 H :    0.171033
Sum of atomic charges:   -0.0000000

LOEWDIN ATOMIC CHARGES
----------------------
   0 C :    0.109122
   1 C :   -0.022976
   2 O :    0.305627
   3 C :   -0.419625
   4 O :    0.122856
   5 C :   -0.092832
   6 C :   -0.078451
   7 C :    0.128258
   8 N :    0.403896
   9 C :   -0.457671
  10 S :   -0.036779
  11 N :    0.396032
  12 C :   -0.049614
  13 C :   -0.043852
  14 C :    0.022114
  15 C :    0.043538
  16 C :   -0.000304
  17 C :   -0.192512
  18 O :    0.394122
  19 C :    0.026460
  20 H :   -0.022483
  21 H :   -0.024568
  22 H :   -0.026890
  23 H :   -0.033633
  24 H :   -0.032712
  25 H :   -0.006400
  26 H :   -0.014809
  27 H :   -0.016507
  28 H :   -0.057706
  29 H :   -0.063403
  30 H :   -0.005303
  31 H :   -0.021505
  32 H :   -0.019144
  33 H :   -0.035112
  34 H :   -0.153478
  35 H :   -0.023760

  Mayer bond orders larger than 0.100000
B(  0-C ,  1-C ) :   0.9875 B(  0-C , 20-H ) :   0.9769 B(  0-C , 21-H ) :   0.9782
B(  0-C , 22-H ) :   0.9763 B(  1-C ,  2-O ) :   0.8931 B(  1-C , 23-H ) :   0.9777
B(  1-C , 24-H ) :   0.9582 B(  2-O ,  3-C ) :   1.1519 B(  3-C ,  4-O ) :   2.0802
B(  3-C ,  5-C ) :   0.9491 B(  5-C ,  6-C ) :   1.6965 B(  5-C , 12-C ) :   0.9440
B(  6-C ,  7-C ) :   0.9357 B(  6-C ,  8-N ) :   1.1224 B(  7-C , 25-H ) :   0.9681
B(  7-C , 26-H ) :   0.9844 B(  7-C , 27-H ) :   0.9677 B(  8-N ,  9-C ) :   1.1912
B(  8-N , 28-H ) :   0.9491 B(  9-C , 10-S ) :   1.6117 B(  9-C , 11-N ) :   1.2958
B( 11-N , 12-C ) :   0.9857 B( 11-N , 29-H ) :   0.9483 B( 12-C , 13-C ) :   0.9683
B( 12-C , 30-H ) :   0.9918 B( 13-C , 14-C ) :   1.3851 B( 13-C , 19-C ) :   1.3556
B( 14-C , 15-C ) :   1.3938 B( 14-C , 31-H ) :   0.9594 B( 15-C , 16-C ) :   1.3610
B( 15-C , 32-H ) :   0.9701 B( 16-C , 17-C ) :   1.3316 B( 16-C , 33-H ) :   0.9851
B( 17-C , 18-O ) :   1.1076 B( 17-C , 19-C ) :   1.3653 B( 18-O , 34-H ) :   0.9796
B( 19-C , 35-H ) :   0.9575

MP2 TOTAL ENERGY:    -1274.330790568 Eh
FINAL SINGLE POINT ENERGY     -1274.330790567711

DIPOLE MOMENT
-------------
                                X             Y             Z
Electronic contribution:     10.21153       8.95902       8.29904
Nuclear contribution   :    -11.83908      -9.98964      -8.73735
                        -----------------------------------------
Total Dipole Moment    :     -1.62754      -1.03062      -0.43831
                        -----------------------------------------
Magnitude (a.u.)       :      1.97565
Magnitude (Debye)      :      5.02171

Rotational constants in cm-1:     0.010801     0.009164     0.006165
Rotational constants in MHz :   323.797611   274.723726   184.828410

                             ****ORCA TERMINATED NORMALLY****
TOTAL RUN TIME: 0 days 1 hours 39 minutes 32 seconds 384 msec
