                         Program Version 4.2.0 -  RELEASE  -
|  1> ! ri-mp2 cc-pvtz cc-pvtz/c TightSCF NoKeepInts
|  2>
|  3> %scf
|  4>   MaxCore 4096
|  5> end
|  6> *xyz  0  1
|  7>     C       14.5706361   16.2319879   16.3381296
|  8>     C       15.0530099   16.1582830   14.8715484
|  9>     O       16.4853082   15.9785163   14.7213732
| 10>     C       17.5111017   16.4460031   15.5103493
| 11>     O       18.5944748   15.8911490   15.4964807
| 12>     C       17.2350623   17.5807876   16.4423948
| 13>     C       16.8711919   18.7926976   15.9548573
| 14>     C       16.4910334   19.1379724   14.5291767
| 15>     N       16.9131680   19.9304229   16.7629548
| 16>     C       17.5483777   19.9891495   17.9750446
| 17>     S       17.6680937   21.4003708   18.8285071
| 18>     N       18.1049768   18.8195303   18.4301401
| 19>     C       17.9220214   17.4932132   17.8073954
| 20>     C       17.3058570   16.4411107   18.7175356
| 21>     C       17.8163348   15.1307760   18.7288142
| 22>     C       17.2376436   14.1458717   19.5464047
| 23>     C       16.1373569   14.4737555   20.3570546
| 24>     C       15.6234562   15.7777066   20.3437045
| 25>     O       14.5543817   16.0942435   21.1166844
| 26>     C       16.2013868   16.7563781   19.5287622
| 27>     H       15.1018038   15.5035711   16.9643308
| 28>     H       13.5017707   15.9913240   16.3894668
| 29>     H       14.6896611   17.2322945   16.7680172
| 30>     H       14.5565536   15.3095014   14.3832081
| 31>     H       14.7251591   17.0598937   14.3419492
| 32>     H       16.8252393   18.3818174   13.8088455
| 33>     H       16.9567028   20.0810587   14.2149780
| 34>     H       15.4056198   19.2539357   14.4275040
| 35>     H       16.5449536   20.8046278   16.4223688
| 36>     H       18.5670028   18.8875394   19.3284013
| 37>     H       18.9709043   17.2368364   17.5956181
| 38>     H       18.6595494   14.8732582   18.0907025
| 39>     H       17.6400141   13.1341838   19.5452478
| 40>     H       15.6862378   13.7152008   20.9882008
| 41>     H       14.3259857   15.3066979   21.6332688
| 42>     H       15.7849689   17.7583338   19.5285801
| 43> *
| 44>
| 45>                          ****END OF INPUT****

CARTESIAN COORDINATES (ANGSTROEM)
---------------------------------
  C     14.570636   16.231988   16.338130
  C     15.053010   16.158283   14.871548
  O     16.485308   15.978516   14.721373
  C     17.511102   16.446003   15.510349
  O     18.594475   15.891149   15.496481
  C     17.235062   17.580788   16.442395
  C     16.871192   18.792698   15.954857
  C     16.491033   19.137972   14.529177
  N     16.913168   19.930423   16.762955
  C     17.548378   19.989149   17.975045
  S     17.668094   21.400371   18.828507
  N     18.104977   18.819530   18.430140
  C     17.922021   17.493213   17.807395
  C     17.305857   16.441111   18.717536
  C     17.816335   15.130776   18.728814
  C     17.237644   14.145872   19.546405
  C     16.137357   14.473755   20.357055
  C     15.623456   15.777707   20.343705
  O     14.554382   16.094244   21.116684
  C     16.201387   16.756378   19.528762
  H     15.101804   15.503571   16.964331
  H     13.501771   15.991324   16.389467
  H     14.689661   17.232294   16.768017
  H     14.556554   15.309501   14.383208
  H     14.725159   17.059894   14.341949
  H     16.825239   18.381817   13.808846
  H     16.956703   20.081059   14.214978
  H     15.405620   19.253936   14.427504
  H     16.544954   20.804628   16.422369
  H     18.567003   18.887539   19.328401
  H     18.970904   17.236836   17.595618
  H     18.659549   14.873258   18.090702
  H     17.640014   13.134184   19.545248
  H     15.686238   13.715201   20.988201
  H     14.325986   15.306698   21.633269
  H     15.784969   17.758334   19.528580

 Total Charge           Charge          ....    0
 Multiplicity           Mult            ....    1
 Number of Electrons    NEL             ....  154
 Basis Dimension        Dim             ....  828

ORBITAL ENERGIES
----------------

  NO   OCC          E(Eh)            E(eV)
   0   2.0000     -91.889810     -2500.4489
   1   2.0000     -20.599747      -560.5476
   2   2.0000     -20.598827      -560.5226
   3   2.0000     -20.548238      -559.1460
   4   2.0000     -15.628001      -425.2595
   5   2.0000     -15.609328      -424.7514
   6   2.0000     -11.400625      -310.2268
   7   2.0000     -11.385555      -309.8167
   8   2.0000     -11.333332      -308.3957
   9   2.0000     -11.315933      -307.9222
  10   2.0000     -11.312226      -307.8213
  11   2.0000     -11.309698      -307.7525
  12   2.0000     -11.267538      -306.6053
  13   2.0000     -11.264562      -306.5243
  14   2.0000     -11.263400      -306.4927
  15   2.0000     -11.256378      -306.3016
  16   2.0000     -11.245367      -306.0020
  17   2.0000     -11.240901      -305.8805
  18   2.0000     -11.238202      -305.8070
  19   2.0000     -11.234240      -305.6992
  20   2.0000      -8.894918      -242.0430
  21   2.0000      -6.576501      -178.9557
  22   2.0000      -6.574487      -178.9009
  23   2.0000      -6.573905      -178.8851
  24   2.0000      -1.443751       -39.2865
  25   2.0000      -1.418577       -38.6014
  26   2.0000      -1.357669       -36.9441
  27   2.0000      -1.341301       -36.4987
  28   2.0000      -1.239471       -33.7277
  29   2.0000      -1.160398       -31.5760
  30   2.0000      -1.125884       -30.6369
  31   2.0000      -1.047817       -28.5125
  32   2.0000      -1.039218       -28.2785
  33   2.0000      -1.018405       -27.7122
  34   2.0000      -1.006821       -27.3970
  35   2.0000      -0.990204       -26.9448
  36   2.0000      -0.927015       -25.2254
  37   2.0000      -0.900624       -24.5072
  38   2.0000      -0.853562       -23.2266
  39   2.0000      -0.841304       -22.8931
  40   2.0000      -0.835824       -22.7439
  41   2.0000      -0.828477       -22.5440
  42   2.0000      -0.745264       -20.2797
  43   2.0000      -0.736799       -20.0493
  44   2.0000      -0.731893       -19.9158
  45   2.0000      -0.695944       -18.9376
  46   2.0000      -0.687602       -18.7106
  47   2.0000      -0.679393       -18.4872
  48   2.0000      -0.674337       -18.3496
  49   2.0000      -0.661407       -17.9978
  50   2.0000      -0.658477       -17.9181
  51   2.0000      -0.650673       -17.7057
  52   2.0000      -0.639215       -17.3939
  53   2.0000      -0.616899       -16.7867
  54   2.0000      -0.610349       -16.6084
  55   2.0000      -0.606605       -16.5066
  56   2.0000      -0.602598       -16.3975
  57   2.0000      -0.588510       -16.0142
  58   2.0000      -0.577209       -15.7066
  59   2.0000      -0.569736       -15.5033
  60   2.0000      -0.564058       -15.3488
  61   2.0000      -0.556022       -15.1301
  62   2.0000      -0.542891       -14.7728
  63   2.0000      -0.531968       -14.4756
  64   2.0000      -0.522505       -14.2181
  65   2.0000      -0.512886       -13.9563
  66   2.0000      -0.500981       -13.6324
  67   2.0000      -0.500021       -13.6063
  68   2.0000      -0.485183       -13.2025
  69   2.0000      -0.468168       -12.7395
  70   2.0000      -0.455169       -12.3858
  71   2.0000      -0.449773       -12.2389
  72   2.0000      -0.355902        -9.6846
  73   2.0000      -0.349700        -9.5158
  74   2.0000      -0.329319        -8.9612
  75   2.0000      -0.323966        -8.8156
  76   2.0000      -0.319721        -8.7000
  77   0.0000       0.083696         2.2775
  78   0.0000       0.105550         2.8722
  79   0.0000       0.114228         3.1083
  80   0.0000       0.129173         3.5150
  81   0.0000       0.130389         3.5481

MULLIKEN ATOMIC CHARGES
-----------------------
   0 C :   -0.331028
   1 C :    0.035580
   2 O :   -0.331975
   3 C :    0.432075
   4 O :   -0.383168
   5 C :   -0.237836
   6 C :    0.168891
   7 C :   -0.345187
   8 N :   -0.140982
   9 C :    0.206283
  10 S :   -0.442962
  11 N :   -0.223701
  12 C :    0.072599
  13 C :    0.010947
  14 C :   -0.215560
  15 C :   -0.130377
  16 C :   -0.277844
  17 C :    0.315570
  18 O :   -0.356922
  19 C :   -0.250769
  20 H :    0.126789
  21 H :    0.117721
  22 H :    0.111019
  23 H :    0.130851
  24 H :    0.084368
  25 H :    0.139692
  26 H :    0.132779
  27 H :    0.122317
  28 H :    0.198409
  29 H :    0.203149
  30 H :    0.168349
  31 H :    0.178292
  32 H :    0.164448
  33 H :    0.132100
  34 H :    0.241232
  35 H :    0.174847
Sum of atomic charges:   -0.0000000

LOEWDIN ATOMIC CHARGES
----------------------
   0 C :    0.102103
   1 C :   -0.013794
   2 O :    0.293477
   3 C :   -0.416313
   4 O :    0.119526
   5 C :   -0.080931
   6 C :   -0.088500
   7 C :    0.124675
   8 N :    0.402903
   9 C :   -0.457869
  10 S :   -0.038371
  11 N :    0.396659
  12 C :   -0.047745
  13 C :   -0.043945
  14 C :    0.019877
  15 C :    0.043907
  16 C :   -0.000577
  17 C :   -0.192168
  18 O :    0.395236
  19 C :    0.029532
  20 H :   -0.020141
  21 H :   -0.023450
  22 H :   -0.034412
  23 H :   -0.018657
  24 H :   -0.037834
  25 H :   -0.007493
  26 H :   -0.010503
  27 H :   -0.018824
  28 H :   -0.057239
  29 H :   -0.063354
  30 H :   -0.003638
  31 H :   -0.021109
  32 H :   -0.018585
  33 H :   -0.034854
  34 H :   -0.153390
  35 H :   -0.024200

  Mayer bond orders larger than 0.100000
B(  0-C ,  1-C ) :   0.9522 B(  0-C , 20-H ) :   0.9680 B(  0-C , 21-H ) :   0.9771
B(  0-C , 22-H ) :   0.9734 B(  1-C ,  2-O ) :   0.9068 B(  1-C , 23-H ) :   0.9811
B(  1-C , 24-H ) :   0.9733 B(  2-O ,  3-C ) :   1.1735 B(  3-C ,  4-O ) :   2.0843
B(  3-C ,  5-C ) :   0.9289 B(  5-C ,  6-C ) :   1.7177 B(  5-C , 12-C ) :   0.9374
B(  6-C ,  7-C ) :   0.9378 B(  6-C ,  8-N ) :   1.1026 B(  7-C , 25-H ) :   0.9745
B(  7-C , 26-H ) :   0.9764 B(  7-C , 27-H ) :   0.9657 B(  8-N ,  9-C ) :   1.1973
B(  8-N , 28-H ) :   0.9506 B(  9-C , 10-S ) :   1.6094 B(  9-C , 11-N ) :   1.2918
B( 11-N , 12-C ) :   0.9814 B( 11-N , 29-H ) :   0.9477 B( 12-C , 13-C ) :   0.9674
B( 12-C , 30-H ) :   0.9893 B( 13-C , 14-C ) :   1.3882 B( 13-C , 19-C ) :   1.3498
B( 14-C , 15-C ) :   1.3949 B( 14-C , 31-H ) :   0.9580 B( 15-C , 16-C ) :   1.3606
B( 15-C , 32-H ) :   0.9701 B( 16-C , 17-C ) :   1.3305 B( 16-C , 33-H ) :   0.9847
B( 17-C , 18-O ) :   1.1093 B( 17-C , 19-C ) :   1.3677 B( 18-O , 34-H ) :   0.9795
B( 19-C , 35-H ) :   0.9567

MP2 TOTAL ENERGY:    -1274.324644342 Eh
FINAL SINGLE POINT ENERGY     -1274.324644341504

DIPOLE MOMENT
-------------
                                X             Y             Z
Electronic contribution:      8.78764       6.34000       6.83076
Nuclear contribution   :    -10.44017      -7.50108      -7.38173
                        -----------------------------------------
Total Dipole Moment    :     -1.65253      -1.16107      -0.55097
                        -----------------------------------------
Magnitude (a.u.)       :      2.09344
Magnitude (Debye)      :      5.32111

Rotational constants in cm-1:     0.011532     0.009282     0.006520
Rotational constants in MHz :   345.726120   278.271037   195.462158

                             ****ORCA TERMINATED NORMALLY****
TOTAL RUN TIME: 0 days 2 hours 8 minutes 9 seconds 564 msec
