                         Program Version 4.2.0 -  RELEASE  -
|  1> ! ri-mp2 cc-pvtz cc-pvtz/c TightSCF NoKeepInts
|  2>
|  3> %scf
|  4>   MaxCore 4096
|  5> end
|  6> *xyz  0  1
|  7>     C       15.0547615   14.4665863   16.4419269
|  8>     C       15.6832733   15.0264264   15.1560856
|  9>     O       16.7790293   15.8958840   15.5065985
| 10>     C       16.6649999   17.2222040   15.2041342
| 11>     O       16.2418544   17.5829747   14.1193216
| 12>     C       16.9621386   18.1349049   16.3656571
| 13>     C       16.9386016   19.4837477   16.1975354
| 14>     C       16.3332129   20.2581705   15.0443102
| 15>     N       17.5095366   20.3397257   17.1419096
| 16>     C       18.3199153   19.9306526   18.1650078
| 17>     S       19.0641572   21.0052671   19.1784383
| 18>     N       18.5059953   18.5778816   18.2888710
| 19>     C       17.7874016   17.5422068   17.5229165
| 20>     C       17.0503588   16.5733165   18.4358586
| 21>     C       17.6080887   15.3186593   18.7432184
| 22>     C       16.9512955   14.4427909   19.6243255
| 23>     C       15.7293893   14.8265836   20.2033842
| 24>     C       15.1775315   16.0804405   19.9059106
| 25>     O       14.0002422   16.4550367   20.4664668
| 26>     C       15.8352398   16.9516674   19.0317952
| 27>     H       15.7981838   13.9145683   17.0283381
| 28>     H       14.2347238   13.7800941   16.1996918
| 29>     H       14.6482563   15.2759355   17.0593040
| 30>     H       16.0604024   14.1957348   14.5458256
| 31>     H       14.9159789   15.5518388   14.5707003
| 32>     H       15.3194977   19.8990978   14.8254886
| 33>     H       16.9319159   20.1263480   14.1338622
| 34>     H       16.2592570   21.3342235   15.2410029
| 35>     H       17.4043597   21.3367147   17.0422041
| 36>     H       19.0856666   18.3039353   19.0720560
| 37>     H       18.6412765   17.0443022   17.0417701
| 38>     H       18.5532581   15.0216889   18.2964915
| 39>     H       17.3887205   13.4729726   19.8553032
| 40>     H       15.2179369   14.1531375   20.8832702
| 41>     H       13.7283026   15.7494876   21.0725864
| 42>     H       15.4022400   17.9247931   18.8264329
| 43> *
| 44>
| 45>                          ****END OF INPUT****

CARTESIAN COORDINATES (ANGSTROEM)
---------------------------------
  C     15.054761   14.466586   16.441927
  C     15.683273   15.026426   15.156086
  O     16.779029   15.895884   15.506599
  C     16.665000   17.222204   15.204134
  O     16.241854   17.582975   14.119322
  C     16.962139   18.134905   16.365657
  C     16.938602   19.483748   16.197535
  C     16.333213   20.258170   15.044310
  N     17.509537   20.339726   17.141910
  C     18.319915   19.930653   18.165008
  S     19.064157   21.005267   19.178438
  N     18.505995   18.577882   18.288871
  C     17.787402   17.542207   17.522916
  C     17.050359   16.573317   18.435859
  C     17.608089   15.318659   18.743218
  C     16.951296   14.442791   19.624325
  C     15.729389   14.826584   20.203384
  C     15.177531   16.080441   19.905911
  O     14.000242   16.455037   20.466467
  C     15.835240   16.951667   19.031795
  H     15.798184   13.914568   17.028338
  H     14.234724   13.780094   16.199692
  H     14.648256   15.275935   17.059304
  H     16.060402   14.195735   14.545826
  H     14.915979   15.551839   14.570700
  H     15.319498   19.899098   14.825489
  H     16.931916   20.126348   14.133862
  H     16.259257   21.334224   15.241003
  H     17.404360   21.336715   17.042204
  H     19.085667   18.303935   19.072056
  H     18.641277   17.044302   17.041770
  H     18.553258   15.021689   18.296491
  H     17.388721   13.472973   19.855303
  H     15.217937   14.153137   20.883270
  H     13.728303   15.749488   21.072586
  H     15.402240   17.924793   18.826433

 Total Charge           Charge          ....    0
 Multiplicity           Mult            ....    1
 Number of Electrons    NEL             ....  154
 Basis Dimension        Dim             ....  828

ORBITAL ENERGIES
----------------

  NO   OCC          E(Eh)            E(eV)
   0   2.0000     -91.890038     -2500.4551
   1   2.0000     -20.599887      -560.5514
   2   2.0000     -20.590778      -560.3035
   3   2.0000     -20.542729      -558.9961
   4   2.0000     -15.630575      -425.3296
   5   2.0000     -15.607887      -424.7122
   6   2.0000     -11.393204      -310.0248
   7   2.0000     -11.384301      -309.7826
   8   2.0000     -11.339408      -308.5610
   9   2.0000     -11.316954      -307.9500
  10   2.0000     -11.309558      -307.7487
  11   2.0000     -11.293617      -307.3149
  12   2.0000     -11.263620      -306.4987
  13   2.0000     -11.259830      -306.3956
  14   2.0000     -11.258139      -306.3495
  15   2.0000     -11.252576      -306.1982
  16   2.0000     -11.246583      -306.0351
  17   2.0000     -11.241164      -305.8876
  18   2.0000     -11.241118      -305.8864
  19   2.0000     -11.220003      -305.3118
  20   2.0000      -8.895091      -242.0477
  21   2.0000      -6.576659      -178.9600
  22   2.0000      -6.574665      -178.9057
  23   2.0000      -6.574070      -178.8896
  24   2.0000      -1.448501       -39.4157
  25   2.0000      -1.419566       -38.6283
  26   2.0000      -1.351793       -36.7842
  27   2.0000      -1.342108       -36.5206
  28   2.0000      -1.239978       -33.7415
  29   2.0000      -1.160173       -31.5699
  30   2.0000      -1.122078       -30.5333
  31   2.0000      -1.044796       -28.4303
  32   2.0000      -1.033884       -28.1334
  33   2.0000      -1.018161       -27.7056
  34   2.0000      -0.998084       -27.1592
  35   2.0000      -0.985929       -26.8285
  36   2.0000      -0.923633       -25.1333
  37   2.0000      -0.885923       -24.1072
  38   2.0000      -0.847828       -23.0706
  39   2.0000      -0.840647       -22.8752
  40   2.0000      -0.836759       -22.7694
  41   2.0000      -0.816670       -22.2227
  42   2.0000      -0.761578       -20.7236
  43   2.0000      -0.735795       -20.0220
  44   2.0000      -0.721424       -19.6309
  45   2.0000      -0.698195       -18.9988
  46   2.0000      -0.688555       -18.7365
  47   2.0000      -0.675804       -18.3895
  48   2.0000      -0.671775       -18.2799
  49   2.0000      -0.669012       -18.2047
  50   2.0000      -0.647005       -17.6059
  51   2.0000      -0.643243       -17.5035
  52   2.0000      -0.636909       -17.3312
  53   2.0000      -0.609972       -16.5982
  54   2.0000      -0.603810       -16.4305
  55   2.0000      -0.601676       -16.3724
  56   2.0000      -0.584648       -15.9091
  57   2.0000      -0.578398       -15.7390
  58   2.0000      -0.571481       -15.5508
  59   2.0000      -0.566824       -15.4241
  60   2.0000      -0.566218       -15.4076
  61   2.0000      -0.548603       -14.9282
  62   2.0000      -0.540249       -14.7009
  63   2.0000      -0.526709       -14.3325
  64   2.0000      -0.519796       -14.1444
  65   2.0000      -0.513406       -13.9705
  66   2.0000      -0.501937       -13.6584
  67   2.0000      -0.498070       -13.5532
  68   2.0000      -0.481787       -13.1101
  69   2.0000      -0.463249       -12.6056
  70   2.0000      -0.450631       -12.2623
  71   2.0000      -0.447756       -12.1841
  72   2.0000      -0.354070        -9.6347
  73   2.0000      -0.352609        -9.5950
  74   2.0000      -0.329325        -8.9614
  75   2.0000      -0.324291        -8.8244
  76   2.0000      -0.319694        -8.6993
  77   0.0000       0.073329         1.9954
  78   0.0000       0.100587         2.7371
  79   0.0000       0.122961         3.3459
  80   0.0000       0.130916         3.5624
  81   0.0000       0.133094         3.6217

MULLIKEN ATOMIC CHARGES
-----------------------
   0 C :   -0.301910
   1 C :    0.037901
   2 O :   -0.365027
   3 C :    0.454972
   4 O :   -0.419523
   5 C :   -0.263481
   6 C :    0.183617
   7 C :   -0.264590
   8 N :   -0.126747
   9 C :    0.211737
  10 S :   -0.440584
  11 N :   -0.217684
  12 C :    0.061479
  13 C :    0.051925
  14 C :   -0.180140
  15 C :   -0.143757
  16 C :   -0.263109
  17 C :    0.313604
  18 O :   -0.359763
  19 C :   -0.256933
  20 H :    0.102187
  21 H :    0.111527
  22 H :    0.104015
  23 H :    0.102318
  24 H :    0.100720
  25 H :    0.129739
  26 H :    0.132761
  27 H :    0.094134
  28 H :    0.200048
  29 H :    0.201589
  30 H :    0.152105
  31 H :    0.151134
  32 H :    0.165602
  33 H :    0.132704
  34 H :    0.241408
  35 H :    0.166022
Sum of atomic charges:   -0.0000000

LOEWDIN ATOMIC CHARGES
----------------------
   0 C :    0.103870
   1 C :   -0.013940
   2 O :    0.297261
   3 C :   -0.419777
   4 O :    0.104455
   5 C :   -0.100252
   6 C :   -0.053124
   7 C :    0.130800
   8 N :    0.408040
   9 C :   -0.456940
  10 S :   -0.034907
  11 N :    0.395025
  12 C :   -0.054346
  13 C :   -0.037767
  14 C :    0.017534
  15 C :    0.043215
  16 C :    0.000483
  17 C :   -0.190015
  18 O :    0.396034
  19 C :    0.032944
  20 H :   -0.028436
  21 H :   -0.027144
  22 H :   -0.028150
  23 H :   -0.028502
  24 H :   -0.028125
  25 H :   -0.005078
  26 H :   -0.004244
  27 H :   -0.023555
  28 H :   -0.056746
  29 H :   -0.064308
  30 H :   -0.012471
  31 H :   -0.029013
  32 H :   -0.020684
  33 H :   -0.034897
  34 H :   -0.153137
  35 H :   -0.024104

  Mayer bond orders larger than 0.100000
B(  0-C ,  1-C ) :   0.9717 B(  0-C , 20-H ) :   0.9723 B(  0-C , 21-H ) :   0.9787
B(  0-C , 22-H ) :   0.9732 B(  1-C ,  2-O ) :   0.8906 B(  1-C , 23-H ) :   0.9876
B(  1-C , 24-H ) :   0.9733 B(  2-O ,  3-C ) :   1.1340 B(  3-C ,  4-O ) :   1.9986
B(  3-C ,  5-C ) :   1.0713 B(  5-C ,  6-C ) :   1.6178 B(  5-C , 12-C ) :   0.9613
B(  6-C ,  7-C ) :   0.9658 B(  6-C ,  8-N ) :   1.1561 B(  7-C , 25-H ) :   0.9635
B(  7-C , 26-H ) :   0.9561 B(  7-C , 27-H ) :   0.9898 B(  8-N ,  9-C ) :   1.1859
B(  8-N , 28-H ) :   0.9467 B(  9-C , 10-S ) :   1.6052 B(  9-C , 11-N ) :   1.3115
B( 11-N , 12-C ) :   0.9576 B( 11-N , 29-H ) :   0.9483 B( 12-C , 13-C ) :   0.9634
B( 12-C , 30-H ) :   1.0035 B( 13-C , 14-C ) :   1.3487 B( 13-C , 19-C ) :   1.3681
B( 14-C , 15-C ) :   1.3892 B( 14-C , 31-H ) :   0.9739 B( 15-C , 16-C ) :   1.3562
B( 15-C , 32-H ) :   0.9704 B( 16-C , 17-C ) :   1.3330 B( 16-C , 33-H ) :   0.9843
B( 17-C , 18-O ) :   1.1033 B( 17-C , 19-C ) :   1.3622 B( 18-O , 34-H ) :   0.9791
B( 19-C , 35-H ) :   0.9611

MP2 TOTAL ENERGY:    -1274.334299279 Eh
FINAL SINGLE POINT ENERGY     -1274.334299278547

DIPOLE MOMENT
-------------
                                X             Y             Z
Electronic contribution:      8.04487      10.99608       5.58719
Nuclear contribution   :     -9.04123     -12.65543      -5.63872
                        -----------------------------------------
Total Dipole Moment    :     -0.99636      -1.65935      -0.05153
                        -----------------------------------------
Magnitude (a.u.)       :      1.93619
Magnitude (Debye)      :      4.92141

Rotational constants in cm-1:     0.012401     0.008645     0.006093
Rotational constants in MHz :   371.784304   259.159250   182.652883

                             ****ORCA TERMINATED NORMALLY****
TOTAL RUN TIME: 0 days 1 hours 41 minutes 51 seconds 484 msec
