                         Program Version 4.2.0 -  RELEASE  -
|  1> ! ri-mp2 cc-pvtz cc-pvtz/c TightSCF NoKeepInts
|  2>
|  3> %scf
|  4>   MaxCore 4096
|  5> end
|  6> *xyz  0  1
|  7>     C       14.7263651   15.3351538   16.3818190
|  8>     C       15.7825621   14.9938980   15.3145247
|  9>     O       17.0124106   15.7086871   15.5512934
| 10>     C       17.0530692   17.0181179   15.1772389
| 11>     O       16.9357959   17.3266312   14.0045716
| 12>     C       17.0532078   17.9843827   16.3323547
| 13>     C       16.8870140   19.3130708   16.1010448
| 14>     C       16.3208612   19.9639342   14.8555171
| 15>     N       17.2313588   20.2639274   17.0638916
| 16>     C       17.9736455   19.9949590   18.1808793
| 17>     S       18.4601604   21.1867158   19.2192141
| 18>     N       18.3163392   18.6822167   18.3807889
| 19>     C       17.8112421   17.5380229   17.5973182
| 20>     C       17.1223618   16.5051066   18.4775747
| 21>     C       17.6408987   15.2025034   18.5985346
| 22>     C       17.0282094   14.2669435   19.4494211
| 23>     C       15.8935987   14.6398356   20.1908428
| 24>     C       15.3807277   15.9397724   20.0786227
| 25>     O       14.2858228   16.3024593   20.7927593
| 26>     C       15.9914498   16.8681290   19.2294116
| 27>     H       15.0231501   14.9378371   17.3576110
| 28>     H       13.7634644   14.8806302   16.1195349
| 29>     H       14.5755813   16.4177640   16.4695258
| 30>     H       15.9803639   13.9148555   15.3487678
| 31>     H       15.3945032   15.2280582   14.3134466
| 32>     H       15.4497352   19.4081339   14.4862812
| 33>     H       17.0685901   19.9730900   14.0518803
| 34>     H       15.9960042   20.9974943   15.0237697
| 35>     H       17.0153840   21.2356184   16.9080059
| 36>     H       18.8451134   18.5098261   19.2266924
| 37>     H       18.7688040   17.1432743   17.2288450
| 38>     H       18.5187895   14.9136495   18.0263291
| 39>     H       17.4340629   13.2602287   19.5336808
| 40>     H       15.4181787   13.9210476   20.8502128
| 41>     H       14.0394354   15.5504670   21.3521428
| 42>     H       15.5887390   17.8735581   19.1636508
| 43> *
| 44>
| 45>                          ****END OF INPUT****

CARTESIAN COORDINATES (ANGSTROEM)
---------------------------------
  C     14.726365   15.335154   16.381819
  C     15.782562   14.993898   15.314525
  O     17.012411   15.708687   15.551293
  C     17.053069   17.018118   15.177239
  O     16.935796   17.326631   14.004572
  C     17.053208   17.984383   16.332355
  C     16.887014   19.313071   16.101045
  C     16.320861   19.963934   14.855517
  N     17.231359   20.263927   17.063892
  C     17.973645   19.994959   18.180879
  S     18.460160   21.186716   19.219214
  N     18.316339   18.682217   18.380789
  C     17.811242   17.538023   17.597318
  C     17.122362   16.505107   18.477575
  C     17.640899   15.202503   18.598535
  C     17.028209   14.266943   19.449421
  C     15.893599   14.639836   20.190843
  C     15.380728   15.939772   20.078623
  O     14.285823   16.302459   20.792759
  C     15.991450   16.868129   19.229412
  H     15.023150   14.937837   17.357611
  H     13.763464   14.880630   16.119535
  H     14.575581   16.417764   16.469526
  H     15.980364   13.914855   15.348768
  H     15.394503   15.228058   14.313447
  H     15.449735   19.408134   14.486281
  H     17.068590   19.973090   14.051880
  H     15.996004   20.997494   15.023770
  H     17.015384   21.235618   16.908006
  H     18.845113   18.509826   19.226692
  H     18.768804   17.143274   17.228845
  H     18.518790   14.913649   18.026329
  H     17.434063   13.260229   19.533681
  H     15.418179   13.921048   20.850213
  H     14.039435   15.550467   21.352143
  H     15.588739   17.873558   19.163651

 Total Charge           Charge          ....    0
 Multiplicity           Mult            ....    1
 Number of Electrons    NEL             ....  154
 Basis Dimension        Dim             ....  828

ORBITAL ENERGIES
----------------

  NO   OCC          E(Eh)            E(eV)
   0   2.0000     -91.891032     -2500.4821
   1   2.0000     -20.599152      -560.5314
   2   2.0000     -20.583873      -560.1157
   3   2.0000     -20.548526      -559.1538
   4   2.0000     -15.630987      -425.3408
   5   2.0000     -15.608966      -424.7416
   6   2.0000     -11.393124      -310.0227
   7   2.0000     -11.385184      -309.8066
   8   2.0000     -11.339055      -308.5514
   9   2.0000     -11.316422      -307.9355
  10   2.0000     -11.311561      -307.8032
  11   2.0000     -11.297606      -307.4235
  12   2.0000     -11.263236      -306.4882
  13   2.0000     -11.259671      -306.3912
  14   2.0000     -11.257867      -306.3421
  15   2.0000     -11.253862      -306.2331
  16   2.0000     -11.246978      -306.0458
  17   2.0000     -11.241464      -305.8958
  18   2.0000     -11.241139      -305.8870
  19   2.0000     -11.222407      -305.3772
  20   2.0000      -8.896073      -242.0744
  21   2.0000      -6.577637      -178.9866
  22   2.0000      -6.575648      -178.9325
  23   2.0000      -6.575048      -178.9162
  24   2.0000      -1.448908       -39.4268
  25   2.0000      -1.418927       -38.6110
  26   2.0000      -1.353292       -36.8250
  27   2.0000      -1.342834       -36.5404
  28   2.0000      -1.240799       -33.7638
  29   2.0000      -1.160074       -31.5672
  30   2.0000      -1.122632       -30.5484
  31   2.0000      -1.045193       -28.4411
  32   2.0000      -1.032273       -28.0896
  33   2.0000      -1.017736       -27.6940
  34   2.0000      -1.000197       -27.2167
  35   2.0000      -0.987442       -26.8697
  36   2.0000      -0.924356       -25.1530
  37   2.0000      -0.891157       -24.2496
  38   2.0000      -0.848541       -23.0900
  39   2.0000      -0.841058       -22.8864
  40   2.0000      -0.837020       -22.7765
  41   2.0000      -0.817913       -22.2565
  42   2.0000      -0.755881       -20.5686
  43   2.0000      -0.735914       -20.0252
  44   2.0000      -0.723848       -19.6969
  45   2.0000      -0.697764       -18.9871
  46   2.0000      -0.689949       -18.7745
  47   2.0000      -0.675277       -18.3752
  48   2.0000      -0.671647       -18.2764
  49   2.0000      -0.668655       -18.1950
  50   2.0000      -0.647724       -17.6255
  51   2.0000      -0.645475       -17.5643
  52   2.0000      -0.636683       -17.3250
  53   2.0000      -0.609687       -16.5904
  54   2.0000      -0.605804       -16.4848
  55   2.0000      -0.601400       -16.3649
  56   2.0000      -0.596348       -16.2275
  57   2.0000      -0.578947       -15.7539
  58   2.0000      -0.572608       -15.5814
  59   2.0000      -0.566344       -15.4110
  60   2.0000      -0.563548       -15.3349
  61   2.0000      -0.548100       -14.9146
  62   2.0000      -0.542185       -14.7536
  63   2.0000      -0.525458       -14.2984
  64   2.0000      -0.519848       -14.1458
  65   2.0000      -0.514660       -14.0046
  66   2.0000      -0.504822       -13.7369
  67   2.0000      -0.501268       -13.6402
  68   2.0000      -0.476712       -12.9720
  69   2.0000      -0.464038       -12.6271
  70   2.0000      -0.451895       -12.2967
  71   2.0000      -0.448546       -12.2056
  72   2.0000      -0.355597        -9.6763
  73   2.0000      -0.351004        -9.5513
  74   2.0000      -0.329981        -8.9792
  75   2.0000      -0.324461        -8.8290
  76   2.0000      -0.320624        -8.7246
  77   0.0000       0.070918         1.9298
  78   0.0000       0.102043         2.7767
  79   0.0000       0.121025         3.2933
  80   0.0000       0.130013         3.5378
  81   0.0000       0.132797         3.6136

MULLIKEN ATOMIC CHARGES
-----------------------
   0 C :   -0.317375
   1 C :    0.037309
   2 O :   -0.377321
   3 C :    0.466585
   4 O :   -0.401142
   5 C :   -0.235558
   6 C :    0.158295
   7 C :   -0.268148
   8 N :   -0.125954
   9 C :    0.206785
  10 S :   -0.437083
  11 N :   -0.209397
  12 C :    0.035907
  13 C :    0.025600
  14 C :   -0.181057
  15 C :   -0.131346
  16 C :   -0.276920
  17 C :    0.306622
  18 O :   -0.358818
  19 C :   -0.228247
  20 H :    0.110406
  21 H :    0.117161
  22 H :    0.097525
  23 H :    0.109428
  24 H :    0.111103
  25 H :    0.124782
  26 H :    0.136229
  27 H :    0.094295
  28 H :    0.200155
  29 H :    0.199893
  30 H :    0.152422
  31 H :    0.156300
  32 H :    0.162770
  33 H :    0.132317
  34 H :    0.240953
  35 H :    0.165523
Sum of atomic charges:   -0.0000000

LOEWDIN ATOMIC CHARGES
----------------------
   0 C :    0.104702
   1 C :   -0.018509
   2 O :    0.292095
   3 C :   -0.422375
   4 O :    0.117767
   5 C :   -0.102339
   6 C :   -0.056187
   7 C :    0.130083
   8 N :    0.407951
   9 C :   -0.458698
  10 S :   -0.033001
  11 N :    0.395972
  12 C :   -0.053254
  13 C :   -0.041567
  14 C :    0.019662
  15 C :    0.038760
  16 C :   -0.001601
  17 C :   -0.192419
  18 O :    0.396170
  19 C :    0.035392
  20 H :   -0.025901
  21 H :   -0.025904
  22 H :   -0.031625
  23 H :   -0.022737
  24 H :   -0.028468
  25 H :   -0.006359
  26 H :   -0.004243
  27 H :   -0.023038
  28 H :   -0.056585
  29 H :   -0.063298
  30 H :   -0.011898
  31 H :   -0.027151
  32 H :   -0.020392
  33 H :   -0.034865
  34 H :   -0.153426
  35 H :   -0.022715

  Mayer bond orders larger than 0.100000
B(  0-C ,  1-C ) :   0.9587 B(  0-C , 20-H ) :   0.9731 B(  0-C , 21-H ) :   0.9779
B(  0-C , 22-H ) :   0.9717 B(  1-C ,  2-O ) :   0.8893 B(  1-C , 23-H ) :   0.9855
B(  1-C , 24-H ) :   0.9814 B(  2-O ,  3-C ) :   1.1081 B(  3-C ,  4-O ) :   2.0368
B(  3-C ,  5-C ) :   1.0469 B(  5-C ,  6-C ) :   1.6363 B(  5-C , 12-C ) :   0.9624
B(  6-C ,  7-C ) :   0.9664 B(  6-C ,  8-N ) :   1.1499 B(  7-C , 25-H ) :   0.9671
B(  7-C , 26-H ) :   0.9553 B(  7-C , 27-H ) :   0.9878 B(  8-N ,  9-C ) :   1.1852
B(  8-N , 28-H ) :   0.9472 B(  9-C , 10-S ) :   1.6147 B(  9-C , 11-N ) :   1.3024
B( 11-N , 12-C ) :   0.9762 B( 11-N , 29-H ) :   0.9484 B( 12-C , 13-C ) :   0.9561
B( 12-C , 30-H ) :   1.0045 B( 13-C , 14-C ) :   1.3622 B( 13-C , 19-C ) :   1.3665
B( 14-C , 15-C ) :   1.3928 B( 14-C , 31-H ) :   0.9689 B( 15-C , 16-C ) :   1.3547
B( 15-C , 32-H ) :   0.9708 B( 16-C , 17-C ) :   1.3349 B( 16-C , 33-H ) :   0.9848
B( 17-C , 18-O ) :   1.1069 B( 17-C , 19-C ) :   1.3634 B( 18-O , 34-H ) :   0.9795
B( 19-C , 35-H ) :   0.9605

MP2 TOTAL ENERGY:    -1274.325705987 Eh
FINAL SINGLE POINT ENERGY     -1274.325705986541

DIPOLE MOMENT
-------------
                                X             Y             Z
Electronic contribution:      8.59358       9.43969       6.00794
Nuclear contribution   :     -9.65433     -11.11167      -6.08396
                        -----------------------------------------
Total Dipole Moment    :     -1.06075      -1.67198      -0.07602
                        -----------------------------------------
Magnitude (a.u.)       :      1.98154
Magnitude (Debye)      :      5.03668

Rotational constants in cm-1:     0.012115     0.009127     0.006175
Rotational constants in MHz :   363.195944   273.606780   185.132534

                             ****ORCA TERMINATED NORMALLY****
TOTAL RUN TIME: 0 days 1 hours 46 minutes 45 seconds 503 msec
