                         Program Version 4.2.0 -  RELEASE  -
|  1> ! ri-mp2 cc-pvtz cc-pvtz/c TightSCF NoKeepInts
|  2>
|  3> %scf
|  4>   MaxCore 4096
|  5> end
|  6> *xyz  0  1
|  7>     C       14.5723086   15.5552254   13.1951550
|  8>     C       14.8468292   15.3693905   14.6969426
|  9>     O       15.6459839   16.4873740   15.1247469
| 10>     C       16.6315710   16.3099619   16.0530471
| 11>     O       17.0900328   15.2112544   16.3195873
| 12>     C       17.0202962   17.5520107   16.8059642
| 13>     C       16.9403931   18.7977188   16.2659620
| 14>     C       16.2632093   19.2158172   14.9751296
| 15>     N       17.5633340   19.8845210   16.8852072
| 16>     C       18.4621214   19.7815012   17.9121308
| 17>     S       19.2462421   21.1039515   18.5219439
| 18>     N       18.6953174   18.5184958   18.3932225
| 19>     C       17.9521265   17.3057263   18.0001459
| 20>     C       17.2700302   16.6150808   19.1738587
| 21>     C       17.5306138   15.2630469   19.4609558
| 22>     C       16.9029862   14.6290337   20.5463789
| 23>     C       16.0083569   15.3538596   21.3523917
| 24>     C       15.7456017   16.7009191   21.0673408
| 25>     O       14.8793978   17.4020056   21.8416433
| 26>     C       16.3715035   17.3289919   19.9858117
| 27>     H       14.0360142   16.4946237   13.0124388
| 28>     H       13.9605695   14.7297036   12.8113199
| 29>     H       15.5128744   15.5761843   12.6305643
| 30>     H       13.9077705   15.3320262   15.2642107
| 31>     H       15.3742348   14.4158322   14.8361650
| 32>     H       15.1828485   19.0312925   15.0267569
| 33>     H       16.6633550   18.6509217   14.1238193
| 34>     H       16.4003410   20.2796962   14.7463998
| 35>     H       17.4190079   20.8155357   16.5285797
| 36>     H       19.3456542   18.4720888   19.1674728
| 37>     H       18.7765324   16.6887097   17.6139596
| 38>     H       18.2109180   14.6980531   18.8280548
| 39>     H       17.1072633   13.5803858   20.7547171
| 40>     H       15.5203886   14.8676805   22.1904919
| 41>     H       14.5724019   16.8082555   22.5430314
| 42>     H       16.1585699   18.3731240   19.7824520
| 43> *
| 44>
| 45>                          ****END OF INPUT****

CARTESIAN COORDINATES (ANGSTROEM)
---------------------------------
  C     14.572309   15.555225   13.195155
  C     14.846829   15.369390   14.696943
  O     15.645984   16.487374   15.124747
  C     16.631571   16.309962   16.053047
  O     17.090033   15.211254   16.319587
  C     17.020296   17.552011   16.805964
  C     16.940393   18.797719   16.265962
  C     16.263209   19.215817   14.975130
  N     17.563334   19.884521   16.885207
  C     18.462121   19.781501   17.912131
  S     19.246242   21.103952   18.521944
  N     18.695317   18.518496   18.393223
  C     17.952126   17.305726   18.000146
  C     17.270030   16.615081   19.173859
  C     17.530614   15.263047   19.460956
  C     16.902986   14.629034   20.546379
  C     16.008357   15.353860   21.352392
  C     15.745602   16.700919   21.067341
  O     14.879398   17.402006   21.841643
  C     16.371503   17.328992   19.985812
  H     14.036014   16.494624   13.012439
  H     13.960570   14.729704   12.811320
  H     15.512874   15.576184   12.630564
  H     13.907770   15.332026   15.264211
  H     15.374235   14.415832   14.836165
  H     15.182849   19.031292   15.026757
  H     16.663355   18.650922   14.123819
  H     16.400341   20.279696   14.746400
  H     17.419008   20.815536   16.528580
  H     19.345654   18.472089   19.167473
  H     18.776532   16.688710   17.613960
  H     18.210918   14.698053   18.828055
  H     17.107263   13.580386   20.754717
  H     15.520389   14.867680   22.190492
  H     14.572402   16.808256   22.543031
  H     16.158570   18.373124   19.782452

 Total Charge           Charge          ....    0
 Multiplicity           Mult            ....    1
 Number of Electrons    NEL             ....  154
 Basis Dimension        Dim             ....  828

ORBITAL ENERGIES
----------------

  NO   OCC          E(Eh)            E(eV)
   0   2.0000     -91.887755     -2500.3929
   1   2.0000     -20.603020      -560.6367
   2   2.0000     -20.591183      -560.3146
   3   2.0000     -20.545250      -559.0647
   4   2.0000     -15.628302      -425.2677
   5   2.0000     -15.605358      -424.6434
   6   2.0000     -11.396012      -310.1013
   7   2.0000     -11.382257      -309.7270
   8   2.0000     -11.338022      -308.5233
   9   2.0000     -11.307123      -307.6824
  10   2.0000     -11.303832      -307.5929
  11   2.0000     -11.298921      -307.4593
  12   2.0000     -11.260795      -306.4218
  13   2.0000     -11.258986      -306.3726
  14   2.0000     -11.254391      -306.2476
  15   2.0000     -11.247186      -306.0515
  16   2.0000     -11.237413      -305.7856
  17   2.0000     -11.233798      -305.6872
  18   2.0000     -11.233533      -305.6800
  19   2.0000     -11.230282      -305.5915
  20   2.0000      -8.892841      -241.9865
  21   2.0000      -6.574419      -178.8990
  22   2.0000      -6.572415      -178.8445
  23   2.0000      -6.571828      -178.8285
  24   2.0000      -1.453793       -39.5597
  25   2.0000      -1.410926       -38.3932
  26   2.0000      -1.357469       -36.9386
  27   2.0000      -1.339640       -36.4535
  28   2.0000      -1.236756       -33.6538
  29   2.0000      -1.151796       -31.3420
  30   2.0000      -1.120446       -30.4889
  31   2.0000      -1.044842       -28.4316
  32   2.0000      -1.036626       -28.2080
  33   2.0000      -1.009329       -27.4652
  34   2.0000      -0.998380       -27.1673
  35   2.0000      -0.983487       -26.7620
  36   2.0000      -0.920263       -25.0416
  37   2.0000      -0.888567       -24.1791
  38   2.0000      -0.846925       -23.0460
  39   2.0000      -0.834404       -22.7053
  40   2.0000      -0.827416       -22.5151
  41   2.0000      -0.818617       -22.2757
  42   2.0000      -0.762021       -20.7357
  43   2.0000      -0.736082       -20.0298
  44   2.0000      -0.725663       -19.7463
  45   2.0000      -0.689464       -18.7613
  46   2.0000      -0.684712       -18.6320
  47   2.0000      -0.680054       -18.5052
  48   2.0000      -0.674526       -18.3548
  49   2.0000      -0.653593       -17.7852
  50   2.0000      -0.651962       -17.7408
  51   2.0000      -0.639603       -17.4045
  52   2.0000      -0.631181       -17.1753
  53   2.0000      -0.609565       -16.5871
  54   2.0000      -0.602802       -16.4031
  55   2.0000      -0.597815       -16.2674
  56   2.0000      -0.594473       -16.1764
  57   2.0000      -0.579531       -15.7698
  58   2.0000      -0.572504       -15.5786
  59   2.0000      -0.563147       -15.3240
  60   2.0000      -0.562127       -15.2962
  61   2.0000      -0.546013       -14.8578
  62   2.0000      -0.542118       -14.7518
  63   2.0000      -0.529841       -14.4177
  64   2.0000      -0.515297       -14.0219
  65   2.0000      -0.508339       -13.8326
  66   2.0000      -0.499600       -13.5948
  67   2.0000      -0.493521       -13.4294
  68   2.0000      -0.481313       -13.0972
  69   2.0000      -0.463373       -12.6090
  70   2.0000      -0.462006       -12.5718
  71   2.0000      -0.451315       -12.2809
  72   2.0000      -0.352918        -9.6034
  73   2.0000      -0.343959        -9.3596
  74   2.0000      -0.326830        -8.8935
  75   2.0000      -0.316933        -8.6242
  76   2.0000      -0.313750        -8.5376
  77   0.0000       0.077230         2.1015
  78   0.0000       0.112237         3.0541
  79   0.0000       0.120861         3.2888
  80   0.0000       0.135804         3.6954
  81   0.0000       0.138739         3.7753

MULLIKEN ATOMIC CHARGES
-----------------------
   0 C :   -0.269054
   1 C :    0.023407
   2 O :   -0.345051
   3 C :    0.432906
   4 O :   -0.422949
   5 C :   -0.177936
   6 C :    0.157730
   7 C :   -0.284856
   8 N :   -0.128993
   9 C :    0.207628
  10 S :   -0.442809
  11 N :   -0.210724
  12 C :    0.040573
  13 C :    0.032173
  14 C :   -0.166523
  15 C :   -0.134265
  16 C :   -0.277004
  17 C :    0.314177
  18 O :   -0.359186
  19 C :   -0.250770
  20 H :    0.091311
  21 H :    0.096628
  22 H :    0.097626
  23 H :    0.095521
  24 H :    0.119123
  25 H :    0.129513
  26 H :    0.125156
  27 H :    0.103705
  28 H :    0.198763
  29 H :    0.199971
  30 H :    0.155201
  31 H :    0.158426
  32 H :    0.159651
  33 H :    0.127983
  34 H :    0.239844
  35 H :    0.163107
Sum of atomic charges:   -0.0000000

LOEWDIN ATOMIC CHARGES
----------------------
   0 C :    0.104782
   1 C :   -0.011859
   2 O :    0.306048
   3 C :   -0.414454
   4 O :    0.104307
   5 C :   -0.091438
   6 C :   -0.064286
   7 C :    0.124867
   8 N :    0.405395
   9 C :   -0.458721
  10 S :   -0.037940
  11 N :    0.396503
  12 C :   -0.048302
  13 C :   -0.040456
  14 C :    0.025121
  15 C :    0.040992
  16 C :   -0.001160
  17 C :   -0.192492
  18 O :    0.393006
  19 C :    0.029722
  20 H :   -0.030170
  21 H :   -0.024283
  22 H :   -0.025994
  23 H :   -0.030683
  24 H :   -0.027257
  25 H :   -0.009728
  26 H :   -0.009707
  27 H :   -0.021204
  28 H :   -0.058814
  29 H :   -0.063084
  30 H :   -0.008378
  31 H :   -0.024065
  32 H :   -0.021139
  33 H :   -0.036238
  34 H :   -0.154953
  35 H :   -0.023937

  Mayer bond orders larger than 0.100000
B(  0-C ,  1-C ) :   0.9732 B(  0-C , 20-H ) :   0.9794 B(  0-C , 21-H ) :   0.9769
B(  0-C , 22-H ) :   0.9778 B(  1-C ,  2-O ) :   0.8933 B(  1-C , 23-H ) :   0.9779
B(  1-C , 24-H ) :   0.9743 B(  2-O ,  3-C ) :   1.1468 B(  3-C ,  4-O ) :   1.9906
B(  3-C ,  5-C ) :   1.0419 B(  5-C ,  6-C ) :   1.6552 B(  5-C , 12-C ) :   0.9489
B(  6-C ,  7-C ) :   0.9533 B(  6-C ,  8-N ) :   1.1351 B(  7-C , 25-H ) :   0.9632
B(  7-C , 26-H ) :   0.9654 B(  7-C , 27-H ) :   0.9921 B(  8-N ,  9-C ) :   1.1852
B(  8-N , 28-H ) :   0.9469 B(  9-C , 10-S ) :   1.6077 B(  9-C , 11-N ) :   1.3067
B( 11-N , 12-C ) :   0.9763 B( 11-N , 29-H ) :   0.9485 B( 12-C , 13-C ) :   0.9745
B( 12-C , 30-H ) :   0.9971 B( 13-C , 14-C ) :   1.3765 B( 13-C , 19-C ) :   1.3660
B( 14-C , 15-C ) :   1.3974 B( 14-C , 31-H ) :   0.9639 B( 15-C , 16-C ) :   1.3587
B( 15-C , 32-H ) :   0.9713 B( 16-C , 17-C ) :   1.3333 B( 16-C , 33-H ) :   0.9861
B( 17-C , 18-O ) :   1.1032 B( 17-C , 19-C ) :   1.3677 B( 18-O , 34-H ) :   0.9807
B( 19-C , 35-H ) :   0.9602

MP2 TOTAL ENERGY:    -1274.339639403 Eh
FINAL SINGLE POINT ENERGY     -1274.339639403090

DIPOLE MOMENT
-------------
                                X             Y             Z
Electronic contribution:      9.97525       8.71269      13.31338
Nuclear contribution   :    -11.53879      -9.95048     -14.31064
                        -----------------------------------------
Total Dipole Moment    :     -1.56354      -1.23779      -0.99726
                        -----------------------------------------
Magnitude (a.u.)       :      2.22964
Magnitude (Debye)      :      5.66730

Rotational constants in cm-1:     0.010011     0.008606     0.005394
Rotational constants in MHz :   300.123613   258.000457   161.704363

                             ****ORCA TERMINATED NORMALLY****
TOTAL RUN TIME: 0 days 1 hours 42 minutes 0 seconds 545 msec
