                         Program Version 4.2.0 -  RELEASE  -
|  1> ! ri-mp2 cc-pvtz cc-pvtz/c TightSCF NoKeepInts
|  2>
|  3> %scf
|  4>   MaxCore 4096
|  5> end
|  6> *xyz  0  1
|  7>     C       15.4253708   14.0016002   14.9470144
|  8>     C       14.8725113   15.3555650   15.4220193
|  9>     O       15.9993836   16.2046889   15.6943995
| 10>     C       15.8470419   17.5603597   15.6308785
| 11>     O       15.0271450   18.0858904   14.8973786
| 12>     C       16.7137870   18.2866173   16.6244820
| 13>     C       16.8925406   19.6299854   16.5396066
| 14>     C       16.1126813   20.6051023   15.6819529
| 15>     N       17.8904700   20.2713235   17.2770459
| 16>     C       18.8726984   19.6243021   17.9768305
| 17>     S       20.0819167   20.4449140   18.7514847
| 18>     N       18.8149422   18.2536655   17.9849848
| 19>     C       17.7225316   17.4396526   17.4191678
| 20>     C       17.0845210   16.5165845   18.4494204
| 21>     C       17.2760959   15.1243047   18.3800346
| 22>     C       16.6833251   14.2742636   19.3287775
| 23>     C       15.8965431   14.8218657   20.3567129
| 24>     C       15.7085969   16.2091551   20.4304362
| 25>     O       14.9501706   16.7403540   21.4221872
| 26>     C       16.2989252   17.0524058   19.4838760
| 27>     H       14.6049995   13.3119144   14.7142489
| 28>     H       16.0485065   13.5445696   15.7255798
| 29>     H       16.0344566   14.1285808   14.0433083
| 30>     H       14.2439323   15.7746759   14.6243037
| 31>     H       14.2589092   15.2331412   16.3242734
| 32>     H       15.0355227   20.5071568   15.8687293
| 33>     H       16.2801815   20.4031040   14.6163103
| 34>     H       16.3817825   21.6516998   15.8668791
| 35>     H       17.9572234   21.2764581   17.2609509
| 36>     H       19.5351473   17.8051315   18.5368554
| 37>     H       18.2788953   16.8582276   16.6702247
| 38>     H       17.8793825   14.7003126   17.5816662
| 39>     H       16.8345344   13.1980448   19.2660728
| 40>     H       15.4372918   14.1697519   21.0923461
| 41>     H       14.6577035   16.0105751   21.9885290
| 42>     H       16.1473325   18.1240557   19.5590317
| 43> *
| 44>
| 45>                          ****END OF INPUT****

CARTESIAN COORDINATES (ANGSTROEM)
---------------------------------
  C     15.425371   14.001600   14.947014
  C     14.872511   15.355565   15.422019
  O     15.999384   16.204689   15.694399
  C     15.847042   17.560360   15.630878
  O     15.027145   18.085890   14.897379
  C     16.713787   18.286617   16.624482
  C     16.892541   19.629985   16.539607
  C     16.112681   20.605102   15.681953
  N     17.890470   20.271324   17.277046
  C     18.872698   19.624302   17.976830
  S     20.081917   20.444914   18.751485
  N     18.814942   18.253666   17.984985
  C     17.722532   17.439653   17.419168
  C     17.084521   16.516585   18.449420
  C     17.276096   15.124305   18.380035
  C     16.683325   14.274264   19.328778
  C     15.896543   14.821866   20.356713
  C     15.708597   16.209155   20.430436
  O     14.950171   16.740354   21.422187
  C     16.298925   17.052406   19.483876
  H     14.604999   13.311914   14.714249
  H     16.048506   13.544570   15.725580
  H     16.034457   14.128581   14.043308
  H     14.243932   15.774676   14.624304
  H     14.258909   15.233141   16.324273
  H     15.035523   20.507157   15.868729
  H     16.280182   20.403104   14.616310
  H     16.381782   21.651700   15.866879
  H     17.957223   21.276458   17.260951
  H     19.535147   17.805132   18.536855
  H     18.278895   16.858228   16.670225
  H     17.879382   14.700313   17.581666
  H     16.834534   13.198045   19.266073
  H     15.437292   14.169752   21.092346
  H     14.657704   16.010575   21.988529
  H     16.147333   18.124056   19.559032

 Total Charge           Charge          ....    0
 Multiplicity           Mult            ....    1
 Number of Electrons    NEL             ....  154
 Basis Dimension        Dim             ....  828

ORBITAL ENERGIES
----------------

  NO   OCC          E(Eh)            E(eV)
   0   2.0000     -91.889324     -2500.4356
   1   2.0000     -20.597347      -560.4823
   2   2.0000     -20.597030      -560.4737
   3   2.0000     -20.541861      -558.9725
   4   2.0000     -15.629694      -425.3056
   5   2.0000     -15.607455      -424.7004
   6   2.0000     -11.393928      -310.0445
   7   2.0000     -11.383977      -309.7738
   8   2.0000     -11.337742      -308.5156
   9   2.0000     -11.314668      -307.8878
  10   2.0000     -11.308021      -307.7069
  11   2.0000     -11.294846      -307.3484
  12   2.0000     -11.261676      -306.4458
  13   2.0000     -11.258718      -306.3653
  14   2.0000     -11.256145      -306.2953
  15   2.0000     -11.251894      -306.1796
  16   2.0000     -11.244536      -305.9794
  17   2.0000     -11.239898      -305.8532
  18   2.0000     -11.239582      -305.8446
  19   2.0000     -11.229612      -305.5733
  20   2.0000      -8.894388      -242.0286
  21   2.0000      -6.575959      -178.9409
  22   2.0000      -6.573963      -178.8866
  23   2.0000      -6.573371      -178.8705
  24   2.0000      -1.450840       -39.4794
  25   2.0000      -1.417020       -38.5591
  26   2.0000      -1.354184       -36.8492
  27   2.0000      -1.340766       -36.4841
  28   2.0000      -1.238670       -33.7059
  29   2.0000      -1.158444       -31.5229
  30   2.0000      -1.121478       -30.5170
  31   2.0000      -1.043697       -28.4004
  32   2.0000      -1.039526       -28.2869
  33   2.0000      -1.016031       -27.6476
  34   2.0000      -0.996674       -27.1209
  35   2.0000      -0.985121       -26.8065
  36   2.0000      -0.922331       -25.0979
  37   2.0000      -0.886405       -24.1203
  38   2.0000      -0.846737       -23.0409
  39   2.0000      -0.838570       -22.8187
  40   2.0000      -0.835065       -22.7233
  41   2.0000      -0.819451       -22.2984
  42   2.0000      -0.764785       -20.8108
  43   2.0000      -0.734388       -19.9837
  44   2.0000      -0.721885       -19.6435
  45   2.0000      -0.696011       -18.9394
  46   2.0000      -0.687174       -18.6989
  47   2.0000      -0.678960       -18.4754
  48   2.0000      -0.675786       -18.3891
  49   2.0000      -0.659319       -17.9410
  50   2.0000      -0.647760       -17.6264
  51   2.0000      -0.640588       -17.4313
  52   2.0000      -0.632600       -17.2139
  53   2.0000      -0.608956       -16.5705
  54   2.0000      -0.607300       -16.5255
  55   2.0000      -0.600833       -16.3495
  56   2.0000      -0.599493       -16.3130
  57   2.0000      -0.578122       -15.7315
  58   2.0000      -0.570126       -15.5139
  59   2.0000      -0.565567       -15.3898
  60   2.0000      -0.560751       -15.2588
  61   2.0000      -0.542259       -14.7556
  62   2.0000      -0.540270       -14.7015
  63   2.0000      -0.525251       -14.2928
  64   2.0000      -0.524882       -14.2828
  65   2.0000      -0.513684       -13.9781
  66   2.0000      -0.502205       -13.6657
  67   2.0000      -0.497282       -13.5317
  68   2.0000      -0.485776       -13.2186
  69   2.0000      -0.465044       -12.6545
  70   2.0000      -0.457796       -12.4573
  71   2.0000      -0.445985       -12.1359
  72   2.0000      -0.353362        -9.6155
  73   2.0000      -0.350654        -9.5418
  74   2.0000      -0.328475        -8.9383
  75   2.0000      -0.322021        -8.7626
  76   2.0000      -0.318533        -8.6677
  77   0.0000       0.075335         2.0500
  78   0.0000       0.103407         2.8139
  79   0.0000       0.125045         3.4026
  80   0.0000       0.131909         3.5894
  81   0.0000       0.135880         3.6975

MULLIKEN ATOMIC CHARGES
-----------------------
   0 C :   -0.267043
   1 C :    0.017926
   2 O :   -0.352829
   3 C :    0.450061
   4 O :   -0.430683
   5 C :   -0.237081
   6 C :    0.172455
   7 C :   -0.267729
   8 N :   -0.125966
   9 C :    0.210188
  10 S :   -0.440996
  11 N :   -0.215409
  12 C :    0.062370
  13 C :    0.038085
  14 C :   -0.185145
  15 C :   -0.131437
  16 C :   -0.276684
  17 C :    0.315769
  18 O :   -0.356433
  19 C :   -0.248752
  20 H :    0.092460
  21 H :    0.089996
  22 H :    0.098321
  23 H :    0.125656
  24 H :    0.099860
  25 H :    0.133879
  26 H :    0.129250
  27 H :    0.094551
  28 H :    0.199847
  29 H :    0.200549
  30 H :    0.152767
  31 H :    0.156177
  32 H :    0.161239
  33 H :    0.130778
  34 H :    0.240673
  35 H :    0.163329
Sum of atomic charges:   -0.0000000

LOEWDIN ATOMIC CHARGES
----------------------
   0 C :    0.106568
   1 C :   -0.015236
   2 O :    0.307952
   3 C :   -0.415324
   4 O :    0.098643
   5 C :   -0.096790
   6 C :   -0.055745
   7 C :    0.131454
   8 N :    0.407324
   9 C :   -0.456489
  10 S :   -0.035849
  11 N :    0.394576
  12 C :   -0.054632
  13 C :   -0.039547
  14 C :    0.017265
  15 C :    0.038413
  16 C :   -0.000867
  17 C :   -0.189857
  18 O :    0.395210
  19 C :    0.033045
  20 H :   -0.025063
  21 H :   -0.031282
  22 H :   -0.025724
  23 H :   -0.027477
  24 H :   -0.030401
  25 H :   -0.004126
  26 H :   -0.004827
  27 H :   -0.023623
  28 H :   -0.057077
  29 H :   -0.064340
  30 H :   -0.013311
  31 H :   -0.029804
  32 H :   -0.021377
  33 H :   -0.035293
  34 H :   -0.153846
  35 H :   -0.022544

  Mayer bond orders larger than 0.100000
B(  0-C ,  1-C ) :   0.9739 B(  0-C , 20-H ) :   0.9771 B(  0-C , 21-H ) :   0.9791
B(  0-C , 22-H ) :   0.9776 B(  1-C ,  2-O ) :   0.8881 B(  1-C , 23-H ) :   0.9778
B(  1-C , 24-H ) :   0.9726 B(  2-O ,  3-C ) :   1.1505 B(  3-C ,  4-O ) :   1.9817
B(  3-C ,  5-C ) :   1.0650 B(  5-C ,  6-C ) :   1.6357 B(  5-C , 12-C ) :   0.9564
B(  6-C ,  7-C ) :   0.9655 B(  6-C ,  8-N ) :   1.1543 B(  7-C , 25-H ) :   0.9608
B(  7-C , 26-H ) :   0.9589 B(  7-C , 27-H ) :   0.9905 B(  8-N ,  9-C ) :   1.1869
B(  8-N , 28-H ) :   0.9464 B(  9-C , 10-S ) :   1.6071 B(  9-C , 11-N ) :   1.3090
B( 11-N , 12-C ) :   0.9688 B( 11-N , 29-H ) :   0.9484 B( 12-C , 13-C ) :   0.9611
B( 12-C , 30-H ) :   1.0013 B( 13-C , 14-C ) :   1.3584 B( 13-C , 19-C ) :   1.3798
B( 14-C , 15-C ) :   1.3898 B( 14-C , 31-H ) :   0.9699 B( 15-C , 16-C ) :   1.3607
B( 15-C , 32-H ) :   0.9702 B( 16-C , 17-C ) :   1.3341 B( 16-C , 33-H ) :   0.9848
B( 17-C , 18-O ) :   1.1052 B( 17-C , 19-C ) :   1.3647 B( 18-O , 34-H ) :   0.9797
B( 19-C , 35-H ) :   0.9595

MP2 TOTAL ENERGY:    -1274.340824745 Eh
FINAL SINGLE POINT ENERGY     -1274.340824744978

DIPOLE MOMENT
-------------
                                X             Y             Z
Electronic contribution:      8.76017      11.21307       8.24830
Nuclear contribution   :     -9.94963     -12.81483      -8.47600
                        -----------------------------------------
Total Dipole Moment    :     -1.18946      -1.60176      -0.22770
                        -----------------------------------------
Magnitude (a.u.)       :      2.00806
Magnitude (Debye)      :      5.10408

Rotational constants in cm-1:     0.011501     0.008377     0.005924
Rotational constants in MHz :   344.797399   251.125008   177.611806

                             ****ORCA TERMINATED NORMALLY****
TOTAL RUN TIME: 0 days 1 hours 39 minutes 24 seconds 315 msec
