                         Program Version 4.2.0 -  RELEASE  -
|  1> ! ri-mp2 cc-pvtz cc-pvtz/c TightSCF NoKeepInts
|  2>
|  3> %scf
|  4>   MaxCore 4096
|  5> end
|  6> *xyz  0  1
|  7>     C       14.0118273   15.2031812   15.4752761
|  8>     C       15.1988773   15.8216662   16.2311361
|  9>     O       16.2723537   15.9666970   15.2814941
| 10>     C       17.1266754   17.0378954   15.2460464
| 11>     O       17.8534518   17.2335135   14.2900935
| 12>     C       17.1003944   17.9606066   16.4197982
| 13>     C       16.8871723   19.2737078   16.1774679
| 14>     C       16.2943200   19.8438140   14.9071349
| 15>     N       17.2363635   20.2508749   17.1106941
| 16>     C       18.0297543   20.0136335   18.2019827
| 17>     S       18.5094980   21.2284915   19.2161055
| 18>     N       18.4270497   18.7132390   18.3988653
| 19>     C       17.9425104   17.5477497   17.6325617
| 20>     C       17.3531355   16.4447753   18.4951258
| 21>     C       17.8673473   15.1368948   18.4307208
| 22>     C       17.3132090   14.1148058   19.2195762
| 23>     C       16.2397343   14.4043329   20.0796295
| 24>     C       15.7300274   15.7082047   20.1487340
| 25>     O       14.6897211   15.9894615   20.9722825
| 26>     C       16.2818185   16.7235523   19.3610164
| 27>     H       13.1586614   15.0587885   16.1492171
| 28>     H       14.2879833   14.2272390   15.0565282
| 29>     H       13.6944433   15.8548104   14.6516192
| 30>     H       14.8799799   16.7876113   16.6433943
| 31>     H       15.4965686   15.1608314   17.0539110
| 32>     H       15.4881829   19.2055818   14.5244148
| 33>     H       17.0619403   19.9068313   14.1240253
| 34>     H       15.8765698   20.8472948   15.0520089
| 35>     H       16.9919480   21.2149526   16.9480233
| 36>     H       19.0052744   18.5675191   19.2171848
| 37>     H       18.8957428   17.2059166   17.2026368
| 38>     H       18.6934137   14.9093444   17.7609629
| 39>     H       17.7150766   13.1042311   19.1620700
| 40>     H       15.8088027   13.6170540   20.6899093
| 41>     H       14.4900006   15.1864274   21.4773901
| 42>     H       15.8771704   17.7284689   19.4289624
| 43> *
| 44>
| 45>                          ****END OF INPUT****

CARTESIAN COORDINATES (ANGSTROEM)
---------------------------------
  C     14.011827   15.203181   15.475276
  C     15.198877   15.821666   16.231136
  O     16.272354   15.966697   15.281494
  C     17.126675   17.037895   15.246046
  O     17.853452   17.233513   14.290093
  C     17.100394   17.960607   16.419798
  C     16.887172   19.273708   16.177468
  C     16.294320   19.843814   14.907135
  N     17.236363   20.250875   17.110694
  C     18.029754   20.013634   18.201983
  S     18.509498   21.228491   19.216106
  N     18.427050   18.713239   18.398865
  C     17.942510   17.547750   17.632562
  C     17.353136   16.444775   18.495126
  C     17.867347   15.136895   18.430721
  C     17.313209   14.114806   19.219576
  C     16.239734   14.404333   20.079629
  C     15.730027   15.708205   20.148734
  O     14.689721   15.989462   20.972282
  C     16.281818   16.723552   19.361016
  H     13.158661   15.058788   16.149217
  H     14.287983   14.227239   15.056528
  H     13.694443   15.854810   14.651619
  H     14.879980   16.787611   16.643394
  H     15.496569   15.160831   17.053911
  H     15.488183   19.205582   14.524415
  H     17.061940   19.906831   14.124025
  H     15.876570   20.847295   15.052009
  H     16.991948   21.214953   16.948023
  H     19.005274   18.567519   19.217185
  H     18.895743   17.205917   17.202637
  H     18.693414   14.909344   17.760963
  H     17.715077   13.104231   19.162070
  H     15.808803   13.617054   20.689909
  H     14.490001   15.186427   21.477390
  H     15.877170   17.728469   19.428962

 Total Charge           Charge          ....    0
 Multiplicity           Mult            ....    1
 Number of Electrons    NEL             ....  154
 Basis Dimension        Dim             ....  828

ORBITAL ENERGIES
----------------

  NO   OCC          E(Eh)            E(eV)
   0   2.0000     -91.889732     -2500.4467
   1   2.0000     -20.606146      -560.7218
   2   2.0000     -20.600437      -560.5664
   3   2.0000     -20.549749      -559.1871
   4   2.0000     -15.626330      -425.2141
   5   2.0000     -15.610845      -424.7927
   6   2.0000     -11.396182      -310.1059
   7   2.0000     -11.385265      -309.8088
   8   2.0000     -11.327566      -308.2387
   9   2.0000     -11.324691      -308.1605
  10   2.0000     -11.316979      -307.9506
  11   2.0000     -11.297400      -307.4179
  12   2.0000     -11.270756      -306.6929
  13   2.0000     -11.265964      -306.5625
  14   2.0000     -11.257626      -306.3356
  15   2.0000     -11.256485      -306.3045
  16   2.0000     -11.254914      -306.2618
  17   2.0000     -11.249564      -306.1162
  18   2.0000     -11.248727      -306.0934
  19   2.0000     -11.229730      -305.5765
  20   2.0000      -8.894816      -242.0402
  21   2.0000      -6.576392      -178.9527
  22   2.0000      -6.574388      -178.8982
  23   2.0000      -6.573802      -178.8822
  24   2.0000      -1.446544       -39.3625
  25   2.0000      -1.425917       -38.8012
  26   2.0000      -1.360437       -37.0194
  27   2.0000      -1.339586       -36.4520
  28   2.0000      -1.239608       -33.7315
  29   2.0000      -1.168066       -31.7847
  30   2.0000      -1.126118       -30.6432
  31   2.0000      -1.052513       -28.6403
  32   2.0000      -1.036702       -28.2101
  33   2.0000      -1.026030       -27.9197
  34   2.0000      -1.003791       -27.3145
  35   2.0000      -0.989453       -26.9244
  36   2.0000      -0.927760       -25.2456
  37   2.0000      -0.879594       -23.9350
  38   2.0000      -0.853150       -23.2154
  39   2.0000      -0.844910       -22.9912
  40   2.0000      -0.844839       -22.9892
  41   2.0000      -0.838016       -22.8036
  42   2.0000      -0.759768       -20.6743
  43   2.0000      -0.740618       -20.1532
  44   2.0000      -0.726935       -19.7809
  45   2.0000      -0.704871       -19.1805
  46   2.0000      -0.693660       -18.8755
  47   2.0000      -0.677630       -18.4392
  48   2.0000      -0.676980       -18.4216
  49   2.0000      -0.670560       -18.2469
  50   2.0000      -0.651732       -17.7345
  51   2.0000      -0.648646       -17.6506
  52   2.0000      -0.636674       -17.3248
  53   2.0000      -0.615720       -16.7546
  54   2.0000      -0.610023       -16.5996
  55   2.0000      -0.605217       -16.4688
  56   2.0000      -0.590613       -16.0714
  57   2.0000      -0.583614       -15.8809
  58   2.0000      -0.577066       -15.7028
  59   2.0000      -0.570304       -15.5188
  60   2.0000      -0.562409       -15.3039
  61   2.0000      -0.556973       -15.1560
  62   2.0000      -0.548214       -14.9177
  63   2.0000      -0.531614       -14.4660
  64   2.0000      -0.526066       -14.3150
  65   2.0000      -0.517494       -14.0817
  66   2.0000      -0.505451       -13.7540
  67   2.0000      -0.503986       -13.7142
  68   2.0000      -0.489136       -13.3101
  69   2.0000      -0.469301       -12.7703
  70   2.0000      -0.453678       -12.3452
  71   2.0000      -0.447514       -12.1775
  72   2.0000      -0.359361        -9.7787
  73   2.0000      -0.352182        -9.5833
  74   2.0000      -0.334023        -9.0892
  75   2.0000      -0.328564        -8.9407
  76   2.0000      -0.319095        -8.6830
  77   0.0000       0.085122         2.3163
  78   0.0000       0.094421         2.5693
  79   0.0000       0.116628         3.1736
  80   0.0000       0.125435         3.4133
  81   0.0000       0.130162         3.5419

MULLIKEN ATOMIC CHARGES
-----------------------
   0 C :   -0.254424
   1 C :    0.019472
   2 O :   -0.299936
   3 C :    0.401107
   4 O :   -0.380175
   5 C :   -0.232939
   6 C :    0.159057
   7 C :   -0.287213
   8 N :   -0.132821
   9 C :    0.213374
  10 S :   -0.441379
  11 N :   -0.212302
  12 C :    0.024569
  13 C :   -0.018242
  14 C :   -0.176286
  15 C :   -0.137111
  16 C :   -0.269611
  17 C :    0.298045
  18 O :   -0.354205
  19 C :   -0.204509
  20 H :    0.088940
  21 H :    0.102208
  22 H :    0.094810
  23 H :    0.096099
  24 H :    0.109627
  25 H :    0.113467
  26 H :    0.146014
  27 H :    0.098811
  28 H :    0.197625
  29 H :    0.199475
  30 H :    0.163103
  31 H :    0.159267
  32 H :    0.165410
  33 H :    0.135924
  34 H :    0.242199
  35 H :    0.172547
Sum of atomic charges:   -0.0000000

LOEWDIN ATOMIC CHARGES
----------------------
   0 C :    0.108574
   1 C :   -0.024389
   2 O :    0.311149
   3 C :   -0.418378
   4 O :    0.122855
   5 C :   -0.094919
   6 C :   -0.086443
   7 C :    0.129436
   8 N :    0.404269
   9 C :   -0.454377
  10 S :   -0.036745
  11 N :    0.395362
  12 C :   -0.055376
  13 C :   -0.045593
  14 C :    0.016854
  15 C :    0.043912
  16 C :    0.002128
  17 C :   -0.191604
  18 O :    0.397393
  19 C :    0.035251
  20 H :   -0.025880
  21 H :   -0.024974
  22 H :   -0.027711
  23 H :   -0.037413
  24 H :   -0.029500
  25 H :   -0.010134
  26 H :   -0.003127
  27 H :   -0.020192
  28 H :   -0.058260
  29 H :   -0.064126
  30 H :   -0.008672
  31 H :   -0.025748
  32 H :   -0.017958
  33 H :   -0.032885
  34 H :   -0.151833
  35 H :   -0.020945

  Mayer bond orders larger than 0.100000
B(  0-C ,  1-C ) :   0.9801 B(  0-C , 20-H ) :   0.9777 B(  0-C , 21-H ) :   0.9800
B(  0-C , 22-H ) :   0.9791 B(  1-C ,  2-O ) :   0.8994 B(  1-C , 23-H ) :   0.9605
B(  1-C , 24-H ) :   0.9701 B(  2-O ,  3-C ) :   1.2120 B(  3-C ,  4-O ) :   2.1209
B(  3-C ,  5-C ) :   0.9215 B(  5-C ,  6-C ) :   1.7074 B(  5-C , 12-C ) :   0.9544
B(  6-C ,  7-C ) :   0.9396 B(  6-C ,  8-N ) :   1.1238 B(  7-C , 25-H ) :   0.9777
B(  7-C , 26-H ) :   0.9581 B(  7-C , 27-H ) :   0.9857 B(  8-N ,  9-C ) :   1.1989
B(  8-N , 28-H ) :   0.9491 B(  9-C , 10-S ) :   1.6118 B(  9-C , 11-N ) :   1.2875
B( 11-N , 12-C ) :   0.9803 B( 11-N , 29-H ) :   0.9475 B( 12-C , 13-C ) :   0.9623
B( 12-C , 30-H ) :   1.0046 B( 13-C , 14-C ) :   1.3672 B( 13-C , 19-C ) :   1.3568
B( 14-C , 15-C ) :   1.3964 B( 14-C , 31-H ) :   0.9692 B( 15-C , 16-C ) :   1.3646
B( 15-C , 32-H ) :   0.9698 B( 16-C , 17-C ) :   1.3258 B( 16-C , 33-H ) :   0.9832
B( 17-C , 18-O ) :   1.1120 B( 17-C , 19-C ) :   1.3698 B( 18-O , 34-H ) :   0.9783
B( 19-C , 35-H ) :   0.9584

MP2 TOTAL ENERGY:    -1274.326212631 Eh
FINAL SINGLE POINT ENERGY     -1274.326212631374

DIPOLE MOMENT
-------------
                                X             Y             Z
Electronic contribution:     10.49336       8.85949       6.95827
Nuclear contribution   :    -12.02178     -10.50174      -6.60262
                        -----------------------------------------
Total Dipole Moment    :     -1.52842      -1.64226       0.35565
                        -----------------------------------------
Magnitude (a.u.)       :      2.27147
Magnitude (Debye)      :      5.77362

Rotational constants in cm-1:     0.011889     0.008821     0.006136
Rotational constants in MHz :   356.416779   264.433543   183.950762

                             ****ORCA TERMINATED NORMALLY****
TOTAL RUN TIME: 0 days 1 hours 45 minutes 15 seconds 504 msec
