                         Program Version 4.2.0 -  RELEASE  -
|  1> ! ri-mp2 cc-pvtz cc-pvtz/c TightSCF NoKeepInts
|  2>
|  3> %scf
|  4>   MaxCore 4096
|  5> end
|  6> *xyz  0  1
|  7>     C       14.6154764   16.0538427   16.3827564
|  8>     C       15.0609826   16.1907084   14.9097023
|  9>     O       16.4842340   15.9864593   14.7277054
| 10>     C       17.5146828   16.4654987   15.5022590
| 11>     O       18.6034676   15.9216400   15.4831171
| 12>     C       17.2287626   17.6011823   16.4302247
| 13>     C       16.8722503   18.8136325   15.9387146
| 14>     C       16.5226786   19.1643476   14.5062444
| 15>     N       16.9088674   19.9515785   16.7467269
| 16>     C       17.5336781   20.0100482   17.9642429
| 17>     S       17.6497687   21.4218513   18.8172088
| 18>     N       18.0848057   18.8399288   18.4245766
| 19>     C       17.9040661   17.5135200   17.8014781
| 20>     C       17.2841678   16.4604049   18.7084532
| 21>     C       17.7810767   15.1447222   18.7034183
| 22>     C       17.1997376   14.1583139   19.5172582
| 23>     C       16.1106779   14.4900911   20.3412847
| 24>     C       15.6109807   15.7995793   20.3453654
| 25>     O       14.5530544   16.1202366   21.1318370
| 26>     C       16.1916206   16.7798198   19.5342210
| 27>     H       15.1566075   15.2412496   16.8848973
| 28>     H       13.5452916   15.8183050   16.4292399
| 29>     H       14.7616920   16.9817059   16.9462804
| 30>     H       14.5337620   15.4349620   14.3128662
| 31>     H       14.7518461   17.1691799   14.5272286
| 32>     H       16.8120626   18.3817539   13.7949765
| 33>     H       17.0496470   20.0728290   14.1867435
| 34>     H       15.4475055   19.3482501   14.3948532
| 35>     H       16.5469427   20.8266474   16.4015612
| 36>     H       18.5407066   18.9079823   19.3259798
| 37>     H       18.9542443   17.2561909   17.5972426
| 38>     H       18.6161028   14.8842659   18.0557705
| 39>     H       17.5916254   13.1426038   19.5031932
| 40>     H       15.6575224   13.7304718   20.9696967
| 41>     H       14.3206979   15.3301865   21.6428060
| 42>     H       15.7857067   17.7860103   19.5478696
| 43> *
| 44>
| 45>                          ****END OF INPUT****

CARTESIAN COORDINATES (ANGSTROEM)
---------------------------------
  C     14.615476   16.053843   16.382756
  C     15.060983   16.190708   14.909702
  O     16.484234   15.986459   14.727705
  C     17.514683   16.465499   15.502259
  O     18.603468   15.921640   15.483117
  C     17.228763   17.601182   16.430225
  C     16.872250   18.813632   15.938715
  C     16.522679   19.164348   14.506244
  N     16.908867   19.951579   16.746727
  C     17.533678   20.010048   17.964243
  S     17.649769   21.421851   18.817209
  N     18.084806   18.839929   18.424577
  C     17.904066   17.513520   17.801478
  C     17.284168   16.460405   18.708453
  C     17.781077   15.144722   18.703418
  C     17.199738   14.158314   19.517258
  C     16.110678   14.490091   20.341285
  C     15.610981   15.799579   20.345365
  O     14.553054   16.120237   21.131837
  C     16.191621   16.779820   19.534221
  H     15.156607   15.241250   16.884897
  H     13.545292   15.818305   16.429240
  H     14.761692   16.981706   16.946280
  H     14.533762   15.434962   14.312866
  H     14.751846   17.169180   14.527229
  H     16.812063   18.381754   13.794976
  H     17.049647   20.072829   14.186743
  H     15.447506   19.348250   14.394853
  H     16.546943   20.826647   16.401561
  H     18.540707   18.907982   19.325980
  H     18.954244   17.256191   17.597243
  H     18.616103   14.884266   18.055771
  H     17.591625   13.142604   19.503193
  H     15.657522   13.730472   20.969697
  H     14.320698   15.330186   21.642806
  H     15.785707   17.786010   19.547870

 Total Charge           Charge          ....    0
 Multiplicity           Mult            ....    1
 Number of Electrons    NEL             ....  154
 Basis Dimension        Dim             ....  828

ORBITAL ENERGIES
----------------

  NO   OCC          E(Eh)            E(eV)
   0   2.0000     -91.889871     -2500.4505
   1   2.0000     -20.600514      -560.5685
   2   2.0000     -20.598981      -560.5268
   3   2.0000     -20.549357      -559.1764
   4   2.0000     -15.627800      -425.2540
   5   2.0000     -15.609531      -424.7569
   6   2.0000     -11.400812      -310.2319
   7   2.0000     -11.385676      -309.8200
   8   2.0000     -11.333715      -308.4061
   9   2.0000     -11.316157      -307.9283
  10   2.0000     -11.311028      -307.7887
  11   2.0000     -11.310236      -307.7672
  12   2.0000     -11.267589      -306.6067
  13   2.0000     -11.265372      -306.5464
  14   2.0000     -11.263756      -306.5024
  15   2.0000     -11.256585      -306.3073
  16   2.0000     -11.245470      -306.0048
  17   2.0000     -11.241032      -305.8840
  18   2.0000     -11.238265      -305.8087
  19   2.0000     -11.232256      -305.6452
  20   2.0000      -8.894980      -242.0447
  21   2.0000      -6.576563      -178.9574
  22   2.0000      -6.574549      -178.9026
  23   2.0000      -6.573967      -178.8867
  24   2.0000      -1.445119       -39.3237
  25   2.0000      -1.418725       -38.6055
  26   2.0000      -1.359091       -36.9828
  27   2.0000      -1.341367       -36.5005
  28   2.0000      -1.239625       -33.7319
  29   2.0000      -1.160563       -31.5805
  30   2.0000      -1.126073       -30.6420
  31   2.0000      -1.047976       -28.5169
  32   2.0000      -1.038188       -28.2505
  33   2.0000      -1.018675       -27.7196
  34   2.0000      -1.006918       -27.3996
  35   2.0000      -0.990239       -26.9458
  36   2.0000      -0.927040       -25.2261
  37   2.0000      -0.899406       -24.4741
  38   2.0000      -0.853795       -23.2330
  39   2.0000      -0.841473       -22.8976
  40   2.0000      -0.835999       -22.7487
  41   2.0000      -0.829407       -22.5693
  42   2.0000      -0.745672       -20.2908
  43   2.0000      -0.738180       -20.0869
  44   2.0000      -0.731965       -19.9178
  45   2.0000      -0.696229       -18.9453
  46   2.0000      -0.688065       -18.7232
  47   2.0000      -0.680166       -18.5083
  48   2.0000      -0.674671       -18.3587
  49   2.0000      -0.662051       -18.0153
  50   2.0000      -0.656332       -17.8597
  51   2.0000      -0.650390       -17.6980
  52   2.0000      -0.638676       -17.3793
  53   2.0000      -0.618353       -16.8262
  54   2.0000      -0.611404       -16.6372
  55   2.0000      -0.606775       -16.5112
  56   2.0000      -0.602613       -16.3979
  57   2.0000      -0.588291       -16.0082
  58   2.0000      -0.577131       -15.7045
  59   2.0000      -0.568849       -15.4792
  60   2.0000      -0.564096       -15.3498
  61   2.0000      -0.555463       -15.1149
  62   2.0000      -0.541128       -14.7249
  63   2.0000      -0.533566       -14.5191
  64   2.0000      -0.522229       -14.2106
  65   2.0000      -0.512666       -13.9504
  66   2.0000      -0.501455       -13.6453
  67   2.0000      -0.501216       -13.6388
  68   2.0000      -0.485196       -13.2029
  69   2.0000      -0.467649       -12.7254
  70   2.0000      -0.455466       -12.3939
  71   2.0000      -0.450599       -12.2614
  72   2.0000      -0.356844        -9.7102
  73   2.0000      -0.349613        -9.5135
  74   2.0000      -0.329407        -8.9636
  75   2.0000      -0.324189        -8.8216
  76   2.0000      -0.319997        -8.7076
  77   0.0000       0.084211         2.2915
  78   0.0000       0.105266         2.8644
  79   0.0000       0.114314         3.1106
  80   0.0000       0.128381         3.4934
  81   0.0000       0.130206         3.5431

MULLIKEN ATOMIC CHARGES
-----------------------
   0 C :   -0.329248
   1 C :    0.033407
   2 O :   -0.329757
   3 C :    0.430198
   4 O :   -0.382741
   5 C :   -0.246320
   6 C :    0.178619
   7 C :   -0.344286
   8 N :   -0.141187
   9 C :    0.206978
  10 S :   -0.442962
  11 N :   -0.226386
  12 C :    0.076662
  13 C :    0.016878
  14 C :   -0.224432
  15 C :   -0.129584
  16 C :   -0.278161
  17 C :    0.317201
  18 O :   -0.356623
  19 C :   -0.254192
  20 H :    0.126006
  21 H :    0.115555
  22 H :    0.111188
  23 H :    0.130304
  24 H :    0.083641
  25 H :    0.137560
  26 H :    0.134579
  27 H :    0.122753
  28 H :    0.198003
  29 H :    0.203728
  30 H :    0.168645
  31 H :    0.178902
  32 H :    0.164726
  33 H :    0.132106
  34 H :    0.241223
  35 H :    0.177017
Sum of atomic charges:   -0.0000000

LOEWDIN ATOMIC CHARGES
----------------------
   0 C :    0.102853
   1 C :   -0.015317
   2 O :    0.295373
   3 C :   -0.415699
   4 O :    0.120204
   5 C :   -0.080300
   6 C :   -0.089718
   7 C :    0.123386
   8 N :    0.402777
   9 C :   -0.457861
  10 S :   -0.038373
  11 N :    0.396628
  12 C :   -0.047610
  13 C :   -0.043110
  14 C :    0.019597
  15 C :    0.043664
  16 C :   -0.000626
  17 C :   -0.191641
  18 O :    0.395404
  19 C :    0.029352
  20 H :   -0.019783
  21 H :   -0.024301
  22 H :   -0.034478
  23 H :   -0.018834
  24 H :   -0.038299
  25 H :   -0.008008
  26 H :   -0.010024
  27 H :   -0.019029
  28 H :   -0.057021
  29 H :   -0.063355
  30 H :   -0.003462
  31 H :   -0.021313
  32 H :   -0.018580
  33 H :   -0.034853
  34 H :   -0.153323
  35 H :   -0.024321

  Mayer bond orders larger than 0.100000
B(  0-C ,  1-C ) :   0.9509 B(  0-C , 20-H ) :   0.9683 B(  0-C , 21-H ) :   0.9770
B(  0-C , 22-H ) :   0.9728 B(  1-C ,  2-O ) :   0.9059 B(  1-C , 23-H ) :   0.9823
B(  1-C , 24-H ) :   0.9732 B(  2-O ,  3-C ) :   1.1741 B(  3-C ,  4-O ) :   2.0868
B(  3-C ,  5-C ) :   0.9258 B(  5-C ,  6-C ) :   1.7102 B(  5-C , 12-C ) :   0.9356
B(  6-C ,  7-C ) :   0.9377 B(  6-C ,  8-N ) :   1.1058 B(  7-C , 25-H ) :   0.9751
B(  7-C , 26-H ) :   0.9741 B(  7-C , 27-H ) :   0.9662 B(  8-N ,  9-C ) :   1.1980
B(  8-N , 28-H ) :   0.9511 B(  9-C , 10-S ) :   1.6090 B(  9-C , 11-N ) :   1.2914
B( 11-N , 12-C ) :   0.9805 B( 11-N , 29-H ) :   0.9474 B( 12-C , 13-C ) :   0.9688
B( 12-C , 30-H ) :   0.9891 B( 13-C , 14-C ) :   1.3883 B( 13-C , 19-C ) :   1.3452
B( 14-C , 15-C ) :   1.3952 B( 14-C , 31-H ) :   0.9580 B( 15-C , 16-C ) :   1.3600
B( 15-C , 32-H ) :   0.9700 B( 16-C , 17-C ) :   1.3310 B( 16-C , 33-H ) :   0.9847
B( 17-C , 18-O ) :   1.1091 B( 17-C , 19-C ) :   1.3657 B( 18-O , 34-H ) :   0.9795
B( 19-C , 35-H ) :   0.9561

MP2 TOTAL ENERGY:    -1274.326372451 Eh
FINAL SINGLE POINT ENERGY     -1274.326372450803

DIPOLE MOMENT
-------------
                                X             Y             Z
Electronic contribution:      8.59356       6.69935       6.68634
Nuclear contribution   :    -10.22433      -7.86726      -7.23303
                        -----------------------------------------
Total Dipole Moment    :     -1.63077      -1.16792      -0.54669
                        -----------------------------------------
Magnitude (a.u.)       :      2.07902
Magnitude (Debye)      :      5.28444

Rotational constants in cm-1:     0.011616     0.009281     0.006496
Rotational constants in MHz :   348.233465   278.240885   194.739547

                             ****ORCA TERMINATED NORMALLY****
TOTAL RUN TIME: 0 days 2 hours 7 minutes 26 seconds 618 msec
