                         Program Version 4.2.0 -  RELEASE  -
|  1> ! ri-mp2 cc-pvtz cc-pvtz/c TightSCF NoKeepInts
|  2>
|  3> %scf
|  4>   MaxCore 4096
|  5> end
|  6> *xyz  0  1
|  7>     C       13.9900436   15.3042454   14.9133708
|  8>     C       14.9958190   16.2137940   15.6372336
|  9>     O       16.3058201   15.8777946   15.1415698
| 10>     C       17.4514428   16.4230510   15.6612772
| 11>     O       18.5378354   15.9012213   15.4946470
| 12>     C       17.2737734   17.6177990   16.5371986
| 13>     C       16.9483515   18.8133537   15.9893981
| 14>     C       16.5024707   19.0766973   14.5647300
| 15>     N       17.0951132   19.9960151   16.7160072
| 16>     C       17.7866456   20.0906253   17.8953727
| 17>     S       18.0231211   21.5415078   18.6523812
| 18>     N       18.2954300   18.9197860   18.4029415
| 19>     C       18.0205700   17.5708658   17.8682708
| 20>     C       17.3922468   16.5994141   18.8551957
| 21>     C       17.8533651   15.2729619   18.9290157
| 22>     C       17.2618991   14.3603967   19.8183183
| 23>     C       16.1980684   14.7773791   20.6367849
| 24>     C       15.7317617   16.0969392   20.5589792
| 25>     O       14.6975146   16.4990693   21.3394664
| 26>     C       16.3214135   17.0032071   19.6716627
| 27>     H       14.2186653   14.2480864   15.1046291
| 28>     H       14.0244282   15.4736093   13.8298885
| 29>     H       12.9690392   15.5028259   15.2613145
| 30>     H       14.7430197   17.2616391   15.4414339
| 31>     H       14.9404295   16.0321246   16.7197018
| 32>     H       16.6256460   18.2043098   13.9115970
| 33>     H       17.0940612   19.8841449   14.1140858
| 34>     H       15.4474461   19.3743046   14.5292369
| 35>     H       16.7647066   20.8680876   16.3332776
| 36>     H       18.7999302   19.0165003   19.2754526
| 37>     H       19.0435315   17.2478589   17.6224953
| 38>     H       18.6681337   14.9464513   18.2854920
| 39>     H       17.6261793   13.3354513   19.8669997
| 40>     H       15.7376486   14.0749670   21.3238376
| 41>     H       14.4577515   15.7541683   21.9113765
| 42>     H       15.9436776   18.0193473   19.6233595
| 43> *
| 44>
| 45>                          ****END OF INPUT****

CARTESIAN COORDINATES (ANGSTROEM)
---------------------------------
  C     13.990044   15.304245   14.913371
  C     14.995819   16.213794   15.637234
  O     16.305820   15.877795   15.141570
  C     17.451443   16.423051   15.661277
  O     18.537835   15.901221   15.494647
  C     17.273773   17.617799   16.537199
  C     16.948352   18.813354   15.989398
  C     16.502471   19.076697   14.564730
  N     17.095113   19.996015   16.716007
  C     17.786646   20.090625   17.895373
  S     18.023121   21.541508   18.652381
  N     18.295430   18.919786   18.402942
  C     18.020570   17.570866   17.868271
  C     17.392247   16.599414   18.855196
  C     17.853365   15.272962   18.929016
  C     17.261899   14.360397   19.818318
  C     16.198068   14.777379   20.636785
  C     15.731762   16.096939   20.558979
  O     14.697515   16.499069   21.339466
  C     16.321413   17.003207   19.671663
  H     14.218665   14.248086   15.104629
  H     14.024428   15.473609   13.829888
  H     12.969039   15.502826   15.261314
  H     14.743020   17.261639   15.441434
  H     14.940430   16.032125   16.719702
  H     16.625646   18.204310   13.911597
  H     17.094061   19.884145   14.114086
  H     15.447446   19.374305   14.529237
  H     16.764707   20.868088   16.333278
  H     18.799930   19.016500   19.275453
  H     19.043532   17.247859   17.622495
  H     18.668134   14.946451   18.285492
  H     17.626179   13.335451   19.867000
  H     15.737649   14.074967   21.323838
  H     14.457751   15.754168   21.911376
  H     15.943678   18.019347   19.623359

 Total Charge           Charge          ....    0
 Multiplicity           Mult            ....    1
 Number of Electrons    NEL             ....  154
 Basis Dimension        Dim             ....  828

ORBITAL ENERGIES
----------------

  NO   OCC          E(Eh)            E(eV)
   0   2.0000     -91.889491     -2500.4402
   1   2.0000     -20.604687      -560.6820
   2   2.0000     -20.600167      -560.5590
   3   2.0000     -20.551549      -559.2361
   4   2.0000     -15.627017      -425.2328
   5   2.0000     -15.609641      -424.7599
   6   2.0000     -11.398998      -310.1825
   7   2.0000     -11.385621      -309.8185
   8   2.0000     -11.332409      -308.3705
   9   2.0000     -11.317665      -307.9693
  10   2.0000     -11.310790      -307.7823
  11   2.0000     -11.306172      -307.6566
  12   2.0000     -11.267756      -306.6112
  13   2.0000     -11.265469      -306.5490
  14   2.0000     -11.263201      -306.4873
  15   2.0000     -11.258095      -306.3483
  16   2.0000     -11.246668      -306.0374
  17   2.0000     -11.242675      -305.9287
  18   2.0000     -11.240499      -305.8695
  19   2.0000     -11.235489      -305.7332
  20   2.0000      -8.894603      -242.0344
  21   2.0000      -6.576186      -178.9471
  22   2.0000      -6.574172      -178.8923
  23   2.0000      -6.573591      -178.8765
  24   2.0000      -1.450499       -39.4701
  25   2.0000      -1.419871       -38.6366
  26   2.0000      -1.363899       -37.1136
  27   2.0000      -1.340411       -36.4745
  28   2.0000      -1.239103       -33.7177
  29   2.0000      -1.162005       -31.6198
  30   2.0000      -1.126601       -30.6564
  31   2.0000      -1.049078       -28.5469
  32   2.0000      -1.042222       -28.3603
  33   2.0000      -1.019786       -27.7498
  34   2.0000      -1.006280       -27.3823
  35   2.0000      -0.989583       -26.9279
  36   2.0000      -0.926743       -25.2180
  37   2.0000      -0.881379       -23.9836
  38   2.0000      -0.856139       -23.2967
  39   2.0000      -0.842652       -22.9297
  40   2.0000      -0.838546       -22.8180
  41   2.0000      -0.836828       -22.7713
  42   2.0000      -0.758600       -20.6426
  43   2.0000      -0.740020       -20.1370
  44   2.0000      -0.732967       -19.9450
  45   2.0000      -0.697659       -18.9843
  46   2.0000      -0.689748       -18.7690
  47   2.0000      -0.682823       -18.5806
  48   2.0000      -0.674796       -18.3621
  49   2.0000      -0.664837       -18.0911
  50   2.0000      -0.658784       -17.9264
  51   2.0000      -0.649169       -17.6648
  52   2.0000      -0.638632       -17.3781
  53   2.0000      -0.613341       -16.6898
  54   2.0000      -0.607866       -16.5409
  55   2.0000      -0.603634       -16.4257
  56   2.0000      -0.595530       -16.2052
  57   2.0000      -0.583068       -15.8661
  58   2.0000      -0.578066       -15.7300
  59   2.0000      -0.570779       -15.5317
  60   2.0000      -0.562471       -15.3056
  61   2.0000      -0.559633       -15.2284
  62   2.0000      -0.552953       -15.0466
  63   2.0000      -0.527553       -14.3554
  64   2.0000      -0.521439       -14.1891
  65   2.0000      -0.515732       -14.0338
  66   2.0000      -0.508037       -13.8244
  67   2.0000      -0.501980       -13.6596
  68   2.0000      -0.489154       -13.3106
  69   2.0000      -0.468935       -12.7604
  70   2.0000      -0.457958       -12.4617
  71   2.0000      -0.452325       -12.3084
  72   2.0000      -0.356398        -9.6981
  73   2.0000      -0.352297        -9.5865
  74   2.0000      -0.329074        -8.9546
  75   2.0000      -0.325362        -8.8535
  76   2.0000      -0.319580        -8.6962
  77   0.0000       0.087148         2.3714
  78   0.0000       0.103945         2.8285
  79   0.0000       0.114617         3.1189
  80   0.0000       0.127672         3.4741
  81   0.0000       0.129756         3.5309

MULLIKEN ATOMIC CHARGES
-----------------------
   0 C :   -0.258109
   1 C :    0.028438
   2 O :   -0.306084
   3 C :    0.412108
   4 O :   -0.381611
   5 C :   -0.199452
   6 C :    0.136131
   7 C :   -0.333592
   8 N :   -0.139036
   9 C :    0.209595
  10 S :   -0.443310
  11 N :   -0.222430
  12 C :    0.058120
  13 C :    0.025472
  14 C :   -0.221629
  15 C :   -0.127629
  16 C :   -0.277097
  17 C :    0.315668
  18 O :   -0.355650
  19 C :   -0.252293
  20 H :    0.106401
  21 H :    0.097660
  22 H :    0.090035
  23 H :    0.082746
  24 H :    0.110927
  25 H :    0.132091
  26 H :    0.136337
  27 H :    0.122751
  28 H :    0.196900
  29 H :    0.202314
  30 H :    0.167387
  31 H :    0.175167
  32 H :    0.164715
  33 H :    0.132100
  34 H :    0.241401
  35 H :    0.173457
Sum of atomic charges:   -0.0000000

LOEWDIN ATOMIC CHARGES
----------------------
   0 C :    0.111981
   1 C :   -0.026308
   2 O :    0.306579
   3 C :   -0.415108
   4 O :    0.120640
   5 C :   -0.083505
   6 C :   -0.093694
   7 C :    0.124086
   8 N :    0.402502
   9 C :   -0.455867
  10 S :   -0.038571
  11 N :    0.395963
  12 C :   -0.049917
  13 C :   -0.044290
  14 C :    0.018779
  15 C :    0.045135
  16 C :    0.000106
  17 C :   -0.191448
  18 O :    0.395271
  19 C :    0.027389
  20 H :   -0.022510
  21 H :   -0.026155
  22 H :   -0.024586
  23 H :   -0.037280
  24 H :   -0.028236
  25 H :   -0.008044
  26 H :   -0.009669
  27 H :   -0.017986
  28 H :   -0.056944
  29 H :   -0.063811
  30 H :   -0.003906
  31 H :   -0.021482
  32 H :   -0.018420
  33 H :   -0.034673
  34 H :   -0.153014
  35 H :   -0.023010

  Mayer bond orders larger than 0.100000
B(  0-C ,  1-C ) :   0.9807 B(  0-C , 20-H ) :   0.9778 B(  0-C , 21-H ) :   0.9776
B(  0-C , 22-H ) :   0.9769 B(  1-C ,  2-O ) :   0.9095 B(  1-C , 23-H ) :   0.9671
B(  1-C , 24-H ) :   0.9702 B(  2-O ,  3-C ) :   1.1873 B(  3-C ,  4-O ) :   2.1025
B(  3-C ,  5-C ) :   0.9140 B(  5-C ,  6-C ) :   1.7232 B(  5-C , 12-C ) :   0.9425
B(  6-C ,  7-C ) :   0.9354 B(  6-C ,  8-N ) :   1.1079 B(  7-C , 25-H ) :   0.9768
B(  7-C , 26-H ) :   0.9723 B(  7-C , 27-H ) :   0.9668 B(  8-N ,  9-C ) :   1.1980
B(  8-N , 28-H ) :   0.9515 B(  9-C , 10-S ) :   1.6099 B(  9-C , 11-N ) :   1.2904
B( 11-N , 12-C ) :   0.9834 B( 11-N , 29-H ) :   0.9473 B( 12-C , 13-C ) :   0.9673
B( 12-C , 30-H ) :   0.9897 B( 13-C , 14-C ) :   1.3833 B( 13-C , 19-C ) :   1.3539
B( 14-C , 15-C ) :   1.3943 B( 14-C , 31-H ) :   0.9600 B( 15-C , 16-C ) :   1.3624
B( 15-C , 32-H ) :   0.9696 B( 16-C , 17-C ) :   1.3308 B( 16-C , 33-H ) :   0.9847
B( 17-C , 18-O ) :   1.1095 B( 17-C , 19-C ) :   1.3647 B( 18-O , 34-H ) :   0.9792
B( 19-C , 35-H ) :   0.9566

MP2 TOTAL ENERGY:    -1274.332195471 Eh
FINAL SINGLE POINT ENERGY     -1274.332195471321

DIPOLE MOMENT
-------------
                                X             Y             Z
Electronic contribution:     10.41374       8.45877       8.93468
Nuclear contribution   :    -12.09524      -9.66121      -9.22985
                        -----------------------------------------
Total Dipole Moment    :     -1.68150      -1.20244      -0.29517
                        -----------------------------------------
Magnitude (a.u.)       :      2.08817
Magnitude (Debye)      :      5.30770

Rotational constants in cm-1:     0.010591     0.009107     0.006185
Rotational constants in MHz :   317.516941   273.012754   185.424653

                             ****ORCA TERMINATED NORMALLY****
TOTAL RUN TIME: 0 days 1 hours 45 minutes 48 seconds 64 msec
