                         Program Version 4.2.0 -  RELEASE  -
|  1> ! ri-mp2 cc-pvtz cc-pvtz/c TightSCF NoKeepInts
|  2>
|  3> %scf
|  4>   MaxCore 4096
|  5> end
|  6> *xyz  0  1
|  7>     C       14.5053442   15.8883186   16.0760640
|  8>     C       15.1403284   15.7696500   14.6726405
|  9>     O       16.2810737   16.6406449   14.5333715
| 10>     C       17.2477551   16.6223829   15.4931030
| 11>     O       17.9842237   15.6614282   15.6292925
| 12>     C       17.1846728   17.7529228   16.4787798
| 13>     C       16.8337367   19.0129921   16.1135145
| 14>     C       16.2509762   19.4637024   14.7888915
| 15>     N       17.0433169   20.0897890   16.9784351
| 16>     C       17.7915269   20.0276501   18.1233347
| 17>     S       18.0868306   21.3680363   19.0459512
| 18>     N       18.3013784   18.7972478   18.4538620
| 19>     C       17.9848713   17.5300187   17.7663415
| 20>     C       17.3621746   16.4836666   18.6805177
| 21>     C       17.9140813   15.1936360   18.7746759
| 22>     C       17.3284251   14.2249672   19.6068129
| 23>     C       16.1809177   14.5492920   20.3507196
| 24>     C       15.6273307   15.8335004   20.2564702
| 25>     O       14.5143417   16.1469440   20.9663450
| 26>     C       16.2124008   16.7954407   19.4270309
| 27>     H       15.1698486   15.4828359   16.8499645
| 28>     H       13.5685570   15.3194303   16.1167472
| 29>     H       14.2772747   16.9333704   16.3193279
| 30>     H       15.4508355   14.7290565   14.5068028
| 31>     H       14.3951681   16.0240920   13.9080236
| 32>     H       15.2419326   19.0568807   14.6493388
| 33>     H       16.8722873   19.1204824   13.9518738
| 34>     H       16.1792582   20.5550552   14.7056425
| 35>     H       16.6969504   21.0043422   16.7361562
| 36>     H       18.8343159   18.7751375   19.3142111
| 37>     H       18.9908095   17.2202689   17.4470023
| 38>     H       18.7910592   14.9368961   18.1846733
| 39>     H       17.7610509   13.2278162   19.6666834
| 40>     H       15.7242538   13.8031903   20.9924847
| 41>     H       14.2878313   15.3747689   21.5062666
| 42>     H       15.7698606   17.7841457   19.3666475
| 43> *
| 44>
| 45>                          ****END OF INPUT****

CARTESIAN COORDINATES (ANGSTROEM)
---------------------------------
  C     14.505344   15.888319   16.076064
  C     15.140328   15.769650   14.672640
  O     16.281074   16.640645   14.533371
  C     17.247755   16.622383   15.493103
  O     17.984224   15.661428   15.629292
  C     17.184673   17.752923   16.478780
  C     16.833737   19.012992   16.113515
  C     16.250976   19.463702   14.788892
  N     17.043317   20.089789   16.978435
  C     17.791527   20.027650   18.123335
  S     18.086831   21.368036   19.045951
  N     18.301378   18.797248   18.453862
  C     17.984871   17.530019   17.766341
  C     17.362175   16.483667   18.680518
  C     17.914081   15.193636   18.774676
  C     17.328425   14.224967   19.606813
  C     16.180918   14.549292   20.350720
  C     15.627331   15.833500   20.256470
  O     14.514342   16.146944   20.966345
  C     16.212401   16.795441   19.427031
  H     15.169849   15.482836   16.849964
  H     13.568557   15.319430   16.116747
  H     14.277275   16.933370   16.319328
  H     15.450835   14.729057   14.506803
  H     14.395168   16.024092   13.908024
  H     15.241933   19.056881   14.649339
  H     16.872287   19.120482   13.951874
  H     16.179258   20.555055   14.705642
  H     16.696950   21.004342   16.736156
  H     18.834316   18.775137   19.314211
  H     18.990810   17.220269   17.447002
  H     18.791059   14.936896   18.184673
  H     17.761051   13.227816   19.666683
  H     15.724254   13.803190   20.992485
  H     14.287831   15.374769   21.506267
  H     15.769861   17.784146   19.366647

 Total Charge           Charge          ....    0
 Multiplicity           Mult            ....    1
 Number of Electrons    NEL             ....  154
 Basis Dimension        Dim             ....  828

ORBITAL ENERGIES
----------------

  NO   OCC          E(Eh)            E(eV)
   0   2.0000     -91.889677     -2500.4452
   1   2.0000     -20.595348      -560.4279
   2   2.0000     -20.585592      -560.1624
   3   2.0000     -20.551308      -559.2295
   4   2.0000     -15.630294      -425.3219
   5   2.0000     -15.607391      -424.6987
   6   2.0000     -11.393754      -310.0398
   7   2.0000     -11.384437      -309.7863
   8   2.0000     -11.338870      -308.5463
   9   2.0000     -11.311615      -307.8047
  10   2.0000     -11.305877      -307.6485
  11   2.0000     -11.305042      -307.6258
  12   2.0000     -11.260985      -306.4270
  13   2.0000     -11.259856      -306.3963
  14   2.0000     -11.258374      -306.3559
  15   2.0000     -11.251703      -306.1744
  16   2.0000     -11.241891      -305.9074
  17   2.0000     -11.237626      -305.7913
  18   2.0000     -11.234431      -305.7044
  19   2.0000     -11.230741      -305.6040
  20   2.0000      -8.894750      -242.0385
  21   2.0000      -6.576324      -178.9509
  22   2.0000      -6.574324      -178.8964
  23   2.0000      -6.573732      -178.8804
  24   2.0000      -1.449562       -39.4446
  25   2.0000      -1.415143       -38.5080
  26   2.0000      -1.356346       -36.9080
  27   2.0000      -1.341403       -36.5014
  28   2.0000      -1.238594       -33.7039
  29   2.0000      -1.156065       -31.4581
  30   2.0000      -1.122448       -30.5434
  31   2.0000      -1.044359       -28.4184
  32   2.0000      -1.032779       -28.1033
  33   2.0000      -1.013571       -27.5807
  34   2.0000      -1.002057       -27.2674
  35   2.0000      -0.987235       -26.8640
  36   2.0000      -0.923547       -25.1310
  37   2.0000      -0.896410       -24.3926
  38   2.0000      -0.849461       -23.1150
  39   2.0000      -0.838172       -22.8078
  40   2.0000      -0.831776       -22.6338
  41   2.0000      -0.818650       -22.2766
  42   2.0000      -0.749534       -20.3958
  43   2.0000      -0.734843       -19.9961
  44   2.0000      -0.728402       -19.8208
  45   2.0000      -0.693267       -18.8647
  46   2.0000      -0.686760       -18.6877
  47   2.0000      -0.677831       -18.4447
  48   2.0000      -0.671261       -18.2659
  49   2.0000      -0.663010       -18.0414
  50   2.0000      -0.652974       -17.7683
  51   2.0000      -0.646930       -17.6039
  52   2.0000      -0.635816       -17.3014
  53   2.0000      -0.615334       -16.7441
  54   2.0000      -0.604763       -16.4564
  55   2.0000      -0.601540       -16.3687
  56   2.0000      -0.599032       -16.3005
  57   2.0000      -0.581213       -15.8156
  58   2.0000      -0.575529       -15.6609
  59   2.0000      -0.563332       -15.3291
  60   2.0000      -0.556767       -15.1504
  61   2.0000      -0.548996       -14.9389
  62   2.0000      -0.543579       -14.7915
  63   2.0000      -0.531073       -14.4512
  64   2.0000      -0.519719       -14.1423
  65   2.0000      -0.511622       -13.9219
  66   2.0000      -0.498450       -13.5635
  67   2.0000      -0.493295       -13.4232
  68   2.0000      -0.481891       -13.1129
  69   2.0000      -0.464566       -12.6415
  70   2.0000      -0.457215       -12.4415
  71   2.0000      -0.450808       -12.2671
  72   2.0000      -0.354502        -9.6465
  73   2.0000      -0.347676        -9.4607
  74   2.0000      -0.328739        -8.9455
  75   2.0000      -0.319209        -8.6861
  76   2.0000      -0.318473        -8.6661
  77   0.0000       0.072779         1.9804
  78   0.0000       0.106956         2.9104
  79   0.0000       0.118315         3.2195
  80   0.0000       0.132820         3.6142
  81   0.0000       0.138183         3.7601

MULLIKEN ATOMIC CHARGES
-----------------------
   0 C :   -0.332445
   1 C :    0.040391
   2 O :   -0.379258
   3 C :    0.453475
   4 O :   -0.395643
   5 C :   -0.221113
   6 C :    0.161122
   7 C :   -0.282586
   8 N :   -0.127363
   9 C :    0.206495
  10 S :   -0.440031
  11 N :   -0.211396
  12 C :    0.058768
  13 C :    0.010808
  14 C :   -0.167156
  15 C :   -0.135942
  16 C :   -0.277580
  17 C :    0.316456
  18 O :   -0.359173
  19 C :   -0.252575
  20 H :    0.125821
  21 H :    0.115300
  22 H :    0.099880
  23 H :    0.110107
  24 H :    0.109110
  25 H :    0.120247
  26 H :    0.131649
  27 H :    0.104389
  28 H :    0.198080
  29 H :    0.199206
  30 H :    0.156650
  31 H :    0.164385
  32 H :    0.161770
  33 H :    0.130643
  34 H :    0.240594
  35 H :    0.166911
Sum of atomic charges:   -0.0000000

LOEWDIN ATOMIC CHARGES
----------------------
   0 C :    0.104224
   1 C :   -0.018878
   2 O :    0.289829
   3 C :   -0.421936
   4 O :    0.122084
   5 C :   -0.094919
   6 C :   -0.067331
   7 C :    0.126280
   8 N :    0.405955
   9 C :   -0.458132
  10 S :   -0.036061
  11 N :    0.396293
  12 C :   -0.048250
  13 C :   -0.043270
  14 C :    0.023967
  15 C :    0.041637
  16 C :   -0.001102
  17 C :   -0.193932
  18 O :    0.393762
  19 C :    0.030298
  20 H :   -0.022174
  21 H :   -0.023372
  22 H :   -0.030672
  23 H :   -0.026209
  24 H :   -0.024039
  25 H :   -0.011778
  26 H :   -0.006567
  27 H :   -0.020383
  28 H :   -0.058438
  29 H :   -0.063379
  30 H :   -0.006952
  31 H :   -0.022823
  32 H :   -0.020052
  33 H :   -0.035490
  34 H :   -0.154205
  35 H :   -0.023984

  Mayer bond orders larger than 0.100000
B(  0-C ,  1-C ) :   0.9577 B(  0-C , 20-H ) :   0.9666 B(  0-C , 21-H ) :   0.9767
B(  0-C , 22-H ) :   0.9720 B(  1-C ,  2-O ) :   0.9021 B(  1-C , 23-H ) :   0.9852
B(  1-C , 24-H ) :   0.9824 B(  2-O ,  3-C ) :   1.0756 B(  3-C ,  4-O ) :   2.0404
B(  3-C ,  5-C ) :   1.0124 B(  5-C ,  6-C ) :   1.6731 B(  5-C , 12-C ) :   0.9478
B(  6-C ,  7-C ) :   0.9539 B(  6-C ,  8-N ) :   1.1391 B(  7-C , 25-H ) :   0.9653
B(  7-C , 26-H ) :   0.9648 B(  7-C , 27-H ) :   0.9900 B(  8-N ,  9-C ) :   1.1843
B(  8-N , 28-H ) :   0.9470 B(  9-C , 10-S ) :   1.6123 B(  9-C , 11-N ) :   1.3024
B( 11-N , 12-C ) :   0.9807 B( 11-N , 29-H ) :   0.9489 B( 12-C , 13-C ) :   0.9636
B( 12-C , 30-H ) :   0.9960 B( 13-C , 14-C ) :   1.3834 B( 13-C , 19-C ) :   1.3622
B( 14-C , 15-C ) :   1.3971 B( 14-C , 31-H ) :   0.9611 B( 15-C , 16-C ) :   1.3599
B( 15-C , 32-H ) :   0.9709 B( 16-C , 17-C ) :   1.3318 B( 16-C , 33-H ) :   0.9850
B( 17-C , 18-O ) :   1.1058 B( 17-C , 19-C ) :   1.3647 B( 18-O , 34-H ) :   0.9801
B( 19-C , 35-H ) :   0.9601

MP2 TOTAL ENERGY:    -1274.327902130 Eh
FINAL SINGLE POINT ENERGY     -1274.327902129747

DIPOLE MOMENT
-------------
                                X             Y             Z
Electronic contribution:      9.24130       8.10487       7.15920
Nuclear contribution   :    -10.64915      -9.35077      -7.91050
                        -----------------------------------------
Total Dipole Moment    :     -1.40785      -1.24591      -0.75129
                        -----------------------------------------
Magnitude (a.u.)       :      2.02454
Magnitude (Debye)      :      5.14598

Rotational constants in cm-1:     0.011236     0.009346     0.006351
Rotational constants in MHz :   336.833480   280.176743   190.393779

                             ****ORCA TERMINATED NORMALLY****
TOTAL RUN TIME: 0 days 1 hours 44 minutes 26 seconds 722 msec
