                         Program Version 4.2.0 -  RELEASE  -
|  1> ! ri-mp2 cc-pvtz cc-pvtz/c TightSCF NoKeepInts
|  2>
|  3> %scf
|  4>   MaxCore 4096
|  5> end
|  6> *xyz  0  1
|  7>     C       14.5526567   15.2466387   16.1025958
|  8>     C       14.9095239   16.4479807   15.2077549
|  9>     O       16.2534701   16.2584668   14.7173280
| 10>     C       17.3508813   16.5182375   15.4958347
| 11>     O       18.3328337   15.7997834   15.4615698
| 12>     C       17.2438466   17.6776196   16.4348444
| 13>     C       16.9636902   18.9197474   15.9686564
| 14>     C       16.5275969   19.2916679   14.5647667
| 15>     N       17.1521956   20.0438852   16.7751109
| 16>     C       17.8410900   20.0332299   17.9593369
| 17>     S       18.1260819   21.4201588   18.8133866
| 18>     N       18.3030527   18.8129779   18.3880068
| 19>     C       17.9803292   17.5140104   17.7643750
| 20>     C       17.2999153   16.5163467   18.6891445
| 21>     C       17.7385212   15.1810575   18.7359051
| 22>     C       17.0948884   14.2469316   19.5645023
| 23>     C       16.0016704   14.6513755   20.3498083
| 24>     C       15.5589915   15.9803738   20.3000479
| 25>     O       14.4965245   16.3707775   21.0479222
| 26>     C       16.2009402   16.9081013   19.4734175
| 27>     H       15.1898056   15.2167070   16.9952351
| 28>     H       14.6837771   14.3044354   15.5555262
| 29>     H       13.5088216   15.3087984   16.4332200
| 30>     H       14.2183883   16.4666333   14.3551149
| 31>     H       14.7832715   17.3845999   15.7630856
| 32>     H       16.9494381   18.6119211   13.8135570
| 33>     H       16.8654839   20.2985311   14.2881818
| 34>     H       15.4360194   19.2697014   14.4673793
| 35>     H       16.8503659   20.9509490   16.4557612
| 36>     H       18.8028579   18.8314494   19.2682898
| 37>     H       18.9909390   17.1639600   17.5056994
| 38>     H       18.5740405   14.8640353   18.1147976
| 39>     H       17.4412587   13.2150375   19.5907175
| 40>     H       15.5005380   13.9322214   20.9893441
| 41>     H       14.2222670   15.6103194   21.5825792
| 42>     H       15.8410272   17.9313323   19.4451964
| 43> *
| 44>
| 45>                          ****END OF INPUT****

CARTESIAN COORDINATES (ANGSTROEM)
---------------------------------
  C     14.552657   15.246639   16.102596
  C     14.909524   16.447981   15.207755
  O     16.253470   16.258467   14.717328
  C     17.350881   16.518238   15.495835
  O     18.332834   15.799783   15.461570
  C     17.243847   17.677620   16.434844
  C     16.963690   18.919747   15.968656
  C     16.527597   19.291668   14.564767
  N     17.152196   20.043885   16.775111
  C     17.841090   20.033230   17.959337
  S     18.126082   21.420159   18.813387
  N     18.303053   18.812978   18.388007
  C     17.980329   17.514010   17.764375
  C     17.299915   16.516347   18.689145
  C     17.738521   15.181057   18.735905
  C     17.094888   14.246932   19.564502
  C     16.001670   14.651375   20.349808
  C     15.558991   15.980374   20.300048
  O     14.496524   16.370777   21.047922
  C     16.200940   16.908101   19.473418
  H     15.189806   15.216707   16.995235
  H     14.683777   14.304435   15.555526
  H     13.508822   15.308798   16.433220
  H     14.218388   16.466633   14.355115
  H     14.783271   17.384600   15.763086
  H     16.949438   18.611921   13.813557
  H     16.865484   20.298531   14.288182
  H     15.436019   19.269701   14.467379
  H     16.850366   20.950949   16.455761
  H     18.802858   18.831449   19.268290
  H     18.990939   17.163960   17.505699
  H     18.574040   14.864035   18.114798
  H     17.441259   13.215037   19.590718
  H     15.500538   13.932221   20.989344
  H     14.222267   15.610319   21.582579
  H     15.841027   17.931332   19.445196

 Total Charge           Charge          ....    0
 Multiplicity           Mult            ....    1
 Number of Electrons    NEL             ....  154
 Basis Dimension        Dim             ....  828

ORBITAL ENERGIES
----------------

  NO   OCC          E(Eh)            E(eV)
   0   2.0000     -91.890412     -2500.4652
   1   2.0000     -20.600288      -560.5623
   2   2.0000     -20.599337      -560.5365
   3   2.0000     -20.550889      -559.2181
   4   2.0000     -15.629422      -425.2982
   5   2.0000     -15.609595      -424.7587
   6   2.0000     -11.398031      -310.1562
   7   2.0000     -11.386074      -309.8308
   8   2.0000     -11.336172      -308.4729
   9   2.0000     -11.316609      -307.9406
  10   2.0000     -11.309202      -307.7390
  11   2.0000     -11.306605      -307.6684
  12   2.0000     -11.266192      -306.5687
  13   2.0000     -11.263673      -306.5001
  14   2.0000     -11.263111      -306.4848
  15   2.0000     -11.256718      -306.3109
  16   2.0000     -11.246013      -306.0196
  17   2.0000     -11.241947      -305.9089
  18   2.0000     -11.238822      -305.8239
  19   2.0000     -11.228820      -305.5517
  20   2.0000      -8.895507      -242.0591
  21   2.0000      -6.577085      -178.9716
  22   2.0000      -6.575076      -178.9169
  23   2.0000      -6.574491      -178.9010
  24   2.0000      -1.449152       -39.4334
  25   2.0000      -1.419081       -38.6152
  26   2.0000      -1.361702       -37.0538
  27   2.0000      -1.341743       -36.5107
  28   2.0000      -1.239709       -33.7342
  29   2.0000      -1.160969       -31.5916
  30   2.0000      -1.126132       -30.6436
  31   2.0000      -1.048241       -28.5241
  32   2.0000      -1.036321       -28.1997
  33   2.0000      -1.018587       -27.7172
  34   2.0000      -1.005651       -27.3652
  35   2.0000      -0.989878       -26.9359
  36   2.0000      -0.926494       -25.2112
  37   2.0000      -0.890530       -24.2326
  38   2.0000      -0.854380       -23.2489
  39   2.0000      -0.842100       -22.9147
  40   2.0000      -0.836467       -22.7614
  41   2.0000      -0.833808       -22.6891
  42   2.0000      -0.749114       -20.3844
  43   2.0000      -0.739489       -20.1225
  44   2.0000      -0.731777       -19.9127
  45   2.0000      -0.696955       -18.9651
  46   2.0000      -0.688572       -18.7370
  47   2.0000      -0.682217       -18.5641
  48   2.0000      -0.676565       -18.4103
  49   2.0000      -0.661117       -17.9899
  50   2.0000      -0.656723       -17.8703
  51   2.0000      -0.645983       -17.5781
  52   2.0000      -0.637860       -17.3570
  53   2.0000      -0.617075       -16.7915
  54   2.0000      -0.609648       -16.5894
  55   2.0000      -0.606438       -16.5020
  56   2.0000      -0.602385       -16.3917
  57   2.0000      -0.584054       -15.8929
  58   2.0000      -0.577079       -15.7031
  59   2.0000      -0.567235       -15.4352
  60   2.0000      -0.561948       -15.2914
  61   2.0000      -0.551243       -15.0001
  62   2.0000      -0.548506       -14.9256
  63   2.0000      -0.532612       -14.4931
  64   2.0000      -0.520413       -14.1611
  65   2.0000      -0.512702       -13.9513
  66   2.0000      -0.502488       -13.6734
  67   2.0000      -0.500966       -13.6320
  68   2.0000      -0.486571       -13.2403
  69   2.0000      -0.469913       -12.7870
  70   2.0000      -0.457903       -12.4602
  71   2.0000      -0.449299       -12.2260
  72   2.0000      -0.356743        -9.7075
  73   2.0000      -0.351980        -9.5779
  74   2.0000      -0.329774        -8.9736
  75   2.0000      -0.324171        -8.8211
  76   2.0000      -0.320124        -8.7110
  77   0.0000       0.079820         2.1720
  78   0.0000       0.103398         2.8136
  79   0.0000       0.117117         3.1869
  80   0.0000       0.129687         3.5290
  81   0.0000       0.131769         3.5856

MULLIKEN ATOMIC CHARGES
-----------------------
   0 C :   -0.280391
   1 C :    0.017746
   2 O :   -0.335733
   3 C :    0.424915
   4 O :   -0.380978
   5 C :   -0.232371
   6 C :    0.154662
   7 C :   -0.313742
   8 N :   -0.135139
   9 C :    0.207923
  10 S :   -0.441089
  11 N :   -0.219380
  12 C :    0.065568
  13 C :   -0.008758
  14 C :   -0.198660
  15 C :   -0.130518
  16 C :   -0.273543
  17 C :    0.305804
  18 O :   -0.357154
  19 C :   -0.225866
  20 H :    0.111363
  21 H :    0.109798
  22 H :    0.093772
  23 H :    0.118375
  24 H :    0.092539
  25 H :    0.140305
  26 H :    0.120867
  27 H :    0.121069
  28 H :    0.198257
  29 H :    0.201550
  30 H :    0.165219
  31 H :    0.174446
  32 H :    0.163772
  33 H :    0.132322
  34 H :    0.241286
  35 H :    0.171765
Sum of atomic charges:    0.0000000

LOEWDIN ATOMIC CHARGES
----------------------
   0 C :    0.108623
   1 C :   -0.024801
   2 O :    0.303050
   3 C :   -0.417922
   4 O :    0.122138
   5 C :   -0.090187
   6 C :   -0.083659
   7 C :    0.128298
   8 N :    0.403363
   9 C :   -0.457063
  10 S :   -0.036909
  11 N :    0.396088
  12 C :   -0.049451
  13 C :   -0.045676
  14 C :    0.020769
  15 C :    0.043872
  16 C :   -0.000072
  17 C :   -0.191792
  18 O :    0.395106
  19 C :    0.027273
  20 H :   -0.025207
  21 H :   -0.022576
  22 H :   -0.026047
  23 H :   -0.023876
  24 H :   -0.039845
  25 H :   -0.006036
  26 H :   -0.013914
  27 H :   -0.016152
  28 H :   -0.057735
  29 H :   -0.063492
  30 H :   -0.004850
  31 H :   -0.021327
  32 H :   -0.018697
  33 H :   -0.034682
  34 H :   -0.153216
  35 H :   -0.023392

  Mayer bond orders larger than 0.100000
B(  0-C ,  1-C ) :   0.9800 B(  0-C , 20-H ) :   0.9673 B(  0-C , 21-H ) :   0.9777
B(  0-C , 22-H ) :   0.9763 B(  1-C ,  2-O ) :   0.8944 B(  1-C , 23-H ) :   0.9796
B(  1-C , 24-H ) :   0.9637 B(  2-O ,  3-C ) :   1.1486 B(  3-C ,  4-O ) :   2.0911
B(  3-C ,  5-C ) :   0.9361 B(  5-C ,  6-C ) :   1.7100 B(  5-C , 12-C ) :   0.9368
B(  6-C ,  7-C ) :   0.9373 B(  6-C ,  8-N ) :   1.1180 B(  7-C , 25-H ) :   0.9699
B(  7-C , 26-H ) :   0.9838 B(  7-C , 27-H ) :   0.9655 B(  8-N ,  9-C ) :   1.1919
B(  8-N , 28-H ) :   0.9493 B(  9-C , 10-S ) :   1.6117 B(  9-C , 11-N ) :   1.2937
B( 11-N , 12-C ) :   0.9854 B( 11-N , 29-H ) :   0.9481 B( 12-C , 13-C ) :   0.9674
B( 12-C , 30-H ) :   0.9912 B( 13-C , 14-C ) :   1.3897 B( 13-C , 19-C ) :   1.3589
B( 14-C , 15-C ) :   1.3918 B( 14-C , 31-H ) :   0.9592 B( 15-C , 16-C ) :   1.3609
B( 15-C , 32-H ) :   0.9706 B( 16-C , 17-C ) :   1.3319 B( 16-C , 33-H ) :   0.9846
B( 17-C , 18-O ) :   1.1092 B( 17-C , 19-C ) :   1.3668 B( 18-O , 34-H ) :   0.9794
B( 19-C , 35-H ) :   0.9567

MP2 TOTAL ENERGY:    -1274.332928709 Eh
FINAL SINGLE POINT ENERGY     -1274.332928709490

DIPOLE MOMENT
-------------
                                X             Y             Z
Electronic contribution:      9.34430       8.34241       6.64425
Nuclear contribution   :    -10.98933      -9.37995      -7.05199
                        -----------------------------------------
Total Dipole Moment    :     -1.64503      -1.03754      -0.40773
                        -----------------------------------------
Magnitude (a.u.)       :      1.98718
Magnitude (Debye)      :      5.05100

Rotational constants in cm-1:     0.011627     0.009153     0.006395
Rotational constants in MHz :   348.565746   274.387629   191.724627

                             ****ORCA TERMINATED NORMALLY****
TOTAL RUN TIME: 0 days 1 hours 45 minutes 29 seconds 856 msec
