                         Program Version 4.2.0 -  RELEASE  -
|  1> ! ri-mp2 cc-pvtz cc-pvtz/c TightSCF NoKeepInts
|  2>
|  3> %scf
|  4>   MaxCore 4096
|  5> end
|  6> *xyz  0  1
|  7>     C       14.2897180   14.7382119   15.6530858
|  8>     C       15.0552545   16.0078803   16.0582529
|  9>     O       16.2983355   16.0026360   15.3323279
| 10>     C       17.0608004   17.1322952   15.2245773
| 11>     O       17.6938089   17.3757951   14.2144062
| 12>     C       17.0659093   18.0344508   16.4161400
| 13>     C       16.8992303   19.3605194   16.2058052
| 14>     C       16.3164298   19.9873590   14.9574949
| 15>     N       17.2891951   20.3023413   17.1591063
| 16>     C       18.0848767   20.0135007   18.2359644
| 17>     S       18.6174571   21.1879226   19.2710812
| 18>     N       18.4390376   18.6963610   18.3990166
| 19>     C       17.9020070   17.5653516   17.6157089
| 20>     C       17.2956670   16.4587986   18.4637837
| 21>     C       17.6480407   15.1156571   18.2375216
| 22>     C       17.0753737   14.0890889   19.0067258
| 23>     C       16.1465760   14.4087769   20.0119405
| 24>     C       15.7971139   15.7464989   20.2419284
| 25>     O       14.8955011   16.0574529   21.2064319
| 26>     C       16.3658342   16.7666655   19.4724901
| 27>     H       13.3161527   14.6972570   16.1563345
| 28>     H       14.8582847   13.8419573   15.9313024
| 29>     H       14.1195462   14.7174124   14.5692699
| 30>     H       14.4589860   16.8885122   15.7844108
| 31>     H       15.2076316   16.0125217   17.1408482
| 32>     H       15.5168324   19.3660957   14.5357264
| 33>     H       17.0915237   20.0894263   14.1860495
| 34>     H       15.8931908   20.9812696   15.1459684
| 35>     H       17.0769337   21.2777765   17.0209258
| 36>     H       19.0221175   18.5119948   19.2060782
| 37>     H       18.8391090   17.2007713   17.1694427
| 38>     H       18.3587882   14.8652109   17.4533417
| 39>     H       17.3509623   13.0520198   18.8214119
| 40>     H       15.7019478   13.6184177   20.6080807
| 41>     H       14.6582552   15.2352992   21.6618198
| 42>     H       16.0805712   17.7964941   19.6631996
| 43> *
| 44>
| 45>                          ****END OF INPUT****

CARTESIAN COORDINATES (ANGSTROEM)
---------------------------------
  C     14.289718   14.738212   15.653086
  C     15.055255   16.007880   16.058253
  O     16.298336   16.002636   15.332328
  C     17.060800   17.132295   15.224577
  O     17.693809   17.375795   14.214406
  C     17.065909   18.034451   16.416140
  C     16.899230   19.360519   16.205805
  C     16.316430   19.987359   14.957495
  N     17.289195   20.302341   17.159106
  C     18.084877   20.013501   18.235964
  S     18.617457   21.187923   19.271081
  N     18.439038   18.696361   18.399017
  C     17.902007   17.565352   17.615709
  C     17.295667   16.458799   18.463784
  C     17.648041   15.115657   18.237522
  C     17.075374   14.089089   19.006726
  C     16.146576   14.408777   20.011940
  C     15.797114   15.746499   20.241928
  O     14.895501   16.057453   21.206432
  C     16.365834   16.766665   19.472490
  H     13.316153   14.697257   16.156334
  H     14.858285   13.841957   15.931302
  H     14.119546   14.717412   14.569270
  H     14.458986   16.888512   15.784411
  H     15.207632   16.012522   17.140848
  H     15.516832   19.366096   14.535726
  H     17.091524   20.089426   14.186049
  H     15.893191   20.981270   15.145968
  H     17.076934   21.277777   17.020926
  H     19.022118   18.511995   19.206078
  H     18.839109   17.200771   17.169443
  H     18.358788   14.865211   17.453342
  H     17.350962   13.052020   18.821412
  H     15.701948   13.618418   20.608081
  H     14.658255   15.235299   21.661820
  H     16.080571   17.796494   19.663200

 Total Charge           Charge          ....    0
 Multiplicity           Mult            ....    1
 Number of Electrons    NEL             ....  154
 Basis Dimension        Dim             ....  828

ORBITAL ENERGIES
----------------

  NO   OCC          E(Eh)            E(eV)
   0   2.0000     -91.890380     -2500.4644
   1   2.0000     -20.604129      -560.6669
   2   2.0000     -20.596958      -560.4717
   3   2.0000     -20.552892      -559.2726
   4   2.0000     -15.627186      -425.2374
   5   2.0000     -15.611102      -424.7997
   6   2.0000     -11.395117      -310.0769
   7   2.0000     -11.385740      -309.8217
   8   2.0000     -11.329417      -308.2891
   9   2.0000     -11.322628      -308.1044
  10   2.0000     -11.316860      -307.9474
  11   2.0000     -11.298555      -307.4493
  12   2.0000     -11.269817      -306.6673
  13   2.0000     -11.263819      -306.5041
  14   2.0000     -11.257677      -306.3370
  15   2.0000     -11.256373      -306.3015
  16   2.0000     -11.252353      -306.1921
  17   2.0000     -11.247183      -306.0514
  18   2.0000     -11.247043      -306.0476
  19   2.0000     -11.230411      -305.5950
  20   2.0000      -8.895451      -242.0575
  21   2.0000      -6.577023      -178.9699
  22   2.0000      -6.575023      -178.9155
  23   2.0000      -6.574433      -178.8994
  24   2.0000      -1.448517       -39.4162
  25   2.0000      -1.423906       -38.7465
  26   2.0000      -1.361657       -37.0526
  27   2.0000      -1.340247       -36.4700
  28   2.0000      -1.240042       -33.7433
  29   2.0000      -1.166120       -31.7317
  30   2.0000      -1.125372       -30.6229
  31   2.0000      -1.050938       -28.5975
  32   2.0000      -1.037217       -28.2241
  33   2.0000      -1.024189       -27.8696
  34   2.0000      -1.003062       -27.2947
  35   2.0000      -0.989370       -26.9221
  36   2.0000      -0.927158       -25.2293
  37   2.0000      -0.877226       -23.8705
  38   2.0000      -0.853014       -23.2117
  39   2.0000      -0.844306       -22.9747
  40   2.0000      -0.842405       -22.9230
  41   2.0000      -0.838406       -22.8142
  42   2.0000      -0.760953       -20.7066
  43   2.0000      -0.739424       -20.1207
  44   2.0000      -0.728854       -19.8331
  45   2.0000      -0.702542       -19.1171
  46   2.0000      -0.692203       -18.8358
  47   2.0000      -0.680798       -18.5254
  48   2.0000      -0.675884       -18.3917
  49   2.0000      -0.664971       -18.0948
  50   2.0000      -0.653766       -17.7899
  51   2.0000      -0.650341       -17.6967
  52   2.0000      -0.637780       -17.3549
  53   2.0000      -0.614390       -16.7184
  54   2.0000      -0.608434       -16.5563
  55   2.0000      -0.604206       -16.4413
  56   2.0000      -0.594906       -16.1882
  57   2.0000      -0.582340       -15.8463
  58   2.0000      -0.576924       -15.6989
  59   2.0000      -0.566157       -15.4059
  60   2.0000      -0.558467       -15.1967
  61   2.0000      -0.557575       -15.1724
  62   2.0000      -0.548939       -14.9374
  63   2.0000      -0.529504       -14.4085
  64   2.0000      -0.520990       -14.1769
  65   2.0000      -0.517179       -14.0732
  66   2.0000      -0.509370       -13.8607
  67   2.0000      -0.503987       -13.7142
  68   2.0000      -0.486534       -13.2393
  69   2.0000      -0.468114       -12.7380
  70   2.0000      -0.454254       -12.3609
  71   2.0000      -0.453308       -12.3351
  72   2.0000      -0.357723        -9.7341
  73   2.0000      -0.352292        -9.5864
  74   2.0000      -0.331175        -9.0117
  75   2.0000      -0.329011        -8.9529
  76   2.0000      -0.320082        -8.7099
  77   0.0000       0.083658         2.2765
  78   0.0000       0.097333         2.6486
  79   0.0000       0.120048         3.2667
  80   0.0000       0.126078         3.4307
  81   0.0000       0.128899         3.5075

MULLIKEN ATOMIC CHARGES
-----------------------
   0 C :   -0.260835
   1 C :    0.020373
   2 O :   -0.310458
   3 C :    0.396037
   4 O :   -0.370972
   5 C :   -0.201956
   6 C :    0.143012
   7 C :   -0.284213
   8 N :   -0.134087
   9 C :    0.213088
  10 S :   -0.439798
  11 N :   -0.220222
  12 C :    0.028054
  13 C :    0.005368
  14 C :   -0.185094
  15 C :   -0.140668
  16 C :   -0.269476
  17 C :    0.306970
  18 O :   -0.354220
  19 C :   -0.231999
  20 H :    0.088307
  21 H :    0.098155
  22 H :    0.104448
  23 H :    0.093447
  24 H :    0.113012
  25 H :    0.113421
  26 H :    0.144677
  27 H :    0.098947
  28 H :    0.198058
  29 H :    0.201920
  30 H :    0.161434
  31 H :    0.157771
  32 H :    0.166306
  33 H :    0.135190
  34 H :    0.241597
  35 H :    0.174406
Sum of atomic charges:    0.0000000

LOEWDIN ATOMIC CHARGES
----------------------
   0 C :    0.111666
   1 C :   -0.025179
   2 O :    0.306948
   3 C :   -0.421696
   4 O :    0.128257
   5 C :   -0.095571
   6 C :   -0.080866
   7 C :    0.129486
   8 N :    0.405118
   9 C :   -0.455032
  10 S :   -0.035439
  11 N :    0.395725
  12 C :   -0.053861
  13 C :   -0.046179
  14 C :    0.019588
  15 C :    0.044514
  16 C :    0.001514
  17 C :   -0.191852
  18 O :    0.397200
  19 C :    0.030405
  20 H :   -0.025380
  21 H :   -0.026288
  22 H :   -0.024733
  23 H :   -0.035858
  24 H :   -0.035701
  25 H :   -0.011152
  26 H :   -0.003412
  27 H :   -0.020342
  28 H :   -0.057795
  29 H :   -0.063910
  30 H :   -0.009381
  31 H :   -0.025625
  32 H :   -0.018230
  33 H :   -0.033468
  34 H :   -0.152274
  35 H :   -0.021194

  Mayer bond orders larger than 0.100000
B(  0-C ,  1-C ) :   0.9828 B(  0-C , 20-H ) :   0.9773 B(  0-C , 21-H ) :   0.9779
B(  0-C , 22-H ) :   0.9782 B(  1-C ,  2-O ) :   0.8957 B(  1-C , 23-H ) :   0.9778
B(  1-C , 24-H ) :   0.9595 B(  2-O ,  3-C ) :   1.1830 B(  3-C ,  4-O ) :   2.1297
B(  3-C ,  5-C ) :   0.9259 B(  5-C ,  6-C ) :   1.6955 B(  5-C , 12-C ) :   0.9583
B(  6-C ,  7-C ) :   0.9458 B(  6-C ,  8-N ) :   1.1258 B(  7-C , 25-H ) :   0.9777
B(  7-C , 26-H ) :   0.9568 B(  7-C , 27-H ) :   0.9851 B(  8-N ,  9-C ) :   1.1981
B(  8-N , 28-H ) :   0.9492 B(  9-C , 10-S ) :   1.6133 B(  9-C , 11-N ) :   1.2870
B( 11-N , 12-C ) :   0.9779 B( 11-N , 29-H ) :   0.9461 B( 12-C , 13-C ) :   0.9562
B( 12-C , 30-H ) :   1.0040 B( 13-C , 14-C ) :   1.3781 B( 13-C , 19-C ) :   1.3567
B( 14-C , 15-C ) :   1.3940 B( 14-C , 31-H ) :   0.9691 B( 15-C , 16-C ) :   1.3610
B( 15-C , 32-H ) :   0.9691 B( 16-C , 17-C ) :   1.3314 B( 16-C , 33-H ) :   0.9832
B( 17-C , 18-O ) :   1.1114 B( 17-C , 19-C ) :   1.3617 B( 18-O , 34-H ) :   0.9787
B( 19-C , 35-H ) :   0.9573

MP2 TOTAL ENERGY:    -1274.325062878 Eh
FINAL SINGLE POINT ENERGY     -1274.325062878190

DIPOLE MOMENT
-------------
                                X             Y             Z
Electronic contribution:     10.36633       9.59456       7.00812
Nuclear contribution   :    -11.96212     -11.15643      -6.83789
                        -----------------------------------------
Total Dipole Moment    :     -1.59578      -1.56186       0.17023
                        -----------------------------------------
Magnitude (a.u.)       :      2.23940
Magnitude (Debye)      :      5.69210

Rotational constants in cm-1:     0.012063     0.008844     0.005984
Rotational constants in MHz :   361.648861   265.137646   179.393628

                             ****ORCA TERMINATED NORMALLY****
TOTAL RUN TIME: 0 days 1 hours 42 minutes 25 seconds 709 msec
