                         Program Version 4.2.0 -  RELEASE  -
|  1> ! ri-mp2 cc-pvtz cc-pvtz/c TightSCF NoKeepInts
|  2>
|  3> %scf
|  4>   MaxCore 4096
|  5> end
|  6> *xyz  0  1
|  7>     C       14.6099074   15.8409651   16.4192406
|  8>     C       15.5480001   15.1832029   15.3887620
|  9>     O       16.9355576   15.5625982   15.5298260
| 10>     C       17.3203239   16.8341873   15.2224071
| 11>     O       17.6552209   17.1127926   14.0855394
| 12>     C       17.1378677   17.8435199   16.3181137
| 13>     C       16.9383362   19.1444397   15.9896657
| 14>     C       16.4546900   19.6751851   14.6563351
| 15>     N       17.1564865   20.1675140   16.9137885
| 16>     C       17.8207873   20.0006914   18.0986035
| 17>     S       18.1665099   21.2729182   19.0969315
| 18>     N       18.2086969   18.7202621   18.4042879
| 19>     C       17.8164421   17.5073437   17.6584218
| 20>     C       17.1400035   16.4655289   18.5387053
| 21>     C       17.5764747   15.1278261   18.5307064
| 22>     C       16.9713019   14.1737672   19.3658697
| 23>     C       15.9288033   14.5625130   20.2245743
| 24>     C       15.4998927   15.8967893   20.2441828
| 25>     O       14.4929434   16.2746883   21.0708970
| 26>     C       16.1012335   16.8436866   19.4086800
| 27>     H       14.8364359   15.4843557   17.4281853
| 28>     H       13.5710349   15.5619885   16.2055706
| 29>     H       14.6654827   16.9344416   16.3979574
| 30>     H       15.4687358   14.0934924   15.4943089
| 31>     H       15.2069934   15.4371535   14.3758483
| 32>     H       17.2971119   19.7893073   13.9615424
| 33>     H       15.9539297   20.6464998   14.7457369
| 34>     H       15.7407118   18.9836943   14.1919830
| 35>     H       16.9141077   21.1168693   16.6786776
| 36>     H       18.6852262   18.6248032   19.2925164
| 37>     H       18.8181205   17.1504578   17.3785694
| 38>     H       18.3822326   14.8248068   17.8666132
| 39>     H       17.3122528   13.1399574   19.3469316
| 40>     H       15.4596942   13.8290377   20.8722049
| 41>     H       14.2390233   15.5004365   21.5955164
| 42>     H       15.7564272   17.8722786   19.4402992
| 43> *
| 44>
| 45>                          ****END OF INPUT****

CARTESIAN COORDINATES (ANGSTROEM)
---------------------------------
  C     14.609907   15.840965   16.419241
  C     15.548000   15.183203   15.388762
  O     16.935558   15.562598   15.529826
  C     17.320324   16.834187   15.222407
  O     17.655221   17.112793   14.085539
  C     17.137868   17.843520   16.318114
  C     16.938336   19.144440   15.989666
  C     16.454690   19.675185   14.656335
  N     17.156486   20.167514   16.913788
  C     17.820787   20.000691   18.098603
  S     18.166510   21.272918   19.096932
  N     18.208697   18.720262   18.404288
  C     17.816442   17.507344   17.658422
  C     17.140003   16.465529   18.538705
  C     17.576475   15.127826   18.530706
  C     16.971302   14.173767   19.365870
  C     15.928803   14.562513   20.224574
  C     15.499893   15.896789   20.244183
  O     14.492943   16.274688   21.070897
  C     16.101233   16.843687   19.408680
  H     14.836436   15.484356   17.428185
  H     13.571035   15.561988   16.205571
  H     14.665483   16.934442   16.397957
  H     15.468736   14.093492   15.494309
  H     15.206993   15.437154   14.375848
  H     17.297112   19.789307   13.961542
  H     15.953930   20.646500   14.745737
  H     15.740712   18.983694   14.191983
  H     16.914108   21.116869   16.678678
  H     18.685226   18.624803   19.292516
  H     18.818120   17.150458   17.378569
  H     18.382233   14.824807   17.866613
  H     17.312253   13.139957   19.346932
  H     15.459694   13.829038   20.872205
  H     14.239023   15.500436   21.595516
  H     15.756427   17.872279   19.440299

 Total Charge           Charge          ....    0
 Multiplicity           Mult            ....    1
 Number of Electrons    NEL             ....  154
 Basis Dimension        Dim             ....  828

ORBITAL ENERGIES
----------------

  NO   OCC          E(Eh)            E(eV)
   0   2.0000     -91.890917     -2500.4790
   1   2.0000     -20.599548      -560.5422
   2   2.0000     -20.582289      -560.0725
   3   2.0000     -20.555475      -559.3429
   4   2.0000     -15.629326      -425.2956
   5   2.0000     -15.609805      -424.7644
   6   2.0000     -11.394178      -310.0513
   7   2.0000     -11.385468      -309.8143
   8   2.0000     -11.334513      -308.4278
   9   2.0000     -11.316880      -307.9480
  10   2.0000     -11.314062      -307.8713
  11   2.0000     -11.303499      -307.5839
  12   2.0000     -11.264598      -306.5253
  13   2.0000     -11.258356      -306.3554
  14   2.0000     -11.258250      -306.3525
  15   2.0000     -11.255524      -306.2784
  16   2.0000     -11.247639      -306.0638
  17   2.0000     -11.242249      -305.9172
  18   2.0000     -11.241708      -305.9024
  19   2.0000     -11.224788      -305.4420
  20   2.0000      -8.895966      -242.0715
  21   2.0000      -6.577533      -178.9838
  22   2.0000      -6.575540      -178.9295
  23   2.0000      -6.574943      -178.9133
  24   2.0000      -1.447768       -39.3958
  25   2.0000      -1.419384       -38.6234
  26   2.0000      -1.356005       -36.8988
  27   2.0000      -1.341773       -36.5115
  28   2.0000      -1.240451       -33.7544
  29   2.0000      -1.160824       -31.5876
  30   2.0000      -1.123357       -30.5681
  31   2.0000      -1.046289       -28.4710
  32   2.0000      -1.033613       -28.1260
  33   2.0000      -1.018707       -27.7204
  34   2.0000      -1.002287       -27.2736
  35   2.0000      -0.988578       -26.9006
  36   2.0000      -0.925050       -25.1719
  37   2.0000      -0.893379       -24.3101
  38   2.0000      -0.849016       -23.1029
  39   2.0000      -0.841837       -22.9075
  40   2.0000      -0.837466       -22.7886
  41   2.0000      -0.822278       -22.3753
  42   2.0000      -0.753757       -20.5108
  43   2.0000      -0.736436       -20.0394
  44   2.0000      -0.726052       -19.7569
  45   2.0000      -0.697794       -18.9879
  46   2.0000      -0.690532       -18.7903
  47   2.0000      -0.674831       -18.3631
  48   2.0000      -0.673494       -18.3267
  49   2.0000      -0.668138       -18.1810
  50   2.0000      -0.649233       -17.6665
  51   2.0000      -0.647700       -17.6248
  52   2.0000      -0.636162       -17.3109
  53   2.0000      -0.610992       -16.6259
  54   2.0000      -0.606949       -16.5159
  55   2.0000      -0.602160       -16.3856
  56   2.0000      -0.598241       -16.2790
  57   2.0000      -0.580211       -15.7883
  58   2.0000      -0.576480       -15.6868
  59   2.0000      -0.570444       -15.5226
  60   2.0000      -0.565468       -15.3872
  61   2.0000      -0.553481       -15.0610
  62   2.0000      -0.540921       -14.7192
  63   2.0000      -0.525711       -14.3053
  64   2.0000      -0.520651       -14.1676
  65   2.0000      -0.514355       -13.9963
  66   2.0000      -0.502397       -13.6709
  67   2.0000      -0.501441       -13.6449
  68   2.0000      -0.477998       -13.0070
  69   2.0000      -0.463881       -12.6228
  70   2.0000      -0.455117       -12.3844
  71   2.0000      -0.451579       -12.2881
  72   2.0000      -0.356340        -9.6965
  73   2.0000      -0.348992        -9.4966
  74   2.0000      -0.329906        -8.9772
  75   2.0000      -0.324793        -8.8381
  76   2.0000      -0.320527        -8.7220
  77   0.0000       0.074638         2.0310
  78   0.0000       0.102169         2.7801
  79   0.0000       0.119679         3.2566
  80   0.0000       0.127904         3.4804
  81   0.0000       0.129569         3.5257

MULLIKEN ATOMIC CHARGES
-----------------------
   0 C :   -0.321629
   1 C :    0.038645
   2 O :   -0.372481
   3 C :    0.457334
   4 O :   -0.374056
   5 C :   -0.238001
   6 C :    0.160275
   7 C :   -0.276143
   8 N :   -0.130185
   9 C :    0.208183
  10 S :   -0.437577
  11 N :   -0.219453
  12 C :    0.033976
  13 C :    0.016522
  14 C :   -0.185848
  15 C :   -0.137719
  16 C :   -0.271578
  17 C :    0.304274
  18 O :   -0.358196
  19 C :   -0.223348
  20 H :    0.116962
  21 H :    0.118572
  22 H :    0.100361
  23 H :    0.114623
  24 H :    0.100455
  25 H :    0.142140
  26 H :    0.096628
  27 H :    0.117271
  28 H :    0.199492
  29 H :    0.202156
  30 H :    0.153907
  31 H :    0.156583
  32 H :    0.163762
  33 H :    0.132973
  34 H :    0.240874
  35 H :    0.170246
Sum of atomic charges:   -0.0000000

LOEWDIN ATOMIC CHARGES
----------------------
   0 C :    0.105586
   1 C :   -0.018042
   2 O :    0.287244
   3 C :   -0.422703
   4 O :    0.133221
   5 C :   -0.096687
   6 C :   -0.067633
   7 C :    0.128389
   8 N :    0.407205
   9 C :   -0.457771
  10 S :   -0.033669
  11 N :    0.396205
  12 C :   -0.052760
  13 C :   -0.042826
  14 C :    0.021472
  15 C :    0.039911
  16 C :   -0.001161
  17 C :   -0.193960
  18 O :    0.396240
  19 C :    0.032615
  20 H :   -0.026180
  21 H :   -0.024535
  22 H :   -0.036138
  23 H :   -0.019427
  24 H :   -0.030741
  25 H :   -0.004287
  26 H :   -0.021868
  27 H :   -0.009206
  28 H :   -0.056875
  29 H :   -0.063493
  30 H :   -0.011338
  31 H :   -0.026679
  32 H :   -0.019724
  33 H :   -0.034550
  34 H :   -0.153366
  35 H :   -0.022467

  Mayer bond orders larger than 0.100000
B(  0-C ,  1-C ) :   0.9618 B(  0-C , 20-H ) :   0.9713 B(  0-C , 21-H ) :   0.9772
B(  0-C , 22-H ) :   0.9688 B(  1-C ,  2-O ) :   0.8926 B(  1-C , 23-H ) :   0.9840
B(  1-C , 24-H ) :   0.9830 B(  2-O ,  3-C ) :   1.1119 B(  3-C ,  4-O ) :   2.0914
B(  3-C ,  5-C ) :   0.9862 B(  5-C ,  6-C ) :   1.6526 B(  5-C , 12-C ) :   0.9631
B(  6-C ,  7-C ) :   0.9568 B(  6-C ,  8-N ) :   1.1379 B(  7-C , 25-H ) :   0.9562
B(  7-C , 26-H ) :   0.9848 B(  7-C , 27-H ) :   0.9732 B(  8-N ,  9-C ) :   1.1915
B(  8-N , 28-H ) :   0.9484 B(  9-C , 10-S ) :   1.6144 B(  9-C , 11-N ) :   1.2940
B( 11-N , 12-C ) :   0.9754 B( 11-N , 29-H ) :   0.9466 B( 12-C , 13-C ) :   0.9533
B( 12-C , 30-H ) :   1.0053 B( 13-C , 14-C ) :   1.3729 B( 13-C , 19-C ) :   1.3572
B( 14-C , 15-C ) :   1.3985 B( 14-C , 31-H ) :   0.9670 B( 15-C , 16-C ) :   1.3543
B( 15-C , 32-H ) :   0.9699 B( 16-C , 17-C ) :   1.3339 B( 16-C , 33-H ) :   0.9844
B( 17-C , 18-O ) :   1.1076 B( 17-C , 19-C ) :   1.3666 B( 18-O , 34-H ) :   0.9795
B( 19-C , 35-H ) :   0.9594

MP2 TOTAL ENERGY:    -1274.315952544 Eh
FINAL SINGLE POINT ENERGY     -1274.315952543912

DIPOLE MOMENT
-------------
                                X             Y             Z
Electronic contribution:      9.02856       8.23070       6.18268
Nuclear contribution   :    -10.34793      -9.88413      -6.28893
                        -----------------------------------------
Total Dipole Moment    :     -1.31937      -1.65343      -0.10625
                        -----------------------------------------
Magnitude (a.u.)       :      2.11799
Magnitude (Debye)      :      5.38350

Rotational constants in cm-1:     0.012031     0.009287     0.006191
Rotational constants in MHz :   360.682185   278.426999   185.587252

                             ****ORCA TERMINATED NORMALLY****
TOTAL RUN TIME: 0 days 2 hours 9 minutes 28 seconds 339 msec
