                         Program Version 4.2.0 -  RELEASE  -
|  1> ! ri-mp2 cc-pvtz cc-pvtz/c TightSCF NoKeepInts
|  2>
|  3> %scf
|  4>   MaxCore 4096
|  5> end
|  6> *xyz  0  1
|  7>     C       15.6315157   14.0414012   14.7997071
|  8>     C       14.9150454   15.3811303   15.0379725
|  9>     O       15.8034769   16.2082566   15.8074689
| 10>     C       15.6907529   17.5690210   15.7457411
| 11>     O       14.8987063   18.1212517   15.0006649
| 12>     C       16.6253979   18.2703490   16.6955316
| 13>     C       16.8496184   19.6057079   16.5905607
| 14>     C       16.0646768   20.6051908   15.7661040
| 15>     N       17.9043905   20.2148323   17.2742521
| 16>     C       18.8954059   19.5370182   17.9309445
| 17>     S       20.1708651   20.3177465   18.6376511
| 18>     N       18.7878045   18.1696842   17.9538805
| 19>     C       17.6392076   17.3929489   17.4502754
| 20>     C       17.0209698   16.5024277   18.5202371
| 21>     C       17.1510540   15.1030393   18.4513715
| 22>     C       16.5821269   14.2840190   19.4411839
| 23>     C       15.8813527   14.8698486   20.5095099
| 24>     C       15.7545624   16.2641139   20.5821663
| 25>     O       15.0797823   16.8321444   21.6132546
| 26>     C       16.3217494   17.0765541   19.5953725
| 27>     H       15.8551824   13.5489748   15.7542357
| 28>     H       16.5732058   14.1966497   14.2586967
| 29>     H       15.0007589   13.3688821   14.2057133
| 30>     H       14.6979705   15.8388946   14.0629357
| 31>     H       13.9685219   15.2317824   15.5738788
| 32>     H       14.9921018   20.5297472   15.9867119
| 33>     H       16.1936846   20.4088982   14.6941029
| 34>     H       16.3623009   21.6439516   15.9515204
| 35>     H       18.0069722   21.2166590   17.2461612
| 36>     H       19.5162348   17.6986661   18.4753739
| 37>     H       18.1379077   16.7855808   16.6817149
| 38>     H       17.6875254   14.6496524   17.6222358
| 39>     H       16.6843099   13.2021329   19.3783401
| 40>     H       15.4402239   14.2417082   21.2763461
| 41>     H       14.7822197   16.1171801   22.1955164
| 42>     H       16.2194180   18.1539543   19.6706662
| 43> *
| 44>
| 45>                          ****END OF INPUT****

CARTESIAN COORDINATES (ANGSTROEM)
---------------------------------
  C     15.631516   14.041401   14.799707
  C     14.915045   15.381130   15.037973
  O     15.803477   16.208257   15.807469
  C     15.690753   17.569021   15.745741
  O     14.898706   18.121252   15.000665
  C     16.625398   18.270349   16.695532
  C     16.849618   19.605708   16.590561
  C     16.064677   20.605191   15.766104
  N     17.904390   20.214832   17.274252
  C     18.895406   19.537018   17.930944
  S     20.170865   20.317746   18.637651
  N     18.787805   18.169684   17.953881
  C     17.639208   17.392949   17.450275
  C     17.020970   16.502428   18.520237
  C     17.151054   15.103039   18.451372
  C     16.582127   14.284019   19.441184
  C     15.881353   14.869849   20.509510
  C     15.754562   16.264114   20.582166
  O     15.079782   16.832144   21.613255
  C     16.321749   17.076554   19.595372
  H     15.855182   13.548975   15.754236
  H     16.573206   14.196650   14.258697
  H     15.000759   13.368882   14.205713
  H     14.697971   15.838895   14.062936
  H     13.968522   15.231782   15.573879
  H     14.992102   20.529747   15.986712
  H     16.193685   20.408898   14.694103
  H     16.362301   21.643952   15.951520
  H     18.006972   21.216659   17.246161
  H     19.516235   17.698666   18.475374
  H     18.137908   16.785581   16.681715
  H     17.687525   14.649652   17.622236
  H     16.684310   13.202133   19.378340
  H     15.440224   14.241708   21.276346
  H     14.782220   16.117180   22.195516
  H     16.219418   18.153954   19.670666

 Total Charge           Charge          ....    0
 Multiplicity           Mult            ....    1
 Number of Electrons    NEL             ....  154
 Basis Dimension        Dim             ....  828

ORBITAL ENERGIES
----------------

  NO   OCC          E(Eh)            E(eV)
   0   2.0000     -91.888699     -2500.4186
   1   2.0000     -20.602305      -560.6172
   2   2.0000     -20.595714      -560.4379
   3   2.0000     -20.540899      -558.9463
   4   2.0000     -15.628980      -425.2862
   5   2.0000     -15.606877      -424.6847
   6   2.0000     -11.394743      -310.0667
   7   2.0000     -11.383332      -309.7562
   8   2.0000     -11.337178      -308.5003
   9   2.0000     -11.312827      -307.8377
  10   2.0000     -11.307455      -307.6915
  11   2.0000     -11.296046      -307.3810
  12   2.0000     -11.260029      -306.4010
  13   2.0000     -11.259355      -306.3826
  14   2.0000     -11.254345      -306.2463
  15   2.0000     -11.251368      -306.1653
  16   2.0000     -11.242839      -305.9332
  17   2.0000     -11.238268      -305.8088
  18   2.0000     -11.238053      -305.8030
  19   2.0000     -11.231872      -305.6348
  20   2.0000      -8.893772      -242.0118
  21   2.0000      -6.575345      -178.9242
  22   2.0000      -6.573346      -178.8698
  23   2.0000      -6.572756      -178.8538
  24   2.0000      -1.452244       -39.5176
  25   2.0000      -1.415380       -38.5144
  26   2.0000      -1.354554       -36.8593
  27   2.0000      -1.340214       -36.4691
  28   2.0000      -1.238108       -33.6906
  29   2.0000      -1.156910       -31.4811
  30   2.0000      -1.120921       -30.5018
  31   2.0000      -1.043454       -28.3938
  32   2.0000      -1.040506       -28.3136
  33   2.0000      -1.014329       -27.6013
  34   2.0000      -0.996343       -27.1119
  35   2.0000      -0.984580       -26.7918
  36   2.0000      -0.921482       -25.0748
  37   2.0000      -0.889099       -24.1936
  38   2.0000      -0.846032       -23.0217
  39   2.0000      -0.837261       -22.7830
  40   2.0000      -0.833452       -22.6794
  41   2.0000      -0.816929       -22.2298
  42   2.0000      -0.765900       -20.8412
  43   2.0000      -0.732813       -19.9408
  44   2.0000      -0.720135       -19.5959
  45   2.0000      -0.694597       -18.9010
  46   2.0000      -0.685141       -18.6436
  47   2.0000      -0.680038       -18.5048
  48   2.0000      -0.678709       -18.4686
  49   2.0000      -0.664244       -18.0750
  50   2.0000      -0.646397       -17.5894
  51   2.0000      -0.641253       -17.4494
  52   2.0000      -0.634004       -17.2521
  53   2.0000      -0.606132       -16.4937
  54   2.0000      -0.600611       -16.3434
  55   2.0000      -0.598385       -16.2829
  56   2.0000      -0.593233       -16.1427
  57   2.0000      -0.577080       -15.7031
  58   2.0000      -0.569733       -15.5032
  59   2.0000      -0.569411       -15.4945
  60   2.0000      -0.561806       -15.2875
  61   2.0000      -0.550947       -14.9920
  62   2.0000      -0.541277       -14.7289
  63   2.0000      -0.523862       -14.2550
  64   2.0000      -0.522892       -14.2286
  65   2.0000      -0.512872       -13.9560
  66   2.0000      -0.503003       -13.6874
  67   2.0000      -0.497203       -13.5296
  68   2.0000      -0.483751       -13.1635
  69   2.0000      -0.463657       -12.6168
  70   2.0000      -0.459704       -12.5092
  71   2.0000      -0.447313       -12.1720
  72   2.0000      -0.352893        -9.6027
  73   2.0000      -0.349151        -9.5009
  74   2.0000      -0.327828        -8.9207
  75   2.0000      -0.320203        -8.7132
  76   2.0000      -0.317856        -8.6493
  77   0.0000       0.077923         2.1204
  78   0.0000       0.104924         2.8551
  79   0.0000       0.124451         3.3865
  80   0.0000       0.133007         3.6193
  81   0.0000       0.135977         3.7001

MULLIKEN ATOMIC CHARGES
-----------------------
   0 C :   -0.275611
   1 C :    0.035986
   2 O :   -0.335296
   3 C :    0.432508
   4 O :   -0.435911
   5 C :   -0.218887
   6 C :    0.172306
   7 C :   -0.269247
   8 N :   -0.126477
   9 C :    0.209999
  10 S :   -0.442194
  11 N :   -0.214462
  12 C :    0.051260
  13 C :    0.047179
  14 C :   -0.177150
  15 C :   -0.134237
  16 C :   -0.275330
  17 C :    0.316300
  18 O :   -0.357004
  19 C :   -0.248388
  20 H :    0.093612
  21 H :    0.095586
  22 H :    0.099757
  23 H :    0.109816
  24 H :    0.091776
  25 H :    0.133715
  26 H :    0.128812
  27 H :    0.094355
  28 H :    0.199843
  29 H :    0.200443
  30 H :    0.152380
  31 H :    0.152656
  32 H :    0.159657
  33 H :    0.129509
  34 H :    0.240420
  35 H :    0.162320
Sum of atomic charges:   -0.0000000

LOEWDIN ATOMIC CHARGES
----------------------
   0 C :    0.105429
   1 C :   -0.014121
   2 O :    0.311768
   3 C :   -0.413861
   4 O :    0.094259
   5 C :   -0.094765
   6 C :   -0.056625
   7 C :    0.130980
   8 N :    0.407087
   9 C :   -0.456772
  10 S :   -0.036757
  11 N :    0.394712
  12 C :   -0.055020
  13 C :   -0.039393
  14 C :    0.017087
  15 C :    0.038700
  16 C :   -0.000192
  17 C :   -0.189514
  18 O :    0.394933
  19 C :    0.033653
  20 H :   -0.029918
  21 H :   -0.027238
  22 H :   -0.024188
  23 H :   -0.027574
  24 H :   -0.029218
  25 H :   -0.004119
  26 H :   -0.005248
  27 H :   -0.023704
  28 H :   -0.057148
  29 H :   -0.064304
  30 H :   -0.014412
  31 H :   -0.030360
  32 H :   -0.021758
  33 H :   -0.035493
  34 H :   -0.154115
  35 H :   -0.022787

  Mayer bond orders larger than 0.100000
B(  0-C ,  1-C ) :   0.9709 B(  0-C , 20-H ) :   0.9780 B(  0-C , 21-H ) :   0.9769
B(  0-C , 22-H ) :   0.9785 B(  1-C ,  2-O ) :   0.9014 B(  1-C , 23-H ) :   0.9778
B(  1-C , 24-H ) :   0.9774 B(  2-O ,  3-C ) :   1.1819 B(  3-C ,  4-O ) :   1.9627
B(  3-C ,  5-C ) :   1.0690 B(  5-C ,  6-C ) :   1.6451 B(  5-C , 12-C ) :   0.9545
B(  6-C ,  7-C ) :   0.9657 B(  6-C ,  8-N ) :   1.1529 B(  7-C , 25-H ) :   0.9615
B(  7-C , 26-H ) :   0.9587 B(  7-C , 27-H ) :   0.9904 B(  8-N ,  9-C ) :   1.1879
B(  8-N , 28-H ) :   0.9464 B(  9-C , 10-S ) :   1.6059 B(  9-C , 11-N ) :   1.3090
B( 11-N , 12-C ) :   0.9691 B( 11-N , 29-H ) :   0.9483 B( 12-C , 13-C ) :   0.9651
B( 12-C , 30-H ) :   1.0015 B( 13-C , 14-C ) :   1.3595 B( 13-C , 19-C ) :   1.3803
B( 14-C , 15-C ) :   1.3932 B( 14-C , 31-H ) :   0.9703 B( 15-C , 16-C ) :   1.3613
B( 15-C , 32-H ) :   0.9707 B( 16-C , 17-C ) :   1.3345 B( 16-C , 33-H ) :   0.9852
B( 17-C , 18-O ) :   1.1040 B( 17-C , 19-C ) :   1.3650 B( 18-O , 34-H ) :   0.9800
B( 19-C , 35-H ) :   0.9597

MP2 TOTAL ENERGY:    -1274.344603219 Eh
FINAL SINGLE POINT ENERGY     -1274.344603218576

DIPOLE MOMENT
-------------
                                X             Y             Z
Electronic contribution:      8.07673      10.87843       9.08750
Nuclear contribution   :     -9.24941     -12.48681      -9.49021
                        -----------------------------------------
Total Dipole Moment    :     -1.17267      -1.60837      -0.40272
                        -----------------------------------------
Magnitude (a.u.)       :      2.03081
Magnitude (Debye)      :      5.16191

Rotational constants in cm-1:     0.010899     0.008506     0.005906
Rotational constants in MHz :   326.746014   255.005513   177.066505

                             ****ORCA TERMINATED NORMALLY****
TOTAL RUN TIME: 0 days 1 hours 43 minutes 30 seconds 793 msec
