                         Program Version 4.2.0 -  RELEASE  -
|  1> ! ri-mp2 cc-pvtz cc-pvtz/c TightSCF NoKeepInts
|  2>
|  3> %scf
|  4>   MaxCore 4096
|  5> end
|  6> *xyz  0  1
|  7>     C       14.8180044   14.7160731   13.9668443
|  8>     C       14.5536159   15.8240380   15.0041175
|  9>     O       15.6443452   16.7609030   14.9698205
| 10>     C       16.6990872   16.5624338   15.8118700
| 11>     O       17.2003727   15.4634870   15.9784025
| 12>     C       17.0378310   17.7441411   16.6743693
| 13>     C       16.9196634   19.0247845   16.2349414
| 14>     C       16.2484664   19.5140449   14.9666124
| 15>     N       17.4968404   20.0791454   16.9472432
| 16>     C       18.3890414   19.9233678   17.9736333
| 17>     S       19.1187833   21.2178918   18.6996304
| 18>     N       18.6631947   18.6338063   18.3530105
| 19>     C       17.9671739   17.4318906   17.8538217
| 20>     C       17.2966689   16.6224141   18.9559810
| 21>     C       17.5875925   15.2562384   19.1206905
| 22>     C       16.9680029   14.5110961   20.1379492
| 23>     C       16.0504905   15.1379745   20.9985114
| 24>     C       15.7570850   16.4988572   20.8350639
| 25>     O       14.8679904   17.1054962   21.6613561
| 26>     C       16.3747521   17.2376080   19.8208080
| 27>     H       14.9654162   15.1466601   12.9687729
| 28>     H       13.9691737   14.0233406   13.9203455
| 29>     H       15.7128291   14.1376700   14.2287865
| 30>     H       13.6231381   16.3418220   14.7382895
| 31>     H       14.4323357   15.3940686   16.0082704
| 32>     H       16.6506289   18.9957541   14.0868979
| 33>     H       16.3909735   20.5882445   14.7966925
| 34>     H       15.1676986   19.3293254   15.0032921
| 35>     H       17.3235871   21.0305231   16.6647241
| 36>     H       19.3092206   18.5468780   19.1274276
| 37>     H       18.8158342   16.8770313   17.4277037
| 38>     H       18.2857760   14.7675111   18.4450229
| 39>     H       17.1965959   13.4529372   20.2517729
| 40>     H       15.5688640   14.5658768   21.7844601
| 41>     H       14.5783216   16.4460764   22.3095216
| 42>     H       16.1376043   18.2905893   19.7113423
| 43> *
| 44>
| 45>                          ****END OF INPUT****

CARTESIAN COORDINATES (ANGSTROEM)
---------------------------------
  C     14.818004   14.716073   13.966844
  C     14.553616   15.824038   15.004117
  O     15.644345   16.760903   14.969821
  C     16.699087   16.562434   15.811870
  O     17.200373   15.463487   15.978402
  C     17.037831   17.744141   16.674369
  C     16.919663   19.024784   16.234941
  C     16.248466   19.514045   14.966612
  N     17.496840   20.079145   16.947243
  C     18.389041   19.923368   17.973633
  S     19.118783   21.217892   18.699630
  N     18.663195   18.633806   18.353010
  C     17.967174   17.431891   17.853822
  C     17.296669   16.622414   18.955981
  C     17.587592   15.256238   19.120690
  C     16.968003   14.511096   20.137949
  C     16.050490   15.137975   20.998511
  C     15.757085   16.498857   20.835064
  O     14.867990   17.105496   21.661356
  C     16.374752   17.237608   19.820808
  H     14.965416   15.146660   12.968773
  H     13.969174   14.023341   13.920345
  H     15.712829   14.137670   14.228786
  H     13.623138   16.341822   14.738290
  H     14.432336   15.394069   16.008270
  H     16.650629   18.995754   14.086898
  H     16.390974   20.588244   14.796693
  H     15.167699   19.329325   15.003292
  H     17.323587   21.030523   16.664724
  H     19.309221   18.546878   19.127428
  H     18.815834   16.877031   17.427704
  H     18.285776   14.767511   18.445023
  H     17.196596   13.452937   20.251773
  H     15.568864   14.565877   21.784460
  H     14.578322   16.446076   22.309522
  H     16.137604   18.290589   19.711342

 Total Charge           Charge          ....    0
 Multiplicity           Mult            ....    1
 Number of Electrons    NEL             ....  154
 Basis Dimension        Dim             ....  828

ORBITAL ENERGIES
----------------

  NO   OCC          E(Eh)            E(eV)
   0   2.0000     -91.888632     -2500.4168
   1   2.0000     -20.593866      -560.3876
   2   2.0000     -20.592963      -560.3630
   3   2.0000     -20.550283      -559.2016
   4   2.0000     -15.629271      -425.2941
   5   2.0000     -15.606293      -424.6688
   6   2.0000     -11.396073      -310.1029
   7   2.0000     -11.383258      -309.7542
   8   2.0000     -11.338491      -308.5360
   9   2.0000     -11.309089      -307.7359
  10   2.0000     -11.304800      -307.6192
  11   2.0000     -11.302951      -307.5689
  12   2.0000     -11.260161      -306.4046
  13   2.0000     -11.259566      -306.3884
  14   2.0000     -11.256320      -306.3000
  15   2.0000     -11.249170      -306.1055
  16   2.0000     -11.239314      -305.8373
  17   2.0000     -11.235414      -305.7311
  18   2.0000     -11.232169      -305.6429
  19   2.0000     -11.222230      -305.3724
  20   2.0000      -8.893711      -242.0102
  21   2.0000      -6.575287      -178.9227
  22   2.0000      -6.573285      -178.8682
  23   2.0000      -6.572696      -178.8521
  24   2.0000      -1.453320       -39.5468
  25   2.0000      -1.412712       -38.4418
  26   2.0000      -1.358709       -36.9724
  27   2.0000      -1.340429       -36.4749
  28   2.0000      -1.237558       -33.6757
  29   2.0000      -1.153596       -31.3909
  30   2.0000      -1.121483       -30.5171
  31   2.0000      -1.043021       -28.3820
  32   2.0000      -1.033169       -28.1139
  33   2.0000      -1.011103       -27.5135
  34   2.0000      -0.998993       -27.1840
  35   2.0000      -0.983927       -26.7740
  36   2.0000      -0.921498       -25.0752
  37   2.0000      -0.887055       -24.1380
  38   2.0000      -0.848647       -23.0929
  39   2.0000      -0.836726       -22.7685
  40   2.0000      -0.829347       -22.5677
  41   2.0000      -0.823603       -22.4114
  42   2.0000      -0.754744       -20.5376
  43   2.0000      -0.734534       -19.9877
  44   2.0000      -0.727220       -19.7886
  45   2.0000      -0.691683       -18.8217
  46   2.0000      -0.686526       -18.6813
  47   2.0000      -0.680309       -18.5121
  48   2.0000      -0.670100       -18.2344
  49   2.0000      -0.662094       -18.0165
  50   2.0000      -0.645780       -17.5726
  51   2.0000      -0.641851       -17.4657
  52   2.0000      -0.632994       -17.2246
  53   2.0000      -0.606144       -16.4940
  54   2.0000      -0.599690       -16.3184
  55   2.0000      -0.598593       -16.2885
  56   2.0000      -0.595658       -16.2087
  57   2.0000      -0.587721       -15.9927
  58   2.0000      -0.574052       -15.6207
  59   2.0000      -0.567758       -15.4495
  60   2.0000      -0.561066       -15.2674
  61   2.0000      -0.548776       -14.9330
  62   2.0000      -0.536478       -14.5983
  63   2.0000      -0.518614       -14.1122
  64   2.0000      -0.516500       -14.0547
  65   2.0000      -0.510923       -13.9029
  66   2.0000      -0.503438       -13.6992
  67   2.0000      -0.495080       -13.4718
  68   2.0000      -0.480452       -13.0738
  69   2.0000      -0.462337       -12.5808
  70   2.0000      -0.456466       -12.4211
  71   2.0000      -0.452134       -12.3032
  72   2.0000      -0.353577        -9.6213
  73   2.0000      -0.345702        -9.4070
  74   2.0000      -0.327688        -8.9168
  75   2.0000      -0.317831        -8.6486
  76   2.0000      -0.315822        -8.5940
  77   0.0000       0.074385         2.0241
  78   0.0000       0.109935         2.9915
  79   0.0000       0.121546         3.3074
  80   0.0000       0.135032         3.6744
  81   0.0000       0.139658         3.8003

MULLIKEN ATOMIC CHARGES
-----------------------
   0 C :   -0.276618
   1 C :    0.039826
   2 O :   -0.361188
   3 C :    0.419645
   4 O :   -0.410024
   5 C :   -0.159321
   6 C :    0.150999
   7 C :   -0.278743
   8 N :   -0.127883
   9 C :    0.207506
  10 S :   -0.441437
  11 N :   -0.211049
  12 C :    0.040243
  13 C :    0.032951
  14 C :   -0.172359
  15 C :   -0.134297
  16 C :   -0.277600
  17 C :    0.313813
  18 O :   -0.358731
  19 C :   -0.252056
  20 H :    0.090018
  21 H :    0.088918
  22 H :    0.119238
  23 H :    0.099764
  24 H :    0.093953
  25 H :    0.126210
  26 H :    0.101633
  27 H :    0.127278
  28 H :    0.198902
  29 H :    0.199866
  30 H :    0.156237
  31 H :    0.160529
  32 H :    0.160662
  33 H :    0.128783
  34 H :    0.240094
  35 H :    0.164240
Sum of atomic charges:   -0.0000000

LOEWDIN ATOMIC CHARGES
----------------------
   0 C :    0.105260
   1 C :   -0.016735
   2 O :    0.298383
   3 C :   -0.417005
   4 O :    0.116779
   5 C :   -0.093936
   6 C :   -0.064444
   7 C :    0.125832
   8 N :    0.405655
   9 C :   -0.458397
  10 S :   -0.036973
  11 N :    0.396209
  12 C :   -0.048359
  13 C :   -0.041057
  14 C :    0.024135
  15 C :    0.040843
  16 C :   -0.001265
  17 C :   -0.192724
  18 O :    0.393194
  19 C :    0.029238
  20 H :   -0.029319
  21 H :   -0.029577
  22 H :   -0.024185
  23 H :   -0.026860
  24 H :   -0.027115
  25 H :   -0.008508
  26 H :   -0.020885
  27 H :   -0.009388
  28 H :   -0.058480
  29 H :   -0.063261
  30 H :   -0.007974
  31 H :   -0.023809
  32 H :   -0.020836
  33 H :   -0.036018
  34 H :   -0.154674
  35 H :   -0.023745

  Mayer bond orders larger than 0.100000
B(  0-C ,  1-C ) :   0.9760 B(  0-C , 20-H ) :   0.9767 B(  0-C , 21-H ) :   0.9762
B(  0-C , 22-H ) :   0.9727 B(  1-C ,  2-O ) :   0.8996 B(  1-C , 23-H ) :   0.9836
B(  1-C , 24-H ) :   0.9737 B(  2-O ,  3-C ) :   1.0815 B(  3-C ,  4-O ) :   1.9967
B(  3-C ,  5-C ) :   1.0440 B(  5-C ,  6-C ) :   1.6561 B(  5-C , 12-C ) :   0.9457
B(  6-C ,  7-C ) :   0.9552 B(  6-C ,  8-N ) :   1.1357 B(  7-C , 25-H ) :   0.9656
B(  7-C , 26-H ) :   0.9905 B(  7-C , 27-H ) :   0.9636 B(  8-N ,  9-C ) :   1.1850
B(  8-N , 28-H ) :   0.9469 B(  9-C , 10-S ) :   1.6095 B(  9-C , 11-N ) :   1.3050
B( 11-N , 12-C ) :   0.9764 B( 11-N , 29-H ) :   0.9484 B( 12-C , 13-C ) :   0.9714
B( 12-C , 30-H ) :   0.9965 B( 13-C , 14-C ) :   1.3774 B( 13-C , 19-C ) :   1.3647
B( 14-C , 15-C ) :   1.3972 B( 14-C , 31-H ) :   0.9632 B( 15-C , 16-C ) :   1.3590
B( 15-C , 32-H ) :   0.9710 B( 16-C , 17-C ) :   1.3330 B( 16-C , 33-H ) :   0.9858
B( 17-C , 18-O ) :   1.1041 B( 17-C , 19-C ) :   1.3672 B( 18-O , 34-H ) :   0.9805
B( 19-C , 35-H ) :   0.9600

MP2 TOTAL ENERGY:    -1274.331231784 Eh
FINAL SINGLE POINT ENERGY     -1274.331231783517

DIPOLE MOMENT
-------------
                                X             Y             Z
Electronic contribution:      9.84330      10.32722      11.18595
Nuclear contribution   :    -11.44381     -11.46835     -11.94642
                        -----------------------------------------
Total Dipole Moment    :     -1.60051      -1.14113      -0.76047
                        -----------------------------------------
Magnitude (a.u.)       :      2.10763
Magnitude (Debye)      :      5.35718

Rotational constants in cm-1:     0.009980     0.009120     0.005597
Rotational constants in MHz :   299.201478   273.416556   167.808612

                             ****ORCA TERMINATED NORMALLY****
TOTAL RUN TIME: 0 days 1 hours 34 minutes 58 seconds 804 msec
