                         Program Version 4.2.0 -  RELEASE  -
|  1> ! ri-mp2 cc-pvtz cc-pvtz/c TightSCF NoKeepInts
|  2>
|  3> %scf
|  4>   MaxCore 4096
|  5> end
|  6> *xyz  0  1
|  7>     C       14.0002628   15.0053813   15.1595757
|  8>     C       15.1477325   15.7161302   15.8977435
|  9>     O       15.9075970   16.3785073   14.8766948
| 10>     C       17.0181741   17.1221006   15.1524863
| 11>     O       17.9447829   17.2008622   14.3680008
| 12>     C       16.9874410   17.9428587   16.3957721
| 13>     C       16.7982080   19.2775386   16.2630685
| 14>     C       16.1672679   19.9885252   15.0842963
| 15>     N       17.2164971   20.1675343   17.2570903
| 16>     C       18.1236603   19.8448868   18.2340153
| 17>     S       18.7467988   20.9681222   19.2793753
| 18>     N       18.5262642   18.5337057   18.2704903
| 19>     C       17.9089964   17.4320884   17.5079075
| 20>     C       17.3029398   16.3831519   18.4242950
| 21>     C       17.8853768   15.1127953   18.5838744
| 22>     C       17.4064994   14.2340681   19.5728685
| 23>     C       16.3429808   14.6297143   20.4040767
| 24>     C       15.7439384   15.8824014   20.2208985
| 25>     O       14.7282906   16.2806665   21.0253501
| 26>     C       16.2148786   16.7494758   19.2329969
| 27>     H       13.2478226   14.6301786   15.8631428
| 28>     H       14.4023022   14.1450275   14.6104525
| 29>     H       13.5135510   15.6688438   14.4306973
| 30>     H       14.7269856   16.4405162   16.6093220
| 31>     H       15.7595537   14.9842507   16.4426121
| 32>     H       15.7640162   19.2912699   14.3417869
| 33>     H       16.9099646   20.6113161   14.5672421
| 34>     H       15.3331889   20.6274615   15.4035720
| 35>     H       16.9615865   21.1404855   17.1994948
| 36>     H       19.2049789   18.3192513   18.9903488
| 37>     H       18.8093382   17.0574172   17.0011432
| 38>     H       18.7328345   14.8196075   17.9692259
| 39>     H       17.8757999   13.2614011   19.7133711
| 40>     H       15.9929671   13.9697914   21.1923528
| 41>     H       14.6661427   15.6493409   21.7577601
| 42>     H       15.7673799   17.7333261   19.1345991
| 43> *
| 44>
| 45>                          ****END OF INPUT****

CARTESIAN COORDINATES (ANGSTROEM)
---------------------------------
  C     14.000263   15.005381   15.159576
  C     15.147732   15.716130   15.897743
  O     15.907597   16.378507   14.876695
  C     17.018174   17.122101   15.152486
  O     17.944783   17.200862   14.368001
  C     16.987441   17.942859   16.395772
  C     16.798208   19.277539   16.263068
  C     16.167268   19.988525   15.084296
  N     17.216497   20.167534   17.257090
  C     18.123660   19.844887   18.234015
  S     18.746799   20.968122   19.279375
  N     18.526264   18.533706   18.270490
  C     17.908996   17.432088   17.507908
  C     17.302940   16.383152   18.424295
  C     17.885377   15.112795   18.583874
  C     17.406499   14.234068   19.572868
  C     16.342981   14.629714   20.404077
  C     15.743938   15.882401   20.220899
  O     14.728291   16.280666   21.025350
  C     16.214879   16.749476   19.232997
  H     13.247823   14.630179   15.863143
  H     14.402302   14.145027   14.610452
  H     13.513551   15.668844   14.430697
  H     14.726986   16.440516   16.609322
  H     15.759554   14.984251   16.442612
  H     15.764016   19.291270   14.341787
  H     16.909965   20.611316   14.567242
  H     15.333189   20.627461   15.403572
  H     16.961586   21.140486   17.199495
  H     19.204979   18.319251   18.990349
  H     18.809338   17.057417   17.001143
  H     18.732834   14.819608   17.969226
  H     17.875800   13.261401   19.713371
  H     15.992967   13.969791   21.192353
  H     14.666143   15.649341   21.757760
  H     15.767380   17.733326   19.134599

 Total Charge           Charge          ....    0
 Multiplicity           Mult            ....    1
 Number of Electrons    NEL             ....  154
 Basis Dimension        Dim             ....  828

ORBITAL ENERGIES
----------------

  NO   OCC          E(Eh)            E(eV)
   0   2.0000     -91.887480     -2500.3855
   1   2.0000     -20.604044      -560.6645
   2   2.0000     -20.599258      -560.5343
   3   2.0000     -20.553718      -559.2951
   4   2.0000     -15.624153      -425.1548
   5   2.0000     -15.607055      -424.6896
   6   2.0000     -11.395981      -310.1004
   7   2.0000     -11.383066      -309.7490
   8   2.0000     -11.328225      -308.2567
   9   2.0000     -11.322225      -308.0934
  10   2.0000     -11.313677      -307.8608
  11   2.0000     -11.301308      -307.5242
  12   2.0000     -11.269016      -306.6455
  13   2.0000     -11.265287      -306.5440
  14   2.0000     -11.259557      -306.3881
  15   2.0000     -11.257711      -306.3379
  16   2.0000     -11.253029      -306.2105
  17   2.0000     -11.249750      -306.1213
  18   2.0000     -11.246301      -306.0274
  19   2.0000     -11.231188      -305.6162
  20   2.0000      -8.892470      -241.9764
  21   2.0000      -6.574043      -178.8888
  22   2.0000      -6.572041      -178.8343
  23   2.0000      -6.571464      -178.8186
  24   2.0000      -1.451046       -39.4850
  25   2.0000      -1.424373       -38.7592
  26   2.0000      -1.363887       -37.1132
  27   2.0000      -1.337792       -36.4032
  28   2.0000      -1.237941       -33.6861
  29   2.0000      -1.166305       -31.7368
  30   2.0000      -1.125235       -30.6192
  31   2.0000      -1.051165       -28.6037
  32   2.0000      -1.037690       -28.2370
  33   2.0000      -1.024398       -27.8753
  34   2.0000      -1.005165       -27.3519
  35   2.0000      -0.986705       -26.8496
  36   2.0000      -0.926234       -25.2041
  37   2.0000      -0.878694       -23.9105
  38   2.0000      -0.853663       -23.2294
  39   2.0000      -0.845308       -23.0020
  40   2.0000      -0.842895       -22.9363
  41   2.0000      -0.835800       -22.7433
  42   2.0000      -0.761588       -20.7239
  43   2.0000      -0.739154       -20.1134
  44   2.0000      -0.728356       -19.8196
  45   2.0000      -0.704529       -19.1712
  46   2.0000      -0.692604       -18.8467
  47   2.0000      -0.681963       -18.5572
  48   2.0000      -0.675211       -18.3734
  49   2.0000      -0.667526       -18.1643
  50   2.0000      -0.650789       -17.7089
  51   2.0000      -0.647758       -17.6264
  52   2.0000      -0.637230       -17.3399
  53   2.0000      -0.615425       -16.7466
  54   2.0000      -0.609396       -16.5825
  55   2.0000      -0.608754       -16.5651
  56   2.0000      -0.598059       -16.2740
  57   2.0000      -0.583203       -15.8698
  58   2.0000      -0.575667       -15.6647
  59   2.0000      -0.566979       -15.4283
  60   2.0000      -0.557542       -15.1715
  61   2.0000      -0.552602       -15.0371
  62   2.0000      -0.544019       -14.8035
  63   2.0000      -0.531921       -14.4743
  64   2.0000      -0.526584       -14.3291
  65   2.0000      -0.518056       -14.0970
  66   2.0000      -0.504384       -13.7250
  67   2.0000      -0.500448       -13.6179
  68   2.0000      -0.490343       -13.3429
  69   2.0000      -0.461558       -12.5596
  70   2.0000      -0.458336       -12.4720
  71   2.0000      -0.453914       -12.3516
  72   2.0000      -0.357154        -9.7187
  73   2.0000      -0.354670        -9.6511
  74   2.0000      -0.333001        -9.0614
  75   2.0000      -0.326086        -8.8732
  76   2.0000      -0.317265        -8.6332
  77   0.0000       0.087591         2.3835
  78   0.0000       0.098984         2.6935
  79   0.0000       0.117212         3.1895
  80   0.0000       0.126912         3.4535
  81   0.0000       0.133318         3.6278

MULLIKEN ATOMIC CHARGES
-----------------------
   0 C :   -0.261434
   1 C :    0.031619
   2 O :   -0.305286
   3 C :    0.400617
   4 O :   -0.373727
   5 C :   -0.203780
   6 C :    0.146297
   7 C :   -0.286660
   8 N :   -0.137743
   9 C :    0.211300
  10 S :   -0.446092
  11 N :   -0.202862
  12 C :    0.012124
  13 C :    0.014397
  14 C :   -0.197042
  15 C :   -0.123124
  16 C :   -0.272047
  17 C :    0.304540
  18 O :   -0.354278
  19 C :   -0.232946
  20 H :    0.089357
  21 H :    0.099803
  22 H :    0.100292
  23 H :    0.088932
  24 H :    0.100059
  25 H :    0.118249
  26 H :    0.128520
  27 H :    0.110128
  28 H :    0.197555
  29 H :    0.197481
  30 H :    0.167432
  31 H :    0.164015
  32 H :    0.165020
  33 H :    0.135551
  34 H :    0.242261
  35 H :    0.171474
Sum of atomic charges:   -0.0000000

LOEWDIN ATOMIC CHARGES
----------------------
   0 C :    0.109892
   1 C :   -0.026728
   2 O :    0.311201
   3 C :   -0.423502
   4 O :    0.129028
   5 C :   -0.089816
   6 C :   -0.087760
   7 C :    0.129142
   8 N :    0.403032
   9 C :   -0.453281
  10 S :   -0.042422
  11 N :    0.396969
  12 C :   -0.055580
  13 C :   -0.045197
  14 C :    0.011294
  15 C :    0.044151
  16 C :    0.004016
  17 C :   -0.192254
  18 O :    0.398428
  19 C :    0.035365
  20 H :   -0.026382
  21 H :   -0.025308
  22 H :   -0.023685
  23 H :   -0.036644
  24 H :   -0.030601
  25 H :   -0.008069
  26 H :   -0.008138
  27 H :   -0.015745
  28 H :   -0.057544
  29 H :   -0.064280
  30 H :   -0.007102
  31 H :   -0.027599
  32 H :   -0.018977
  33 H :   -0.032590
  34 H :   -0.152499
  35 H :   -0.020813

  Mayer bond orders larger than 0.100000
B(  0-C ,  1-C ) :   0.9763 B(  0-C , 20-H ) :   0.9783 B(  0-C , 21-H ) :   0.9822
B(  0-C , 22-H ) :   0.9768 B(  1-C ,  2-O ) :   0.9104 B(  1-C , 23-H ) :   0.9672
B(  1-C , 24-H ) :   0.9681 B(  2-O ,  3-C ) :   1.1724 B(  3-C ,  4-O ) :   2.1350
B(  3-C ,  5-C ) :   0.9052 B(  5-C ,  6-C ) :   1.7214 B(  5-C , 12-C ) :   0.9583
B(  6-C ,  7-C ) :   0.9526 B(  6-C ,  8-N ) :   1.1164 B(  7-C , 25-H ) :   0.9788
B(  7-C , 26-H ) :   0.9651 B(  7-C , 27-H ) :   0.9702 B(  8-N ,  9-C ) :   1.1982
B(  8-N , 28-H ) :   0.9512 B(  9-C , 10-S ) :   1.6057 B(  9-C , 11-N ) :   1.2930
B( 11-N , 12-C ) :   0.9672 B( 11-N , 29-H ) :   0.9497 B( 12-C , 13-C ) :   0.9707
B( 12-C , 30-H ) :   1.0001 B( 13-C , 14-C ) :   1.3556 B( 13-C , 19-C ) :   1.3556
B( 14-C , 15-C ) :   1.3820 B( 14-C , 31-H ) :   0.9676 B( 15-C , 16-C ) :   1.3753
B( 15-C , 32-H ) :   0.9691 B( 16-C , 17-C ) :   1.3268 B( 16-C , 33-H ) :   0.9825
B( 17-C , 18-O ) :   1.1102 B( 17-C , 19-C ) :   1.3745 B( 18-O , 34-H ) :   0.9784
B( 19-C , 35-H ) :   0.9589

MP2 TOTAL ENERGY:    -1274.320666916 Eh
FINAL SINGLE POINT ENERGY     -1274.320666916249

DIPOLE MOMENT
-------------
                                X             Y             Z
Electronic contribution:     10.31761       9.03049       6.92813
Nuclear contribution   :    -11.86537     -10.67885      -6.49168
                        -----------------------------------------
Total Dipole Moment    :     -1.54777      -1.64835       0.43646
                        -----------------------------------------
Magnitude (a.u.)       :      2.30286
Magnitude (Debye)      :      5.85339

Rotational constants in cm-1:     0.010822     0.009280     0.006103
Rotational constants in MHz :   324.428481   278.195063   182.965278

                             ****ORCA TERMINATED NORMALLY****
TOTAL RUN TIME: 0 days 1 hours 43 minutes 20 seconds 142 msec
