                         Program Version 4.2.0 -  RELEASE  -
|  1> ! ri-mp2 cc-pvtz cc-pvtz/c TightSCF NoKeepInts
|  2>
|  3> %scf
|  4>   MaxCore 4096
|  5> end
|  6> *xyz  0  1
|  7>     C       14.1794860   16.7062341   15.8413972
|  8>     C       15.2366903   15.6507690   15.4627566
|  9>     O       16.3497041   16.2366250   14.7537172
| 10>     C       17.4499721   16.6365958   15.4590387
| 11>     O       18.5175847   16.0613568   15.3543671
| 12>     C       17.2075168   17.7045791   16.4707371
| 13>     C       16.7546808   18.9221582   16.0858353
| 14>     C       16.2439571   19.3196679   14.7153621
| 15>     N       16.8012250   20.0082826   16.9616173
| 16>     C       17.4969151   20.0139567   18.1422282
| 17>     S       17.6011593   21.3679159   19.0858473
| 18>     N       18.1225627   18.8416805   18.4909802
| 19>     C       17.9747001   17.5544742   17.7825240
| 20>     C       17.4375134   16.4146700   18.6342918
| 21>     C       18.0524934   15.1506784   18.5955946
| 22>     C       17.5411115   14.0847718   19.3544438
| 23>     C       16.4026564   14.2842071   20.1542703
| 24>     C       15.7834565   15.5412895   20.1880058
| 25>     O       14.6770063   15.7334722   20.9491386
| 26>     C       16.2941058   16.6003030   19.4306306
| 27>     H       14.5336199   17.3722988   16.6354880
| 28>     H       13.2748809   16.2101642   16.2141107
| 29>     H       13.8960308   17.3037567   14.9670395
| 30>     H       15.5825297   15.1159478   16.3588173
| 31>     H       14.7602169   14.9131307   14.8039718
| 32>     H       15.1487368   19.3061004   14.6838584
| 33>     H       16.6110938   18.6557411   13.9235703
| 34>     H       16.5734839   20.3305875   14.4440254
| 35>     H       16.3752985   20.8839083   16.7014571
| 36>     H       18.6230536   18.8712082   19.3704958
| 37>     H       19.0203294   17.3613028   17.4995412
| 38>     H       18.9243508   14.9924564   17.9637346
| 39>     H       18.0250200   13.1100905   19.3169675
| 40>     H       16.0037786   13.4630371   20.7407971
| 41>     H       14.5115058   14.9115234   21.4353602
| 42>     H       15.7985734   17.5650581   19.4659813
| 43> *
| 44>
| 45>                          ****END OF INPUT****

CARTESIAN COORDINATES (ANGSTROEM)
---------------------------------
  C     14.179486   16.706234   15.841397
  C     15.236690   15.650769   15.462757
  O     16.349704   16.236625   14.753717
  C     17.449972   16.636596   15.459039
  O     18.517585   16.061357   15.354367
  C     17.207517   17.704579   16.470737
  C     16.754681   18.922158   16.085835
  C     16.243957   19.319668   14.715362
  N     16.801225   20.008283   16.961617
  C     17.496915   20.013957   18.142228
  S     17.601159   21.367916   19.085847
  N     18.122563   18.841680   18.490980
  C     17.974700   17.554474   17.782524
  C     17.437513   16.414670   18.634292
  C     18.052493   15.150678   18.595595
  C     17.541111   14.084772   19.354444
  C     16.402656   14.284207   20.154270
  C     15.783456   15.541289   20.188006
  O     14.677006   15.733472   20.949139
  C     16.294106   16.600303   19.430631
  H     14.533620   17.372299   16.635488
  H     13.274881   16.210164   16.214111
  H     13.896031   17.303757   14.967039
  H     15.582530   15.115948   16.358817
  H     14.760217   14.913131   14.803972
  H     15.148737   19.306100   14.683858
  H     16.611094   18.655741   13.923570
  H     16.573484   20.330588   14.444025
  H     16.375298   20.883908   16.701457
  H     18.623054   18.871208   19.370496
  H     19.020329   17.361303   17.499541
  H     18.924351   14.992456   17.963735
  H     18.025020   13.110090   19.316968
  H     16.003779   13.463037   20.740797
  H     14.511506   14.911523   21.435360
  H     15.798573   17.565058   19.465981

 Total Charge           Charge          ....    0
 Multiplicity           Mult            ....    1
 Number of Electrons    NEL             ....  154
 Basis Dimension        Dim             ....  828

ORBITAL ENERGIES
----------------

  NO   OCC          E(Eh)            E(eV)
   0   2.0000     -91.889912     -2500.4516
   1   2.0000     -20.600479      -560.5675
   2   2.0000     -20.589787      -560.2766
   3   2.0000     -20.555622      -559.3469
   4   2.0000     -15.628241      -425.2661
   5   2.0000     -15.609350      -424.7520
   6   2.0000     -11.395879      -310.0976
   7   2.0000     -11.385755      -309.8222
   8   2.0000     -11.333665      -308.4047
   9   2.0000     -11.317922      -307.9763
  10   2.0000     -11.309244      -307.7402
  11   2.0000     -11.306534      -307.6664
  12   2.0000     -11.264956      -306.5350
  13   2.0000     -11.262179      -306.4595
  14   2.0000     -11.259691      -306.3918
  15   2.0000     -11.258200      -306.3512
  16   2.0000     -11.247238      -306.0529
  17   2.0000     -11.243144      -305.9415
  18   2.0000     -11.240367      -305.8659
  19   2.0000     -11.232980      -305.6649
  20   2.0000      -8.895006      -242.0454
  21   2.0000      -6.576584      -178.9579
  22   2.0000      -6.574576      -178.9033
  23   2.0000      -6.573990      -178.8874
  24   2.0000      -1.448750       -39.4225
  25   2.0000      -1.420215       -38.6460
  26   2.0000      -1.360716       -37.0270
  27   2.0000      -1.340800       -36.4850
  28   2.0000      -1.239110       -33.7179
  29   2.0000      -1.162000       -31.6196
  30   2.0000      -1.125582       -30.6287
  31   2.0000      -1.048377       -28.5278
  32   2.0000      -1.037057       -28.2198
  33   2.0000      -1.019519       -27.7425
  34   2.0000      -1.004725       -27.3400
  35   2.0000      -0.989775       -26.9331
  36   2.0000      -0.926236       -25.2042
  37   2.0000      -0.890266       -24.2254
  38   2.0000      -0.851303       -23.1651
  39   2.0000      -0.842254       -22.9189
  40   2.0000      -0.837795       -22.7976
  41   2.0000      -0.831209       -22.6183
  42   2.0000      -0.756751       -20.5922
  43   2.0000      -0.737357       -20.0645
  44   2.0000      -0.730641       -19.8818
  45   2.0000      -0.698231       -18.9998
  46   2.0000      -0.689047       -18.7499
  47   2.0000      -0.681258       -18.5380
  48   2.0000      -0.675210       -18.3734
  49   2.0000      -0.662897       -18.0383
  50   2.0000      -0.653800       -17.7908
  51   2.0000      -0.643627       -17.5140
  52   2.0000      -0.637915       -17.3585
  53   2.0000      -0.612117       -16.6566
  54   2.0000      -0.607429       -16.5290
  55   2.0000      -0.604534       -16.4502
  56   2.0000      -0.602166       -16.3858
  57   2.0000      -0.590303       -16.0630
  58   2.0000      -0.580032       -15.7835
  59   2.0000      -0.575010       -15.6468
  60   2.0000      -0.563454       -15.3324
  61   2.0000      -0.555640       -15.1197
  62   2.0000      -0.543852       -14.7990
  63   2.0000      -0.527962       -14.3666
  64   2.0000      -0.522275       -14.2118
  65   2.0000      -0.513216       -13.9653
  66   2.0000      -0.502070       -13.6620
  67   2.0000      -0.493584       -13.4311
  68   2.0000      -0.491411       -13.3720
  69   2.0000      -0.467573       -12.7233
  70   2.0000      -0.458264       -12.4700
  71   2.0000      -0.452814       -12.3217
  72   2.0000      -0.355062        -9.6617
  73   2.0000      -0.352918        -9.6034
  74   2.0000      -0.329339        -8.9618
  75   2.0000      -0.325430        -8.8554
  76   2.0000      -0.319617        -8.6972
  77   0.0000       0.080236         2.1833
  78   0.0000       0.101285         2.7561
  79   0.0000       0.120747         3.2857
  80   0.0000       0.127774         3.4769
  81   0.0000       0.129952         3.5362

MULLIKEN ATOMIC CHARGES
-----------------------
   0 C :   -0.326906
   1 C :    0.035242
   2 O :   -0.354980
   3 C :    0.432359
   4 O :   -0.372194
   5 C :   -0.226530
   6 C :    0.154107
   7 C :   -0.311436
   8 N :   -0.136782
   9 C :    0.205986
  10 S :   -0.441565
  11 N :   -0.218968
  12 C :    0.065045
  13 C :    0.015509
  14 C :   -0.211124
  15 C :   -0.128186
  16 C :   -0.278609
  17 C :    0.312050
  18 O :   -0.355686
  19 C :   -0.250273
  20 H :    0.110942
  21 H :    0.120882
  22 H :    0.102321
  23 H :    0.101457
  24 H :    0.122130
  25 H :    0.123737
  26 H :    0.134653
  27 H :    0.124315
  28 H :    0.199256
  29 H :    0.200700
  30 H :    0.165244
  31 H :    0.174213
  32 H :    0.165036
  33 H :    0.132672
  34 H :    0.241434
  35 H :    0.173952
Sum of atomic charges:   -0.0000000

LOEWDIN ATOMIC CHARGES
----------------------
   0 C :    0.102882
   1 C :   -0.013505
   2 O :    0.287355
   3 C :   -0.421148
   4 O :    0.130152
   5 C :   -0.088864
   6 C :   -0.080319
   7 C :    0.127957
   8 N :    0.404245
   9 C :   -0.456202
  10 S :   -0.037374
  11 N :    0.395678
  12 C :   -0.050241
  13 C :   -0.044626
  14 C :    0.019612
  15 C :    0.043265
  16 C :   -0.000504
  17 C :   -0.192100
  18 O :    0.395210
  19 C :    0.028408
  20 H :   -0.034724
  21 H :   -0.022529
  22 H :   -0.030760
  23 H :   -0.026721
  24 H :   -0.020438
  25 H :   -0.015957
  26 H :   -0.007939
  27 H :   -0.013915
  28 H :   -0.056745
  29 H :   -0.064083
  30 H :   -0.004836
  31 H :   -0.021529
  32 H :   -0.018671
  33 H :   -0.034641
  34 H :   -0.153084
  35 H :   -0.023311

  Mayer bond orders larger than 0.100000
B(  0-C ,  1-C ) :   0.9624 B(  0-C , 20-H ) :   0.9719 B(  0-C , 21-H ) :   0.9782
B(  0-C , 22-H ) :   0.9749 B(  1-C ,  2-O ) :   0.8974 B(  1-C , 23-H ) :   0.9721
B(  1-C , 24-H ) :   0.9843 B(  2-O ,  3-C ) :   1.1172 B(  3-C ,  4-O ) :   2.1070
B(  3-C ,  5-C ) :   0.9346 B(  5-C ,  6-C ) :   1.7099 B(  5-C , 12-C ) :   0.9376
B(  6-C ,  7-C ) :   0.9487 B(  6-C ,  8-N ) :   1.1148 B(  7-C , 25-H ) :   0.9637
B(  7-C , 26-H ) :   0.9708 B(  7-C , 27-H ) :   0.9802 B(  8-N ,  9-C ) :   1.1944
B(  8-N , 28-H ) :   0.9498 B(  9-C , 10-S ) :   1.6126 B(  9-C , 11-N ) :   1.2912
B( 11-N , 12-C ) :   0.9848 B( 11-N , 29-H ) :   0.9486 B( 12-C , 13-C ) :   0.9668
B( 12-C , 30-H ) :   0.9912 B( 13-C , 14-C ) :   1.3841 B( 13-C , 19-C ) :   1.3515
B( 14-C , 15-C ) :   1.3931 B( 14-C , 31-H ) :   0.9602 B( 15-C , 16-C ) :   1.3622
B( 15-C , 32-H ) :   0.9698 B( 16-C , 17-C ) :   1.3300 B( 16-C , 33-H ) :   0.9846
B( 17-C , 18-O ) :   1.1101 B( 17-C , 19-C ) :   1.3682 B( 18-O , 34-H ) :   0.9792
B( 19-C , 35-H ) :   0.9565

MP2 TOTAL ENERGY:    -1274.325470173 Eh
FINAL SINGLE POINT ENERGY     -1274.325470173419

DIPOLE MOMENT
-------------
                                X             Y             Z
Electronic contribution:      9.36785       6.30573       7.11976
Nuclear contribution   :    -10.76352      -7.73556      -7.48480
                        -----------------------------------------
Total Dipole Moment    :     -1.39567      -1.42983      -0.36504
                        -----------------------------------------
Magnitude (a.u.)       :      2.03115
Magnitude (Debye)      :      5.16277

Rotational constants in cm-1:     0.011595     0.009140     0.006625
Rotational constants in MHz :   347.614077   274.001415   198.626358

                             ****ORCA TERMINATED NORMALLY****
TOTAL RUN TIME: 0 days 2 hours 4 minutes 21 seconds 873 msec
