                         Program Version 4.2.0 -  RELEASE  -
|  1> ! ri-mp2 cc-pvtz cc-pvtz/c TightSCF NoKeepInts
|  2>
|  3> %scf
|  4>   MaxCore 4096
|  5> end
|  6> *xyz  0  1
|  7>     C       14.5646962   16.2688759   16.3012941
|  8>     C       15.0399438   16.1474173   14.8354312
|  9>     O       16.4785652   16.0560958   14.6567004
| 10>     C       17.4854582   16.4394363   15.5111399
| 11>     O       18.5344022   15.8220124   15.5339384
| 12>     C       17.2335399   17.5793440   16.4466390
| 13>     C       16.8663495   18.7948610   15.9692625
| 14>     C       16.4572714   19.1465299   14.5530348
| 15>     N       16.9227520   19.9285477   16.7824076
| 16>     C       17.5731093   19.9798206   17.9866172
| 17>     S       17.7073199   21.3866459   18.8451966
| 18>     N       18.1306549   18.8062773   18.4298369
| 19>     C       17.9354978   17.4832748   17.8039204
| 20>     C       17.3203247   16.4348718   18.7192563
| 21>     C       17.8388317   15.1279831   18.7478270
| 22>     C       17.2608558   14.1481024   19.5719653
| 23>     C       16.1532967   14.4775567   20.3720092
| 24>     C       15.6314838   15.7780612   20.3415575
| 25>     O       14.5555313   16.0961075   21.1043314
| 26>     C       16.2087328   16.7516412   19.5200832
| 27>     H       15.1151092   15.5786373   16.9534298
| 28>     H       13.5023936   16.0041764   16.3685848
| 29>     H       14.6602000   17.2888166   16.6887289
| 30>     H       14.5923732   15.2442414   14.4002576
| 31>     H       14.6471172   16.9963204   14.2635138
| 32>     H       16.8590963   18.4415892   13.8153480
| 33>     H       16.8361654   20.1348861   14.2626149
| 34>     H       15.3661436   19.1675815   14.4517891
| 35>     H       16.5510663   20.8050361   16.4517442
| 36>     H       18.6021890   18.8684645   19.3235553
| 37>     H       18.9807761   17.2219734   17.5808806
| 38>     H       18.6874839   14.8689092   18.1177089
| 39>     H       17.6693745   13.1389681   19.5838268
| 40>     H       15.7027335   13.7228386   21.0081159
| 41>     H       14.3293067   15.3128890   21.6283904
| 42>     H       15.7868544   17.7512094   19.5070619
| 43> *
| 44>
| 45>                          ****END OF INPUT****

CARTESIAN COORDINATES (ANGSTROEM)
---------------------------------
  C     14.564696   16.268876   16.301294
  C     15.039944   16.147417   14.835431
  O     16.478565   16.056096   14.656700
  C     17.485458   16.439436   15.511140
  O     18.534402   15.822012   15.533938
  C     17.233540   17.579344   16.446639
  C     16.866349   18.794861   15.969262
  C     16.457271   19.146530   14.553035
  N     16.922752   19.928548   16.782408
  C     17.573109   19.979821   17.986617
  S     17.707320   21.386646   18.845197
  N     18.130655   18.806277   18.429837
  C     17.935498   17.483275   17.803920
  C     17.320325   16.434872   18.719256
  C     17.838832   15.127983   18.747827
  C     17.260856   14.148102   19.571965
  C     16.153297   14.477557   20.372009
  C     15.631484   15.778061   20.341558
  O     14.555531   16.096107   21.104331
  C     16.208733   16.751641   19.520083
  H     15.115109   15.578637   16.953430
  H     13.502394   16.004176   16.368585
  H     14.660200   17.288817   16.688729
  H     14.592373   15.244241   14.400258
  H     14.647117   16.996320   14.263514
  H     16.859096   18.441589   13.815348
  H     16.836165   20.134886   14.262615
  H     15.366144   19.167582   14.451789
  H     16.551066   20.805036   16.451744
  H     18.602189   18.868464   19.323555
  H     18.980776   17.221973   17.580881
  H     18.687484   14.868909   18.117709
  H     17.669374   13.138968   19.583827
  H     15.702734   13.722839   21.008116
  H     14.329307   15.312889   21.628390
  H     15.786854   17.751209   19.507062

 Total Charge           Charge          ....    0
 Multiplicity           Mult            ....    1
 Number of Electrons    NEL             ....  154
 Basis Dimension        Dim             ....  828

ORBITAL ENERGIES
----------------

  NO   OCC          E(Eh)            E(eV)
   0   2.0000     -91.889887     -2500.4510
   1   2.0000     -20.598417      -560.5114
   2   2.0000     -20.597962      -560.4990
   3   2.0000     -20.547920      -559.1373
   4   2.0000     -15.628530      -425.2739
   5   2.0000     -15.609036      -424.7435
   6   2.0000     -11.399794      -310.2042
   7   2.0000     -11.385450      -309.8138
   8   2.0000     -11.334303      -308.4221
   9   2.0000     -11.315368      -307.9068
  10   2.0000     -11.312689      -307.8339
  11   2.0000     -11.308872      -307.7301
  12   2.0000     -11.266654      -306.5812
  13   2.0000     -11.263977      -306.5084
  14   2.0000     -11.262664      -306.4727
  15   2.0000     -11.255687      -306.2828
  16   2.0000     -11.244921      -305.9899
  17   2.0000     -11.240511      -305.8698
  18   2.0000     -11.237546      -305.7892
  19   2.0000     -11.235759      -305.7405
  20   2.0000      -8.894991      -242.0450
  21   2.0000      -6.576573      -178.9576
  22   2.0000      -6.574561      -178.9029
  23   2.0000      -6.573977      -178.8870
  24   2.0000      -1.443225       -39.2722
  25   2.0000      -1.418176       -38.5905
  26   2.0000      -1.356771       -36.9196
  27   2.0000      -1.341472       -36.5033
  28   2.0000      -1.239415       -33.7262
  29   2.0000      -1.159776       -31.5591
  30   2.0000      -1.125317       -30.6214
  31   2.0000      -1.047255       -28.4972
  32   2.0000      -1.039563       -28.2880
  33   2.0000      -1.017762       -27.6947
  34   2.0000      -1.006361       -27.3845
  35   2.0000      -0.989961       -26.9382
  36   2.0000      -0.926730       -25.2176
  37   2.0000      -0.901275       -24.5249
  38   2.0000      -0.853177       -23.2161
  39   2.0000      -0.841006       -22.8849
  40   2.0000      -0.835262       -22.7286
  41   2.0000      -0.827354       -22.5135
  42   2.0000      -0.744929       -20.2706
  43   2.0000      -0.734916       -19.9981
  44   2.0000      -0.731491       -19.9049
  45   2.0000      -0.695384       -18.9224
  46   2.0000      -0.686952       -18.6929
  47   2.0000      -0.679523       -18.4908
  48   2.0000      -0.674170       -18.3451
  49   2.0000      -0.661690       -18.0055
  50   2.0000      -0.659215       -17.9382
  51   2.0000      -0.650494       -17.7008
  52   2.0000      -0.639605       -17.4045
  53   2.0000      -0.617341       -16.7987
  54   2.0000      -0.609307       -16.5801
  55   2.0000      -0.605975       -16.4894
  56   2.0000      -0.602221       -16.3873
  57   2.0000      -0.587641       -15.9905
  58   2.0000      -0.576812       -15.6959
  59   2.0000      -0.567959       -15.4550
  60   2.0000      -0.564055       -15.3487
  61   2.0000      -0.555274       -15.1098
  62   2.0000      -0.544064       -14.8047
  63   2.0000      -0.532248       -14.4832
  64   2.0000      -0.522667       -14.2225
  65   2.0000      -0.512780       -13.9535
  66   2.0000      -0.500495       -13.6192
  67   2.0000      -0.497082       -13.5263
  68   2.0000      -0.484985       -13.1971
  69   2.0000      -0.469933       -12.7875
  70   2.0000      -0.455732       -12.4011
  71   2.0000      -0.448520       -12.2048
  72   2.0000      -0.355536        -9.6746
  73   2.0000      -0.349438        -9.5087
  74   2.0000      -0.329331        -8.9616
  75   2.0000      -0.323305        -8.7976
  76   2.0000      -0.319651        -8.6981
  77   0.0000       0.081709         2.2234
  78   0.0000       0.105626         2.8742
  79   0.0000       0.114866         3.1257
  80   0.0000       0.130349         3.5470
  81   0.0000       0.130728         3.5573

MULLIKEN ATOMIC CHARGES
-----------------------
   0 C :   -0.333034
   1 C :    0.037142
   2 O :   -0.338390
   3 C :    0.436630
   4 O :   -0.382356
   5 C :   -0.240988
   6 C :    0.166635
   7 C :   -0.341802
   8 N :   -0.139510
   9 C :    0.205466
  10 S :   -0.442555
  11 N :   -0.221552
  12 C :    0.072369
  13 C :    0.009430
  14 C :   -0.209149
  15 C :   -0.130843
  16 C :   -0.277834
  17 C :    0.316136
  18 O :   -0.357282
  19 C :   -0.252020
  20 H :    0.127011
  21 H :    0.119896
  22 H :    0.110823
  23 H :    0.128970
  24 H :    0.086058
  25 H :    0.143864
  26 H :    0.128876
  27 H :    0.120908
  28 H :    0.198621
  29 H :    0.202576
  30 H :    0.166997
  31 H :    0.177726
  32 H :    0.164212
  33 H :    0.131921
  34 H :    0.241176
  35 H :    0.173872
Sum of atomic charges:   -0.0000000

LOEWDIN ATOMIC CHARGES
----------------------
   0 C :    0.102504
   1 C :   -0.013189
   2 O :    0.291376
   3 C :   -0.417450
   4 O :    0.120099
   5 C :   -0.083398
   6 C :   -0.085114
   7 C :    0.126228
   8 N :    0.403275
   9 C :   -0.458180
  10 S :   -0.038026
  11 N :    0.396613
  12 C :   -0.047791
  13 C :   -0.044161
  14 C :    0.020622
  15 C :    0.043636
  16 C :   -0.000642
  17 C :   -0.192660
  18 O :    0.394933
  19 C :    0.029411
  20 H :   -0.020422
  21 H :   -0.022391
  22 H :   -0.034103
  23 H :   -0.019472
  24 H :   -0.036771
  25 H :   -0.007006
  26 H :   -0.011846
  27 H :   -0.018704
  28 H :   -0.057466
  29 H :   -0.063298
  30 H :   -0.004109
  31 H :   -0.021101
  32 H :   -0.018752
  33 H :   -0.034942
  34 H :   -0.153497
  35 H :   -0.024205

  Mayer bond orders larger than 0.100000
B(  0-C ,  1-C ) :   0.9553 B(  0-C , 20-H ) :   0.9676 B(  0-C , 21-H ) :   0.9768
B(  0-C , 22-H ) :   0.9729 B(  1-C ,  2-O ) :   0.9058 B(  1-C , 23-H ) :   0.9806
B(  1-C , 24-H ) :   0.9741 B(  2-O ,  3-C ) :   1.1625 B(  3-C ,  4-O ) :   2.0813
B(  3-C ,  5-C ) :   0.9363 B(  5-C ,  6-C ) :   1.7160 B(  5-C , 12-C ) :   0.9383
B(  6-C ,  7-C ) :   0.9377 B(  6-C ,  8-N ) :   1.1059 B(  7-C , 25-H ) :   0.9719
B(  7-C , 26-H ) :   0.9801 B(  7-C , 27-H ) :   0.9656 B(  8-N ,  9-C ) :   1.1953
B(  8-N , 28-H ) :   0.9500 B(  9-C , 10-S ) :   1.6098 B(  9-C , 11-N ) :   1.2931
B( 11-N , 12-C ) :   0.9811 B( 11-N , 29-H ) :   0.9480 B( 12-C , 13-C ) :   0.9677
B( 12-C , 30-H ) :   0.9902 B( 13-C , 14-C ) :   1.3882 B( 13-C , 19-C ) :   1.3509
B( 14-C , 15-C ) :   1.3947 B( 14-C , 31-H ) :   0.9578 B( 15-C , 16-C ) :   1.3607
B( 15-C , 32-H ) :   0.9702 B( 16-C , 17-C ) :   1.3306 B( 16-C , 33-H ) :   0.9848
B( 17-C , 18-O ) :   1.1089 B( 17-C , 19-C ) :   1.3673 B( 18-O , 34-H ) :   0.9796
B( 19-C , 35-H ) :   0.9571

MP2 TOTAL ENERGY:    -1274.324078732 Eh
FINAL SINGLE POINT ENERGY     -1274.324078732389

DIPOLE MOMENT
-------------
                                X             Y             Z
Electronic contribution:      8.90273       6.31520       6.87703
Nuclear contribution   :    -10.55352      -7.46225      -7.43156
                        -----------------------------------------
Total Dipole Moment    :     -1.65079      -1.14706      -0.55453
                        -----------------------------------------
Magnitude (a.u.)       :      2.08527
Magnitude (Debye)      :      5.30033

Rotational constants in cm-1:     0.011456     0.009301     0.006517
Rotational constants in MHz :   343.431148   278.829804   195.374687

                             ****ORCA TERMINATED NORMALLY****
TOTAL RUN TIME: 0 days 2 hours 7 minutes 42 seconds 472 msec
