                         Program Version 4.2.0 -  RELEASE  -
|  1> ! ri-mp2 cc-pvtz cc-pvtz/c TightSCF NoKeepInts
|  2>
|  3> %scf
|  4>   MaxCore 4096
|  5> end
|  6> *xyz  0  1
|  7>     C       14.4060892   15.3198663   16.2625660
|  8>     C       15.0598517   16.2767429   15.2513728
|  9>     O       16.4310145   15.8603023   15.0927863
| 10>     C       17.5261081   16.5946915   15.4705062
| 11>     O       18.6546790   16.2619861   15.1621667
| 12>     C       17.2761780   17.7058160   16.4292887
| 13>     C       16.9958312   18.9384485   15.9464204
| 14>     C       16.6035317   19.2846717   14.5242601
| 15>     N       17.1057382   20.0684829   16.7579668
| 16>     C       17.7315821   20.0755669   17.9774065
| 17>     S       17.9347008   21.4689806   18.8442738
| 18>     N       18.2035451   18.8673794   18.4313299
| 19>     C       17.9460532   17.5602564   17.7931804
| 20>     C       17.2691852   16.5250935   18.6776632
| 21>     C       17.6987282   15.1862221   18.6492912
| 22>     C       17.0624464   14.2158898   19.4411514
| 23>     C       15.9862519   14.5876441   20.2651837
| 24>     C       15.5527490   15.9203839   20.2904178
| 25>     O       14.5062985   16.2793482   21.0755968
| 26>     C       16.1868496   16.8844044   19.4999331
| 27>     H       14.8936356   15.3963251   17.2419626
| 28>     H       14.4868393   14.2807002   15.9196477
| 29>     H       13.3432860   15.5583765   16.3900275
| 30>     H       14.5416167   16.1860850   14.2878871
| 31>     H       14.9510231   17.3105586   15.5953637
| 32>     H       16.7719312   18.4573973   13.8239498
| 33>     H       17.1948537   20.1309311   14.1510984
| 34>     H       15.5439491   19.5617285   14.4650192
| 35>     H       16.8019962   20.9673415   16.4176285
| 36>     H       18.6603347   18.8996775   19.3342934
| 37>     H       18.9789072   17.2471473   17.5776441
| 38>     H       18.5234065   14.8956597   18.0015047
| 39>     H       17.4017616   13.1817442   19.4105276
| 40>     H       15.4910417   13.8406307   20.8768329
| 41>     H       14.2330990   15.4940513   21.5736028
| 42>     H       15.8319067   17.9094683   19.5282481
| 43> *
| 44>
| 45>                          ****END OF INPUT****

CARTESIAN COORDINATES (ANGSTROEM)
---------------------------------
  C     14.406089   15.319866   16.262566
  C     15.059852   16.276743   15.251373
  O     16.431014   15.860302   15.092786
  C     17.526108   16.594691   15.470506
  O     18.654679   16.261986   15.162167
  C     17.276178   17.705816   16.429289
  C     16.995831   18.938448   15.946420
  C     16.603532   19.284672   14.524260
  N     17.105738   20.068483   16.757967
  C     17.731582   20.075567   17.977407
  S     17.934701   21.468981   18.844274
  N     18.203545   18.867379   18.431330
  C     17.946053   17.560256   17.793180
  C     17.269185   16.525094   18.677663
  C     17.698728   15.186222   18.649291
  C     17.062446   14.215890   19.441151
  C     15.986252   14.587644   20.265184
  C     15.552749   15.920384   20.290418
  O     14.506298   16.279348   21.075597
  C     16.186850   16.884404   19.499933
  H     14.893636   15.396325   17.241963
  H     14.486839   14.280700   15.919648
  H     13.343286   15.558376   16.390027
  H     14.541617   16.186085   14.287887
  H     14.951023   17.310559   15.595364
  H     16.771931   18.457397   13.823950
  H     17.194854   20.130931   14.151098
  H     15.543949   19.561729   14.465019
  H     16.801996   20.967341   16.417628
  H     18.660335   18.899677   19.334293
  H     18.978907   17.247147   17.577644
  H     18.523406   14.895660   18.001505
  H     17.401762   13.181744   19.410528
  H     15.491042   13.840631   20.876833
  H     14.233099   15.494051   21.573603
  H     15.831907   17.909468   19.528248

 Total Charge           Charge          ....    0
 Multiplicity           Mult            ....    1
 Number of Electrons    NEL             ....  154
 Basis Dimension        Dim             ....  828

ORBITAL ENERGIES
----------------

  NO   OCC          E(Eh)            E(eV)
   0   2.0000     -91.889230     -2500.4331
   1   2.0000     -20.604390      -560.6740
   2   2.0000     -20.601287      -560.5895
   3   2.0000     -20.552604      -559.2648
   4   2.0000     -15.625895      -425.2022
   5   2.0000     -15.610188      -424.7748
   6   2.0000     -11.400278      -310.2173
   7   2.0000     -11.385525      -309.8159
   8   2.0000     -11.329079      -308.2799
   9   2.0000     -11.319213      -308.0114
  10   2.0000     -11.313157      -307.8467
  11   2.0000     -11.305596      -307.6409
  12   2.0000     -11.268249      -306.6246
  13   2.0000     -11.267247      -306.5974
  14   2.0000     -11.262545      -306.4694
  15   2.0000     -11.259991      -306.3999
  16   2.0000     -11.248199      -306.0791
  17   2.0000     -11.243928      -305.9628
  18   2.0000     -11.242604      -305.9268
  19   2.0000     -11.228334      -305.5385
  20   2.0000      -8.894339      -242.0273
  21   2.0000      -6.575923      -178.9400
  22   2.0000      -6.573907      -178.8851
  23   2.0000      -6.573329      -178.8694
  24   2.0000      -1.449473       -39.4422
  25   2.0000      -1.421011       -38.6677
  26   2.0000      -1.363852       -37.1123
  27   2.0000      -1.339718       -36.4556
  28   2.0000      -1.238981       -33.7144
  29   2.0000      -1.163602       -31.6632
  30   2.0000      -1.127554       -30.6823
  31   2.0000      -1.050285       -28.5797
  32   2.0000      -1.038990       -28.2724
  33   2.0000      -1.021363       -27.7927
  34   2.0000      -1.006862       -27.3981
  35   2.0000      -0.990143       -26.9432
  36   2.0000      -0.927530       -25.2394
  37   2.0000      -0.887323       -24.1453
  38   2.0000      -0.854183       -23.2435
  39   2.0000      -0.842619       -22.9288
  40   2.0000      -0.838984       -22.8299
  41   2.0000      -0.836245       -22.7554
  42   2.0000      -0.756585       -20.5877
  43   2.0000      -0.740201       -20.1419
  44   2.0000      -0.733070       -19.9478
  45   2.0000      -0.699178       -19.0256
  46   2.0000      -0.692105       -18.8331
  47   2.0000      -0.683597       -18.6016
  48   2.0000      -0.675360       -18.3775
  49   2.0000      -0.664293       -18.0763
  50   2.0000      -0.653354       -17.7787
  51   2.0000      -0.640044       -17.4165
  52   2.0000      -0.635262       -17.2864
  53   2.0000      -0.618864       -16.8401
  54   2.0000      -0.613681       -16.6991
  55   2.0000      -0.608367       -16.5545
  56   2.0000      -0.604269       -16.4430
  57   2.0000      -0.586130       -15.9494
  58   2.0000      -0.579163       -15.7598
  59   2.0000      -0.569420       -15.4947
  60   2.0000      -0.562001       -15.2928
  61   2.0000      -0.558108       -15.1869
  62   2.0000      -0.539392       -14.6776
  63   2.0000      -0.536289       -14.5932
  64   2.0000      -0.521976       -14.2037
  65   2.0000      -0.513344       -13.9688
  66   2.0000      -0.506481       -13.7820
  67   2.0000      -0.502754       -13.6806
  68   2.0000      -0.489150       -13.3105
  69   2.0000      -0.469145       -12.7661
  70   2.0000      -0.454482       -12.3671
  71   2.0000      -0.451504       -12.2860
  72   2.0000      -0.355810        -9.6821
  73   2.0000      -0.353680        -9.6241
  74   2.0000      -0.328997        -8.9525
  75   2.0000      -0.327008        -8.8983
  76   2.0000      -0.319123        -8.6838
  77   0.0000       0.091240         2.4828
  78   0.0000       0.103126         2.8062
  79   0.0000       0.114773         3.1231
  80   0.0000       0.127961         3.4820
  81   0.0000       0.128296         3.4911

MULLIKEN ATOMIC CHARGES
-----------------------
   0 C :   -0.267844
   1 C :    0.025680
   2 O :   -0.311422
   3 C :    0.411956
   4 O :   -0.381964
   5 C :   -0.187362
   6 C :    0.130074
   7 C :   -0.323813
   8 N :   -0.138784
   9 C :    0.212300
  10 S :   -0.443964
  11 N :   -0.226679
  12 C :    0.045660
  13 C :    0.006034
  14 C :   -0.207124
  15 C :   -0.133884
  16 C :   -0.269654
  17 C :    0.308324
  18 O :   -0.357277
  19 C :   -0.233154
  20 H :    0.110552
  21 H :    0.103903
  22 H :    0.089348
  23 H :    0.112329
  24 H :    0.089993
  25 H :    0.124845
  26 H :    0.134187
  27 H :    0.124012
  28 H :    0.196988
  29 H :    0.203330
  30 H :    0.169745
  31 H :    0.170516
  32 H :    0.164192
  33 H :    0.132977
  34 H :    0.241466
  35 H :    0.174512
Sum of atomic charges:   -0.0000000

LOEWDIN ATOMIC CHARGES
----------------------
   0 C :    0.107914
   1 C :   -0.021231
   2 O :    0.312699
   3 C :   -0.419231
   4 O :    0.121832
   5 C :   -0.082594
   6 C :   -0.100442
   7 C :    0.125573
   8 N :    0.401875
   9 C :   -0.454987
  10 S :   -0.039178
  11 N :    0.396213
  12 C :   -0.050264
  13 C :   -0.044879
  14 C :    0.018695
  15 C :    0.046185
  16 C :    0.000223
  17 C :   -0.190954
  18 O :    0.396523
  19 C :    0.027635
  20 H :   -0.024470
  21 H :   -0.024431
  22 H :   -0.027108
  23 H :   -0.027674
  24 H :   -0.039088
  25 H :   -0.007662
  26 H :   -0.009375
  27 H :   -0.016658
  28 H :   -0.057589
  29 H :   -0.064029
  30 H :   -0.003526
  31 H :   -0.022104
  32 H :   -0.018038
  33 H :   -0.034311
  34 H :   -0.152774
  35 H :   -0.022770

  Mayer bond orders larger than 0.100000
B(  0-C ,  1-C ) :   0.9790 B(  0-C , 20-H ) :   0.9690 B(  0-C , 21-H ) :   0.9797
B(  0-C , 22-H ) :   0.9760 B(  1-C ,  2-O ) :   0.9055 B(  1-C , 23-H ) :   0.9805
B(  1-C , 24-H ) :   0.9584 B(  2-O ,  3-C ) :   1.1758 B(  3-C ,  4-O ) :   2.1103
B(  3-C ,  5-C ) :   0.9080 B(  5-C ,  6-C ) :   1.7289 B(  5-C , 12-C ) :   0.9435
B(  6-C ,  7-C ) :   0.9380 B(  6-C ,  8-N ) :   1.1029 B(  7-C , 25-H ) :   0.9776
B(  7-C , 26-H ) :   0.9742 B(  7-C , 27-H ) :   0.9661 B(  8-N ,  9-C ) :   1.2016
B(  8-N , 28-H ) :   0.9517 B(  9-C , 10-S ) :   1.6089 B(  9-C , 11-N ) :   1.2874
B( 11-N , 12-C ) :   0.9804 B( 11-N , 29-H ) :   0.9467 B( 12-C , 13-C ) :   0.9665
B( 12-C , 30-H ) :   0.9900 B( 13-C , 14-C ) :   1.3861 B( 13-C , 19-C ) :   1.3551
B( 14-C , 15-C ) :   1.3962 B( 14-C , 31-H ) :   0.9624 B( 15-C , 16-C ) :   1.3606
B( 15-C , 32-H ) :   0.9699 B( 16-C , 17-C ) :   1.3315 B( 16-C , 33-H ) :   0.9847
B( 17-C , 18-O ) :   1.1105 B( 17-C , 19-C ) :   1.3645 B( 18-O , 34-H ) :   0.9790
B( 19-C , 35-H ) :   0.9563

MP2 TOTAL ENERGY:    -1274.328804607 Eh
FINAL SINGLE POINT ENERGY     -1274.328804607085

DIPOLE MOMENT
-------------
                                X             Y             Z
Electronic contribution:      9.47182       8.25255       6.75088
Nuclear contribution   :    -11.18309      -9.49856      -7.14981
                        -----------------------------------------
Total Dipole Moment    :     -1.71127      -1.24601      -0.39893
                        -----------------------------------------
Magnitude (a.u.)       :      2.15410
Magnitude (Debye)      :      5.47528

Rotational constants in cm-1:     0.011823     0.009030     0.006385
Rotational constants in MHz :   354.451154   270.723249   191.419095

                             ****ORCA TERMINATED NORMALLY****
TOTAL RUN TIME: 0 days 1 hours 39 minutes 31 seconds 818 msec
