                         Program Version 4.2.0 -  RELEASE  -
|  1> ! ri-mp2 cc-pvtz cc-pvtz/c TightSCF NoKeepInts
|  2>
|  3> %scf
|  4>   MaxCore 4096
|  5> end
|  6> *xyz  0  1
|  7>     C       14.1747704   15.2096890   15.7516273
|  8>     C       14.9996541   16.4095170   15.2584220
|  9>     O       16.3471019   15.9341049   15.0614253
| 10>     C       17.4822975   16.5213638   15.5629021
| 11>     O       18.5806171   16.0334107   15.3731981
| 12>     C       17.2916185   17.6740084   16.4891222
| 13>     C       16.9862289   18.8940666   15.9877484
| 14>     C       16.5509718   19.2083889   14.5706091
| 15>     N       17.1215378   20.0425948   16.7693423
| 16>     C       17.7855602   20.0792483   17.9678086
| 17>     S       18.0099853   21.4930233   18.7954837
| 18>     N       18.2754043   18.8832264   18.4344327
| 19>     C       18.0064021   17.5612261   17.8330453
| 20>     C       17.3465762   16.5496451   18.7571530
| 21>     C       17.7955325   15.2171235   18.7785693
| 22>     C       17.1728482   14.2675286   19.6056120
| 23>     C       16.0896914   14.6534389   20.4138819
| 24>     C       15.6354996   15.9792740   20.3878076
| 25>     O       14.5826976   16.3517022   21.1582689
| 26>     C       16.2566755   16.9226471   19.5629303
| 27>     H       14.5680408   14.8388978   16.7071606
| 28>     H       14.2095274   14.3900107   15.0228970
| 29>     H       13.1261719   15.4949775   15.8995540
| 30>     H       14.5902968   16.7853770   14.3118209
| 31>     H       14.9254701   17.2016421   16.0121049
| 32>     H       16.8370384   18.4217868   13.8611756
| 33>     H       17.0192772   20.1327163   14.2082728
| 34>     H       15.4637071   19.3385552   14.5118226
| 35>     H       16.8015484   20.9326256   16.4207968
| 36>     H       18.7581059   18.9370517   19.3227882
| 37>     H       19.0328975   17.2422178   17.5971756
| 38>     H       18.6242413   14.9149321   18.1411435
| 39>     H       17.5275295   13.2381567   19.6134008
| 40>     H       15.6048255   13.9224112   21.0524771
| 41>     H       14.3195663   15.5806429   21.6831853
| 42>     H       15.8870850   17.9427711   19.5528341
| 43> *
| 44>
| 45>                          ****END OF INPUT****

CARTESIAN COORDINATES (ANGSTROEM)
---------------------------------
  C     14.174770   15.209689   15.751627
  C     14.999654   16.409517   15.258422
  O     16.347102   15.934105   15.061425
  C     17.482297   16.521364   15.562902
  O     18.580617   16.033411   15.373198
  C     17.291618   17.674008   16.489122
  C     16.986229   18.894067   15.987748
  C     16.550972   19.208389   14.570609
  N     17.121538   20.042595   16.769342
  C     17.785560   20.079248   17.967809
  S     18.009985   21.493023   18.795484
  N     18.275404   18.883226   18.434433
  C     18.006402   17.561226   17.833045
  C     17.346576   16.549645   18.757153
  C     17.795532   15.217123   18.778569
  C     17.172848   14.267529   19.605612
  C     16.089691   14.653439   20.413882
  C     15.635500   15.979274   20.387808
  O     14.582698   16.351702   21.158269
  C     16.256676   16.922647   19.562930
  H     14.568041   14.838898   16.707161
  H     14.209527   14.390011   15.022897
  H     13.126172   15.494977   15.899554
  H     14.590297   16.785377   14.311821
  H     14.925470   17.201642   16.012105
  H     16.837038   18.421787   13.861176
  H     17.019277   20.132716   14.208273
  H     15.463707   19.338555   14.511823
  H     16.801548   20.932626   16.420797
  H     18.758106   18.937052   19.322788
  H     19.032898   17.242218   17.597176
  H     18.624241   14.914932   18.141143
  H     17.527529   13.238157   19.613401
  H     15.604825   13.922411   21.052477
  H     14.319566   15.580643   21.683185
  H     15.887085   17.942771   19.552834

 Total Charge           Charge          ....    0
 Multiplicity           Mult            ....    1
 Number of Electrons    NEL             ....  154
 Basis Dimension        Dim             ....  828

ORBITAL ENERGIES
----------------

  NO   OCC          E(Eh)            E(eV)
   0   2.0000     -91.889569     -2500.4423
   1   2.0000     -20.605888      -560.7147
   2   2.0000     -20.599919      -560.5523
   3   2.0000     -20.550123      -559.1973
   4   2.0000     -15.627178      -425.2371
   5   2.0000     -15.609869      -424.7661
   6   2.0000     -11.400052      -310.2112
   7   2.0000     -11.385733      -309.8216
   8   2.0000     -11.331450      -308.3444
   9   2.0000     -11.317415      -307.9625
  10   2.0000     -11.311179      -307.7928
  11   2.0000     -11.306659      -307.6698
  12   2.0000     -11.268858      -306.6412
  13   2.0000     -11.265319      -306.5449
  14   2.0000     -11.263058      -306.4834
  15   2.0000     -11.257827      -306.3411
  16   2.0000     -11.246411      -306.0304
  17   2.0000     -11.242528      -305.9247
  18   2.0000     -11.240247      -305.8627
  19   2.0000     -11.231934      -305.6365
  20   2.0000      -8.894680      -242.0365
  21   2.0000      -6.576263      -178.9492
  22   2.0000      -6.574248      -178.8944
  23   2.0000      -6.573668      -178.8786
  24   2.0000      -1.448949       -39.4279
  25   2.0000      -1.419621       -38.6299
  26   2.0000      -1.362724       -37.0816
  27   2.0000      -1.340349       -36.4727
  28   2.0000      -1.239074       -33.7169
  29   2.0000      -1.161882       -31.6164
  30   2.0000      -1.127114       -30.6703
  31   2.0000      -1.049240       -28.5513
  32   2.0000      -1.041580       -28.3428
  33   2.0000      -1.019609       -27.7450
  34   2.0000      -1.006353       -27.3843
  35   2.0000      -0.989999       -26.9392
  36   2.0000      -0.926925       -25.2229
  37   2.0000      -0.885440       -24.0941
  38   2.0000      -0.855450       -23.2780
  39   2.0000      -0.842193       -22.9172
  40   2.0000      -0.837728       -22.7957
  41   2.0000      -0.836226       -22.7549
  42   2.0000      -0.757299       -20.6071
  43   2.0000      -0.740589       -20.1524
  44   2.0000      -0.732112       -19.9218
  45   2.0000      -0.697839       -18.9892
  46   2.0000      -0.690689       -18.7946
  47   2.0000      -0.684042       -18.6137
  48   2.0000      -0.674793       -18.3621
  49   2.0000      -0.663198       -18.0465
  50   2.0000      -0.654864       -17.8198
  51   2.0000      -0.644932       -17.5495
  52   2.0000      -0.638121       -17.3642
  53   2.0000      -0.613418       -16.6919
  54   2.0000      -0.610308       -16.6073
  55   2.0000      -0.604906       -16.4603
  56   2.0000      -0.602964       -16.4075
  57   2.0000      -0.584250       -15.8983
  58   2.0000      -0.578674       -15.7465
  59   2.0000      -0.568937       -15.4816
  60   2.0000      -0.560844       -15.2613
  61   2.0000      -0.557323       -15.1655
  62   2.0000      -0.549036       -14.9400
  63   2.0000      -0.532565       -14.4918
  64   2.0000      -0.520241       -14.1565
  65   2.0000      -0.514055       -13.9882
  66   2.0000      -0.506455       -13.7814
  67   2.0000      -0.501796       -13.6546
  68   2.0000      -0.488772       -13.3002
  69   2.0000      -0.470847       -12.8124
  70   2.0000      -0.454610       -12.3706
  71   2.0000      -0.452174       -12.3043
  72   2.0000      -0.355672        -9.6783
  73   2.0000      -0.352173        -9.5831
  74   2.0000      -0.329124        -8.9559
  75   2.0000      -0.325029        -8.8445
  76   2.0000      -0.319222        -8.6865
  77   0.0000       0.087728         2.3872
  78   0.0000       0.103261         2.8099
  79   0.0000       0.114915         3.1270
  80   0.0000       0.128794         3.5047
  81   0.0000       0.130070         3.5394

MULLIKEN ATOMIC CHARGES
-----------------------
   0 C :   -0.257038
   1 C :    0.026498
   2 O :   -0.308993
   3 C :    0.409797
   4 O :   -0.384245
   5 C :   -0.205649
   6 C :    0.146462
   7 C :   -0.328405
   8 N :   -0.140144
   9 C :    0.210445
  10 S :   -0.443255
  11 N :   -0.223543
  12 C :    0.056412
  13 C :    0.030519
  14 C :   -0.222435
  15 C :   -0.127633
  16 C :   -0.278620
  17 C :    0.315512
  18 O :   -0.355862
  19 C :   -0.254550
  20 H :    0.107447
  21 H :    0.102737
  22 H :    0.085628
  23 H :    0.100285
  24 H :    0.097720
  25 H :    0.130802
  26 H :    0.131270
  27 H :    0.124744
  28 H :    0.198033
  29 H :    0.202434
  30 H :    0.168590
  31 H :    0.173681
  32 H :    0.164813
  33 H :    0.131873
  34 H :    0.241396
  35 H :    0.173272
Sum of atomic charges:   -0.0000000

LOEWDIN ATOMIC CHARGES
----------------------
   0 C :    0.109521
   1 C :   -0.021680
   2 O :    0.312457
   3 C :   -0.417505
   4 O :    0.118559
   5 C :   -0.084236
   6 C :   -0.095368
   7 C :    0.126812
   8 N :    0.401986
   9 C :   -0.455626
  10 S :   -0.038664
  11 N :    0.396098
  12 C :   -0.049998
  13 C :   -0.043703
  14 C :    0.019720
  15 C :    0.045128
  16 C :   -0.000209
  17 C :   -0.190812
  18 O :    0.395256
  19 C :    0.027039
  20 H :   -0.022297
  21 H :   -0.024791
  22 H :   -0.026390
  23 H :   -0.032925
  24 H :   -0.037966
  25 H :   -0.006986
  26 H :   -0.010462
  27 H :   -0.016416
  28 H :   -0.057861
  29 H :   -0.063797
  30 H :   -0.003778
  31 H :   -0.021530
  32 H :   -0.018417
  33 H :   -0.034712
  34 H :   -0.153134
  35 H :   -0.023313

  Mayer bond orders larger than 0.100000
B(  0-C ,  1-C ) :   0.9814 B(  0-C , 20-H ) :   0.9744 B(  0-C , 21-H ) :   0.9803
B(  0-C , 22-H ) :   0.9758 B(  1-C ,  2-O ) :   0.9086 B(  1-C , 23-H ) :   0.9747
B(  1-C , 24-H ) :   0.9574 B(  2-O ,  3-C ) :   1.1870 B(  3-C ,  4-O ) :   2.1005
B(  3-C ,  5-C ) :   0.9207 B(  5-C ,  6-C ) :   1.7211 B(  5-C , 12-C ) :   0.9409
B(  6-C ,  7-C ) :   0.9345 B(  6-C ,  8-N ) :   1.1049 B(  7-C , 25-H ) :   0.9768
B(  7-C , 26-H ) :   0.9779 B(  7-C , 27-H ) :   0.9653 B(  8-N ,  9-C ) :   1.1983
B(  8-N , 28-H ) :   0.9510 B(  9-C , 10-S ) :   1.6094 B(  9-C , 11-N ) :   1.2897
B( 11-N , 12-C ) :   0.9837 B( 11-N , 29-H ) :   0.9472 B( 12-C , 13-C ) :   0.9678
B( 12-C , 30-H ) :   0.9892 B( 13-C , 14-C ) :   1.3826 B( 13-C , 19-C ) :   1.3538
B( 14-C , 15-C ) :   1.3947 B( 14-C , 31-H ) :   0.9610 B( 15-C , 16-C ) :   1.3618
B( 15-C , 32-H ) :   0.9695 B( 16-C , 17-C ) :   1.3299 B( 16-C , 33-H ) :   0.9851
B( 17-C , 18-O ) :   1.1092 B( 17-C , 19-C ) :   1.3666 B( 18-O , 34-H ) :   0.9793
B( 19-C , 35-H ) :   0.9561

MP2 TOTAL ENERGY:    -1274.329773285 Eh
FINAL SINGLE POINT ENERGY     -1274.329773284563

DIPOLE MOMENT
-------------
                                X             Y             Z
Electronic contribution:     10.07753       8.39394       7.72370
Nuclear contribution   :    -11.78875      -9.51198      -8.16715
                        -----------------------------------------
Total Dipole Moment    :     -1.71121      -1.11804      -0.44345
                        -----------------------------------------
Magnitude (a.u.)       :      2.09163
Magnitude (Debye)      :      5.31649

Rotational constants in cm-1:     0.011263     0.009005     0.006317
Rotational constants in MHz :   337.654880   269.974684   189.377329

                             ****ORCA TERMINATED NORMALLY****
TOTAL RUN TIME: 0 days 1 hours 40 minutes 29 seconds 538 msec
