                         Program Version 4.2.0 -  RELEASE  -
|  1> ! ri-mp2 cc-pvtz cc-pvtz/c TightSCF NoKeepInts
|  2>
|  3> %scf
|  4>   MaxCore 4096
|  5> end
|  6> *xyz  0  1
|  7>     C       14.7158758   15.0069840   13.5365067
|  8>     C       14.6184090   15.6092239   14.9484133
|  9>     O       15.6220653   16.6342235   15.0527838
| 10>     C       16.6557752   16.4566498   15.9245694
| 11>     O       17.1467437   15.3591027   16.1301152
| 12>     C       17.0154703   17.6711373   16.7324831
| 13>     C       16.8952895   18.9356655   16.2480654
| 14>     C       16.1994572   19.3847924   14.9780430
| 15>     N       17.4913701   20.0122805   16.9098630
| 16>     C       18.4015389   19.8900681   17.9248166
| 17>     S       19.1516083   21.2066284   18.5877873
| 18>     N       18.6756954   18.6142020   18.3474910
| 19>     C       17.9645340   17.3985771   17.9064785
| 20>     C       17.3117030   16.6356185   19.0516359
| 21>     C       17.6057451   15.2773830   19.2684333
| 22>     C       17.0037960   14.5758097   20.3264677
| 23>     C       16.1011041   15.2386867   21.1756595
| 24>     C       15.8047952   16.5917394   20.9605165
| 25>     O       14.9303339   17.2330507   21.7762035
| 26>     C       16.4050110   17.2870941   19.9059127
| 27>     H       14.5748688   15.7815052   12.7725567
| 28>     H       13.9488968   14.2363912   13.3925672
| 29>     H       15.6992299   14.5439129   13.3844727
| 30>     H       13.6239650   16.0523677   15.0874689
| 31>     H       14.7518556   14.8249603   15.7068375
| 32>     H       16.5957738   18.8498296   14.1057318
| 33>     H       16.3244097   20.4562630   14.7796376
| 34>     H       15.1217857   19.1873444   15.0353915
| 35>     H       17.3176747   20.9534331   16.5952888
| 36>     H       19.3347551   18.5526713   19.1132967
| 37>     H       18.8026041   16.8234405   17.4863978
| 38>     H       18.2923935   14.7604732   18.6020484
| 39>     H       17.2343526   13.5232047   20.4805363
| 40>     H       15.6330562   14.7002730   21.9929646
| 41>     H       14.6489267   16.6002331   22.4538167
| 42>     H       16.1661309   18.3347795   19.7567416
| 43> *
| 44>
| 45>                          ****END OF INPUT****

CARTESIAN COORDINATES (ANGSTROEM)
---------------------------------
  C     14.715876   15.006984   13.536507
  C     14.618409   15.609224   14.948413
  O     15.622065   16.634224   15.052784
  C     16.655775   16.456650   15.924569
  O     17.146744   15.359103   16.130115
  C     17.015470   17.671137   16.732483
  C     16.895290   18.935665   16.248065
  C     16.199457   19.384792   14.978043
  N     17.491370   20.012280   16.909863
  C     18.401539   19.890068   17.924817
  S     19.151608   21.206628   18.587787
  N     18.675695   18.614202   18.347491
  C     17.964534   17.398577   17.906478
  C     17.311703   16.635618   19.051636
  C     17.605745   15.277383   19.268433
  C     17.003796   14.575810   20.326468
  C     16.101104   15.238687   21.175659
  C     15.804795   16.591739   20.960516
  O     14.930334   17.233051   21.776204
  C     16.405011   17.287094   19.905913
  H     14.574869   15.781505   12.772557
  H     13.948897   14.236391   13.392567
  H     15.699230   14.543913   13.384473
  H     13.623965   16.052368   15.087469
  H     14.751856   14.824960   15.706837
  H     16.595774   18.849830   14.105732
  H     16.324410   20.456263   14.779638
  H     15.121786   19.187344   15.035391
  H     17.317675   20.953433   16.595289
  H     19.334755   18.552671   19.113297
  H     18.802604   16.823441   17.486398
  H     18.292393   14.760473   18.602048
  H     17.234353   13.523205   20.480536
  H     15.633056   14.700273   21.992965
  H     14.648927   16.600233   22.453817
  H     16.166131   18.334779   19.756742

 Total Charge           Charge          ....    0
 Multiplicity           Mult            ....    1
 Number of Electrons    NEL             ....  154
 Basis Dimension        Dim             ....  828

ORBITAL ENERGIES
----------------

  NO   OCC          E(Eh)            E(eV)
   0   2.0000     -91.888312     -2500.4081
   1   2.0000     -20.597585      -560.4888
   2   2.0000     -20.592237      -560.3433
   3   2.0000     -20.547933      -559.1377
   4   2.0000     -15.628958      -425.2856
   5   2.0000     -15.605939      -424.6592
   6   2.0000     -11.395828      -310.0962
   7   2.0000     -11.382888      -309.7441
   8   2.0000     -11.338412      -308.5339
   9   2.0000     -11.308283      -307.7140
  10   2.0000     -11.304444      -307.6096
  11   2.0000     -11.300663      -307.5067
  12   2.0000     -11.260538      -306.4148
  13   2.0000     -11.259391      -306.3836
  14   2.0000     -11.255538      -306.2788
  15   2.0000     -11.248371      -306.0837
  16   2.0000     -11.238545      -305.8164
  17   2.0000     -11.234653      -305.7105
  18   2.0000     -11.231414      -305.6223
  19   2.0000     -11.227786      -305.5236
  20   2.0000      -8.893393      -242.0015
  21   2.0000      -6.574969      -178.9140
  22   2.0000      -6.572967      -178.8595
  23   2.0000      -6.572378      -178.8435
  24   2.0000      -1.454006       -39.5655
  25   2.0000      -1.411982       -38.4220
  26   2.0000      -1.357728       -36.9457
  27   2.0000      -1.340161       -36.4676
  28   2.0000      -1.237276       -33.6680
  29   2.0000      -1.152880       -31.3715
  30   2.0000      -1.121161       -30.5084
  31   2.0000      -1.043515       -28.3955
  32   2.0000      -1.035293       -28.1718
  33   2.0000      -1.010396       -27.4943
  34   2.0000      -0.998850       -27.1801
  35   2.0000      -0.983801       -26.7706
  36   2.0000      -0.921019       -25.0622
  37   2.0000      -0.887263       -24.1436
  38   2.0000      -0.847938       -23.0736
  39   2.0000      -0.835780       -22.7427
  40   2.0000      -0.828558       -22.5462
  41   2.0000      -0.821898       -22.3650
  42   2.0000      -0.759272       -20.6608
  43   2.0000      -0.735776       -20.0215
  44   2.0000      -0.726640       -19.7729
  45   2.0000      -0.690784       -18.7972
  46   2.0000      -0.686370       -18.6771
  47   2.0000      -0.680102       -18.5065
  48   2.0000      -0.671163       -18.2633
  49   2.0000      -0.656623       -17.8676
  50   2.0000      -0.646946       -17.6043
  51   2.0000      -0.639864       -17.4116
  52   2.0000      -0.628987       -17.1156
  53   2.0000      -0.614999       -16.7350
  54   2.0000      -0.603061       -16.4101
  55   2.0000      -0.598869       -16.2961
  56   2.0000      -0.595463       -16.2034
  57   2.0000      -0.583488       -15.8775
  58   2.0000      -0.573480       -15.6052
  59   2.0000      -0.564550       -15.3622
  60   2.0000      -0.561435       -15.2774
  61   2.0000      -0.548091       -14.9143
  62   2.0000      -0.534946       -14.5566
  63   2.0000      -0.524637       -14.2761
  64   2.0000      -0.516366       -14.0510
  65   2.0000      -0.509506       -13.8644
  66   2.0000      -0.502523       -13.6743
  67   2.0000      -0.494560       -13.4577
  68   2.0000      -0.480706       -13.0807
  69   2.0000      -0.463087       -12.6012
  70   2.0000      -0.457726       -12.4554
  71   2.0000      -0.453504       -12.3405
  72   2.0000      -0.353326        -9.6145
  73   2.0000      -0.344992        -9.3877
  74   2.0000      -0.327371        -8.9082
  75   2.0000      -0.317491        -8.6394
  76   2.0000      -0.314969        -8.5707
  77   0.0000       0.075499         2.0544
  78   0.0000       0.110920         3.0183
  79   0.0000       0.121424         3.3041
  80   0.0000       0.135377         3.6838
  81   0.0000       0.139613         3.7991

MULLIKEN ATOMIC CHARGES
-----------------------
   0 C :   -0.268390
   1 C :    0.034068
   2 O :   -0.355823
   3 C :    0.426577
   4 O :   -0.415232
   5 C :   -0.172892
   6 C :    0.155835
   7 C :   -0.280220
   8 N :   -0.128748
   9 C :    0.207293
  10 S :   -0.441935
  11 N :   -0.210932
  12 C :    0.041344
  13 C :    0.031717
  14 C :   -0.170453
  15 C :   -0.134472
  16 C :   -0.277270
  17 C :    0.313976
  18 O :   -0.358938
  19 C :   -0.251200
  20 H :    0.090329
  21 H :    0.090227
  22 H :    0.106662
  23 H :    0.099479
  24 H :    0.105741
  25 H :    0.126374
  26 H :    0.102055
  27 H :    0.127900
  28 H :    0.198913
  29 H :    0.200017
  30 H :    0.155784
  31 H :    0.159827
  32 H :    0.160305
  33 H :    0.128418
  34 H :    0.239986
  35 H :    0.163678
Sum of atomic charges:   -0.0000000

LOEWDIN ATOMIC CHARGES
----------------------
   0 C :    0.104890
   1 C :   -0.014863
   2 O :    0.304332
   3 C :   -0.417364
   4 O :    0.108386
   5 C :   -0.093078
   6 C :   -0.064379
   7 C :    0.125443
   8 N :    0.405581
   9 C :   -0.458515
  10 S :   -0.037292
  11 N :    0.396324
  12 C :   -0.048291
  13 C :   -0.040765
  14 C :    0.024511
  15 C :    0.040793
  16 C :   -0.001214
  17 C :   -0.192583
  18 O :    0.393112
  19 C :    0.029525
  20 H :   -0.029565
  21 H :   -0.027320
  22 H :   -0.023082
  23 H :   -0.030071
  24 H :   -0.025690
  25 H :   -0.008913
  26 H :   -0.021022
  27 H :   -0.009445
  28 H :   -0.058610
  29 H :   -0.063184
  30 H :   -0.008063
  31 H :   -0.023870
  32 H :   -0.020979
  33 H :   -0.036119
  34 H :   -0.154791
  35 H :   -0.023829

  Mayer bond orders larger than 0.100000
B(  0-C ,  1-C ) :   0.9738 B(  0-C , 20-H ) :   0.9789 B(  0-C , 21-H ) :   0.9760
B(  0-C , 22-H ) :   0.9770 B(  1-C ,  2-O ) :   0.8922 B(  1-C , 23-H ) :   0.9813
B(  1-C , 24-H ) :   0.9722 B(  2-O ,  3-C ) :   1.1084 B(  3-C ,  4-O ) :   1.9932
B(  3-C ,  5-C ) :   1.0441 B(  5-C ,  6-C ) :   1.6578 B(  5-C , 12-C ) :   0.9468
B(  6-C ,  7-C ) :   0.9545 B(  6-C ,  8-N ) :   1.1350 B(  7-C , 25-H ) :   0.9655
B(  7-C , 26-H ) :   0.9908 B(  7-C , 27-H ) :   0.9637 B(  8-N ,  9-C ) :   1.1853
B(  8-N , 28-H ) :   0.9469 B(  9-C , 10-S ) :   1.6088 B(  9-C , 11-N ) :   1.3060
B( 11-N , 12-C ) :   0.9756 B( 11-N , 29-H ) :   0.9484 B( 12-C , 13-C ) :   0.9724
B( 12-C , 30-H ) :   0.9968 B( 13-C , 14-C ) :   1.3765 B( 13-C , 19-C ) :   1.3654
B( 14-C , 15-C ) :   1.3972 B( 14-C , 31-H ) :   0.9635 B( 15-C , 16-C ) :   1.3588
B( 15-C , 32-H ) :   0.9711 B( 16-C , 17-C ) :   1.3332 B( 16-C , 33-H ) :   0.9859
B( 17-C , 18-O ) :   1.1038 B( 17-C , 19-C ) :   1.3674 B( 18-O , 34-H ) :   0.9806
B( 19-C , 35-H ) :   0.9602

MP2 TOTAL ENERGY:    -1274.334757878 Eh
FINAL SINGLE POINT ENERGY     -1274.334757877915

DIPOLE MOMENT
-------------
                                X             Y             Z
Electronic contribution:      9.95514       9.86257      12.17198
Nuclear contribution   :    -11.56292     -11.05713     -12.98455
                        -----------------------------------------
Total Dipole Moment    :     -1.60778      -1.19456      -0.81257
                        -----------------------------------------
Magnitude (a.u.)       :      2.16153
Magnitude (Debye)      :      5.49417

Rotational constants in cm-1:     0.009881     0.008938     0.005483
Rotational constants in MHz :   296.218737   267.940820   164.384790

                             ****ORCA TERMINATED NORMALLY****
TOTAL RUN TIME: 0 days 1 hours 32 minutes 50 seconds 185 msec
