                         Program Version 4.2.0 -  RELEASE  -
|  1> ! ri-mp2 cc-pvtz cc-pvtz/c TightSCF NoKeepInts
|  2>
|  3> %scf
|  4>   MaxCore 4096
|  5> end
|  6> *xyz  0  1
|  7>     C       15.4636396   13.9490727   15.2117199
|  8>     C       14.9817379   15.3861383   15.4709156
|  9>     O       16.1476080   16.2146039   15.5995259
| 10>     C       15.9893250   17.5681870   15.5319475
| 11>     O       15.2003666   18.0841148   14.7590784
| 12>     C       16.7812223   18.3002413   16.5816349
| 13>     C       16.9449959   19.6464751   16.5159998
| 14>     C       16.2081492   20.6150052   15.6140790
| 15>     N       17.8833450   20.2972766   17.3202889
| 16>     C       18.8261826   19.6597281   18.0804362
| 17>     S       19.9694488   20.4923718   18.9379493
| 18>     N       18.7878247   18.2883375   18.0777022
| 19>     C       17.7481412   17.4623987   17.4352831
| 20>     C       17.0580384   16.5220024   18.4148531
| 21>     C       17.3218113   15.1402835   18.3860635
| 22>     C       16.6795768   14.2722979   19.2850510
| 23>     C       15.7700698   14.7915406   20.2224034
| 24>     C       15.5105700   16.1687572   20.2567090
| 25>     O       14.6336874   16.6727471   21.1610883
| 26>     C       16.1503561   17.0298352   19.3596483
| 27>     H       16.0688563   13.5869348   16.0516642
| 28>     H       16.0715135   13.9040752   14.2994749
| 29>     H       14.6084146   13.2736606   15.0884973
| 30>     H       14.3632987   15.7131527   14.6235998
| 31>     H       14.3770484   15.4319557   16.3864740
| 32>     H       15.1227454   20.5047237   15.7344020
| 33>     H       16.4425974   20.4174015   14.5602801
| 34>     H       16.4540088   21.6640462   15.8166997
| 35>     H       17.9366567   21.3033382   17.3137349
| 36>     H       19.4763857   17.8468082   18.6738258
| 37>     H       18.3603795   16.8945729   16.7201982
| 38>     H       18.0207278   14.7379117   17.6574921
| 39>     H       16.8876633   13.2041699   19.2542157
| 40>     H       15.2722145   14.1255092   20.9194932
| 41>     H       14.3266236   15.9367488   21.7115241
| 42>     H       15.9417693   18.0935755   19.4040468
| 43> *
| 44>
| 45>                          ****END OF INPUT****

CARTESIAN COORDINATES (ANGSTROEM)
---------------------------------
  C     15.463640   13.949073   15.211720
  C     14.981738   15.386138   15.470916
  O     16.147608   16.214604   15.599526
  C     15.989325   17.568187   15.531947
  O     15.200367   18.084115   14.759078
  C     16.781222   18.300241   16.581635
  C     16.944996   19.646475   16.516000
  C     16.208149   20.615005   15.614079
  N     17.883345   20.297277   17.320289
  C     18.826183   19.659728   18.080436
  S     19.969449   20.492372   18.937949
  N     18.787825   18.288338   18.077702
  C     17.748141   17.462399   17.435283
  C     17.058038   16.522002   18.414853
  C     17.321811   15.140284   18.386063
  C     16.679577   14.272298   19.285051
  C     15.770070   14.791541   20.222403
  C     15.510570   16.168757   20.256709
  O     14.633687   16.672747   21.161088
  C     16.150356   17.029835   19.359648
  H     16.068856   13.586935   16.051664
  H     16.071513   13.904075   14.299475
  H     14.608415   13.273661   15.088497
  H     14.363299   15.713153   14.623600
  H     14.377048   15.431956   16.386474
  H     15.122745   20.504724   15.734402
  H     16.442597   20.417402   14.560280
  H     16.454009   21.664046   15.816700
  H     17.936657   21.303338   17.313735
  H     19.476386   17.846808   18.673826
  H     18.360380   16.894573   16.720198
  H     18.020728   14.737912   17.657492
  H     16.887663   13.204170   19.254216
  H     15.272215   14.125509   20.919493
  H     14.326624   15.936749   21.711524
  H     15.941769   18.093576   19.404047

 Total Charge           Charge          ....    0
 Multiplicity           Mult            ....    1
 Number of Electrons    NEL             ....  154
 Basis Dimension        Dim             ....  828

ORBITAL ENERGIES
----------------

  NO   OCC          E(Eh)            E(eV)
   0   2.0000     -91.889681     -2500.4454
   1   2.0000     -20.598573      -560.5157
   2   2.0000     -20.593829      -560.3866
   3   2.0000     -20.542614      -558.9929
   4   2.0000     -15.630109      -425.3169
   5   2.0000     -15.607832      -424.7107
   6   2.0000     -11.392985      -310.0189
   7   2.0000     -11.384367      -309.7844
   8   2.0000     -11.338101      -308.5254
   9   2.0000     -11.316033      -307.9249
  10   2.0000     -11.308477      -307.7193
  11   2.0000     -11.294680      -307.3439
  12   2.0000     -11.262849      -306.4777
  13   2.0000     -11.258526      -306.3601
  14   2.0000     -11.257490      -306.3319
  15   2.0000     -11.252229      -306.1887
  16   2.0000     -11.245845      -306.0150
  17   2.0000     -11.241070      -305.8851
  18   2.0000     -11.240736      -305.8760
  19   2.0000     -11.228518      -305.5435
  20   2.0000      -8.894743      -242.0383
  21   2.0000      -6.576313      -178.9506
  22   2.0000      -6.574317      -178.8963
  23   2.0000      -6.573724      -178.8801
  24   2.0000      -1.450667       -39.4747
  25   2.0000      -1.418249       -38.5925
  26   2.0000      -1.353856       -36.8403
  27   2.0000      -1.341128       -36.4939
  28   2.0000      -1.239078       -33.7170
  29   2.0000      -1.159656       -31.5559
  30   2.0000      -1.121904       -30.5286
  31   2.0000      -1.044467       -28.4214
  32   2.0000      -1.038416       -28.2567
  33   2.0000      -1.017377       -27.6842
  34   2.0000      -0.997084       -27.1320
  35   2.0000      -0.985574       -26.8188
  36   2.0000      -0.922979       -25.1155
  37   2.0000      -0.884529       -24.0693
  38   2.0000      -0.847233       -23.0544
  39   2.0000      -0.839501       -22.8440
  40   2.0000      -0.836213       -22.7545
  41   2.0000      -0.821016       -22.3410
  42   2.0000      -0.764333       -20.7986
  43   2.0000      -0.735361       -20.0102
  44   2.0000      -0.722467       -19.6593
  45   2.0000      -0.697290       -18.9742
  46   2.0000      -0.687618       -18.7110
  47   2.0000      -0.678579       -18.4651
  48   2.0000      -0.675815       -18.3898
  49   2.0000      -0.659296       -17.9403
  50   2.0000      -0.648240       -17.6395
  51   2.0000      -0.640896       -17.4397
  52   2.0000      -0.633106       -17.2277
  53   2.0000      -0.610501       -16.6126
  54   2.0000      -0.608559       -16.5597
  55   2.0000      -0.601950       -16.3799
  56   2.0000      -0.600352       -16.3364
  57   2.0000      -0.579020       -15.7559
  58   2.0000      -0.570619       -15.5273
  59   2.0000      -0.565529       -15.3888
  60   2.0000      -0.558278       -15.1915
  61   2.0000      -0.542170       -14.7532
  62   2.0000      -0.539068       -14.6688
  63   2.0000      -0.526014       -14.3136
  64   2.0000      -0.522281       -14.2120
  65   2.0000      -0.514167       -13.9912
  66   2.0000      -0.504290       -13.7224
  67   2.0000      -0.498492       -13.5646
  68   2.0000      -0.486424       -13.2363
  69   2.0000      -0.465516       -12.6673
  70   2.0000      -0.457278       -12.4432
  71   2.0000      -0.445491       -12.1224
  72   2.0000      -0.353919        -9.6306
  73   2.0000      -0.351701        -9.5703
  74   2.0000      -0.328914        -8.9502
  75   2.0000      -0.323295        -8.7973
  76   2.0000      -0.318959        -8.6793
  77   0.0000       0.074201         2.0191
  78   0.0000       0.102151         2.7797
  79   0.0000       0.124774         3.3953
  80   0.0000       0.131451         3.5770
  81   0.0000       0.135649         3.6912

MULLIKEN ATOMIC CHARGES
-----------------------
   0 C :   -0.269145
   1 C :    0.021873
   2 O :   -0.357471
   3 C :    0.455542
   4 O :   -0.426381
   5 C :   -0.253313
   6 C :    0.176899
   7 C :   -0.266991
   8 N :   -0.126089
   9 C :    0.211411
  10 S :   -0.440701
  11 N :   -0.216524
  12 C :    0.069097
  13 C :    0.032544
  14 C :   -0.190103
  15 C :   -0.127103
  16 C :   -0.277844
  17 C :    0.315473
  18 O :   -0.356143
  19 C :   -0.248254
  20 H :    0.090363
  21 H :    0.099241
  22 H :    0.092313
  23 H :    0.123906
  24 H :    0.097862
  25 H :    0.133775
  26 H :    0.129574
  27 H :    0.094662
  28 H :    0.199671
  29 H :    0.200797
  30 H :    0.152066
  31 H :    0.159081
  32 H :    0.163294
  33 H :    0.131640
  34 H :    0.240949
  35 H :    0.164028
Sum of atomic charges:    0.0000000

LOEWDIN ATOMIC CHARGES
----------------------
   0 C :    0.107777
   1 C :   -0.017894
   2 O :    0.305146
   3 C :   -0.416449
   4 O :    0.101947
   5 C :   -0.098009
   6 C :   -0.055449
   7 C :    0.131693
   8 N :    0.407441
   9 C :   -0.456083
  10 S :   -0.035544
  11 N :    0.394380
  12 C :   -0.054589
  13 C :   -0.039338
  14 C :    0.017513
  15 C :    0.039179
  16 C :   -0.000824
  17 C :   -0.190039
  18 O :    0.395465
  19 C :    0.032750
  20 H :   -0.031405
  21 H :   -0.025956
  22 H :   -0.025046
  23 H :   -0.027473
  24 H :   -0.030831
  25 H :   -0.004126
  26 H :   -0.004603
  27 H :   -0.023552
  28 H :   -0.057008
  29 H :   -0.064482
  30 H :   -0.012955
  31 H :   -0.029295
  32 H :   -0.021119
  33 H :   -0.035026
  34 H :   -0.153602
  35 H :   -0.022595

  Mayer bond orders larger than 0.100000
B(  0-C ,  1-C ) :   0.9745 B(  0-C , 20-H ) :   0.9777 B(  0-C , 21-H ) :   0.9774
B(  0-C , 22-H ) :   0.9775 B(  1-C ,  2-O ) :   0.8886 B(  1-C , 23-H ) :   0.9796
B(  1-C , 24-H ) :   0.9705 B(  2-O ,  3-C ) :   1.1376 B(  3-C ,  4-O ) :   1.9897
B(  3-C ,  5-C ) :   1.0672 B(  5-C ,  6-C ) :   1.6314 B(  5-C , 12-C ) :   0.9555
B(  6-C ,  7-C ) :   0.9655 B(  6-C ,  8-N ) :   1.1565 B(  7-C , 25-H ) :   0.9607
B(  7-C , 26-H ) :   0.9588 B(  7-C , 27-H ) :   0.9905 B(  8-N ,  9-C ) :   1.1863
B(  8-N , 28-H ) :   0.9463 B(  9-C , 10-S ) :   1.6066 B(  9-C , 11-N ) :   1.3097
B( 11-N , 12-C ) :   0.9669 B( 11-N , 29-H ) :   0.9484 B( 12-C , 13-C ) :   0.9615
B( 12-C , 30-H ) :   1.0009 B( 13-C , 14-C ) :   1.3576 B( 13-C , 19-C ) :   1.3786
B( 14-C , 15-C ) :   1.3864 B( 14-C , 31-H ) :   0.9690 B( 15-C , 16-C ) :   1.3619
B( 15-C , 32-H ) :   0.9695 B( 16-C , 17-C ) :   1.3329 B( 16-C , 33-H ) :   0.9844
B( 17-C , 18-O ) :   1.1057 B( 17-C , 19-C ) :   1.3655 B( 18-O , 34-H ) :   0.9795
B( 19-C , 35-H ) :   0.9594

MP2 TOTAL ENERGY:    -1274.339260777 Eh
FINAL SINGLE POINT ENERGY     -1274.339260777443

DIPOLE MOMENT
-------------
                                X             Y             Z
Electronic contribution:      8.50937      11.35818       7.70710
Nuclear contribution   :     -9.65488     -12.94817      -7.87638
                        -----------------------------------------
Total Dipole Moment    :     -1.14551      -1.58999      -0.16929
                        -----------------------------------------
Magnitude (a.u.)       :      1.96696
Magnitude (Debye)      :      4.99962

Rotational constants in cm-1:     0.011955     0.008301     0.005991
Rotational constants in MHz :   358.396825   248.860123   179.594031

                             ****ORCA TERMINATED NORMALLY****
TOTAL RUN TIME: 0 days 1 hours 40 minutes 18 seconds 168 msec
