                         Program Version 4.2.0 -  RELEASE  -
|  1> ! ri-mp2 cc-pvtz cc-pvtz/c TightSCF NoKeepInts
|  2>
|  3> %scf
|  4>   MaxCore 4096
|  5> end
|  6> *xyz  0  1
|  7>     C       15.2084882   14.6612861   14.0759428
|  8>     C       15.0239998   15.1857812   15.5107177
|  9>     O       16.1034915   16.0923899   15.7926912
| 10>     C       15.8780618   17.4385376   15.7350038
| 11>     O       15.0356744   17.9206920   14.9968915
| 12>     C       16.6985508   18.2078948   16.7352674
| 13>     C       16.8053543   19.5590912   16.6534606
| 14>     C       15.9789108   20.4925794   15.7931090
| 15>     N       17.7634605   20.2517189   17.3972782
| 16>     C       18.7757460   19.6570396   18.1006279
| 17>     S       19.9353789   20.5398627   18.8826578
| 18>     N       18.7918208   18.2852685   18.1058653
| 19>     C       17.7472209   17.4148647   17.5336779
| 20>     C       17.1545466   16.4578059   18.5599126
| 21>     C       17.4218840   15.0779993   18.4915824
| 22>     C       16.8727322   14.1970927   19.4384936
| 23>     C       16.0530087   14.7010591   20.4630194
| 24>     C       15.7892046   16.0760037   20.5354123
| 25>     O       14.9991122   16.5652320   21.5240292
| 26>     C       16.3366151   16.9500393   19.5909959
| 27>     H       15.1452868   15.4855190   13.3540019
| 28>     H       14.4281713   13.9311089   13.8297967
| 29>     H       16.1849805   14.1745788   13.9625647
| 30>     H       14.0448509   15.6710103   15.6266927
| 31>     H       15.0698718   14.3402213   16.2091786
| 32>     H       14.9075543   20.3361254   15.9732903
| 33>     H       16.1632411   20.3022519   14.7280922
| 34>     H       16.1899564   21.5517756   15.9816106
| 35>     H       17.7761074   21.2590192   17.3832626
| 36>     H       19.5325972   17.8750102   18.6602898
| 37>     H       18.3377421   16.8653956   16.7867651
| 38>     H       18.0512890   14.6873590   17.6962925
| 39>     H       17.0832711   13.1307666   19.3772429
| 40>     H       15.6273272   14.0250035   21.1972468
| 41>     H       14.7446139   15.8207197   22.0895324
| 42>     H       16.1268770   18.0118964   19.6655036
| 43> *
| 44>
| 45>                          ****END OF INPUT****

CARTESIAN COORDINATES (ANGSTROEM)
---------------------------------
  C     15.208488   14.661286   14.075943
  C     15.024000   15.185781   15.510718
  O     16.103492   16.092390   15.792691
  C     15.878062   17.438538   15.735004
  O     15.035674   17.920692   14.996891
  C     16.698551   18.207895   16.735267
  C     16.805354   19.559091   16.653461
  C     15.978911   20.492579   15.793109
  N     17.763461   20.251719   17.397278
  C     18.775746   19.657040   18.100628
  S     19.935379   20.539863   18.882658
  N     18.791821   18.285268   18.105865
  C     17.747221   17.414865   17.533678
  C     17.154547   16.457806   18.559913
  C     17.421884   15.077999   18.491582
  C     16.872732   14.197093   19.438494
  C     16.053009   14.701059   20.463019
  C     15.789205   16.076004   20.535412
  O     14.999112   16.565232   21.524029
  C     16.336615   16.950039   19.590996
  H     15.145287   15.485519   13.354002
  H     14.428171   13.931109   13.829797
  H     16.184981   14.174579   13.962565
  H     14.044851   15.671010   15.626693
  H     15.069872   14.340221   16.209179
  H     14.907554   20.336125   15.973290
  H     16.163241   20.302252   14.728092
  H     16.189956   21.551776   15.981611
  H     17.776107   21.259019   17.383263
  H     19.532597   17.875010   18.660290
  H     18.337742   16.865396   16.786765
  H     18.051289   14.687359   17.696292
  H     17.083271   13.130767   19.377243
  H     15.627327   14.025004   21.197247
  H     14.744614   15.820720   22.089532
  H     16.126877   18.011896   19.665504

 Total Charge           Charge          ....    0
 Multiplicity           Mult            ....    1
 Number of Electrons    NEL             ....  154
 Basis Dimension        Dim             ....  828

ORBITAL ENERGIES
----------------

  NO   OCC          E(Eh)            E(eV)
   0   2.0000     -91.889342     -2500.4361
   1   2.0000     -20.597059      -560.4745
   2   2.0000     -20.596653      -560.4634
   3   2.0000     -20.542792      -558.9978
   4   2.0000     -15.629801      -425.3085
   5   2.0000     -15.607413      -424.6993
   6   2.0000     -11.394905      -310.0711
   7   2.0000     -11.383990      -309.7741
   8   2.0000     -11.337939      -308.5210
   9   2.0000     -11.314321      -307.8783
  10   2.0000     -11.307945      -307.7048
  11   2.0000     -11.296157      -307.3841
  12   2.0000     -11.261394      -306.4381
  13   2.0000     -11.258995      -306.3728
  14   2.0000     -11.255808      -306.2861
  15   2.0000     -11.252191      -306.1877
  16   2.0000     -11.244170      -305.9694
  17   2.0000     -11.239525      -305.8430
  18   2.0000     -11.239271      -305.8361
  19   2.0000     -11.223110      -305.3964
  20   2.0000      -8.894407      -242.0291
  21   2.0000      -6.575977      -178.9414
  22   2.0000      -6.573981      -178.8871
  23   2.0000      -6.573389      -178.8710
  24   2.0000      -1.451159       -39.4881
  25   2.0000      -1.416723       -38.5510
  26   2.0000      -1.354444       -36.8563
  27   2.0000      -1.340848       -36.4863
  28   2.0000      -1.238687       -33.7064
  29   2.0000      -1.158148       -31.5148
  30   2.0000      -1.121552       -30.5190
  31   2.0000      -1.043360       -28.3913
  32   2.0000      -1.036497       -28.2045
  33   2.0000      -1.015595       -27.6357
  34   2.0000      -0.996260       -27.1096
  35   2.0000      -0.984769       -26.7969
  36   2.0000      -0.922285       -25.0967
  37   2.0000      -0.888598       -24.1800
  38   2.0000      -0.847102       -23.0508
  39   2.0000      -0.838554       -22.8182
  40   2.0000      -0.834761       -22.7150
  41   2.0000      -0.820189       -22.3185
  42   2.0000      -0.760687       -20.6994
  43   2.0000      -0.733934       -19.9714
  44   2.0000      -0.722844       -19.6696
  45   2.0000      -0.695868       -18.9355
  46   2.0000      -0.688892       -18.7457
  47   2.0000      -0.679679       -18.4950
  48   2.0000      -0.671847       -18.2819
  49   2.0000      -0.651406       -17.7257
  50   2.0000      -0.647985       -17.6326
  51   2.0000      -0.642143       -17.4736
  52   2.0000      -0.629707       -17.1352
  53   2.0000      -0.612655       -16.6712
  54   2.0000      -0.607026       -16.5180
  55   2.0000      -0.600462       -16.3394
  56   2.0000      -0.599540       -16.3143
  57   2.0000      -0.579154       -15.7596
  58   2.0000      -0.571991       -15.5647
  59   2.0000      -0.569293       -15.4913
  60   2.0000      -0.563995       -15.3471
  61   2.0000      -0.541336       -14.7305
  62   2.0000      -0.534553       -14.5459
  63   2.0000      -0.524566       -14.2742
  64   2.0000      -0.522607       -14.2209
  65   2.0000      -0.513652       -13.9772
  66   2.0000      -0.500771       -13.6267
  67   2.0000      -0.496928       -13.5221
  68   2.0000      -0.486530       -13.2392
  69   2.0000      -0.463820       -12.6212
  70   2.0000      -0.453817       -12.3490
  71   2.0000      -0.447954       -12.1894
  72   2.0000      -0.353419        -9.6170
  73   2.0000      -0.350329        -9.5329
  74   2.0000      -0.328475        -8.9383
  75   2.0000      -0.321787        -8.7563
  76   2.0000      -0.318539        -8.6679
  77   0.0000       0.075452         2.0532
  78   0.0000       0.104300         2.8382
  79   0.0000       0.124905         3.3988
  80   0.0000       0.132344         3.6013
  81   0.0000       0.136464         3.7134

MULLIKEN ATOMIC CHARGES
-----------------------
   0 C :   -0.274013
   1 C :    0.034679
   2 O :   -0.354834
   3 C :    0.433535
   4 O :   -0.432960
   5 C :   -0.222236
   6 C :    0.175550
   7 C :   -0.268140
   8 N :   -0.126198
   9 C :    0.209876
  10 S :   -0.440986
  11 N :   -0.215496
  12 C :    0.062992
  13 C :    0.042253
  14 C :   -0.185207
  15 C :   -0.132948
  16 C :   -0.277072
  17 C :    0.316629
  18 O :   -0.356666
  19 C :   -0.248651
  20 H :    0.109226
  21 H :    0.090381
  22 H :    0.090395
  23 H :    0.099247
  24 H :    0.109034
  25 H :    0.133731
  26 H :    0.129147
  27 H :    0.094879
  28 H :    0.199925
  29 H :    0.200552
  30 H :    0.153425
  31 H :    0.153951
  32 H :    0.162006
  33 H :    0.130468
  34 H :    0.240636
  35 H :    0.162893
Sum of atomic charges:   -0.0000000

LOEWDIN ATOMIC CHARGES
----------------------
   0 C :    0.104567
   1 C :   -0.016271
   2 O :    0.308745
   3 C :   -0.416202
   4 O :    0.097593
   5 C :   -0.096203
   6 C :   -0.055657
   7 C :    0.131439
   8 N :    0.407337
   9 C :   -0.456525
  10 S :   -0.035813
  11 N :    0.394630
  12 C :   -0.054589
  13 C :   -0.039513
  14 C :    0.017465
  15 C :    0.038326
  16 C :   -0.000944
  17 C :   -0.189690
  18 O :    0.395109
  19 C :    0.032975
  20 H :   -0.023898
  21 H :   -0.028280
  22 H :   -0.029702
  23 H :   -0.027738
  24 H :   -0.027781
  25 H :   -0.004237
  26 H :   -0.004891
  27 H :   -0.023540
  28 H :   -0.057082
  29 H :   -0.064305
  30 H :   -0.013288
  31 H :   -0.028819
  32 H :   -0.021302
  33 H :   -0.035374
  34 H :   -0.153872
  35 H :   -0.022670

  Mayer bond orders larger than 0.100000
B(  0-C ,  1-C ) :   0.9739 B(  0-C , 20-H ) :   0.9767 B(  0-C , 21-H ) :   0.9766
B(  0-C , 22-H ) :   0.9781 B(  1-C ,  2-O ) :   0.8880 B(  1-C , 23-H ) :   0.9736
B(  1-C , 24-H ) :   0.9790 B(  2-O ,  3-C ) :   1.1456 B(  3-C ,  4-O ) :   1.9611
B(  3-C ,  5-C ) :   1.0757 B(  5-C ,  6-C ) :   1.6342 B(  5-C , 12-C ) :   0.9556
B(  6-C ,  7-C ) :   0.9655 B(  6-C ,  8-N ) :   1.1528 B(  7-C , 25-H ) :   0.9609
B(  7-C , 26-H ) :   0.9588 B(  7-C , 27-H ) :   0.9907 B(  8-N ,  9-C ) :   1.1870
B(  8-N , 28-H ) :   0.9462 B(  9-C , 10-S ) :   1.6072 B(  9-C , 11-N ) :   1.3091
B( 11-N , 12-C ) :   0.9677 B( 11-N , 29-H ) :   0.9484 B( 12-C , 13-C ) :   0.9623
B( 12-C , 30-H ) :   1.0012 B( 13-C , 14-C ) :   1.3523 B( 13-C , 19-C ) :   1.3796
B( 14-C , 15-C ) :   1.3918 B( 14-C , 31-H ) :   0.9713 B( 15-C , 16-C ) :   1.3594
B( 15-C , 32-H ) :   0.9704 B( 16-C , 17-C ) :   1.3337 B( 16-C , 33-H ) :   0.9849
B( 17-C , 18-O ) :   1.1047 B( 17-C , 19-C ) :   1.3646 B( 18-O , 34-H ) :   0.9798
B( 19-C , 35-H ) :   0.9597

MP2 TOTAL ENERGY:    -1274.340012351 Eh
FINAL SINGLE POINT ENERGY     -1274.340012351168

DIPOLE MOMENT
-------------
                                X             Y             Z
Electronic contribution:      8.99755      10.04855      10.28431
Nuclear contribution   :    -10.11437     -11.67179     -10.52746
                        -----------------------------------------
Total Dipole Moment    :     -1.11682      -1.62323      -0.24315
                        -----------------------------------------
Magnitude (a.u.)       :      1.98527
Magnitude (Debye)      :      5.04615

Rotational constants in cm-1:     0.010884     0.008652     0.005814
Rotational constants in MHz :   326.307066   259.390531   174.303009

                             ****ORCA TERMINATED NORMALLY****
TOTAL RUN TIME: 0 days 1 hours 39 minutes 24 seconds 116 msec
