                         Program Version 4.2.0 -  RELEASE  -
|  1> ! ri-mp2 cc-pvtz cc-pvtz/c TightSCF NoKeepInts
|  2>
|  3> %scf
|  4>   MaxCore 4096
|  5> end
|  6> *xyz  0  1
|  7>     C       14.9175290   14.8107245   13.7425055
|  8>     C       14.5343519   15.7423573   14.9080191
|  9>     O       15.5445676   16.7585350   15.0362684
| 10>     C       16.5992687   16.5394431   15.8746550
| 11>     O       17.0764694   15.4300584   16.0458226
| 12>     C       16.9871954   17.7235360   16.7137860
| 13>     C       16.8859208   19.0025784   16.2647237
| 14>     C       16.1899068   19.4971540   15.0118369
| 15>     N       17.5063025   20.0502295   16.9502151
| 16>     C       18.4228731   19.8843842   17.9531694
| 17>     S       19.2019579   21.1689816   18.6447758
| 18>     N       18.6781017   18.5927934   18.3383662
| 19>     C       17.9413319   17.4023910   17.8712726
| 20>     C       17.2847424   16.6199526   19.0010368
| 21>     C       17.5545643   15.2507902   19.1766893
| 22>     C       16.9490262   14.5311088   20.2204131
| 23>     C       16.0671381   15.1867050   21.0966826
| 24>     C       15.7949249   16.5506750   20.9225391
| 25>     O       14.9404951   17.1851086   21.7644146
| 26>     C       16.3986300   17.2640681   19.8820707
| 27>     H       15.0457846   15.3822607   12.8150735
| 28>     H       14.1352908   14.0599021   13.5782944
| 29>     H       15.8552050   14.2820357   13.9553176
| 30>     H       13.5709313   16.2159487   14.6798373
| 31>     H       14.4236256   15.1724671   15.8412195
| 32>     H       16.5636780   18.9714483   14.1241035
| 33>     H       16.3411024   20.5690947   14.8354015
| 34>     H       15.1080760   19.3263382   15.0760053
| 35>     H       17.3464355   21.0025137   16.6629965
| 36>     H       19.3426186   18.4987744   19.0961063
| 37>     H       18.7653210   16.8242121   17.4281625
| 38>     H       18.2249070   14.7400079   18.4893093
| 39>     H       17.1606890   13.4703805   20.3425489
| 40>     H       15.5963840   14.6343678   21.9030670
| 41>     H       14.6531921   16.5388127   22.4266520
| 42>     H       16.1784612   18.3198608   19.7646426
| 43> *
| 44>
| 45>                          ****END OF INPUT****

CARTESIAN COORDINATES (ANGSTROEM)
---------------------------------
  C     14.917529   14.810724   13.742506
  C     14.534352   15.742357   14.908019
  O     15.544568   16.758535   15.036268
  C     16.599269   16.539443   15.874655
  O     17.076469   15.430058   16.045823
  C     16.987195   17.723536   16.713786
  C     16.885921   19.002578   16.264724
  C     16.189907   19.497154   15.011837
  N     17.506303   20.050230   16.950215
  C     18.422873   19.884384   17.953169
  S     19.201958   21.168982   18.644776
  N     18.678102   18.592793   18.338366
  C     17.941332   17.402391   17.871273
  C     17.284742   16.619953   19.001037
  C     17.554564   15.250790   19.176689
  C     16.949026   14.531109   20.220413
  C     16.067138   15.186705   21.096683
  C     15.794925   16.550675   20.922539
  O     14.940495   17.185109   21.764415
  C     16.398630   17.264068   19.882071
  H     15.045785   15.382261   12.815074
  H     14.135291   14.059902   13.578294
  H     15.855205   14.282036   13.955318
  H     13.570931   16.215949   14.679837
  H     14.423626   15.172467   15.841219
  H     16.563678   18.971448   14.124104
  H     16.341102   20.569095   14.835401
  H     15.108076   19.326338   15.076005
  H     17.346435   21.002514   16.662996
  H     19.342619   18.498774   19.096106
  H     18.765321   16.824212   17.428162
  H     18.224907   14.740008   18.489309
  H     17.160689   13.470380   20.342549
  H     15.596384   14.634368   21.903067
  H     14.653192   16.538813   22.426652
  H     16.178461   18.319861   19.764643

 Total Charge           Charge          ....    0
 Multiplicity           Mult            ....    1
 Number of Electrons    NEL             ....  154
 Basis Dimension        Dim             ....  828

ORBITAL ENERGIES
----------------

  NO   OCC          E(Eh)            E(eV)
   0   2.0000     -91.888271     -2500.4070
   1   2.0000     -20.597541      -560.4876
   2   2.0000     -20.592338      -560.3460
   3   2.0000     -20.548773      -559.1605
   4   2.0000     -15.628813      -425.2816
   5   2.0000     -15.605961      -424.6598
   6   2.0000     -11.396407      -310.1120
   7   2.0000     -11.382862      -309.7434
   8   2.0000     -11.338114      -308.5258
   9   2.0000     -11.308418      -307.7177
  10   2.0000     -11.304558      -307.6127
  11   2.0000     -11.302050      -307.5444
  12   2.0000     -11.260398      -306.4110
  13   2.0000     -11.259188      -306.3781
  14   2.0000     -11.255681      -306.2826
  15   2.0000     -11.248531      -306.0881
  16   2.0000     -11.238685      -305.8202
  17   2.0000     -11.234766      -305.7135
  18   2.0000     -11.231572      -305.6266
  19   2.0000     -11.223318      -305.4020
  20   2.0000      -8.893352      -242.0004
  21   2.0000      -6.574929      -178.9129
  22   2.0000      -6.572927      -178.8584
  23   2.0000      -6.572338      -178.8424
  24   2.0000      -1.453809       -39.5602
  25   2.0000      -1.412085       -38.4248
  26   2.0000      -1.358386       -36.9636
  27   2.0000      -1.340075       -36.4653
  28   2.0000      -1.237231       -33.6668
  29   2.0000      -1.152993       -31.3745
  30   2.0000      -1.121159       -30.5083
  31   2.0000      -1.042810       -28.3763
  32   2.0000      -1.033658       -28.1273
  33   2.0000      -1.010481       -27.4966
  34   2.0000      -0.998566       -27.1724
  35   2.0000      -0.983517       -26.7628
  36   2.0000      -0.921099       -25.0644
  37   2.0000      -0.888567       -24.1791
  38   2.0000      -0.848084       -23.0775
  39   2.0000      -0.835957       -22.7476
  40   2.0000      -0.828705       -22.5502
  41   2.0000      -0.821681       -22.3591
  42   2.0000      -0.755441       -20.5566
  43   2.0000      -0.734739       -19.9933
  44   2.0000      -0.726704       -19.7746
  45   2.0000      -0.691174       -18.8078
  46   2.0000      -0.686274       -18.6745
  47   2.0000      -0.680225       -18.5099
  48   2.0000      -0.670161       -18.2360
  49   2.0000      -0.660497       -17.9730
  50   2.0000      -0.645783       -17.5727
  51   2.0000      -0.640700       -17.4343
  52   2.0000      -0.631686       -17.1891
  53   2.0000      -0.607513       -16.5313
  54   2.0000      -0.601209       -16.3597
  55   2.0000      -0.598791       -16.2939
  56   2.0000      -0.595404       -16.2018
  57   2.0000      -0.586728       -15.9657
  58   2.0000      -0.573474       -15.6050
  59   2.0000      -0.566822       -15.4240
  60   2.0000      -0.560860       -15.2618
  61   2.0000      -0.548009       -14.9121
  62   2.0000      -0.536182       -14.5903
  63   2.0000      -0.520491       -14.1633
  64   2.0000      -0.516166       -14.0456
  65   2.0000      -0.510341       -13.8871
  66   2.0000      -0.502859       -13.6835
  67   2.0000      -0.494626       -13.4595
  68   2.0000      -0.480335       -13.0706
  69   2.0000      -0.462411       -12.5828
  70   2.0000      -0.456392       -12.4191
  71   2.0000      -0.453173       -12.3315
  72   2.0000      -0.353239        -9.6121
  73   2.0000      -0.345095        -9.3905
  74   2.0000      -0.327339        -8.9073
  75   2.0000      -0.317463        -8.6386
  76   2.0000      -0.315128        -8.5751
  77   0.0000       0.075707         2.0601
  78   0.0000       0.110760         3.0139
  79   0.0000       0.121814         3.3147
  80   0.0000       0.135464         3.6862
  81   0.0000       0.140208         3.8153

MULLIKEN ATOMIC CHARGES
-----------------------
   0 C :   -0.281018
   1 C :    0.038054
   2 O :   -0.354119
   3 C :    0.414617
   4 O :   -0.416678
   5 C :   -0.155550
   6 C :    0.154549
   7 C :   -0.279646
   8 N :   -0.128509
   9 C :    0.207577
  10 S :   -0.442007
  11 N :   -0.211007
  12 C :    0.040433
  13 C :    0.032175
  14 C :   -0.170469
  15 C :   -0.134494
  16 C :   -0.277379
  17 C :    0.313927
  18 O :   -0.358832
  19 C :   -0.251059
  20 H :    0.089551
  21 H :    0.090613
  22 H :    0.118279
  23 H :    0.101726
  24 H :    0.096617
  25 H :    0.125571
  26 H :    0.101461
  27 H :    0.128527
  28 H :    0.198892
  29 H :    0.199931
  30 H :    0.155853
  31 H :    0.159751
  32 H :    0.160335
  33 H :    0.128498
  34 H :    0.239981
  35 H :    0.163847
Sum of atomic charges:   -0.0000000

LOEWDIN ATOMIC CHARGES
----------------------
   0 C :    0.104693
   1 C :   -0.016323
   2 O :    0.301225
   3 C :   -0.415581
   4 O :    0.111761
   5 C :   -0.092563
   6 C :   -0.064519
   7 C :    0.125570
   8 N :    0.405530
   9 C :   -0.458490
  10 S :   -0.037378
  11 N :    0.396289
  12 C :   -0.048234
  13 C :   -0.040814
  14 C :    0.024314
  15 C :    0.040756
  16 C :   -0.001237
  17 C :   -0.192572
  18 O :    0.393171
  19 C :    0.029582
  20 H :   -0.030033
  21 H :   -0.028879
  22 H :   -0.024022
  23 H :   -0.026828
  24 H :   -0.026605
  25 H :   -0.009045
  26 H :   -0.021022
  27 H :   -0.009247
  28 H :   -0.058602
  29 H :   -0.063211
  30 H :   -0.008124
  31 H :   -0.023941
  32 H :   -0.020973
  33 H :   -0.036103
  34 H :   -0.154785
  35 H :   -0.023761

  Mayer bond orders larger than 0.100000
B(  0-C ,  1-C ) :   0.9719 B(  0-C , 20-H ) :   0.9770 B(  0-C , 21-H ) :   0.9764
B(  0-C , 22-H ) :   0.9735 B(  1-C ,  2-O ) :   0.9010 B(  1-C , 23-H ) :   0.9842
B(  1-C , 24-H ) :   0.9745 B(  2-O ,  3-C ) :   1.1024 B(  3-C ,  4-O ) :   1.9837
B(  3-C ,  5-C ) :   1.0471 B(  5-C ,  6-C ) :   1.6554 B(  5-C , 12-C ) :   0.9458
B(  6-C ,  7-C ) :   0.9552 B(  6-C ,  8-N ) :   1.1342 B(  7-C , 25-H ) :   0.9656
B(  7-C , 26-H ) :   0.9907 B(  7-C , 27-H ) :   0.9633 B(  8-N ,  9-C ) :   1.1855
B(  8-N , 28-H ) :   0.9469 B(  9-C , 10-S ) :   1.6088 B(  9-C , 11-N ) :   1.3055
B( 11-N , 12-C ) :   0.9758 B( 11-N , 29-H ) :   0.9484 B( 12-C , 13-C ) :   0.9724
B( 12-C , 30-H ) :   0.9968 B( 13-C , 14-C ) :   1.3765 B( 13-C , 19-C ) :   1.3657
B( 14-C , 15-C ) :   1.3972 B( 14-C , 31-H ) :   0.9636 B( 15-C , 16-C ) :   1.3588
B( 15-C , 32-H ) :   0.9711 B( 16-C , 17-C ) :   1.3331 B( 16-C , 33-H ) :   0.9859
B( 17-C , 18-O ) :   1.1038 B( 17-C , 19-C ) :   1.3673 B( 18-O , 34-H ) :   0.9806
B( 19-C , 35-H ) :   0.9601

MP2 TOTAL ENERGY:    -1274.334669236 Eh
FINAL SINGLE POINT ENERGY     -1274.334669235799

DIPOLE MOMENT
-------------
                                X             Y             Z
Electronic contribution:      9.61427      10.14629      11.79679
Nuclear contribution   :    -11.22927     -11.30657     -12.61597
                        -----------------------------------------
Total Dipole Moment    :     -1.61499      -1.16027      -0.81918
                        -----------------------------------------
Magnitude (a.u.)       :      2.15070
Magnitude (Debye)      :      5.46663

Rotational constants in cm-1:     0.009906     0.009047     0.005528
Rotational constants in MHz :   296.982940   271.217068   165.737904

                             ****ORCA TERMINATED NORMALLY****
TOTAL RUN TIME: 0 days 1 hours 34 minutes 41 seconds 964 msec
