                         Program Version 4.2.0 -  RELEASE  -
|  1> ! ri-mp2 cc-pvtz cc-pvtz/c TightSCF NoKeepInts
|  2>
|  3> %scf
|  4>   MaxCore 4096
|  5> end
|  6> *xyz  0  1
|  7>     C       14.0424045   15.1684569   15.1389389
|  8>     C       14.9799256   16.3313582   15.5015957
|  9>     O       16.3000203   15.9635005   15.0565633
| 10>     C       17.4426194   16.4574057   15.6324307
| 11>     O       18.5139551   15.8961765   15.4987677
| 12>     C       17.2775203   17.6441389   16.5234172
| 13>     C       16.9611608   18.8517940   15.9966692
| 14>     C       16.5266841   19.1476608   14.5751516
| 15>     N       17.1132094   20.0197566   16.7458396
| 16>     C       17.8016898   20.0887140   17.9286091
| 17>     S       18.0449199   21.5242501   18.7122552
| 18>     N       18.3015868   18.9057771   18.4160602
| 19>     C       18.0192328   17.5685856   17.8565969
| 20>     C       17.3785556   16.5869329   18.8255790
| 21>     C       17.8315330   15.2569324   18.8845111
| 22>     C       17.2292330   14.3359180   19.7576884
| 23>     C       16.1626792   14.7480129   20.5750708
| 24>     C       15.7044923   16.0712021   20.5121085
| 25>     O       14.6678260   16.4688814   21.2917108
| 26>     C       16.3050829   16.9859562   19.6409886
| 27>     H       14.3714778   14.2417107   15.6260401
| 28>     H       14.0324758   15.0030199   14.0542968
| 29>     H       13.0170816   15.3820582   15.4645202
| 30>     H       14.6387454   17.2550752   15.0202556
| 31>     H       14.9565255   16.4640497   16.5922139
| 32>     H       16.6861779   18.3005509   13.8970647
| 33>     H       17.1006552   19.9851663   14.1577476
| 34>     H       15.4646068   19.4177488   14.5341544
| 35>     H       16.7886864   20.9007473   16.3788692
| 36>     H       18.8035682   18.9831785   19.2919433
| 37>     H       19.0407357   17.2417291   17.6100055
| 38>     H       18.6481365   14.9342680   18.2413846
| 39>     H       17.5871623   13.3082721   19.7944835
| 40>     H       15.6938137   14.0390817   21.2495630
| 41>     H       14.4191321   15.7170531   21.8505582
| 42>     H       15.9336883   18.0048793   19.6043469
| 43> *
| 44>
| 45>                          ****END OF INPUT****

CARTESIAN COORDINATES (ANGSTROEM)
---------------------------------
  C     14.042404   15.168457   15.138939
  C     14.979926   16.331358   15.501596
  O     16.300020   15.963500   15.056563
  C     17.442619   16.457406   15.632431
  O     18.513955   15.896176   15.498768
  C     17.277520   17.644139   16.523417
  C     16.961161   18.851794   15.996669
  C     16.526684   19.147661   14.575152
  N     17.113209   20.019757   16.745840
  C     17.801690   20.088714   17.928609
  S     18.044920   21.524250   18.712255
  N     18.301587   18.905777   18.416060
  C     18.019233   17.568586   17.856597
  C     17.378556   16.586933   18.825579
  C     17.831533   15.256932   18.884511
  C     17.229233   14.335918   19.757688
  C     16.162679   14.748013   20.575071
  C     15.704492   16.071202   20.512109
  O     14.667826   16.468881   21.291711
  C     16.305083   16.985956   19.640989
  H     14.371478   14.241711   15.626040
  H     14.032476   15.003020   14.054297
  H     13.017082   15.382058   15.464520
  H     14.638745   17.255075   15.020256
  H     14.956525   16.464050   16.592214
  H     16.686178   18.300551   13.897065
  H     17.100655   19.985166   14.157748
  H     15.464607   19.417749   14.534154
  H     16.788686   20.900747   16.378869
  H     18.803568   18.983178   19.291943
  H     19.040736   17.241729   17.610005
  H     18.648136   14.934268   18.241385
  H     17.587162   13.308272   19.794483
  H     15.693814   14.039082   21.249563
  H     14.419132   15.717053   21.850558
  H     15.933688   18.004879   19.604347

 Total Charge           Charge          ....    0
 Multiplicity           Mult            ....    1
 Number of Electrons    NEL             ....  154
 Basis Dimension        Dim             ....  828

ORBITAL ENERGIES
----------------

  NO   OCC          E(Eh)            E(eV)
   0   2.0000     -91.889604     -2500.4433
   1   2.0000     -20.605022      -560.6912
   2   2.0000     -20.599912      -560.5521
   3   2.0000     -20.550618      -559.2107
   4   2.0000     -15.627295      -425.2403
   5   2.0000     -15.609618      -424.7593
   6   2.0000     -11.399071      -310.1845
   7   2.0000     -11.385665      -309.8197
   8   2.0000     -11.333080      -308.3888
   9   2.0000     -11.317358      -307.9610
  10   2.0000     -11.310528      -307.7751
  11   2.0000     -11.306503      -307.6656
  12   2.0000     -11.267721      -306.6103
  13   2.0000     -11.265148      -306.5403
  14   2.0000     -11.263765      -306.5026
  15   2.0000     -11.257665      -306.3366
  16   2.0000     -11.246334      -306.0283
  17   2.0000     -11.242526      -305.9247
  18   2.0000     -11.239993      -305.8558
  19   2.0000     -11.234244      -305.6993
  20   2.0000      -8.894717      -242.0375
  21   2.0000      -6.576300      -178.9502
  22   2.0000      -6.574285      -178.8954
  23   2.0000      -6.573704      -178.8796
  24   2.0000      -1.450196       -39.4618
  25   2.0000      -1.419621       -38.6298
  26   2.0000      -1.363403       -37.1001
  27   2.0000      -1.340666       -36.4814
  28   2.0000      -1.239239       -33.7214
  29   2.0000      -1.161684       -31.6110
  30   2.0000      -1.126463       -30.6526
  31   2.0000      -1.048851       -28.5407
  32   2.0000      -1.041796       -28.3487
  33   2.0000      -1.019501       -27.7420
  34   2.0000      -1.006288       -27.3825
  35   2.0000      -0.989534       -26.9266
  36   2.0000      -0.926691       -25.2165
  37   2.0000      -0.881749       -23.9936
  38   2.0000      -0.856330       -23.3019
  39   2.0000      -0.842590       -22.9280
  40   2.0000      -0.838200       -22.8086
  41   2.0000      -0.836553       -22.7638
  42   2.0000      -0.757814       -20.6212
  43   2.0000      -0.740185       -20.1415
  44   2.0000      -0.732476       -19.9317
  45   2.0000      -0.697591       -18.9824
  46   2.0000      -0.689768       -18.7696
  47   2.0000      -0.683438       -18.5973
  48   2.0000      -0.674985       -18.3673
  49   2.0000      -0.662287       -18.0217
  50   2.0000      -0.660556       -17.9747
  51   2.0000      -0.648476       -17.6459
  52   2.0000      -0.638859       -17.3842
  53   2.0000      -0.613149       -16.6846
  54   2.0000      -0.607734       -16.5373
  55   2.0000      -0.603355       -16.4181
  56   2.0000      -0.595531       -16.2052
  57   2.0000      -0.580887       -15.8067
  58   2.0000      -0.578012       -15.7285
  59   2.0000      -0.572502       -15.5786
  60   2.0000      -0.562484       -15.3060
  61   2.0000      -0.559562       -15.2265
  62   2.0000      -0.553399       -15.0588
  63   2.0000      -0.528178       -14.3725
  64   2.0000      -0.518873       -14.1193
  65   2.0000      -0.515209       -14.0195
  66   2.0000      -0.506653       -13.7867
  67   2.0000      -0.501791       -13.6544
  68   2.0000      -0.489040       -13.3075
  69   2.0000      -0.471229       -12.8228
  70   2.0000      -0.456810       -12.4304
  71   2.0000      -0.452136       -12.3033
  72   2.0000      -0.356389        -9.6978
  73   2.0000      -0.352075        -9.5804
  74   2.0000      -0.329162        -8.9570
  75   2.0000      -0.324949        -8.8423
  76   2.0000      -0.319686        -8.6991
  77   0.0000       0.085986         2.3398
  78   0.0000       0.103454         2.8151
  79   0.0000       0.115836         3.1521
  80   0.0000       0.128937         3.5086
  81   0.0000       0.130125         3.5409

MULLIKEN ATOMIC CHARGES
-----------------------
   0 C :   -0.254870
   1 C :    0.024626
   2 O :   -0.306788
   3 C :    0.412916
   4 O :   -0.382033
   5 C :   -0.217881
   6 C :    0.160279
   7 C :   -0.341437
   8 N :   -0.140622
   9 C :    0.209316
  10 S :   -0.443165
  11 N :   -0.222471
  12 C :    0.062541
  13 C :    0.028071
  14 C :   -0.222144
  15 C :   -0.127468
  16 C :   -0.276725
  17 C :    0.315979
  18 O :   -0.355777
  19 C :   -0.256263
  20 H :    0.105913
  21 H :    0.100061
  22 H :    0.088986
  23 H :    0.083827
  24 H :    0.106798
  25 H :    0.134248
  26 H :    0.135374
  27 H :    0.124042
  28 H :    0.197588
  29 H :    0.202345
  30 H :    0.167438
  31 H :    0.175599
  32 H :    0.164686
  33 H :    0.131788
  34 H :    0.241394
  35 H :    0.173830
Sum of atomic charges:   -0.0000000

LOEWDIN ATOMIC CHARGES
----------------------
   0 C :    0.111562
   1 C :   -0.024610
   2 O :    0.307498
   3 C :   -0.415435
   4 O :    0.119250
   5 C :   -0.084397
   6 C :   -0.091035
   7 C :    0.123948
   8 N :    0.402623
   9 C :   -0.456302
  10 S :   -0.038447
  11 N :    0.395974
  12 C :   -0.049718
  13 C :   -0.044270
  14 C :    0.019577
  15 C :    0.045151
  16 C :    0.000196
  17 C :   -0.191442
  18 O :    0.395105
  19 C :    0.026913
  20 H :   -0.022110
  21 H :   -0.025832
  22 H :   -0.025166
  23 H :   -0.036898
  24 H :   -0.030429
  25 H :   -0.007983
  26 H :   -0.010047
  27 H :   -0.018334
  28 H :   -0.056971
  29 H :   -0.063703
  30 H :   -0.003876
  31 H :   -0.021283
  32 H :   -0.018489
  33 H :   -0.034746
  34 H :   -0.153069
  35 H :   -0.023208

  Mayer bond orders larger than 0.100000
B(  0-C ,  1-C ) :   0.9831 B(  0-C , 20-H ) :   0.9781 B(  0-C , 21-H ) :   0.9785
B(  0-C , 22-H ) :   0.9770 B(  1-C ,  2-O ) :   0.9095 B(  1-C , 23-H ) :   0.9701
B(  1-C , 24-H ) :   0.9624 B(  2-O ,  3-C ) :   1.1893 B(  3-C ,  4-O ) :   2.0974
B(  3-C ,  5-C ) :   0.9199 B(  5-C ,  6-C ) :   1.7117 B(  5-C , 12-C ) :   0.9396
B(  6-C ,  7-C ) :   0.9361 B(  6-C ,  8-N ) :   1.1089 B(  7-C , 25-H ) :   0.9760
B(  7-C , 26-H ) :   0.9728 B(  7-C , 27-H ) :   0.9670 B(  8-N ,  9-C ) :   1.1977
B(  8-N , 28-H ) :   0.9514 B(  9-C , 10-S ) :   1.6098 B(  9-C , 11-N ) :   1.2907
B( 11-N , 12-C ) :   0.9843 B( 11-N , 29-H ) :   0.9475 B( 12-C , 13-C ) :   0.9672
B( 12-C , 30-H ) :   0.9895 B( 13-C , 14-C ) :   1.3853 B( 13-C , 19-C ) :   1.3522
B( 14-C , 15-C ) :   1.3938 B( 14-C , 31-H ) :   0.9597 B( 15-C , 16-C ) :   1.3621
B( 15-C , 32-H ) :   0.9696 B( 16-C , 17-C ) :   1.3312 B( 16-C , 33-H ) :   0.9848
B( 17-C , 18-O ) :   1.1093 B( 17-C , 19-C ) :   1.3638 B( 18-O , 34-H ) :   0.9793
B( 19-C , 35-H ) :   0.9566

MP2 TOTAL ENERGY:    -1274.332259400 Eh
FINAL SINGLE POINT ENERGY     -1274.332259399967

DIPOLE MOMENT
-------------
                                X             Y             Z
Electronic contribution:     10.31323       8.60067       8.60593
Nuclear contribution   :    -11.99152      -9.75167      -8.95223
                        -----------------------------------------
Total Dipole Moment    :     -1.67830      -1.15100      -0.34631
                        -----------------------------------------
Magnitude (a.u.)       :      2.06432
Magnitude (Debye)      :      5.24708

Rotational constants in cm-1:     0.010748     0.009074     0.006198
Rotational constants in MHz :   322.215723   272.030889   185.820505

                             ****ORCA TERMINATED NORMALLY****
TOTAL RUN TIME: 0 days 1 hours 45 minutes 55 seconds 355 msec
