                         Program Version 4.2.0 -  RELEASE  -
|  1> ! ri-mp2 cc-pvtz cc-pvtz/c TightSCF NoKeepInts
|  2>
|  3> %scf
|  4>   MaxCore 4096
|  5> end
|  6> *xyz  0  1
|  7>     C       14.7371194   15.2425010   16.4473758
|  8>     C       15.7163335   15.0554658   15.2759359
|  9>     O       16.9683332   15.7147665   15.5514978
| 10>     C       17.0697370   17.0198895   15.1750636
| 11>     O       17.0049933   17.3299938   13.9986475
| 12>     C       17.0603983   17.9884352   16.3271177
| 13>     C       16.8974140   19.3163379   16.0903898
| 14>     C       16.3378274   19.9620449   14.8392997
| 15>     N       17.2372383   20.2701858   17.0517967
| 16>     C       17.9722999   20.0038120   18.1742435
| 17>     S       18.4539215   21.1983659   19.2116639
| 18>     N       18.3123044   18.6912513   18.3804521
| 19>     C       17.8114122   17.5451268   17.5971337
| 20>     C       17.1233254   16.5114619   18.4768796
| 21>     C       17.6599204   15.2183666   18.6193870
| 22>     C       17.0515932   14.2838228   19.4745907
| 23>     C       15.9017615   14.6476983   20.1968325
| 24>     C       15.3701371   15.9379221   20.0619832
| 25>     O       14.2607238   16.2920321   20.7578111
| 26>     C       15.9781564   16.8660897   19.2106754
| 27>     H       15.1116263   14.7414921   17.3461460
| 28>     H       13.7628639   14.8028479   16.2023363
| 29>     H       14.5827529   16.3049590   16.6708268
| 30>     H       15.8992727   13.9813793   15.1434433
| 31>     H       15.2727953   15.4332115   14.3440698
| 32>     H       15.4790916   19.3954519   14.4577681
| 33>     H       17.0954657   19.9831867   14.0451987
| 34>     H       15.9967784   20.9905853   15.0063324
| 35>     H       17.0239672   21.2416883   16.8910489
| 36>     H       18.8354648   18.5209253   19.2302584
| 37>     H       18.7707586   17.1506095   17.2331031
| 38>     H       18.5493482   14.9362876   18.0618675
| 39>     H       17.4718615   13.2846397   19.5760947
| 40>     H       15.4290222   13.9294552   20.8587029
| 41>     H       14.0187026   15.5427553   21.3227280
| 42>     H       15.5622781   17.8649555   19.1292978
| 43> *
| 44>
| 45>                          ****END OF INPUT****

CARTESIAN COORDINATES (ANGSTROEM)
---------------------------------
  C     14.737119   15.242501   16.447376
  C     15.716333   15.055466   15.275936
  O     16.968333   15.714766   15.551498
  C     17.069737   17.019890   15.175064
  O     17.004993   17.329994   13.998648
  C     17.060398   17.988435   16.327118
  C     16.897414   19.316338   16.090390
  C     16.337827   19.962045   14.839300
  N     17.237238   20.270186   17.051797
  C     17.972300   20.003812   18.174243
  S     18.453921   21.198366   19.211664
  N     18.312304   18.691251   18.380452
  C     17.811412   17.545127   17.597134
  C     17.123325   16.511462   18.476880
  C     17.659920   15.218367   18.619387
  C     17.051593   14.283823   19.474591
  C     15.901761   14.647698   20.196832
  C     15.370137   15.937922   20.061983
  O     14.260724   16.292032   20.757811
  C     15.978156   16.866090   19.210675
  H     15.111626   14.741492   17.346146
  H     13.762864   14.802848   16.202336
  H     14.582753   16.304959   16.670827
  H     15.899273   13.981379   15.143443
  H     15.272795   15.433212   14.344070
  H     15.479092   19.395452   14.457768
  H     17.095466   19.983187   14.045199
  H     15.996778   20.990585   15.006332
  H     17.023967   21.241688   16.891049
  H     18.835465   18.520925   19.230258
  H     18.770759   17.150610   17.233103
  H     18.549348   14.936288   18.061868
  H     17.471861   13.284640   19.576095
  H     15.429022   13.929455   20.858703
  H     14.018703   15.542755   21.322728
  H     15.562278   17.864956   19.129298

 Total Charge           Charge          ....    0
 Multiplicity           Mult            ....    1
 Number of Electrons    NEL             ....  154
 Basis Dimension        Dim             ....  828

ORBITAL ENERGIES
----------------

  NO   OCC          E(Eh)            E(eV)
   0   2.0000     -91.890957     -2500.4801
   1   2.0000     -20.599126      -560.5307
   2   2.0000     -20.584136      -560.1228
   3   2.0000     -20.549092      -559.1692
   4   2.0000     -15.630841      -425.3368
   5   2.0000     -15.608975      -424.7418
   6   2.0000     -11.393202      -310.0248
   7   2.0000     -11.385163      -309.8060
   8   2.0000     -11.338734      -308.5426
   9   2.0000     -11.316313      -307.9325
  10   2.0000     -11.311707      -307.8072
  11   2.0000     -11.297212      -307.4128
  12   2.0000     -11.263186      -306.4869
  13   2.0000     -11.259505      -306.3867
  14   2.0000     -11.257633      -306.3358
  15   2.0000     -11.253995      -306.2368
  16   2.0000     -11.246791      -306.0407
  17   2.0000     -11.241326      -305.8920
  18   2.0000     -11.241103      -305.8860
  19   2.0000     -11.221514      -305.3529
  20   2.0000      -8.895999      -242.0724
  21   2.0000      -6.577564      -178.9846
  22   2.0000      -6.575574      -178.9305
  23   2.0000      -6.574975      -178.9142
  24   2.0000      -1.449389       -39.4399
  25   2.0000      -1.418886       -38.6099
  26   2.0000      -1.353841       -36.8399
  27   2.0000      -1.342713       -36.5371
  28   2.0000      -1.240734       -33.7621
  29   2.0000      -1.159976       -31.5646
  30   2.0000      -1.122680       -30.5497
  31   2.0000      -1.045188       -28.4410
  32   2.0000      -1.032653       -28.0999
  33   2.0000      -1.017647       -27.6916
  34   2.0000      -1.000113       -27.2145
  35   2.0000      -0.987343       -26.8670
  36   2.0000      -0.924346       -25.1527
  37   2.0000      -0.889148       -24.1950
  38   2.0000      -0.848448       -23.0874
  39   2.0000      -0.840953       -22.8835
  40   2.0000      -0.836949       -22.7745
  41   2.0000      -0.818722       -22.2786
  42   2.0000      -0.758030       -20.6271
  43   2.0000      -0.735782       -20.0216
  44   2.0000      -0.723815       -19.6960
  45   2.0000      -0.697784       -18.9877
  46   2.0000      -0.689688       -18.7674
  47   2.0000      -0.675379       -18.3780
  48   2.0000      -0.672576       -18.3017
  49   2.0000      -0.668850       -18.2003
  50   2.0000      -0.647690       -17.6245
  51   2.0000      -0.645500       -17.5650
  52   2.0000      -0.636452       -17.3187
  53   2.0000      -0.609571       -16.5873
  54   2.0000      -0.604491       -16.4490
  55   2.0000      -0.601396       -16.3648
  56   2.0000      -0.591455       -16.0943
  57   2.0000      -0.578831       -15.7508
  58   2.0000      -0.573994       -15.6192
  59   2.0000      -0.567961       -15.4550
  60   2.0000      -0.566199       -15.4071
  61   2.0000      -0.548375       -14.9220
  62   2.0000      -0.541882       -14.7454
  63   2.0000      -0.525354       -14.2956
  64   2.0000      -0.517088       -14.0707
  65   2.0000      -0.514508       -14.0005
  66   2.0000      -0.505702       -13.7608
  67   2.0000      -0.501188       -13.6380
  68   2.0000      -0.477252       -12.9867
  69   2.0000      -0.463501       -12.6125
  70   2.0000      -0.451733       -12.2923
  71   2.0000      -0.449470       -12.2307
  72   2.0000      -0.355575        -9.6757
  73   2.0000      -0.350662        -9.5420
  74   2.0000      -0.329909        -8.9773
  75   2.0000      -0.324311        -8.8250
  76   2.0000      -0.320584        -8.7235
  77   0.0000       0.071115         1.9351
  78   0.0000       0.101707         2.7676
  79   0.0000       0.120833         3.2880
  80   0.0000       0.130217         3.5434
  81   0.0000       0.132877         3.6158

MULLIKEN ATOMIC CHARGES
-----------------------
   0 C :   -0.314940
   1 C :    0.041477
   2 O :   -0.374987
   3 C :    0.464626
   4 O :   -0.399788
   5 C :   -0.234338
   6 C :    0.157368
   7 C :   -0.268552
   8 N :   -0.126690
   9 C :    0.207291
  10 S :   -0.437342
  11 N :   -0.209401
  12 C :    0.035642
  13 C :    0.034961
  14 C :   -0.177061
  15 C :   -0.132627
  16 C :   -0.279360
  17 C :    0.316875
  18 O :   -0.358998
  19 C :   -0.245736
  20 H :    0.109306
  21 H :    0.116491
  22 H :    0.098480
  23 H :    0.107309
  24 H :    0.105540
  25 H :    0.123960
  26 H :    0.136631
  27 H :    0.094467
  28 H :    0.200182
  29 H :    0.200278
  30 H :    0.152107
  31 H :    0.153379
  32 H :    0.162863
  33 H :    0.132252
  34 H :    0.241062
  35 H :    0.167273
Sum of atomic charges:   -0.0000000

LOEWDIN ATOMIC CHARGES
----------------------
   0 C :    0.103532
   1 C :   -0.018031
   2 O :    0.293368
   3 C :   -0.422859
   4 O :    0.118568
   5 C :   -0.102498
   6 C :   -0.056881
   7 C :    0.129881
   8 N :    0.407825
   9 C :   -0.458354
  10 S :   -0.033108
  11 N :    0.395935
  12 C :   -0.053305
  13 C :   -0.041113
  14 C :    0.019382
  15 C :    0.038994
  16 C :   -0.001332
  17 C :   -0.191617
  18 O :    0.396092
  19 C :    0.035947
  20 H :   -0.025172
  21 H :   -0.026552
  22 H :   -0.031757
  23 H :   -0.023568
  24 H :   -0.028468
  25 H :   -0.006550
  26 H :   -0.004301
  27 H :   -0.022933
  28 H :   -0.056588
  29 H :   -0.063303
  30 H :   -0.012090
  31 H :   -0.027421
  32 H :   -0.020450
  33 H :   -0.034923
  34 H :   -0.153407
  35 H :   -0.022943

  Mayer bond orders larger than 0.100000
B(  0-C ,  1-C ) :   0.9634 B(  0-C , 20-H ) :   0.9732 B(  0-C , 21-H ) :   0.9777
B(  0-C , 22-H ) :   0.9716 B(  1-C ,  2-O ) :   0.8877 B(  1-C , 23-H ) :   0.9866
B(  1-C , 24-H ) :   0.9786 B(  2-O ,  3-C ) :   1.1116 B(  3-C ,  4-O ) :   2.0404
B(  3-C ,  5-C ) :   1.0427 B(  5-C ,  6-C ) :   1.6370 B(  5-C , 12-C ) :   0.9627
B(  6-C ,  7-C ) :   0.9654 B(  6-C ,  8-N ) :   1.1491 B(  7-C , 25-H ) :   0.9679
B(  7-C , 26-H ) :   0.9552 B(  7-C , 27-H ) :   0.9876 B(  8-N ,  9-C ) :   1.1857
B(  8-N , 28-H ) :   0.9473 B(  9-C , 10-S ) :   1.6140 B(  9-C , 11-N ) :   1.3027
B( 11-N , 12-C ) :   0.9759 B( 11-N , 29-H ) :   0.9483 B( 12-C , 13-C ) :   0.9569
B( 12-C , 30-H ) :   1.0047 B( 13-C , 14-C ) :   1.3615 B( 13-C , 19-C ) :   1.3620
B( 14-C , 15-C ) :   1.3934 B( 14-C , 31-H ) :   0.9703 B( 15-C , 16-C ) :   1.3547
B( 15-C , 32-H ) :   0.9709 B( 16-C , 17-C ) :   1.3351 B( 16-C , 33-H ) :   0.9849
B( 17-C , 18-O ) :   1.1063 B( 17-C , 19-C ) :   1.3582 B( 18-O , 34-H ) :   0.9794
B( 19-C , 35-H ) :   0.9606

MP2 TOTAL ENERGY:    -1274.324935443 Eh
FINAL SINGLE POINT ENERGY     -1274.324935443168

DIPOLE MOMENT
-------------
                                X             Y             Z
Electronic contribution:      8.59078       9.56206       5.89071
Nuclear contribution   :     -9.67475     -11.21723      -5.97849
                        -----------------------------------------
Total Dipole Moment    :     -1.08397      -1.65516      -0.08779
                        -----------------------------------------
Magnitude (a.u.)       :      1.98047
Magnitude (Debye)      :      5.03396

Rotational constants in cm-1:     0.012140     0.009086     0.006162
Rotational constants in MHz :   363.944428   272.398622   184.731400

                             ****ORCA TERMINATED NORMALLY****
TOTAL RUN TIME: 0 days 1 hours 45 minutes 14 seconds 355 msec
