                         Program Version 4.2.0 -  RELEASE  -
|  1> ! ri-mp2 cc-pvtz cc-pvtz/c TightSCF NoKeepInts
|  2>
|  3> %scf
|  4>   MaxCore 4096
|  5> end
|  6> *xyz  0  1
|  7>     C       14.6853858   14.3810655   16.2728551
|  8>     C       15.1418936   15.8188466   15.9756946
|  9>     O       16.4788920   15.7487127   15.4469680
| 10>     C       17.1688984   16.8966056   15.1815628
| 11>     O       17.7284123   17.0557274   14.1126098
| 12>     C       17.1701398   17.9246777   16.2719652
| 13>     C       17.1472868   19.2331595   15.9214941
| 14>     C       16.7133804   19.7896388   14.5820114
| 15>     N       17.5427658   20.2316293   16.8128032
| 16>     C       18.2134386   19.9911388   17.9818460
| 17>     S       18.7673545   21.2177486   18.9426329
| 18>     N       18.4244190   18.6733989   18.3044426
| 19>     C       17.8484292   17.5162255   17.5910024
| 20>     C       17.0747184   16.5785989   18.5051465
| 21>     C       17.4350217   15.2226921   18.6079329
| 22>     C       16.7329399   14.3616961   19.4681501
| 23>     C       15.6614445   14.8603879   20.2287302
| 24>     C       15.3043086   16.2122253   20.1317139
| 25>     O       14.2698296   16.6965247   20.8632747
| 26>     C       16.0082666   17.0685027   19.2790079
| 27>     H       15.3513126   13.9039112   17.0010629
| 28>     H       14.6896766   13.7781308   15.3562277
| 29>     H       13.6686351   14.3767046   16.6836706
| 30>     H       14.4710511   16.2718388   15.2337428
| 31>     H       15.0869952   16.4161932   16.8906531
| 32>     H       17.5554159   19.7860786   13.8771199
| 33>     H       16.3365793   20.8167121   14.6564000
| 34>     H       15.9157407   19.1813773   14.1379648
| 35>     H       17.4352075   21.2017167   16.5618852
| 36>     H       18.9118001   18.5264939   19.1797535
| 37>     H       18.7806026   17.0246226   17.2763185
| 38>     H       18.2585551   14.8329770   18.0144490
| 39>     H       17.0177846   13.3131599   19.5400150
| 40>     H       15.1146681   14.1977854   20.8918283
| 41>     H       13.9511752   15.9783865   21.4310417
| 42>     H       15.7245749   18.1147087   19.2240229
| 43> *
| 44>
| 45>                          ****END OF INPUT****

CARTESIAN COORDINATES (ANGSTROEM)
---------------------------------
  C     14.685386   14.381066   16.272855
  C     15.141894   15.818847   15.975695
  O     16.478892   15.748713   15.446968
  C     17.168898   16.896606   15.181563
  O     17.728412   17.055727   14.112610
  C     17.170140   17.924678   16.271965
  C     17.147287   19.233159   15.921494
  C     16.713380   19.789639   14.582011
  N     17.542766   20.231629   16.812803
  C     18.213439   19.991139   17.981846
  S     18.767354   21.217749   18.942633
  N     18.424419   18.673399   18.304443
  C     17.848429   17.516226   17.591002
  C     17.074718   16.578599   18.505146
  C     17.435022   15.222692   18.607933
  C     16.732940   14.361696   19.468150
  C     15.661444   14.860388   20.228730
  C     15.304309   16.212225   20.131714
  O     14.269830   16.696525   20.863275
  C     16.008267   17.068503   19.279008
  H     15.351313   13.903911   17.001063
  H     14.689677   13.778131   15.356228
  H     13.668635   14.376705   16.683671
  H     14.471051   16.271839   15.233743
  H     15.086995   16.416193   16.890653
  H     17.555416   19.786079   13.877120
  H     16.336579   20.816712   14.656400
  H     15.915741   19.181377   14.137965
  H     17.435208   21.201717   16.561885
  H     18.911800   18.526494   19.179754
  H     18.780603   17.024623   17.276318
  H     18.258555   14.832977   18.014449
  H     17.017785   13.313160   19.540015
  H     15.114668   14.197785   20.891828
  H     13.951175   15.978386   21.431042
  H     15.724575   18.114709   19.224023

 Total Charge           Charge          ....    0
 Multiplicity           Mult            ....    1
 Number of Electrons    NEL             ....  154
 Basis Dimension        Dim             ....  828

ORBITAL ENERGIES
----------------

  NO   OCC          E(Eh)            E(eV)
   0   2.0000     -91.890847     -2500.4771
   1   2.0000     -20.604266      -560.6706
   2   2.0000     -20.592873      -560.3606
   3   2.0000     -20.552013      -559.2487
   4   2.0000     -15.628377      -425.2698
   5   2.0000     -15.610984      -424.7965
   6   2.0000     -11.393508      -310.0331
   7   2.0000     -11.385898      -309.8260
   8   2.0000     -11.332184      -308.3644
   9   2.0000     -11.322552      -308.1023
  10   2.0000     -11.316528      -307.9384
  11   2.0000     -11.297898      -307.4314
  12   2.0000     -11.269558      -306.6603
  13   2.0000     -11.263290      -306.4897
  14   2.0000     -11.257268      -306.3258
  15   2.0000     -11.255849      -306.2872
  16   2.0000     -11.252321      -306.1912
  17   2.0000     -11.247242      -306.0530
  18   2.0000     -11.247199      -306.0518
  19   2.0000     -11.227407      -305.5133
  20   2.0000      -8.895910      -242.0700
  21   2.0000      -6.577480      -178.9823
  22   2.0000      -6.575483      -178.9280
  23   2.0000      -6.574890      -178.9118
  24   2.0000      -1.447921       -39.3999
  25   2.0000      -1.424050       -38.7504
  26   2.0000      -1.359629       -36.9974
  27   2.0000      -1.341327       -36.4994
  28   2.0000      -1.240811       -33.7642
  29   2.0000      -1.165817       -31.7235
  30   2.0000      -1.124562       -30.6009
  31   2.0000      -1.050368       -28.5820
  32   2.0000      -1.035303       -28.1720
  33   2.0000      -1.024124       -27.8678
  34   2.0000      -1.002437       -27.2777
  35   2.0000      -0.989006       -26.9122
  36   2.0000      -0.926997       -25.2249
  37   2.0000      -0.876329       -23.8461
  38   2.0000      -0.852088       -23.1865
  39   2.0000      -0.844288       -22.9742
  40   2.0000      -0.842816       -22.9342
  41   2.0000      -0.837450       -22.7882
  42   2.0000      -0.761852       -20.7311
  43   2.0000      -0.739637       -20.1265
  44   2.0000      -0.727836       -19.8054
  45   2.0000      -0.702929       -19.1277
  46   2.0000      -0.692026       -18.8310
  47   2.0000      -0.681588       -18.5469
  48   2.0000      -0.675898       -18.3921
  49   2.0000      -0.658740       -17.9252
  50   2.0000      -0.650506       -17.7012
  51   2.0000      -0.647701       -17.6248
  52   2.0000      -0.639724       -17.4078
  53   2.0000      -0.615362       -16.7449
  54   2.0000      -0.610511       -16.6129
  55   2.0000      -0.604592       -16.4518
  56   2.0000      -0.601994       -16.3811
  57   2.0000      -0.583074       -15.8662
  58   2.0000      -0.575888       -15.6707
  59   2.0000      -0.566407       -15.4127
  60   2.0000      -0.556595       -15.1457
  61   2.0000      -0.547592       -14.9007
  62   2.0000      -0.541027       -14.7221
  63   2.0000      -0.531044       -14.4505
  64   2.0000      -0.524194       -14.2640
  65   2.0000      -0.517389       -14.0789
  66   2.0000      -0.507488       -13.8094
  67   2.0000      -0.502364       -13.6700
  68   2.0000      -0.486983       -13.2515
  69   2.0000      -0.466148       -12.6845
  70   2.0000      -0.457357       -12.4453
  71   2.0000      -0.452419       -12.3109
  72   2.0000      -0.358141        -9.7455
  73   2.0000      -0.352029        -9.5792
  74   2.0000      -0.331254        -9.0139
  75   2.0000      -0.328994        -8.9524
  76   2.0000      -0.320843        -8.7306
  77   0.0000       0.079913         2.1745
  78   0.0000       0.095613         2.6018
  79   0.0000       0.120592         3.2815
  80   0.0000       0.125635         3.4187
  81   0.0000       0.127915         3.4807

MULLIKEN ATOMIC CHARGES
-----------------------
   0 C :   -0.268742
   1 C :    0.015236
   2 O :   -0.323751
   3 C :    0.401979
   4 O :   -0.367187
   5 C :   -0.228919
   6 C :    0.147152
   7 C :   -0.276094
   8 N :   -0.131325
   9 C :    0.210091
  10 S :   -0.438848
  11 N :   -0.211049
  12 C :    0.037302
  13 C :   -0.002258
  14 C :   -0.168995
  15 C :   -0.156133
  16 C :   -0.264479
  17 C :    0.308335
  18 O :   -0.354805
  19 C :   -0.228778
  20 H :    0.100820
  21 H :    0.107972
  22 H :    0.088930
  23 H :    0.106845
  24 H :    0.105739
  25 H :    0.141799
  26 H :    0.097435
  27 H :    0.116765
  28 H :    0.198724
  29 H :    0.200313
  30 H :    0.156987
  31 H :    0.156515
  32 H :    0.170779
  33 H :    0.135495
  34 H :    0.241677
  35 H :    0.174470
Sum of atomic charges:   -0.0000000

LOEWDIN ATOMIC CHARGES
----------------------
   0 C :    0.111923
   1 C :   -0.023755
   2 O :    0.304042
   3 C :   -0.424227
   4 O :    0.129517
   5 C :   -0.100552
   6 C :   -0.073470
   7 C :    0.129297
   8 N :    0.405917
   9 C :   -0.455935
  10 S :   -0.034421
  11 N :    0.395445
  12 C :   -0.053822
  13 C :   -0.044077
  14 C :    0.020875
  15 C :    0.045294
  16 C :    0.002645
  17 C :   -0.191834
  18 O :    0.396910
  19 C :    0.032581
  20 H :   -0.028534
  21 H :   -0.025609
  22 H :   -0.025506
  23 H :   -0.034144
  24 H :   -0.040397
  25 H :   -0.003929
  26 H :   -0.021271
  27 H :   -0.009319
  28 H :   -0.056930
  29 H :   -0.063560
  30 H :   -0.010519
  31 H :   -0.026238
  32 H :   -0.019113
  33 H :   -0.033599
  34 H :   -0.152285
  35 H :   -0.021401

  Mayer bond orders larger than 0.100000
B(  0-C ,  1-C ) :   0.9818 B(  0-C , 20-H ) :   0.9737 B(  0-C , 21-H ) :   0.9791
B(  0-C , 22-H ) :   0.9765 B(  1-C ,  2-O ) :   0.8914 B(  1-C , 23-H ) :   0.9817
B(  1-C , 24-H ) :   0.9570 B(  2-O ,  3-C ) :   1.1679 B(  3-C ,  4-O ) :   2.1284
B(  3-C ,  5-C ) :   0.9454 B(  5-C ,  6-C ) :   1.6811 B(  5-C , 12-C ) :   0.9575
B(  6-C ,  7-C ) :   0.9514 B(  6-C ,  8-N ) :   1.1357 B(  7-C , 25-H ) :   0.9554
B(  7-C , 26-H ) :   0.9847 B(  7-C , 27-H ) :   0.9754 B(  8-N ,  9-C ) :   1.1944
B(  8-N , 28-H ) :   0.9489 B(  9-C , 10-S ) :   1.6142 B(  9-C , 11-N ) :   1.2913
B( 11-N , 12-C ) :   0.9810 B( 11-N , 29-H ) :   0.9471 B( 12-C , 13-C ) :   0.9645
B( 12-C , 30-H ) :   1.0056 B( 13-C , 14-C ) :   1.3650 B( 13-C , 19-C ) :   1.3488
B( 14-C , 15-C ) :   1.3866 B( 14-C , 31-H ) :   0.9703 B( 15-C , 16-C ) :   1.3586
B( 15-C , 32-H ) :   0.9694 B( 16-C , 17-C ) :   1.3302 B( 16-C , 33-H ) :   0.9830
B( 17-C , 18-O ) :   1.1107 B( 17-C , 19-C ) :   1.3662 B( 18-O , 34-H ) :   0.9786
B( 19-C , 35-H ) :   0.9589

MP2 TOTAL ENERGY:    -1274.325480375 Eh
FINAL SINGLE POINT ENERGY     -1274.325480374761

DIPOLE MOMENT
-------------
                                X             Y             Z
Electronic contribution:      9.39845      10.41243       5.34253
Nuclear contribution   :    -10.98474     -11.84057      -5.02734
                        -----------------------------------------
Total Dipole Moment    :     -1.58629      -1.42814       0.31519
                        -----------------------------------------
Magnitude (a.u.)       :      2.15760
Magnitude (Debye)      :      5.48419

Rotational constants in cm-1:     0.012543     0.008768     0.006028
Rotational constants in MHz :   376.017040   262.858916   180.712720

                             ****ORCA TERMINATED NORMALLY****
TOTAL RUN TIME: 0 days 1 hours 45 minutes 35 seconds 459 msec
