                         Program Version 4.2.0 -  RELEASE  -
|  1> ! ri-mp2 cc-pvtz cc-pvtz/c TightSCF NoKeepInts
|  2>
|  3> %scf
|  4>   MaxCore 4096
|  5> end
|  6> *xyz  0  1
|  7>     C       14.5302829   16.4088968   16.1692372
|  8>     C       15.1025673   15.9992657   14.7937065
|  9>     O       16.5358019   16.1532117   14.5975699
| 10>     C       17.5043396   16.4970931   15.5098953
| 11>     O       18.5488112   15.8732847   15.5548428
| 12>     C       17.2158772   17.6069439   16.4709958
| 13>     C       16.8180840   18.8178681   16.0068175
| 14>     C       16.3994492   19.1587846   14.5899236
| 15>     N       16.8449258   19.9442252   16.8318214
| 16>     C       17.4942363   19.9986248   18.0365530
| 17>     S       17.5928321   21.3987428   18.9108721
| 18>     N       18.0819040   18.8348393   18.4670070
| 19>     C       17.9197183   17.5135950   17.8277251
| 20>     C       17.3367273   16.4391265   18.7341506
| 21>     C       17.8898414   15.1462331   18.7470310
| 22>     C       17.3443643   14.1439347   19.5663750
| 23>     C       16.2348377   14.4366832   20.3778712
| 24>     C       15.6786937   15.7231604   20.3634367
| 25>     O       14.6012165   16.0058573   21.1379072
| 26>     C       16.2235384   16.7190493   19.5465251
| 27>     H       15.0800262   15.9272370   16.9869436
| 28>     H       13.4875352   16.0771321   16.2456445
| 29>     H       14.5271443   17.4935276   16.3158002
| 30>     H       14.8651885   14.9377210   14.6440479
| 31>     H       14.5721715   16.5498741   14.0062794
| 32>     H       15.3496168   18.8995073   14.4133216
| 33>     H       17.0104919   18.6246662   13.8511600
| 34>     H       16.5179297   20.2275156   14.3713602
| 35>     H       16.4496291   20.8140921   16.5115724
| 36>     H       18.5516372   18.8995513   19.3614735
| 37>     H       18.9714963   17.2835385   17.6010146
| 38>     H       18.7409748   14.9157139   18.1092634
| 39>     H       17.7798451   13.1460814   19.5662060
| 40>     H       15.8095569   13.6646938   21.0106427
| 41>     H       14.4001345   15.2123834   21.6567306
| 42>     H       15.7755727   17.7073444   19.5462756
| 43> *
| 44>
| 45>                          ****END OF INPUT****

CARTESIAN COORDINATES (ANGSTROEM)
---------------------------------
  C     14.530283   16.408897   16.169237
  C     15.102567   15.999266   14.793707
  O     16.535802   16.153212   14.597570
  C     17.504340   16.497093   15.509895
  O     18.548811   15.873285   15.554843
  C     17.215877   17.606944   16.470996
  C     16.818084   18.817868   16.006818
  C     16.399449   19.158785   14.589924
  N     16.844926   19.944225   16.831821
  C     17.494236   19.998625   18.036553
  S     17.592832   21.398743   18.910872
  N     18.081904   18.834839   18.467007
  C     17.919718   17.513595   17.827725
  C     17.336727   16.439127   18.734151
  C     17.889841   15.146233   18.747031
  C     17.344364   14.143935   19.566375
  C     16.234838   14.436683   20.377871
  C     15.678694   15.723160   20.363437
  O     14.601216   16.005857   21.137907
  C     16.223538   16.719049   19.546525
  H     15.080026   15.927237   16.986944
  H     13.487535   16.077132   16.245645
  H     14.527144   17.493528   16.315800
  H     14.865189   14.937721   14.644048
  H     14.572171   16.549874   14.006279
  H     15.349617   18.899507   14.413322
  H     17.010492   18.624666   13.851160
  H     16.517930   20.227516   14.371360
  H     16.449629   20.814092   16.511572
  H     18.551637   18.899551   19.361473
  H     18.971496   17.283538   17.601015
  H     18.740975   14.915714   18.109263
  H     17.779845   13.146081   19.566206
  H     15.809557   13.664694   21.010643
  H     14.400135   15.212383   21.656731
  H     15.775573   17.707344   19.546276

 Total Charge           Charge          ....    0
 Multiplicity           Mult            ....    1
 Number of Electrons    NEL             ....  154
 Basis Dimension        Dim             ....  828

ORBITAL ENERGIES
----------------

  NO   OCC          E(Eh)            E(eV)
   0   2.0000     -91.889964     -2500.4530
   1   2.0000     -20.598186      -560.5051
   2   2.0000     -20.595008      -560.4187
   3   2.0000     -20.548003      -559.1396
   4   2.0000     -15.629111      -425.2897
   5   2.0000     -15.608765      -424.7361
   6   2.0000     -11.398521      -310.1695
   7   2.0000     -11.385288      -309.8094
   8   2.0000     -11.334365      -308.4238
   9   2.0000     -11.315141      -307.9006
  10   2.0000     -11.313618      -307.8592
  11   2.0000     -11.308044      -307.7075
  12   2.0000     -11.265492      -306.5496
  13   2.0000     -11.262464      -306.4672
  14   2.0000     -11.261438      -306.4393
  15   2.0000     -11.255352      -306.2737
  16   2.0000     -11.244589      -305.9808
  17   2.0000     -11.240335      -305.8651
  18   2.0000     -11.238050      -305.8029
  19   2.0000     -11.237150      -305.7784
  20   2.0000      -8.895059      -242.0468
  21   2.0000      -6.576637      -178.9594
  22   2.0000      -6.574629      -178.9048
  23   2.0000      -6.574043      -178.8888
  24   2.0000      -1.442206       -39.2444
  25   2.0000      -1.417950       -38.5844
  26   2.0000      -1.355394       -36.8822
  27   2.0000      -1.341242       -36.4971
  28   2.0000      -1.239032       -33.7158
  29   2.0000      -1.159311       -31.5465
  30   2.0000      -1.124856       -30.6089
  31   2.0000      -1.046869       -28.4867
  32   2.0000      -1.040708       -28.3191
  33   2.0000      -1.017277       -27.6815
  34   2.0000      -1.005061       -27.3491
  35   2.0000      -0.990002       -26.9393
  36   2.0000      -0.926168       -25.2023
  37   2.0000      -0.901696       -24.5364
  38   2.0000      -0.852187       -23.1892
  39   2.0000      -0.840776       -22.8787
  40   2.0000      -0.834861       -22.7177
  41   2.0000      -0.825731       -22.4693
  42   2.0000      -0.745630       -20.2896
  43   2.0000      -0.733676       -19.9643
  44   2.0000      -0.729751       -19.8575
  45   2.0000      -0.694988       -18.9116
  46   2.0000      -0.686890       -18.6912
  47   2.0000      -0.678208       -18.4550
  48   2.0000      -0.673366       -18.3232
  49   2.0000      -0.664755       -18.0889
  50   2.0000      -0.656569       -17.8662
  51   2.0000      -0.650796       -17.7091
  52   2.0000      -0.640295       -17.4233
  53   2.0000      -0.616069       -16.7641
  54   2.0000      -0.605292       -16.4708
  55   2.0000      -0.604946       -16.4614
  56   2.0000      -0.601927       -16.3793
  57   2.0000      -0.587501       -15.9867
  58   2.0000      -0.576727       -15.6935
  59   2.0000      -0.568960       -15.4822
  60   2.0000      -0.563739       -15.3401
  61   2.0000      -0.555595       -15.1185
  62   2.0000      -0.546019       -14.8579
  63   2.0000      -0.532331       -14.4855
  64   2.0000      -0.522492       -14.2177
  65   2.0000      -0.512942       -13.9579
  66   2.0000      -0.500253       -13.6126
  67   2.0000      -0.492934       -13.4134
  68   2.0000      -0.485206       -13.2031
  69   2.0000      -0.469867       -12.7857
  70   2.0000      -0.456852       -12.4316
  71   2.0000      -0.447814       -12.1856
  72   2.0000      -0.354612        -9.6495
  73   2.0000      -0.349091        -9.4993
  74   2.0000      -0.329316        -8.9612
  75   2.0000      -0.322886        -8.7862
  76   2.0000      -0.319391        -8.6911
  77   0.0000       0.079790         2.1712
  78   0.0000       0.105719         2.8768
  79   0.0000       0.115958         3.1554
  80   0.0000       0.129641         3.5277
  81   0.0000       0.131022         3.5653

MULLIKEN ATOMIC CHARGES
-----------------------
   0 C :   -0.336082
   1 C :    0.034872
   2 O :   -0.350446
   3 C :    0.443334
   4 O :   -0.380457
   5 C :   -0.230783
   6 C :    0.141029
   7 C :   -0.315373
   8 N :   -0.137210
   9 C :    0.206907
  10 S :   -0.441788
  11 N :   -0.222851
  12 C :    0.081046
  13 C :    0.008400
  14 C :   -0.207974
  15 C :   -0.131526
  16 C :   -0.277180
  17 C :    0.319791
  18 O :   -0.357398
  19 C :   -0.258341
  20 H :    0.127618
  21 H :    0.124867
  22 H :    0.106725
  23 H :    0.122624
  24 H :    0.097855
  25 H :    0.115096
  26 H :    0.142856
  27 H :    0.118412
  28 H :    0.198368
  29 H :    0.202844
  30 H :    0.165679
  31 H :    0.178254
  32 H :    0.164048
  33 H :    0.131861
  34 H :    0.241064
  35 H :    0.173855
Sum of atomic charges:   -0.0000000

LOEWDIN ATOMIC CHARGES
----------------------
   0 C :    0.102794
   1 C :   -0.013458
   2 O :    0.287730
   3 C :   -0.418091
   4 O :    0.121044
   5 C :   -0.087531
   6 C :   -0.081659
   7 C :    0.128604
   8 N :    0.403915
   9 C :   -0.457789
  10 S :   -0.037439
  11 N :    0.396552
  12 C :   -0.048083
  13 C :   -0.044439
  14 C :    0.020901
  15 C :    0.043759
  16 C :   -0.000753
  17 C :   -0.192977
  18 O :    0.394820
  19 C :    0.028167
  20 H :   -0.022629
  21 H :   -0.020529
  22 H :   -0.034087
  23 H :   -0.021740
  24 H :   -0.030334
  25 H :   -0.017037
  26 H :   -0.005307
  27 H :   -0.015197
  28 H :   -0.058547
  29 H :   -0.063426
  30 H :   -0.004767
  31 H :   -0.021123
  32 H :   -0.018877
  33 H :   -0.035061
  34 H :   -0.153566
  35 H :   -0.023838

  Mayer bond orders larger than 0.100000
B(  0-C ,  1-C ) :   0.9618 B(  0-C , 20-H ) :   0.9648 B(  0-C , 21-H ) :   0.9766
B(  0-C , 22-H ) :   0.9719 B(  1-C ,  2-O ) :   0.9029 B(  1-C , 23-H ) :   0.9802
B(  1-C , 24-H ) :   0.9781 B(  2-O ,  3-C ) :   1.1394 B(  3-C ,  4-O ) :   2.0769
B(  3-C ,  5-C ) :   0.9471 B(  5-C ,  6-C ) :   1.7183 B(  5-C , 12-C ) :   0.9310
B(  6-C ,  7-C ) :   0.9431 B(  6-C ,  8-N ) :   1.1074 B(  7-C , 25-H ) :   0.9655
B(  7-C , 26-H ) :   0.9673 B(  7-C , 27-H ) :   0.9868 B(  8-N ,  9-C ) :   1.1927
B(  8-N , 28-H ) :   0.9484 B(  9-C , 10-S ) :   1.6099 B(  9-C , 11-N ) :   1.2946
B( 11-N , 12-C ) :   0.9772 B( 11-N , 29-H ) :   0.9478 B( 12-C , 13-C ) :   0.9688
B( 12-C , 30-H ) :   0.9908 B( 13-C , 14-C ) :   1.3884 B( 13-C , 19-C ) :   1.3496
B( 14-C , 15-C ) :   1.3959 B( 14-C , 31-H ) :   0.9572 B( 15-C , 16-C ) :   1.3605
B( 15-C , 32-H ) :   0.9702 B( 16-C , 17-C ) :   1.3317 B( 16-C , 33-H ) :   0.9846
B( 17-C , 18-O ) :   1.1084 B( 17-C , 19-C ) :   1.3631 B( 18-O , 34-H ) :   0.9796
B( 19-C , 35-H ) :   0.9577

MP2 TOTAL ENERGY:    -1274.321035577 Eh
FINAL SINGLE POINT ENERGY     -1274.321035576722

DIPOLE MOMENT
-------------
                                X             Y             Z
Electronic contribution:      8.83095       6.49998       7.24405
Nuclear contribution   :    -10.44132      -7.74006      -7.82129
                        -----------------------------------------
Total Dipole Moment    :     -1.61038      -1.24009      -0.57724
                        -----------------------------------------
Magnitude (a.u.)       :      2.11290
Magnitude (Debye)      :      5.37056

Rotational constants in cm-1:     0.011302     0.009307     0.006474
Rotational constants in MHz :   338.814282   279.024860   194.085818

                             ****ORCA TERMINATED NORMALLY****
TOTAL RUN TIME: 0 days 1 hours 46 minutes 24 seconds 482 msec
