                         Program Version 4.2.0 -  RELEASE  -
|  1> ! ri-mp2 cc-pvtz cc-pvtz/c TightSCF NoKeepInts
|  2>
|  3> %scf
|  4>   MaxCore 4096
|  5> end
|  6> *xyz  0  1
|  7>     C       14.5311886   15.0141890   16.4735479
|  8>     C       15.0868795   16.0035858   15.4364636
|  9>     O       16.4981098   15.7581389   15.2761023
| 10>     C       17.4088719   16.7780918   15.2865590
| 11>     O       18.3418169   16.8126487   14.5066550
| 12>     C       17.2143239   17.8154767   16.3382695
| 13>     C       17.0686134   19.0958658   15.9298351
| 14>     C       16.7045017   19.5274315   14.5255407
| 15>     N       17.2950218   20.1653316   16.7975501
| 16>     C       17.9175239   20.0416715   18.0116929
| 17>     S       18.2696564   21.3560311   18.9514249
| 18>     N       18.2579617   18.7677444   18.3976516
| 19>     C       17.8617107   17.5298099   17.6957210
| 20>     C       17.1408788   16.5181381   18.5714566
| 21>     C       17.5567849   15.1743488   18.5930117
| 22>     C       16.9137527   14.2423814   19.4251133
| 23>     C       15.8484202   14.6585293   20.2424213
| 24>     C       15.4323873   15.9971169   20.2219892
| 25>     O       14.4005100   16.4000281   21.0049446
| 26>     C       16.0728790   16.9227046   19.3914498
| 27>     H       14.9493396   15.2051642   17.4645366
| 28>     H       14.7722456   13.9818451   16.1909665
| 29>     H       13.4406173   15.1043618   16.5448848
| 30>     H       14.5805773   15.8535814   14.4739435
| 31>     H       14.8775346   17.0273809   15.7713371
| 32>     H       17.5806115   19.4539205   13.8668226
| 33>     H       16.3412887   20.5614791   14.4853478
| 34>     H       15.9205269   18.8880673   14.1024419
| 35>     H       17.0963731   21.1080509   16.5020365
| 36>     H       18.7111529   18.7050660   19.3008890
| 37>     H       18.8600634   17.1406153   17.4460401
| 38>     H       18.3794826   14.8503688   17.9598628
| 39>     H       17.2414801   13.2040630   19.4339235
| 40>     H       15.3493568   13.9416747   20.8863013
| 41>     H       14.1234947   15.6390980   21.5375388
| 42>     H       15.7410618   17.9559997   19.3937272
| 43> *
| 44>
| 45>                          ****END OF INPUT****

CARTESIAN COORDINATES (ANGSTROEM)
---------------------------------
  C     14.531189   15.014189   16.473548
  C     15.086880   16.003586   15.436464
  O     16.498110   15.758139   15.276102
  C     17.408872   16.778092   15.286559
  O     18.341817   16.812649   14.506655
  C     17.214324   17.815477   16.338269
  C     17.068613   19.095866   15.929835
  C     16.704502   19.527431   14.525541
  N     17.295022   20.165332   16.797550
  C     17.917524   20.041671   18.011693
  S     18.269656   21.356031   18.951425
  N     18.257962   18.767744   18.397652
  C     17.861711   17.529810   17.695721
  C     17.140879   16.518138   18.571457
  C     17.556785   15.174349   18.593012
  C     16.913753   14.242381   19.425113
  C     15.848420   14.658529   20.242421
  C     15.432387   15.997117   20.221989
  O     14.400510   16.400028   21.004945
  C     16.072879   16.922705   19.391450
  H     14.949340   15.205164   17.464537
  H     14.772246   13.981845   16.190966
  H     13.440617   15.104362   16.544885
  H     14.580577   15.853581   14.473943
  H     14.877535   17.027381   15.771337
  H     17.580611   19.453920   13.866823
  H     16.341289   20.561479   14.485348
  H     15.920527   18.888067   14.102442
  H     17.096373   21.108051   16.502036
  H     18.711153   18.705066   19.300889
  H     18.860063   17.140615   17.446040
  H     18.379483   14.850369   17.959863
  H     17.241480   13.204063   19.433923
  H     15.349357   13.941675   20.886301
  H     14.123495   15.639098   21.537539
  H     15.741062   17.956000   19.393727

 Total Charge           Charge          ....    0
 Multiplicity           Mult            ....    1
 Number of Electrons    NEL             ....  154
 Basis Dimension        Dim             ....  828

ORBITAL ENERGIES
----------------

  NO   OCC          E(Eh)            E(eV)
   0   2.0000     -91.889477     -2500.4398
   1   2.0000     -20.602901      -560.6334
   2   2.0000     -20.597329      -560.4818
   3   2.0000     -20.556508      -559.3710
   4   2.0000     -15.626087      -425.2074
   5   2.0000     -15.610401      -424.7806
   6   2.0000     -11.397002      -310.1282
   7   2.0000     -11.385006      -309.8018
   8   2.0000     -11.327184      -308.2283
   9   2.0000     -11.321209      -308.0658
  10   2.0000     -11.315835      -307.9195
  11   2.0000     -11.303286      -307.5780
  12   2.0000     -11.268840      -306.6407
  13   2.0000     -11.262089      -306.4570
  14   2.0000     -11.260569      -306.4157
  15   2.0000     -11.256371      -306.3014
  16   2.0000     -11.250711      -306.1474
  17   2.0000     -11.246134      -306.0229
  18   2.0000     -11.245856      -306.0153
  19   2.0000     -11.225148      -305.4518
  20   2.0000      -8.894558      -242.0332
  21   2.0000      -6.576136      -178.9457
  22   2.0000      -6.574130      -178.8912
  23   2.0000      -6.573545      -178.8753
  24   2.0000      -1.449540       -39.4440
  25   2.0000      -1.422659       -38.7125
  26   2.0000      -1.363500       -37.1027
  27   2.0000      -1.339347       -36.4455
  28   2.0000      -1.239041       -33.7160
  29   2.0000      -1.164880       -31.6980
  30   2.0000      -1.126432       -30.6518
  31   2.0000      -1.050462       -28.5845
  32   2.0000      -1.036390       -28.2016
  33   2.0000      -1.022895       -27.8344
  34   2.0000      -1.004227       -27.3264
  35   2.0000      -0.989508       -26.9259
  36   2.0000      -0.926895       -25.2221
  37   2.0000      -0.882655       -24.0183
  38   2.0000      -0.852000       -23.1841
  39   2.0000      -0.843282       -22.9469
  40   2.0000      -0.841080       -22.8870
  41   2.0000      -0.836261       -22.7558
  42   2.0000      -0.759311       -20.6619
  43   2.0000      -0.738521       -20.0962
  44   2.0000      -0.731035       -19.8925
  45   2.0000      -0.701419       -19.0866
  46   2.0000      -0.693450       -18.8697
  47   2.0000      -0.683409       -18.5965
  48   2.0000      -0.676169       -18.3995
  49   2.0000      -0.663055       -18.0426
  50   2.0000      -0.652146       -17.7458
  51   2.0000      -0.638347       -17.3703
  52   2.0000      -0.631196       -17.1757
  53   2.0000      -0.621561       -16.9135
  54   2.0000      -0.612446       -16.6655
  55   2.0000      -0.605579       -16.4787
  56   2.0000      -0.605066       -16.4647
  57   2.0000      -0.582726       -15.8568
  58   2.0000      -0.579406       -15.7664
  59   2.0000      -0.567797       -15.4505
  60   2.0000      -0.563773       -15.3411
  61   2.0000      -0.555090       -15.1048
  62   2.0000      -0.538414       -14.6510
  63   2.0000      -0.530552       -14.4371
  64   2.0000      -0.524675       -14.2771
  65   2.0000      -0.515441       -14.0259
  66   2.0000      -0.504543       -13.7293
  67   2.0000      -0.497874       -13.5478
  68   2.0000      -0.492597       -13.4042
  69   2.0000      -0.466343       -12.6898
  70   2.0000      -0.457192       -12.4408
  71   2.0000      -0.452101       -12.3023
  72   2.0000      -0.356820        -9.7096
  73   2.0000      -0.352135        -9.5821
  74   2.0000      -0.329955        -8.9785
  75   2.0000      -0.328133        -8.9289
  76   2.0000      -0.318791        -8.6747
  77   0.0000       0.086489         2.3535
  78   0.0000       0.099163         2.6984
  79   0.0000       0.121388         3.3031
  80   0.0000       0.126606         3.4451
  81   0.0000       0.131674         3.5830

MULLIKEN ATOMIC CHARGES
-----------------------
   0 C :   -0.268682
   1 C :    0.021814
   2 O :   -0.321571
   3 C :    0.425456
   4 O :   -0.370340
   5 C :   -0.211662
   6 C :    0.146982
   7 C :   -0.296472
   8 N :   -0.133224
   9 C :    0.214350
  10 S :   -0.441664
  11 N :   -0.220613
  12 C :    0.018390
  13 C :   -0.000953
  14 C :   -0.189370
  15 C :   -0.134688
  16 C :   -0.266433
  17 C :    0.300811
  18 O :   -0.357665
  19 C :   -0.210437
  20 H :    0.103909
  21 H :    0.100537
  22 H :    0.095114
  23 H :    0.113210
  24 H :    0.089020
  25 H :    0.147563
  26 H :    0.101109
  27 H :    0.112929
  28 H :    0.196540
  29 H :    0.202215
  30 H :    0.164682
  31 H :    0.157583
  32 H :    0.163294
  33 H :    0.133602
  34 H :    0.241522
  35 H :    0.173142
Sum of atomic charges:   -0.0000000

LOEWDIN ATOMIC CHARGES
----------------------
   0 C :    0.110102
   1 C :   -0.021548
   2 O :    0.306052
   3 C :   -0.419525
   4 O :    0.131928
   5 C :   -0.092778
   6 C :   -0.089548
   7 C :    0.128907
   8 N :    0.404024
   9 C :   -0.454715
  10 S :   -0.037193
  11 N :    0.396262
  12 C :   -0.053921
  13 C :   -0.044631
  14 C :    0.019439
  15 C :    0.045922
  16 C :    0.001198
  17 C :   -0.191326
  18 O :    0.397291
  19 C :    0.030133
  20 H :   -0.027886
  21 H :   -0.025499
  22 H :   -0.026441
  23 H :   -0.029482
  24 H :   -0.039080
  25 H :   -0.002912
  26 H :   -0.019087
  27 H :   -0.013172
  28 H :   -0.059072
  29 H :   -0.063980
  30 H :   -0.007659
  31 H :   -0.025397
  32 H :   -0.018476
  33 H :   -0.033907
  34 H :   -0.152452
  35 H :   -0.021571

  Mayer bond orders larger than 0.100000
B(  0-C ,  1-C ) :   0.9800 B(  0-C , 20-H ) :   0.9725 B(  0-C , 21-H ) :   0.9784
B(  0-C , 22-H ) :   0.9783 B(  1-C ,  2-O ) :   0.9069 B(  1-C , 23-H ) :   0.9794
B(  1-C , 24-H ) :   0.9591 B(  2-O ,  3-C ) :   1.1590 B(  3-C ,  4-O ) :   2.1333
B(  3-C ,  5-C ) :   0.9193 B(  5-C ,  6-C ) :   1.7058 B(  5-C , 12-C ) :   0.9614
B(  6-C ,  7-C ) :   0.9354 B(  6-C ,  8-N ) :   1.1163 B(  7-C , 25-H ) :   0.9598
B(  7-C , 26-H ) :   0.9861 B(  7-C , 27-H ) :   0.9781 B(  8-N ,  9-C ) :   1.1996
B(  8-N , 28-H ) :   0.9497 B(  9-C , 10-S ) :   1.6113 B(  9-C , 11-N ) :   1.2864
B( 11-N , 12-C ) :   0.9795 B( 11-N , 29-H ) :   0.9465 B( 12-C , 13-C ) :   0.9555
B( 12-C , 30-H ) :   1.0006 B( 13-C , 14-C ) :   1.3762 B( 13-C , 19-C ) :   1.3584
B( 14-C , 15-C ) :   1.3985 B( 14-C , 31-H ) :   0.9692 B( 15-C , 16-C ) :   1.3598
B( 15-C , 32-H ) :   0.9706 B( 16-C , 17-C ) :   1.3319 B( 16-C , 33-H ) :   0.9846
B( 17-C , 18-O ) :   1.1102 B( 17-C , 19-C ) :   1.3650 B( 18-O , 34-H ) :   0.9788
B( 19-C , 35-H ) :   0.9564

MP2 TOTAL ENERGY:    -1274.322400418 Eh
FINAL SINGLE POINT ENERGY     -1274.322400418049

DIPOLE MOMENT
-------------
                                X             Y             Z
Electronic contribution:      9.35051       9.08895       5.93192
Nuclear contribution   :    -11.02024     -10.53538      -6.00946
                        -----------------------------------------
Total Dipole Moment    :     -1.66973      -1.44643      -0.07754
                        -----------------------------------------
Magnitude (a.u.)       :      2.21047
Magnitude (Debye)      :      5.61857

Rotational constants in cm-1:     0.012167     0.008951     0.006175
Rotational constants in MHz :   364.748137   268.332092   185.115860

                             ****ORCA TERMINATED NORMALLY****
TOTAL RUN TIME: 0 days 1 hours 42 minutes 55 seconds 860 msec
