                         Program Version 4.2.0 -  RELEASE  -
|  1> ! ri-mp2 cc-pvtz cc-pvtz/c TightSCF NoKeepInts
|  2>
|  3> %scf
|  4>   MaxCore 4096
|  5> end
|  6> *xyz  0  1
|  7>     C       13.6688556   15.9585040   14.2969653
|  8>     C       14.8344096   15.7061465   15.2678851
|  9>     O       15.9261204   16.5420204   14.8614512
| 10>     C       17.0156905   16.5328710   15.6741961
| 11>     O       17.7485078   15.5619026   15.7393683
| 12>     C       17.1090503   17.6960625   16.6178560
| 13>     C       16.7198071   18.9492663   16.2663692
| 14>     C       15.9507694   19.3680879   15.0290838
| 15>     N       17.0679749   20.0502974   17.0526695
| 16>     C       17.9810393   20.0150426   18.0721487
| 17>     S       18.4262074   21.3805875   18.8919801
| 18>     N       18.5236263   18.7889072   18.3636133
| 19>     C       18.0934613   17.5046558   17.7769553
| 20>     C       17.6135007   16.4966707   18.8126001
| 21>     C       18.1754746   15.2088774   18.8737046
| 22>     C       17.7285201   14.2786114   19.8269736
| 23>     C       16.7112055   14.6396201   20.7270412
| 24>     C       16.1474659   15.9214859   20.6663278
| 25>     O       15.1607143   16.2708052   21.5296846
| 26>     C       16.5936727   16.8448891   19.7154138
| 27>     H       12.8086222   15.3299551   14.5577392
| 28>     H       13.9667108   15.7216095   13.2677656
| 29>     H       13.3512774   17.0076211   14.3334249
| 30>     H       14.5237768   15.9496237   16.2931552
| 31>     H       15.1323004   14.6490278   15.2340001
| 32>     H       16.4316255   18.9836136   14.1205256
| 33>     H       15.8859819   20.4573642   14.9175282
| 34>     H       14.9255818   18.9798649   15.0587185
| 35>     H       16.6973994   20.9614217   16.8343729
| 36>     H       19.1809344   18.7871577   19.1334997
| 37>     H       19.0361803   17.1711412   17.3187406
| 38>     H       18.9515511   14.9240020   18.1668503
| 39>     H       18.1672164   13.2828916   19.8608747
| 40>     H       16.3622907   13.9236031   21.4636939
| 41>     H       15.0218496   15.5223641   22.1293700
| 42>     H       16.1476278   17.8334271   19.6854531
| 43> *
| 44>
| 45>                          ****END OF INPUT****

CARTESIAN COORDINATES (ANGSTROEM)
---------------------------------
  C     13.668856   15.958504   14.296965
  C     14.834410   15.706146   15.267885
  O     15.926120   16.542020   14.861451
  C     17.015691   16.532871   15.674196
  O     17.748508   15.561903   15.739368
  C     17.109050   17.696063   16.617856
  C     16.719807   18.949266   16.266369
  C     15.950769   19.368088   15.029084
  N     17.067975   20.050297   17.052670
  C     17.981039   20.015043   18.072149
  S     18.426207   21.380587   18.891980
  N     18.523626   18.788907   18.363613
  C     18.093461   17.504656   17.776955
  C     17.613501   16.496671   18.812600
  C     18.175475   15.208877   18.873705
  C     17.728520   14.278611   19.826974
  C     16.711205   14.639620   20.727041
  C     16.147466   15.921486   20.666328
  O     15.160714   16.270805   21.529685
  C     16.593673   16.844889   19.715414
  H     12.808622   15.329955   14.557739
  H     13.966711   15.721609   13.267766
  H     13.351277   17.007621   14.333425
  H     14.523777   15.949624   16.293155
  H     15.132300   14.649028   15.234000
  H     16.431625   18.983614   14.120526
  H     15.885982   20.457364   14.917528
  H     14.925582   18.979865   15.058718
  H     16.697399   20.961422   16.834373
  H     19.180934   18.787158   19.133500
  H     19.036180   17.171141   17.318741
  H     18.951551   14.924002   18.166850
  H     18.167216   13.282892   19.860875
  H     16.362291   13.923603   21.463694
  H     15.021850   15.522364   22.129370
  H     16.147628   17.833427   19.685453

 Total Charge           Charge          ....    0
 Multiplicity           Mult            ....    1
 Number of Electrons    NEL             ....  154
 Basis Dimension        Dim             ....  828

ORBITAL ENERGIES
----------------

  NO   OCC          E(Eh)            E(eV)
   0   2.0000     -91.889734     -2500.4468
   1   2.0000     -20.594137      -560.3950
   2   2.0000     -20.588783      -560.2493
   3   2.0000     -20.551804      -559.2430
   4   2.0000     -15.630806      -425.3359
   5   2.0000     -15.607223      -424.6941
   6   2.0000     -11.392987      -310.0189
   7   2.0000     -11.384454      -309.7867
   8   2.0000     -11.340261      -308.5842
   9   2.0000     -11.310246      -307.7675
  10   2.0000     -11.305307      -307.6330
  11   2.0000     -11.303653      -307.5880
  12   2.0000     -11.261733      -306.4473
  13   2.0000     -11.260439      -306.4121
  14   2.0000     -11.257380      -306.3289
  15   2.0000     -11.250080      -306.1302
  16   2.0000     -11.240259      -305.8630
  17   2.0000     -11.236612      -305.7638
  18   2.0000     -11.236601      -305.7634
  19   2.0000     -11.232985      -305.6651
  20   2.0000      -8.894807      -242.0400
  21   2.0000      -6.576380      -178.9524
  22   2.0000      -6.574380      -178.8980
  23   2.0000      -6.573788      -178.8819
  24   2.0000      -1.454291       -39.5733
  25   2.0000      -1.413887       -38.4738
  26   2.0000      -1.359206       -36.9859
  27   2.0000      -1.341683       -36.5091
  28   2.0000      -1.238631       -33.7049
  29   2.0000      -1.154717       -31.4215
  30   2.0000      -1.122461       -30.5437
  31   2.0000      -1.044987       -28.4356
  32   2.0000      -1.038255       -28.2524
  33   2.0000      -1.012321       -27.5467
  34   2.0000      -1.001060       -27.2402
  35   2.0000      -0.986227       -26.8366
  36   2.0000      -0.922531       -25.1033
  37   2.0000      -0.882857       -24.0238
  38   2.0000      -0.849872       -23.1262
  39   2.0000      -0.838771       -22.8241
  40   2.0000      -0.830453       -22.5978
  41   2.0000      -0.828960       -22.5572
  42   2.0000      -0.761026       -20.7086
  43   2.0000      -0.736891       -20.0518
  44   2.0000      -0.728253       -19.8168
  45   2.0000      -0.691833       -18.8257
  46   2.0000      -0.688323       -18.7302
  47   2.0000      -0.681831       -18.5536
  48   2.0000      -0.674670       -18.3587
  49   2.0000      -0.654020       -17.7968
  50   2.0000      -0.651925       -17.7398
  51   2.0000      -0.641000       -17.4425
  52   2.0000      -0.630558       -17.1583
  53   2.0000      -0.624170       -16.9845
  54   2.0000      -0.605230       -16.4692
  55   2.0000      -0.601065       -16.3558
  56   2.0000      -0.597482       -16.2583
  57   2.0000      -0.577725       -15.7207
  58   2.0000      -0.574946       -15.6451
  59   2.0000      -0.565120       -15.3777
  60   2.0000      -0.559859       -15.2345
  61   2.0000      -0.549598       -14.9553
  62   2.0000      -0.541791       -14.7429
  63   2.0000      -0.525069       -14.2879
  64   2.0000      -0.518655       -14.1133
  65   2.0000      -0.511634       -13.9223
  66   2.0000      -0.505891       -13.7660
  67   2.0000      -0.496019       -13.4974
  68   2.0000      -0.481289       -13.0966
  69   2.0000      -0.463802       -12.6207
  70   2.0000      -0.461992       -12.5714
  71   2.0000      -0.452719       -12.3191
  72   2.0000      -0.355079        -9.6622
  73   2.0000      -0.346797        -9.4368
  74   2.0000      -0.328741        -8.9455
  75   2.0000      -0.318967        -8.6795
  76   2.0000      -0.316914        -8.6237
  77   0.0000       0.072011         1.9595
  78   0.0000       0.108042         2.9400
  79   0.0000       0.119865         3.2617
  80   0.0000       0.134152         3.6505
  81   0.0000       0.138113         3.7583

MULLIKEN ATOMIC CHARGES
-----------------------
   0 C :   -0.270754
   1 C :    0.033672
   2 O :   -0.364502
   3 C :    0.465498
   4 O :   -0.392945
   5 C :   -0.222604
   6 C :    0.154597
   7 C :   -0.286758
   8 N :   -0.127709
   9 C :    0.206241
  10 S :   -0.439845
  11 N :   -0.211047
  12 C :    0.044633
  13 C :    0.033895
  14 C :   -0.174903
  15 C :   -0.132792
  16 C :   -0.277557
  17 C :    0.313760
  18 O :   -0.358934
  19 C :   -0.256503
  20 H :    0.097501
  21 H :    0.103640
  22 H :    0.090267
  23 H :    0.089105
  24 H :    0.111266
  25 H :    0.131332
  26 H :    0.106674
  27 H :    0.121184
  28 H :    0.198945
  29 H :    0.199880
  30 H :    0.156746
  31 H :    0.162255
  32 H :    0.161164
  33 H :    0.129112
  34 H :    0.240463
  35 H :    0.165025
Sum of atomic charges:   -0.0000000

LOEWDIN ATOMIC CHARGES
----------------------
   0 C :    0.110219
   1 C :   -0.023221
   2 O :    0.298997
   3 C :   -0.422839
   4 O :    0.124277
   5 C :   -0.097634
   6 C :   -0.065409
   7 C :    0.126238
   8 N :    0.405906
   9 C :   -0.458256
  10 S :   -0.035773
  11 N :    0.396209
  12 C :   -0.048762
  13 C :   -0.041519
  14 C :    0.024717
  15 C :    0.041894
  16 C :   -0.001020
  17 C :   -0.193245
  18 O :    0.393017
  19 C :    0.027903
  20 H :   -0.023140
  21 H :   -0.023547
  22 H :   -0.031021
  23 H :   -0.032929
  24 H :   -0.025685
  25 H :   -0.006680
  26 H :   -0.020169
  27 H :   -0.011852
  28 H :   -0.058242
  29 H :   -0.063218
  30 H :   -0.007319
  31 H :   -0.023223
  32 H :   -0.020412
  33 H :   -0.035833
  34 H :   -0.154363
  35 H :   -0.024065

  Mayer bond orders larger than 0.100000
B(  0-C ,  1-C ) :   0.9757 B(  0-C , 20-H ) :   0.9762 B(  0-C , 21-H ) :   0.9765
B(  0-C , 22-H ) :   0.9787 B(  1-C ,  2-O ) :   0.9025 B(  1-C , 23-H ) :   0.9683
B(  1-C , 24-H ) :   0.9800 B(  2-O ,  3-C ) :   1.0790 B(  3-C ,  4-O ) :   2.0470
B(  3-C ,  5-C ) :   1.0230 B(  5-C ,  6-C ) :   1.6603 B(  5-C , 12-C ) :   0.9531
B(  6-C ,  7-C ) :   0.9518 B(  6-C ,  8-N ) :   1.1391 B(  7-C , 25-H ) :   0.9647
B(  7-C , 26-H ) :   0.9903 B(  7-C , 27-H ) :   0.9659 B(  8-N ,  9-C ) :   1.1836
B(  8-N , 28-H ) :   0.9471 B(  9-C , 10-S ) :   1.6116 B(  9-C , 11-N ) :   1.3045
B( 11-N , 12-C ) :   0.9800 B( 11-N , 29-H ) :   0.9486 B( 12-C , 13-C ) :   0.9718
B( 12-C , 30-H ) :   0.9956 B( 13-C , 14-C ) :   1.3799 B( 13-C , 19-C ) :   1.3616
B( 14-C , 15-C ) :   1.3971 B( 14-C , 31-H ) :   0.9624 B( 15-C , 16-C ) :   1.3595
B( 15-C , 32-H ) :   0.9708 B( 16-C , 17-C ) :   1.3329 B( 16-C , 33-H ) :   0.9857
B( 17-C , 18-O ) :   1.1044 B( 17-C , 19-C ) :   1.3669 B( 18-O , 34-H ) :   0.9802
B( 19-C , 35-H ) :   0.9599

MP2 TOTAL ENERGY:    -1274.328239011 Eh
FINAL SINGLE POINT ENERGY     -1274.328239011271

DIPOLE MOMENT
-------------
                                X             Y             Z
Electronic contribution:     11.68007       7.92593      10.08840
Nuclear contribution   :    -13.17994      -9.13935     -10.71313
                        -----------------------------------------
Total Dipole Moment    :     -1.49987      -1.21342      -0.62473
                        -----------------------------------------
Magnitude (a.u.)       :      2.02788
Magnitude (Debye)      :      5.15446

Rotational constants in cm-1:     0.009635     0.009469     0.005872
Rotational constants in MHz :   288.845963   283.862863   176.050840

                             ****ORCA TERMINATED NORMALLY****
TOTAL RUN TIME: 0 days 1 hours 36 minutes 35 seconds 709 msec
