                         Program Version 4.2.0 -  RELEASE  -
|  1> ! ri-mp2 cc-pvtz cc-pvtz/c TightSCF NoKeepInts
|  2>
|  3> %scf
|  4>   MaxCore 4096
|  5> end
|  6> *xyz  0  1
|  7>     C       14.6132832   15.8884635   16.1705566
|  8>     C       15.0785347   15.9181141   14.6960833
|  9>     O       16.3643275   16.5537879   14.5063598
| 10>     C       17.3010534   16.5702080   15.4974122
| 11>     O       18.0727742   15.6396904   15.6454254
| 12>     C       17.2028307   17.7147675   16.4647212
| 13>     C       16.8465848   18.9649736   16.0720846
| 14>     C       16.2921474   19.3890424   14.7267569
| 15>     N       17.0238710   20.0570202   16.9249796
| 16>     C       17.7479525   20.0212385   18.0864137
| 17>     S       18.0065504   21.3788282   18.9946908
| 18>     N       18.2653896   18.8023049   18.4463567
| 19>     C       17.9778347   17.5210523   17.7721893
| 20>     C       17.3480266   16.4805473   18.6880664
| 21>     C       17.9014677   15.1923350   18.7967332
| 22>     C       17.3083564   14.2277021   19.6282391
| 23>     C       16.1516112   14.5541578   20.3567246
| 24>     C       15.5965092   15.8365427   20.2480214
| 25>     O       14.4743900   16.1519219   20.9424640
| 26>     C       16.1891441   16.7945778   19.4194569
| 27>     H       15.2984032   15.3011659   16.7960401
| 28>     H       13.6239708   15.4205383   16.2426217
| 29>     H       14.5319696   16.9007912   16.5845225
| 30>     H       15.1477358   14.8809380   14.3419270
| 31>     H       14.3264873   16.4258705   14.0786627
| 32>     H       15.2830233   18.9870921   14.5767792
| 33>     H       16.9273055   19.0241878   13.9094190
| 34>     H       16.2310292   20.4788564   14.6179946
| 35>     H       16.6729835   20.9638541   16.6610388
| 36>     H       18.7813176   18.7996974   19.3173219
| 37>     H       18.9938685   17.2182249   17.4790277
| 38>     H       18.7857146   14.9336411   18.2184015
| 39>     H       17.7424072   13.2318810   19.6993016
| 40>     H       15.6890759   13.8110161   20.9977332
| 41>     H       14.2440835   15.3831868   21.4857396
| 42>     H       15.7449849   17.7817822   19.3477334
| 43> *
| 44>
| 45>                          ****END OF INPUT****

CARTESIAN COORDINATES (ANGSTROEM)
---------------------------------
  C     14.613283   15.888463   16.170557
  C     15.078535   15.918114   14.696083
  O     16.364328   16.553788   14.506360
  C     17.301053   16.570208   15.497412
  O     18.072774   15.639690   15.645425
  C     17.202831   17.714768   16.464721
  C     16.846585   18.964974   16.072085
  C     16.292147   19.389042   14.726757
  N     17.023871   20.057020   16.924980
  C     17.747953   20.021238   18.086414
  S     18.006550   21.378828   18.994691
  N     18.265390   18.802305   18.446357
  C     17.977835   17.521052   17.772189
  C     17.348027   16.480547   18.688066
  C     17.901468   15.192335   18.796733
  C     17.308356   14.227702   19.628239
  C     16.151611   14.554158   20.356725
  C     15.596509   15.836543   20.248021
  O     14.474390   16.151922   20.942464
  C     16.189144   16.794578   19.419457
  H     15.298403   15.301166   16.796040
  H     13.623971   15.420538   16.242622
  H     14.531970   16.900791   16.584522
  H     15.147736   14.880938   14.341927
  H     14.326487   16.425870   14.078663
  H     15.283023   18.987092   14.576779
  H     16.927305   19.024188   13.909419
  H     16.231029   20.478856   14.617995
  H     16.672984   20.963854   16.661039
  H     18.781318   18.799697   19.317322
  H     18.993869   17.218225   17.479028
  H     18.785715   14.933641   18.218401
  H     17.742407   13.231881   19.699302
  H     15.689076   13.811016   20.997733
  H     14.244083   15.383187   21.485740
  H     15.744985   17.781782   19.347733

 Total Charge           Charge          ....    0
 Multiplicity           Mult            ....    1
 Number of Electrons    NEL             ....  154
 Basis Dimension        Dim             ....  828

ORBITAL ENERGIES
----------------

  NO   OCC          E(Eh)            E(eV)
   0   2.0000     -91.889927     -2500.4520
   1   2.0000     -20.595906      -560.4431
   2   2.0000     -20.584249      -560.1259
   3   2.0000     -20.551310      -559.2296
   4   2.0000     -15.630509      -425.3278
   5   2.0000     -15.607661      -424.7061
   6   2.0000     -11.394230      -310.0528
   7   2.0000     -11.384716      -309.7939
   8   2.0000     -11.338865      -308.5462
   9   2.0000     -11.312131      -307.8187
  10   2.0000     -11.308141      -307.7102
  11   2.0000     -11.306044      -307.6531
  12   2.0000     -11.262180      -306.4595
  13   2.0000     -11.260172      -306.4049
  14   2.0000     -11.258789      -306.3672
  15   2.0000     -11.252176      -306.1873
  16   2.0000     -11.242339      -305.9196
  17   2.0000     -11.238029      -305.8023
  18   2.0000     -11.234720      -305.7123
  19   2.0000     -11.232890      -305.6625
  20   2.0000      -8.895004      -242.0454
  21   2.0000      -6.576578      -178.9578
  22   2.0000      -6.574576      -178.9033
  23   2.0000      -6.573985      -178.8872
  24   2.0000      -1.446652       -39.3654
  25   2.0000      -1.415697       -38.5231
  26   2.0000      -1.355652       -36.8892
  27   2.0000      -1.341700       -36.5095
  28   2.0000      -1.238881       -33.7117
  29   2.0000      -1.156518       -31.4704
  30   2.0000      -1.122668       -30.5493
  31   2.0000      -1.044729       -28.4285
  32   2.0000      -1.033947       -28.1351
  33   2.0000      -1.014137       -27.5961
  34   2.0000      -1.002989       -27.2927
  35   2.0000      -0.987881       -26.8816
  36   2.0000      -0.924200       -25.1488
  37   2.0000      -0.898445       -24.4479
  38   2.0000      -0.850356       -23.1394
  39   2.0000      -0.838739       -22.8232
  40   2.0000      -0.832279       -22.6475
  41   2.0000      -0.820362       -22.3232
  42   2.0000      -0.746278       -20.3073
  43   2.0000      -0.733031       -19.9468
  44   2.0000      -0.728340       -19.8191
  45   2.0000      -0.693311       -18.8659
  46   2.0000      -0.687167       -18.6988
  47   2.0000      -0.677541       -18.4368
  48   2.0000      -0.672272       -18.2934
  49   2.0000      -0.664599       -18.0847
  50   2.0000      -0.651650       -17.7323
  51   2.0000      -0.648751       -17.6534
  52   2.0000      -0.636784       -17.3278
  53   2.0000      -0.620095       -16.8736
  54   2.0000      -0.605800       -16.4847
  55   2.0000      -0.602288       -16.3891
  56   2.0000      -0.599598       -16.3159
  57   2.0000      -0.581124       -15.8132
  58   2.0000      -0.575956       -15.6726
  59   2.0000      -0.563853       -15.3432
  60   2.0000      -0.556560       -15.1448
  61   2.0000      -0.547852       -14.9078
  62   2.0000      -0.543003       -14.7759
  63   2.0000      -0.534111       -14.5339
  64   2.0000      -0.520263       -14.1571
  65   2.0000      -0.511689       -13.9238
  66   2.0000      -0.498662       -13.5693
  67   2.0000      -0.492543       -13.4028
  68   2.0000      -0.482505       -13.1296
  69   2.0000      -0.466606       -12.6970
  70   2.0000      -0.456373       -12.4185
  71   2.0000      -0.449611       -12.2345
  72   2.0000      -0.354672        -9.6511
  73   2.0000      -0.347867        -9.4659
  74   2.0000      -0.329015        -8.9529
  75   2.0000      -0.319714        -8.6999
  76   2.0000      -0.318848        -8.6763
  77   0.0000       0.072823         1.9816
  78   0.0000       0.106399         2.8953
  79   0.0000       0.117351         3.1933
  80   0.0000       0.132253         3.5988
  81   0.0000       0.137076         3.7300

MULLIKEN ATOMIC CHARGES
-----------------------
   0 C :   -0.339962
   1 C :    0.039427
   2 O :   -0.381798
   3 C :    0.467054
   4 O :   -0.390239
   5 C :   -0.254796
   6 C :    0.181028
   7 C :   -0.289439
   8 N :   -0.128440
   9 C :    0.205192
  10 S :   -0.440046
  11 N :   -0.212358
  12 C :    0.060182
  13 C :    0.013328
  14 C :   -0.173700
  15 C :   -0.134150
  16 C :   -0.278576
  17 C :    0.315534
  18 O :   -0.359157
  19 C :   -0.253390
  20 H :    0.127605
  21 H :    0.119291
  22 H :    0.104626
  23 H :    0.114670
  24 H :    0.104322
  25 H :    0.117209
  26 H :    0.136027
  27 H :    0.107257
  28 H :    0.198125
  29 H :    0.199373
  30 H :    0.157837
  31 H :    0.165893
  32 H :    0.162233
  33 H :    0.130761
  34 H :    0.240752
  35 H :    0.168327
Sum of atomic charges:   -0.0000000

LOEWDIN ATOMIC CHARGES
----------------------
   0 C :    0.104311
   1 C :   -0.015849
   2 O :    0.285926
   3 C :   -0.423833
   4 O :    0.124696
   5 C :   -0.094346
   6 C :   -0.069104
   7 C :    0.126791
   8 N :    0.405670
   9 C :   -0.458328
  10 S :   -0.036048
  11 N :    0.396367
  12 C :   -0.048436
  13 C :   -0.042940
  14 C :    0.023799
  15 C :    0.041684
  16 C :   -0.001134
  17 C :   -0.193857
  18 O :    0.393731
  19 C :    0.030639
  20 H :   -0.020070
  21 H :   -0.021843
  22 H :   -0.032389
  23 H :   -0.025346
  24 H :   -0.027639
  25 H :   -0.012138
  26 H :   -0.005801
  27 H :   -0.019725
  28 H :   -0.058532
  29 H :   -0.063322
  30 H :   -0.006605
  31 H :   -0.022579
  32 H :   -0.019871
  33 H :   -0.035428
  34 H :   -0.154083
  35 H :   -0.024371

  Mayer bond orders larger than 0.100000
B(  0-C ,  1-C ) :   0.9585 B(  0-C , 20-H ) :   0.9666 B(  0-C , 21-H ) :   0.9751
B(  0-C , 22-H ) :   0.9699 B(  1-C ,  2-O ) :   0.9021 B(  1-C , 23-H ) :   0.9857
B(  1-C , 24-H ) :   0.9804 B(  2-O ,  3-C ) :   1.0811 B(  3-C ,  4-O ) :   2.0550
B(  3-C ,  5-C ) :   0.9963 B(  5-C ,  6-C ) :   1.6715 B(  5-C , 12-C ) :   0.9489
B(  6-C ,  7-C ) :   0.9512 B(  6-C ,  8-N ) :   1.1369 B(  7-C , 25-H ) :   0.9670
B(  7-C , 26-H ) :   0.9638 B(  7-C , 27-H ) :   0.9899 B(  8-N ,  9-C ) :   1.1851
B(  8-N , 28-H ) :   0.9469 B(  9-C , 10-S ) :   1.6122 B(  9-C , 11-N ) :   1.3019
B( 11-N , 12-C ) :   0.9801 B( 11-N , 29-H ) :   0.9489 B( 12-C , 13-C ) :   0.9650
B( 12-C , 30-H ) :   0.9961 B( 13-C , 14-C ) :   1.3843 B( 13-C , 19-C ) :   1.3583
B( 14-C , 15-C ) :   1.3964 B( 14-C , 31-H ) :   0.9607 B( 15-C , 16-C ) :   1.3599
B( 15-C , 32-H ) :   0.9708 B( 16-C , 17-C ) :   1.3313 B( 16-C , 33-H ) :   0.9851
B( 17-C , 18-O ) :   1.1060 B( 17-C , 19-C ) :   1.3662 B( 18-O , 34-H ) :   0.9801
B( 19-C , 35-H ) :   0.9599

MP2 TOTAL ENERGY:    -1274.324729785 Eh
FINAL SINGLE POINT ENERGY     -1274.324729784831

DIPOLE MOMENT
-------------
                                X             Y             Z
Electronic contribution:      9.09499       7.85584       6.96089
Nuclear contribution   :    -10.56410      -9.04657      -7.64444
                        -----------------------------------------
Total Dipole Moment    :     -1.46911      -1.19072      -0.68355
                        -----------------------------------------
Magnitude (a.u.)       :      2.01081
Magnitude (Debye)      :      5.11107

Rotational constants in cm-1:     0.011324     0.009365     0.006407
Rotational constants in MHz :   339.499928   280.752306   192.070947

                             ****ORCA TERMINATED NORMALLY****
TOTAL RUN TIME: 0 days 1 hours 47 minutes 28 seconds 176 msec
