                         Program Version 4.2.0 -  RELEASE  -
|  1> ! ri-mp2 cc-pvtz cc-pvtz/c TightSCF NoKeepInts
|  2>
|  3> %scf
|  4>   MaxCore 4096
|  5> end
|  6> *xyz  0  1
|  7>     C       14.7664143   15.1889559   15.9628513
|  8>     C       14.9837148   15.9007980   14.6056621
|  9>     O       16.1313187   16.7827057   14.5919558
| 10>     C       17.1167196   16.6911715   15.5299714
| 11>     O       17.8129157   15.6957554   15.6341340
| 12>     C       17.1615286   17.8286660   16.5067009
| 13>     C       16.8833748   19.1093126   16.1508117
| 14>     C       16.2933746   19.5992979   14.8435046
| 15>     N       17.1881907   20.1686019   17.0091928
| 16>     C       17.9561875   20.0543129   18.1369955
| 17>     S       18.3614259   21.3703448   19.0530313
| 18>     N       18.3888802   18.7918042   18.4566305
| 19>     C       17.9773526   17.5501088   17.7729142
| 20>     C       17.3080981   16.5409259   18.6962822
| 21>     C       17.7821350   15.2193301   18.7771584
| 22>     C       17.1525191   14.2843111   19.6156078
| 23>     C       16.0391818   14.6744608   20.3794885
| 24>     C       15.5629736   15.9902347   20.2984055
| 25>     O       14.4831442   16.3675280   21.0282050
| 26>     C       16.1914144   16.9184723   19.4622293
| 27>     H       15.5775714   14.4830648   16.1826966
| 28>     H       13.8313560   14.6164009   15.9426905
| 29>     H       14.6980674   15.9126616   16.7849837
| 30>     H       15.1194530   15.1324876   13.8331593
| 31>     H       14.0856081   16.4749827   14.3443731
| 32>     H       15.2559150   19.2601954   14.7345620
| 33>     H       16.8659089   19.2165818   13.9890365
| 34>     H       16.2915938   20.6931072   14.7617616
| 35>     H       16.8978275   21.1046076   16.7755516
| 36>     H       18.9374045   18.7324774   19.3052951
| 37>     H       18.9528885   17.1764454   17.4286170
| 38>     H       18.6319390   14.9123866   18.1716303
| 39>     H       17.5248106   13.2625728   19.6651159
| 40>     H       15.5487282   13.9548154   21.0264793
| 41>     H       14.2184541   15.6077476   21.5682849
| 42>     H       15.8086095   17.9323668   19.4120301
| 43> *
| 44>
| 45>                          ****END OF INPUT****

CARTESIAN COORDINATES (ANGSTROEM)
---------------------------------
  C     14.766414   15.188956   15.962851
  C     14.983715   15.900798   14.605662
  O     16.131319   16.782706   14.591956
  C     17.116720   16.691171   15.529971
  O     17.812916   15.695755   15.634134
  C     17.161529   17.828666   16.506701
  C     16.883375   19.109313   16.150812
  C     16.293375   19.599298   14.843505
  N     17.188191   20.168602   17.009193
  C     17.956187   20.054313   18.136996
  S     18.361426   21.370345   19.053031
  N     18.388880   18.791804   18.456630
  C     17.977353   17.550109   17.772914
  C     17.308098   16.540926   18.696282
  C     17.782135   15.219330   18.777158
  C     17.152519   14.284311   19.615608
  C     16.039182   14.674461   20.379489
  C     15.562974   15.990235   20.298406
  O     14.483144   16.367528   21.028205
  C     16.191414   16.918472   19.462229
  H     15.577571   14.483065   16.182697
  H     13.831356   14.616401   15.942690
  H     14.698067   15.912662   16.784984
  H     15.119453   15.132488   13.833159
  H     14.085608   16.474983   14.344373
  H     15.255915   19.260195   14.734562
  H     16.865909   19.216582   13.989036
  H     16.291594   20.693107   14.761762
  H     16.897827   21.104608   16.775552
  H     18.937404   18.732477   19.305295
  H     18.952888   17.176445   17.428617
  H     18.631939   14.912387   18.171630
  H     17.524811   13.262573   19.665116
  H     15.548728   13.954815   21.026479
  H     14.218454   15.607748   21.568285
  H     15.808609   17.932367   19.412030

 Total Charge           Charge          ....    0
 Multiplicity           Mult            ....    1
 Number of Electrons    NEL             ....  154
 Basis Dimension        Dim             ....  828

ORBITAL ENERGIES
----------------

  NO   OCC          E(Eh)            E(eV)
   0   2.0000     -91.889031     -2500.4277
   1   2.0000     -20.595057      -560.4200
   2   2.0000     -20.586062      -560.1752
   3   2.0000     -20.549969      -559.1931
   4   2.0000     -15.629493      -425.3001
   5   2.0000     -15.606856      -424.6842
   6   2.0000     -11.394577      -310.0622
   7   2.0000     -11.383847      -309.7702
   8   2.0000     -11.338082      -308.5249
   9   2.0000     -11.311326      -307.7968
  10   2.0000     -11.305935      -307.6501
  11   2.0000     -11.305201      -307.6302
  12   2.0000     -11.259785      -306.3943
  13   2.0000     -11.259281      -306.3806
  14   2.0000     -11.258011      -306.3460
  15   2.0000     -11.251309      -306.1637
  16   2.0000     -11.241407      -305.8942
  17   2.0000     -11.237297      -305.7824
  18   2.0000     -11.233885      -305.6896
  19   2.0000     -11.228469      -305.5422
  20   2.0000      -8.894110      -242.0210
  21   2.0000      -6.575685      -178.9335
  22   2.0000      -6.573683      -178.8790
  23   2.0000      -6.573094      -178.8630
  24   2.0000      -1.447046       -39.3761
  25   2.0000      -1.414843       -38.4998
  26   2.0000      -1.354981       -36.8709
  27   2.0000      -1.340545       -36.4781
  28   2.0000      -1.237859       -33.6838
  29   2.0000      -1.155543       -31.4439
  30   2.0000      -1.121841       -30.5269
  31   2.0000      -1.043843       -28.4044
  32   2.0000      -1.031931       -28.0803
  33   2.0000      -1.013114       -27.5682
  34   2.0000      -1.000762       -27.2321
  35   2.0000      -0.985902       -26.8278
  36   2.0000      -0.922915       -25.1138
  37   2.0000      -0.897456       -24.4210
  38   2.0000      -0.848998       -23.1024
  39   2.0000      -0.837714       -22.7954
  40   2.0000      -0.831369       -22.6227
  41   2.0000      -0.818976       -22.2855
  42   2.0000      -0.744204       -20.2508
  43   2.0000      -0.731028       -19.8923
  44   2.0000      -0.727383       -19.7931
  45   2.0000      -0.692361       -18.8401
  46   2.0000      -0.686367       -18.6770
  47   2.0000      -0.676954       -18.4208
  48   2.0000      -0.672326       -18.2949
  49   2.0000      -0.662884       -18.0380
  50   2.0000      -0.651038       -17.7156
  51   2.0000      -0.646549       -17.5935
  52   2.0000      -0.633682       -17.2434
  53   2.0000      -0.623114       -16.9558
  54   2.0000      -0.605189       -16.4680
  55   2.0000      -0.600934       -16.3523
  56   2.0000      -0.598509       -16.2863
  57   2.0000      -0.578132       -15.7318
  58   2.0000      -0.574934       -15.6447
  59   2.0000      -0.563815       -15.3422
  60   2.0000      -0.552227       -15.0269
  61   2.0000      -0.546655       -14.8752
  62   2.0000      -0.537551       -14.6275
  63   2.0000      -0.530071       -14.4240
  64   2.0000      -0.518768       -14.1164
  65   2.0000      -0.510462       -13.8904
  66   2.0000      -0.498928       -13.5765
  67   2.0000      -0.494464       -13.4551
  68   2.0000      -0.480802       -13.0833
  69   2.0000      -0.464701       -12.6452
  70   2.0000      -0.456643       -12.4259
  71   2.0000      -0.449116       -12.2211
  72   2.0000      -0.353600        -9.6219
  73   2.0000      -0.347464        -9.4550
  74   2.0000      -0.328131        -8.9289
  75   2.0000      -0.318512        -8.6671
  76   2.0000      -0.317771        -8.6470
  77   0.0000       0.073611         2.0031
  78   0.0000       0.106627         2.9015
  79   0.0000       0.120263         3.2725
  80   0.0000       0.132906         3.6166
  81   0.0000       0.138961         3.7813

MULLIKEN ATOMIC CHARGES
-----------------------
   0 C :   -0.331159
   1 C :    0.058612
   2 O :   -0.386559
   3 C :    0.477258
   4 O :   -0.404501
   5 C :   -0.215863
   6 C :    0.152796
   7 C :   -0.280799
   8 N :   -0.127374
   9 C :    0.207703
  10 S :   -0.441007
  11 N :   -0.212787
  12 C :    0.051107
  13 C :    0.030012
  14 C :   -0.180392
  15 C :   -0.133972
  16 C :   -0.276748
  17 C :    0.319398
  18 O :   -0.359210
  19 C :   -0.262182
  20 H :    0.125867
  21 H :    0.110481
  22 H :    0.104030
  23 H :    0.104025
  24 H :    0.095021
  25 H :    0.123391
  26 H :    0.129805
  27 H :    0.103137
  28 H :    0.198659
  29 H :    0.199470
  30 H :    0.156790
  31 H :    0.164925
  32 H :    0.162176
  33 H :    0.130111
  34 H :    0.240446
  35 H :    0.167332
Sum of atomic charges:   -0.0000000

LOEWDIN ATOMIC CHARGES
----------------------
   0 C :    0.106332
   1 C :   -0.011404
   2 O :    0.287371
   3 C :   -0.421344
   4 O :    0.119783
   5 C :   -0.096707
   6 C :   -0.066621
   7 C :    0.126333
   8 N :    0.405523
   9 C :   -0.457704
  10 S :   -0.036806
  11 N :    0.396126
  12 C :   -0.048320
  13 C :   -0.041488
  14 C :    0.024798
  15 C :    0.041449
  16 C :   -0.001107
  17 C :   -0.193401
  18 O :    0.393647
  19 C :    0.029068
  20 H :   -0.022487
  21 H :   -0.023782
  22 H :   -0.028171
  23 H :   -0.027206
  24 H :   -0.029014
  25 H :   -0.010175
  26 H :   -0.007060
  27 H :   -0.020714
  28 H :   -0.058461
  29 H :   -0.063577
  30 H :   -0.007362
  31 H :   -0.023270
  32 H :   -0.020387
  33 H :   -0.035666
  34 H :   -0.154279
  35 H :   -0.023917

  Mayer bond orders larger than 0.100000
B(  0-C ,  1-C ) :   0.9605 B(  0-C , 20-H ) :   0.9689 B(  0-C , 21-H ) :   0.9750
B(  0-C , 22-H ) :   0.9696 B(  1-C ,  2-O ) :   0.9028 B(  1-C , 23-H ) :   0.9844
B(  1-C , 24-H ) :   0.9796 B(  2-O ,  3-C ) :   1.0680 B(  3-C ,  4-O ) :   2.0245
B(  3-C ,  5-C ) :   1.0252 B(  5-C ,  6-C ) :   1.6702 B(  5-C , 12-C ) :   0.9463
B(  6-C ,  7-C ) :   0.9528 B(  6-C ,  8-N ) :   1.1411 B(  7-C , 25-H ) :   0.9655
B(  7-C , 26-H ) :   0.9651 B(  7-C , 27-H ) :   0.9899 B(  8-N ,  9-C ) :   1.1848
B(  8-N , 28-H ) :   0.9470 B(  9-C , 10-S ) :   1.6106 B(  9-C , 11-N ) :   1.3034
B( 11-N , 12-C ) :   0.9798 B( 11-N , 29-H ) :   0.9486 B( 12-C , 13-C ) :   0.9665
B( 12-C , 30-H ) :   0.9959 B( 13-C , 14-C ) :   1.3809 B( 13-C , 19-C ) :   1.3587
B( 14-C , 15-C ) :   1.3952 B( 14-C , 31-H ) :   0.9613 B( 15-C , 16-C ) :   1.3597
B( 15-C , 32-H ) :   0.9705 B( 16-C , 17-C ) :   1.3329 B( 16-C , 33-H ) :   0.9851
B( 17-C , 18-O ) :   1.1052 B( 17-C , 19-C ) :   1.3609 B( 18-O , 34-H ) :   0.9802
B( 19-C , 35-H ) :   0.9602

MP2 TOTAL ENERGY:    -1274.326845168 Eh
FINAL SINGLE POINT ENERGY     -1274.326845167871

DIPOLE MOMENT
-------------
                                X             Y             Z
Electronic contribution:      9.06290       9.47897       7.59798
Nuclear contribution   :    -10.54257     -10.75181      -8.38969
                        -----------------------------------------
Total Dipole Moment    :     -1.47967      -1.27285      -0.79172
                        -----------------------------------------
Magnitude (a.u.)       :      2.10627
Magnitude (Debye)      :      5.35371

Rotational constants in cm-1:     0.011264     0.009237     0.006171
Rotational constants in MHz :   337.694915   276.927396   185.002886

                             ****ORCA TERMINATED NORMALLY****
TOTAL RUN TIME: 0 days 1 hours 42 minutes 29 seconds 590 msec
