                         Program Version 4.2.0 -  RELEASE  -
|  1> ! ri-mp2 cc-pvtz cc-pvtz/c TightSCF NoKeepInts
|  2>
|  3> %scf
|  4>   MaxCore 4096
|  5> end
|  6> *xyz  0  1
|  7>     C       14.6639762   15.6113217   16.1448599
|  8>     C       15.0571332   15.8707250   14.6710852
|  9>     O       16.2559903   16.6677525   14.5384148
| 10>     C       17.2218731   16.6326392   15.4990451
| 11>     O       17.9460907   15.6618793   15.6327679
| 12>     C       17.1881635   17.7726583   16.4744583
| 13>     C       16.8640034   19.0379309   16.1032208
| 14>     C       16.2892772   19.4940122   14.7770470
| 15>     N       17.0975297   20.1139823   16.9629588
| 16>     C       17.8408600   20.0399671   18.1104376
| 17>     S       18.1629900   21.3774006   19.0283685
| 18>     N       18.3216757   18.7998191   18.4483115
| 19>     C       17.9818309   17.5372597   17.7634069
| 20>     C       17.3336289   16.5063380   18.6773820
| 21>     C       17.8629394   15.2076756   18.7823004
| 22>     C       17.2519649   14.2519377   19.6111476
| 23>     C       16.1015868   14.5979788   20.3406707
| 24>     C       15.5705933   15.8908669   20.2356414
| 25>     O       14.4547838   16.2252640   20.9313865
| 26>     C       16.1810360   16.8400065   19.4097777
| 27>     H       15.4164802   15.0010267   16.6616071
| 28>     H       13.7132111   15.0666951   16.1911075
| 29>     H       14.5368887   16.5531206   16.6929563
| 30>     H       15.2234376   14.8999074   14.1855154
| 31>     H       14.2303561   16.3661538   14.1461501
| 32>     H       15.2692769   19.1133037   14.6440633
| 33>     H       16.8985927   19.1282357   13.9407401
| 34>     H       16.2466859   20.5862724   14.6859162
| 35>     H       16.7723008   21.0349936   16.7158948
| 36>     H       18.8510992   18.7695369   19.3105698
| 37>     H       18.9813964   17.2047579   17.4469191
| 38>     H       18.7415146   14.9339898   18.2023914
| 39>     H       17.6671105   13.2479068   19.6792388
| 40>     H       15.6251980   13.8618800   20.9796333
| 41>     H       14.2096988   15.4590976   21.4717683
| 42>     H       15.7558256   17.8357067   19.3408401
| 43> *
| 44>
| 45>                          ****END OF INPUT****

CARTESIAN COORDINATES (ANGSTROEM)
---------------------------------
  C     14.663976   15.611322   16.144860
  C     15.057133   15.870725   14.671085
  O     16.255990   16.667752   14.538415
  C     17.221873   16.632639   15.499045
  O     17.946091   15.661879   15.632768
  C     17.188163   17.772658   16.474458
  C     16.864003   19.037931   16.103221
  C     16.289277   19.494012   14.777047
  N     17.097530   20.113982   16.962959
  C     17.840860   20.039967   18.110438
  S     18.162990   21.377401   19.028368
  N     18.321676   18.799819   18.448311
  C     17.981831   17.537260   17.763407
  C     17.333629   16.506338   18.677382
  C     17.862939   15.207676   18.782300
  C     17.251965   14.251938   19.611148
  C     16.101587   14.597979   20.340671
  C     15.570593   15.890867   20.235641
  O     14.454784   16.225264   20.931386
  C     16.181036   16.840007   19.409778
  H     15.416480   15.001027   16.661607
  H     13.713211   15.066695   16.191108
  H     14.536889   16.553121   16.692956
  H     15.223438   14.899907   14.185515
  H     14.230356   16.366154   14.146150
  H     15.269277   19.113304   14.644063
  H     16.898593   19.128236   13.940740
  H     16.246686   20.586272   14.685916
  H     16.772301   21.034994   16.715895
  H     18.851099   18.769537   19.310570
  H     18.981396   17.204758   17.446919
  H     18.741515   14.933990   18.202391
  H     17.667110   13.247907   19.679239
  H     15.625198   13.861880   20.979633
  H     14.209699   15.459098   21.471768
  H     15.755826   17.835707   19.340840

 Total Charge           Charge          ....    0
 Multiplicity           Mult            ....    1
 Number of Electrons    NEL             ....  154
 Basis Dimension        Dim             ....  828

ORBITAL ENERGIES
----------------

  NO   OCC          E(Eh)            E(eV)
   0   2.0000     -91.889615     -2500.4435
   1   2.0000     -20.595585      -560.4344
   2   2.0000     -20.584240      -560.1256
   3   2.0000     -20.550851      -559.2171
   4   2.0000     -15.630217      -425.3198
   5   2.0000     -15.607359      -424.6978
   6   2.0000     -11.393983      -310.0460
   7   2.0000     -11.384423      -309.7859
   8   2.0000     -11.338782      -308.5440
   9   2.0000     -11.311785      -307.8093
  10   2.0000     -11.306134      -307.6555
  11   2.0000     -11.305717      -307.6442
  12   2.0000     -11.260908      -306.4249
  13   2.0000     -11.259663      -306.3910
  14   2.0000     -11.258377      -306.3560
  15   2.0000     -11.251830      -306.1779
  16   2.0000     -11.241979      -305.9098
  17   2.0000     -11.237684      -305.7929
  18   2.0000     -11.234437      -305.7046
  19   2.0000     -11.230164      -305.5883
  20   2.0000      -8.894690      -242.0368
  21   2.0000      -6.576263      -178.9492
  22   2.0000      -6.574263      -178.8948
  23   2.0000      -6.573672      -178.8787
  24   2.0000      -1.447543       -39.3897
  25   2.0000      -1.415367       -38.5141
  26   2.0000      -1.355286       -36.8792
  27   2.0000      -1.341273       -36.4979
  28   2.0000      -1.238494       -33.7011
  29   2.0000      -1.156128       -31.4598
  30   2.0000      -1.122367       -30.5412
  31   2.0000      -1.044365       -28.4186
  32   2.0000      -1.032100       -28.0849
  33   2.0000      -1.013671       -27.5834
  34   2.0000      -1.001991       -27.2656
  35   2.0000      -0.987062       -26.8593
  36   2.0000      -0.923616       -25.1329
  37   2.0000      -0.897605       -24.4251
  38   2.0000      -0.849623       -23.1194
  39   2.0000      -0.838256       -22.8101
  40   2.0000      -0.831933       -22.6380
  41   2.0000      -0.819041       -22.2872
  42   2.0000      -0.745767       -20.2933
  43   2.0000      -0.732781       -19.9400
  44   2.0000      -0.728151       -19.8140
  45   2.0000      -0.693049       -18.8588
  46   2.0000      -0.686907       -18.6917
  47   2.0000      -0.677414       -18.4334
  48   2.0000      -0.671633       -18.2761
  49   2.0000      -0.663336       -18.0503
  50   2.0000      -0.651837       -17.7374
  51   2.0000      -0.647579       -17.6215
  52   2.0000      -0.635233       -17.2856
  53   2.0000      -0.620757       -16.8917
  54   2.0000      -0.605602       -16.4793
  55   2.0000      -0.601729       -16.3739
  56   2.0000      -0.599136       -16.3033
  57   2.0000      -0.579828       -15.7779
  58   2.0000      -0.575600       -15.6629
  59   2.0000      -0.563777       -15.3412
  60   2.0000      -0.553977       -15.0745
  61   2.0000      -0.546877       -14.8813
  62   2.0000      -0.537962       -14.6387
  63   2.0000      -0.534946       -14.5566
  64   2.0000      -0.519785       -14.1441
  65   2.0000      -0.511196       -13.9103
  66   2.0000      -0.498581       -13.5671
  67   2.0000      -0.493192       -13.4204
  68   2.0000      -0.481757       -13.1093
  69   2.0000      -0.465479       -12.6663
  70   2.0000      -0.455954       -12.4071
  71   2.0000      -0.449692       -12.2368
  72   2.0000      -0.354313        -9.6413
  73   2.0000      -0.347751        -9.4628
  74   2.0000      -0.328686        -8.9440
  75   2.0000      -0.319211        -8.6862
  76   2.0000      -0.318456        -8.6656
  77   0.0000       0.072753         1.9797
  78   0.0000       0.106075         2.8865
  79   0.0000       0.118104         3.2138
  80   0.0000       0.132476         3.6049
  81   0.0000       0.138322         3.7639

MULLIKEN ATOMIC CHARGES
-----------------------
   0 C :   -0.341201
   1 C :    0.049295
   2 O :   -0.385460
   3 C :    0.470861
   4 O :   -0.398170
   5 C :   -0.237266
   6 C :    0.172814
   7 C :   -0.283172
   8 N :   -0.127870
   9 C :    0.206611
  10 S :   -0.440236
  11 N :   -0.212176
  12 C :    0.054387
  13 C :    0.024926
  14 C :   -0.177746
  15 C :   -0.132773
  16 C :   -0.278761
  17 C :    0.317861
  18 O :   -0.359142
  19 C :   -0.260871
  20 H :    0.128754
  21 H :    0.115605
  22 H :    0.103737
  23 H :    0.109711
  24 H :    0.102367
  25 H :    0.120453
  26 H :    0.132200
  27 H :    0.104852
  28 H :    0.198451
  29 H :    0.199276
  30 H :    0.156721
  31 H :    0.164196
  32 H :    0.162147
  33 H :    0.130484
  34 H :    0.240636
  35 H :    0.168499
Sum of atomic charges:   -0.0000000

LOEWDIN ATOMIC CHARGES
----------------------
   0 C :    0.105083
   1 C :   -0.014570
   2 O :    0.286852
   3 C :   -0.423520
   4 O :    0.122077
   5 C :   -0.095492
   6 C :   -0.067599
   7 C :    0.126504
   8 N :    0.405668
   9 C :   -0.457913
  10 S :   -0.036202
  11 N :    0.396223
  12 C :   -0.048380
  13 C :   -0.042012
  14 C :    0.023933
  15 C :    0.041210
  16 C :   -0.001167
  17 C :   -0.193387
  18 O :    0.393690
  19 C :    0.030816
  20 H :   -0.020367
  21 H :   -0.022830
  22 H :   -0.031153
  23 H :   -0.026476
  24 H :   -0.027298
  25 H :   -0.010871
  26 H :   -0.006473
  27 H :   -0.020371
  28 H :   -0.058436
  29 H :   -0.063448
  30 H :   -0.007006
  31 H :   -0.022996
  32 H :   -0.020125
  33 H :   -0.035532
  34 H :   -0.154155
  35 H :   -0.024275

  Mayer bond orders larger than 0.100000
B(  0-C ,  1-C ) :   0.9574 B(  0-C , 20-H ) :   0.9664 B(  0-C , 21-H ) :   0.9752
B(  0-C , 22-H ) :   0.9707 B(  1-C ,  2-O ) :   0.9024 B(  1-C , 23-H ) :   0.9859
B(  1-C , 24-H ) :   0.9808 B(  2-O ,  3-C ) :   1.0723 B(  3-C ,  4-O ) :   2.0406
B(  3-C ,  5-C ) :   1.0114 B(  5-C ,  6-C ) :   1.6620 B(  5-C , 12-C ) :   0.9509
B(  6-C ,  7-C ) :   0.9531 B(  6-C ,  8-N ) :   1.1394 B(  7-C , 25-H ) :   0.9662
B(  7-C , 26-H ) :   0.9644 B(  7-C , 27-H ) :   0.9901 B(  8-N ,  9-C ) :   1.1847
B(  8-N , 28-H ) :   0.9469 B(  9-C , 10-S ) :   1.6118 B(  9-C , 11-N ) :   1.3029
B( 11-N , 12-C ) :   0.9800 B( 11-N , 29-H ) :   0.9488 B( 12-C , 13-C ) :   0.9650
B( 12-C , 30-H ) :   0.9961 B( 13-C , 14-C ) :   1.3826 B( 13-C , 19-C ) :   1.3567
B( 14-C , 15-C ) :   1.3953 B( 14-C , 31-H ) :   0.9616 B( 15-C , 16-C ) :   1.3597
B( 15-C , 32-H ) :   0.9707 B( 16-C , 17-C ) :   1.3318 B( 16-C , 33-H ) :   0.9851
B( 17-C , 18-O ) :   1.1057 B( 17-C , 19-C ) :   1.3627 B( 18-O , 34-H ) :   0.9802
B( 19-C , 35-H ) :   0.9601

MP2 TOTAL ENERGY:    -1274.326162782 Eh
FINAL SINGLE POINT ENERGY     -1274.326162781595

DIPOLE MOMENT
-------------
                                X             Y             Z
Electronic contribution:      9.07066       8.58502       7.04938
Nuclear contribution   :    -10.52157      -9.81241      -7.77428
                        -----------------------------------------
Total Dipole Moment    :     -1.45091      -1.22738      -0.72490
                        -----------------------------------------
Magnitude (a.u.)       :      2.03399
Magnitude (Debye)      :      5.16998

Rotational constants in cm-1:     0.011376     0.009309     0.006329
Rotational constants in MHz :   341.036716   279.065492   189.745093

                             ****ORCA TERMINATED NORMALLY****
TOTAL RUN TIME: 0 days 1 hours 44 minutes 51 seconds 230 msec
