                         Program Version 4.2.0 -  RELEASE  -
|  1> ! ri-mp2 cc-pvtz cc-pvtz/c TightSCF NoKeepInts
|  2>
|  3> %scf
|  4>   MaxCore 4096
|  5> end
|  6> *xyz  0  1
|  7>     C       14.4404705   14.9885440   15.6210721
|  8>     C       15.8961382   14.8321077   15.1279922
|  9>     O       16.7280599   15.8966567   15.6321054
| 10>     C       16.3968632   17.2125959   15.4585044
| 11>     O       15.6973083   17.5894091   14.5335944
| 12>     C       16.9759115   18.1008879   16.5262833
| 13>     C       17.0342514   19.4469037   16.3596060
| 14>     C       16.3547251   20.2654866   15.2814459
| 15>     N       17.7896683   20.2461659   17.2206857
| 16>     C       18.6560099   19.7640542   18.1643109
| 17>     S       19.5865904   20.7676954   19.0930325
| 18>     N       18.7280431   18.3995096   18.2876940
| 19>     C       17.8705356   17.4291420   17.5810990
| 20>     C       17.1129183   16.5121796   18.5328047
| 21>     C       17.4535737   15.1511687   18.6396825
| 22>     C       16.7462263   14.3048180   19.5100387
| 23>     C       15.6922969   14.8248064   20.2809539
| 24>     C       15.3543136   16.1814732   20.1791435
| 25>     O       14.3371556   16.6859284   20.9219819
| 26>     C       16.0599798   17.0211521   19.3117857
| 27>     H       14.4140353   15.1253110   16.7097839
| 28>     H       13.8598091   14.0908442   15.3774015
| 29>     H       13.9404074   15.8429491   15.1493086
| 30>     H       16.2964838   13.8694776   15.4707423
| 31>     H       15.9099562   14.8348416   14.0298143
| 32>     H       16.7529237   20.0082927   14.2916431
| 33>     H       16.4796012   21.3460467   15.4182834
| 34>     H       15.2765219   20.0606810   15.2640015
| 35>     H       17.7616720   21.2488444   17.1267155
| 36>     H       19.3514030   18.0748617   19.0159756
| 37>     H       18.6280613   16.8651608   17.0185756
| 38>     H       18.2636932   14.7472396   18.0383981
| 39>     H       17.0147558   13.2525134   19.5847820
| 40>     H       15.1430809   14.1752981   20.9546048
| 41>     H       13.9960696   15.9675783   21.4755899
| 42>     H       15.7874859   18.0693747   19.2485632
| 43> *
| 44>
| 45>                          ****END OF INPUT****

CARTESIAN COORDINATES (ANGSTROEM)
---------------------------------
  C     14.440470   14.988544   15.621072
  C     15.896138   14.832108   15.127992
  O     16.728060   15.896657   15.632105
  C     16.396863   17.212596   15.458504
  O     15.697308   17.589409   14.533594
  C     16.975911   18.100888   16.526283
  C     17.034251   19.446904   16.359606
  C     16.354725   20.265487   15.281446
  N     17.789668   20.246166   17.220686
  C     18.656010   19.764054   18.164311
  S     19.586590   20.767695   19.093032
  N     18.728043   18.399510   18.287694
  C     17.870536   17.429142   17.581099
  C     17.112918   16.512180   18.532805
  C     17.453574   15.151169   18.639682
  C     16.746226   14.304818   19.510039
  C     15.692297   14.824806   20.280954
  C     15.354314   16.181473   20.179143
  O     14.337156   16.685928   20.921982
  C     16.059980   17.021152   19.311786
  H     14.414035   15.125311   16.709784
  H     13.859809   14.090844   15.377401
  H     13.940407   15.842949   15.149309
  H     16.296484   13.869478   15.470742
  H     15.909956   14.834842   14.029814
  H     16.752924   20.008293   14.291643
  H     16.479601   21.346047   15.418283
  H     15.276522   20.060681   15.264001
  H     17.761672   21.248844   17.126715
  H     19.351403   18.074862   19.015976
  H     18.628061   16.865161   17.018576
  H     18.263693   14.747240   18.038398
  H     17.014756   13.252513   19.584782
  H     15.143081   14.175298   20.954605
  H     13.996070   15.967578   21.475590
  H     15.787486   18.069375   19.248563

 Total Charge           Charge          ....    0
 Multiplicity           Mult            ....    1
 Number of Electrons    NEL             ....  154
 Basis Dimension        Dim             ....  828

ORBITAL ENERGIES
----------------

  NO   OCC          E(Eh)            E(eV)
   0   2.0000     -91.888927     -2500.4248
   1   2.0000     -20.597564      -560.4882
   2   2.0000     -20.596334      -560.4547
   3   2.0000     -20.541215      -558.9549
   4   2.0000     -15.629309      -425.2951
   5   2.0000     -15.607113      -424.6911
   6   2.0000     -11.394986      -310.0733
   7   2.0000     -11.383680      -309.7657
   8   2.0000     -11.337261      -308.5026
   9   2.0000     -11.314899      -307.8940
  10   2.0000     -11.307433      -307.6909
  11   2.0000     -11.298910      -307.4590
  12   2.0000     -11.261631      -306.4446
  13   2.0000     -11.258836      -306.3685
  14   2.0000     -11.256275      -306.2988
  15   2.0000     -11.251757      -306.1759
  16   2.0000     -11.244757      -305.9854
  17   2.0000     -11.239956      -305.8548
  18   2.0000     -11.239630      -305.8459
  19   2.0000     -11.222487      -305.3794
  20   2.0000      -8.893996      -242.0179
  21   2.0000      -6.575569      -178.9303
  22   2.0000      -6.573571      -178.8760
  23   2.0000      -6.572980      -178.8599
  24   2.0000      -1.448113       -39.4052
  25   2.0000      -1.417263       -38.5657
  26   2.0000      -1.352999       -36.8170
  27   2.0000      -1.340317       -36.4719
  28   2.0000      -1.238251       -33.6945
  29   2.0000      -1.158587       -31.5268
  30   2.0000      -1.121296       -30.5120
  31   2.0000      -1.043427       -28.3931
  32   2.0000      -1.034356       -28.1463
  33   2.0000      -1.016051       -27.6481
  34   2.0000      -0.996207       -27.1082
  35   2.0000      -0.984744       -26.7963
  36   2.0000      -0.922156       -25.0931
  37   2.0000      -0.896269       -24.3887
  38   2.0000      -0.846802       -23.0427
  39   2.0000      -0.838844       -22.8261
  40   2.0000      -0.835167       -22.7261
  41   2.0000      -0.816079       -22.2066
  42   2.0000      -0.750301       -20.4167
  43   2.0000      -0.734152       -19.9773
  44   2.0000      -0.722109       -19.6496
  45   2.0000      -0.696299       -18.9473
  46   2.0000      -0.689114       -18.7518
  47   2.0000      -0.677474       -18.4350
  48   2.0000      -0.671602       -18.2752
  49   2.0000      -0.658846       -17.9281
  50   2.0000      -0.647821       -17.6281
  51   2.0000      -0.639670       -17.4063
  52   2.0000      -0.633974       -17.2513
  53   2.0000      -0.615884       -16.7591
  54   2.0000      -0.607605       -16.5338
  55   2.0000      -0.601108       -16.3570
  56   2.0000      -0.599785       -16.3210
  57   2.0000      -0.578060       -15.7298
  58   2.0000      -0.570189       -15.5156
  59   2.0000      -0.566575       -15.4173
  60   2.0000      -0.556786       -15.1509
  61   2.0000      -0.544402       -14.8139
  62   2.0000      -0.534565       -14.5463
  63   2.0000      -0.526257       -14.3202
  64   2.0000      -0.524411       -14.2699
  65   2.0000      -0.513300       -13.9676
  66   2.0000      -0.500567       -13.6211
  67   2.0000      -0.498367       -13.5613
  68   2.0000      -0.483084       -13.1454
  69   2.0000      -0.463649       -12.6165
  70   2.0000      -0.454829       -12.3765
  71   2.0000      -0.444509       -12.0957
  72   2.0000      -0.353186        -9.6107
  73   2.0000      -0.350634        -9.5412
  74   2.0000      -0.328190        -8.9305
  75   2.0000      -0.322262        -8.7692
  76   2.0000      -0.318130        -8.6568
  77   0.0000       0.076547         2.0830
  78   0.0000       0.103948         2.8286
  79   0.0000       0.124787         3.3956
  80   0.0000       0.132125         3.5953
  81   0.0000       0.137066         3.7298

MULLIKEN ATOMIC CHARGES
-----------------------
   0 C :   -0.318399
   1 C :    0.030678
   2 O :   -0.363312
   3 C :    0.457124
   4 O :   -0.439193
   5 C :   -0.237417
   6 C :    0.173368
   7 C :   -0.268096
   8 N :   -0.125555
   9 C :    0.210949
  10 S :   -0.441838
  11 N :   -0.215968
  12 C :    0.069294
  13 C :    0.034362
  14 C :   -0.181652
  15 C :   -0.133192
  16 C :   -0.276682
  17 C :    0.314682
  18 O :   -0.356921
  19 C :   -0.246607
  20 H :    0.108242
  21 H :    0.098246
  22 H :    0.122382
  23 H :    0.110019
  24 H :    0.113607
  25 H :    0.129489
  26 H :    0.094814
  27 H :    0.133563
  28 H :    0.199598
  29 H :    0.200273
  30 H :    0.153118
  31 H :    0.154739
  32 H :    0.161044
  33 H :    0.131013
  34 H :    0.240682
  35 H :    0.163544
Sum of atomic charges:    0.0000000

LOEWDIN ATOMIC CHARGES
----------------------
   0 C :    0.105151
   1 C :   -0.015798
   2 O :    0.302150
   3 C :   -0.414089
   4 O :    0.098049
   5 C :   -0.095323
   6 C :   -0.056638
   7 C :    0.131378
   8 N :    0.407175
   9 C :   -0.456138
  10 S :   -0.036548
  11 N :    0.394577
  12 C :   -0.054175
  13 C :   -0.040024
  14 C :    0.017149
  15 C :    0.038674
  16 C :   -0.001115
  17 C :   -0.190465
  18 O :    0.395459
  19 C :    0.032798
  20 H :   -0.026307
  21 H :   -0.026920
  22 H :   -0.026111
  23 H :   -0.025045
  24 H :   -0.028344
  25 H :   -0.004834
  26 H :   -0.023620
  27 H :   -0.004413
  28 H :   -0.057148
  29 H :   -0.064518
  30 H :   -0.013340
  31 H :   -0.028774
  32 H :   -0.021207
  33 H :   -0.035227
  34 H :   -0.153807
  35 H :   -0.022635

  Mayer bond orders larger than 0.100000
B(  0-C ,  1-C ) :   0.9570 B(  0-C , 20-H ) :   0.9719 B(  0-C , 21-H ) :   0.9779
B(  0-C , 22-H ) :   0.9737 B(  1-C ,  2-O ) :   0.8963 B(  1-C , 23-H ) :   0.9835
B(  1-C , 24-H ) :   0.9843 B(  2-O ,  3-C ) :   1.1471 B(  3-C ,  4-O ) :   1.9613
B(  3-C ,  5-C ) :   1.0661 B(  5-C ,  6-C ) :   1.6400 B(  5-C , 12-C ) :   0.9551
B(  6-C ,  7-C ) :   0.9643 B(  6-C ,  8-N ) :   1.1562 B(  7-C , 25-H ) :   0.9592
B(  7-C , 26-H ) :   0.9902 B(  7-C , 27-H ) :   0.9614 B(  8-N ,  9-C ) :   1.1869
B(  8-N , 28-H ) :   0.9464 B(  9-C , 10-S ) :   1.6061 B(  9-C , 11-N ) :   1.3090
B( 11-N , 12-C ) :   0.9704 B( 11-N , 29-H ) :   0.9486 B( 12-C , 13-C ) :   0.9607
B( 12-C , 30-H ) :   0.9998 B( 13-C , 14-C ) :   1.3544 B( 13-C , 19-C ) :   1.3808
B( 14-C , 15-C ) :   1.3928 B( 14-C , 31-H ) :   0.9707 B( 15-C , 16-C ) :   1.3593
B( 15-C , 32-H ) :   0.9708 B( 16-C , 17-C ) :   1.3334 B( 16-C , 33-H ) :   0.9848
B( 17-C , 18-O ) :   1.1057 B( 17-C , 19-C ) :   1.3646 B( 18-O , 34-H ) :   0.9797
B( 19-C , 35-H ) :   0.9594

MP2 TOTAL ENERGY:    -1274.341559378 Eh
FINAL SINGLE POINT ENERGY     -1274.341559377688

DIPOLE MOMENT
-------------
                                X             Y             Z
Electronic contribution:      9.67977       9.92230       7.70218
Nuclear contribution   :    -10.66864     -11.67877      -8.03163
                        -----------------------------------------
Total Dipole Moment    :     -0.98887      -1.75646      -0.32945
                        -----------------------------------------
Magnitude (a.u.)       :      2.04244
Magnitude (Debye)      :      5.19147

Rotational constants in cm-1:     0.011963     0.008599     0.006044
Rotational constants in MHz :   358.633416   257.783557   181.184164

                             ****ORCA TERMINATED NORMALLY****
TOTAL RUN TIME: 0 days 1 hours 47 minutes 47 seconds 841 msec
