                         Program Version 4.2.0 -  RELEASE  -
|  1> ! ri-mp2 cc-pvtz cc-pvtz/c TightSCF NoKeepInts
|  2>
|  3> %scf
|  4>   MaxCore 4096
|  5> end
|  6> *xyz  0  1
|  7>     C       14.0554150   15.1501466   15.3611730
|  8>     C       14.9929578   16.3669554   15.4173584
|  9>     O       16.3248147   15.8816424   15.1609730
| 10>     C       17.4691215   16.4966190   15.6028921
| 11>     O       18.5692119   16.0272174   15.3803097
| 12>     C       17.2848317   17.6630312   16.5130048
| 13>     C       16.9765446   18.8758674   15.9963562
| 14>     C       16.5420615   19.1765645   14.5764226
| 15>     N       17.1212126   20.0357970   16.7591729
| 16>     C       17.7981435   20.0902298   17.9496182
| 17>     S       18.0342573   21.5163493   18.7524476
| 18>     N       18.2918464   18.9009667   18.4288770
| 19>     C       18.0136281   17.5704494   17.8511946
| 20>     C       17.3667525   16.5738504   18.8002761
| 21>     C       17.8155069   15.2415595   18.8358410
| 22>     C       17.2072552   14.3063500   19.6896028
| 23>     C       16.1389881   14.7065185   20.5106781
| 24>     C       15.6849831   16.0320688   20.4706816
| 25>     O       14.6467614   16.4183240   21.2539940
| 26>     C       16.2916733   16.9611140   19.6191511
| 27>     H       14.3421371   14.4076987   16.1168739
| 28>     H       14.0998764   14.6725501   14.3742838
| 29>     H       13.0182292   15.4513562   15.5519382
| 30>     H       14.6949586   17.1104983   14.6682337
| 31>     H       14.9107135   16.8091642   16.4191965
| 32>     H       16.7364983   18.3433477   13.8898326
| 33>     H       17.0889043   20.0391281   14.1738242
| 34>     H       15.4712125   19.4091148   14.5325409
| 35>     H       16.8006774   20.9210700   16.3991055
| 36>     H       18.7851788   18.9678318   19.3105085
| 37>     H       19.0370858   17.2470585   17.6079993
| 38>     H       18.6333193   14.9283357   18.1897354
| 39>     H       17.5616712   13.2770195   19.7084790
| 40>     H       15.6654084   13.9866216   21.1700660
| 41>     H       14.3920174   15.6560639   21.7956688
| 42>     H       15.9231451   17.9815195   19.5996888
| 43> *
| 44>
| 45>                          ****END OF INPUT****

CARTESIAN COORDINATES (ANGSTROEM)
---------------------------------
  C     14.055415   15.150147   15.361173
  C     14.992958   16.366955   15.417358
  O     16.324815   15.881642   15.160973
  C     17.469121   16.496619   15.602892
  O     18.569212   16.027217   15.380310
  C     17.284832   17.663031   16.513005
  C     16.976545   18.875867   15.996356
  C     16.542061   19.176564   14.576423
  N     17.121213   20.035797   16.759173
  C     17.798143   20.090230   17.949618
  S     18.034257   21.516349   18.752448
  N     18.291846   18.900967   18.428877
  C     18.013628   17.570449   17.851195
  C     17.366752   16.573850   18.800276
  C     17.815507   15.241559   18.835841
  C     17.207255   14.306350   19.689603
  C     16.138988   14.706518   20.510678
  C     15.684983   16.032069   20.470682
  O     14.646761   16.418324   21.253994
  C     16.291673   16.961114   19.619151
  H     14.342137   14.407699   16.116874
  H     14.099876   14.672550   14.374284
  H     13.018229   15.451356   15.551938
  H     14.694959   17.110498   14.668234
  H     14.910713   16.809164   16.419197
  H     16.736498   18.343348   13.889833
  H     17.088904   20.039128   14.173824
  H     15.471213   19.409115   14.532541
  H     16.800677   20.921070   16.399106
  H     18.785179   18.967832   19.310508
  H     19.037086   17.247059   17.607999
  H     18.633319   14.928336   18.189735
  H     17.561671   13.277019   19.708479
  H     15.665408   13.986622   21.170066
  H     14.392017   15.656064   21.795669
  H     15.923145   17.981520   19.599689

 Total Charge           Charge          ....    0
 Multiplicity           Mult            ....    1
 Number of Electrons    NEL             ....  154
 Basis Dimension        Dim             ....  828

ORBITAL ENERGIES
----------------

  NO   OCC          E(Eh)            E(eV)
   0   2.0000     -91.889203     -2500.4323
   1   2.0000     -20.606089      -560.7202
   2   2.0000     -20.600106      -560.5574
   3   2.0000     -20.550968      -559.2203
   4   2.0000     -15.626383      -425.2155
   5   2.0000     -15.609661      -424.7605
   6   2.0000     -11.399577      -310.1983
   7   2.0000     -11.385396      -309.8124
   8   2.0000     -11.330665      -308.3231
   9   2.0000     -11.317636      -307.9685
  10   2.0000     -11.311412      -307.7992
  11   2.0000     -11.306525      -307.6662
  12   2.0000     -11.268634      -306.6351
  13   2.0000     -11.265612      -306.5529
  14   2.0000     -11.262876      -306.4784
  15   2.0000     -11.258105      -306.3486
  16   2.0000     -11.246550      -306.0342
  17   2.0000     -11.242717      -305.9299
  18   2.0000     -11.240619      -305.8728
  19   2.0000     -11.233947      -305.6912
  20   2.0000      -8.894319      -242.0267
  21   2.0000      -6.575904      -178.9394
  22   2.0000      -6.573888      -178.8846
  23   2.0000      -6.573309      -178.8688
  24   2.0000      -1.449912       -39.4541
  25   2.0000      -1.419800       -38.6347
  26   2.0000      -1.363710       -37.1084
  27   2.0000      -1.339944       -36.4617
  28   2.0000      -1.238836       -33.7104
  29   2.0000      -1.162014       -31.6200
  30   2.0000      -1.126773       -30.6611
  31   2.0000      -1.049198       -28.5501
  32   2.0000      -1.042409       -28.3654
  33   2.0000      -1.019832       -27.7510
  34   2.0000      -1.006387       -27.3852
  35   2.0000      -0.989582       -26.9279
  36   2.0000      -0.926820       -25.2200
  37   2.0000      -0.882938       -24.0260
  38   2.0000      -0.856007       -23.2931
  39   2.0000      -0.842209       -22.9177
  40   2.0000      -0.838195       -22.8084
  41   2.0000      -0.836779       -22.7699
  42   2.0000      -0.758055       -20.6277
  43   2.0000      -0.740163       -20.1409
  44   2.0000      -0.732343       -19.9281
  45   2.0000      -0.698026       -18.9943
  46   2.0000      -0.690567       -18.7913
  47   2.0000      -0.684136       -18.6163
  48   2.0000      -0.674759       -18.3611
  49   2.0000      -0.662297       -18.0220
  50   2.0000      -0.659216       -17.9382
  51   2.0000      -0.647951       -17.6316
  52   2.0000      -0.638445       -17.3730
  53   2.0000      -0.613539       -16.6952
  54   2.0000      -0.609034       -16.5726
  55   2.0000      -0.603486       -16.4217
  56   2.0000      -0.598017       -16.2729
  57   2.0000      -0.582083       -15.8393
  58   2.0000      -0.578550       -15.7431
  59   2.0000      -0.570291       -15.5184
  60   2.0000      -0.561284       -15.2733
  61   2.0000      -0.558394       -15.1947
  62   2.0000      -0.553936       -15.0734
  63   2.0000      -0.530141       -14.4259
  64   2.0000      -0.519766       -14.1436
  65   2.0000      -0.514607       -14.0032
  66   2.0000      -0.507575       -13.8118
  67   2.0000      -0.501990       -13.6599
  68   2.0000      -0.488711       -13.2985
  69   2.0000      -0.470621       -12.8062
  70   2.0000      -0.456437       -12.4203
  71   2.0000      -0.452305       -12.3078
  72   2.0000      -0.355556        -9.6752
  73   2.0000      -0.352187        -9.5835
  74   2.0000      -0.328832        -8.9480
  75   2.0000      -0.325233        -8.8500
  76   2.0000      -0.319084        -8.6827
  77   0.0000       0.088932         2.4200
  78   0.0000       0.103045         2.8040
  79   0.0000       0.115298         3.1374
  80   0.0000       0.129018         3.5107
  81   0.0000       0.129891         3.5345

MULLIKEN ATOMIC CHARGES
-----------------------
   0 C :   -0.255040
   1 C :    0.024283
   2 O :   -0.302702
   3 C :    0.407850
   4 O :   -0.382395
   5 C :   -0.213630
   6 C :    0.165438
   7 C :   -0.341446
   8 N :   -0.140672
   9 C :    0.210490
  10 S :   -0.443989
  11 N :   -0.223575
  12 C :    0.056078
  13 C :    0.033541
  14 C :   -0.223035
  15 C :   -0.127436
  16 C :   -0.277064
  17 C :    0.316043
  18 O :   -0.355527
  19 C :   -0.258643
  20 H :    0.105636
  21 H :    0.101737
  22 H :    0.087579
  23 H :    0.087768
  24 H :    0.104639
  25 H :    0.129957
  26 H :    0.135195
  27 H :    0.125790
  28 H :    0.197403
  29 H :    0.202536
  30 H :    0.168445
  31 H :    0.173021
  32 H :    0.164702
  33 H :    0.131685
  34 H :    0.241423
  35 H :    0.173917
Sum of atomic charges:   -0.0000000

LOEWDIN ATOMIC CHARGES
----------------------
   0 C :    0.111605
   1 C :   -0.023509
   2 O :    0.311022
   3 C :   -0.416476
   4 O :    0.119205
   5 C :   -0.082589
   6 C :   -0.095143
   7 C :    0.124377
   8 N :    0.402019
   9 C :   -0.455665
  10 S :   -0.039161
  11 N :    0.396034
  12 C :   -0.050199
  13 C :   -0.043686
  14 C :    0.019517
  15 C :    0.045561
  16 C :    0.000239
  17 C :   -0.190756
  18 O :    0.395238
  19 C :    0.027138
  20 H :   -0.022173
  21 H :   -0.025392
  22 H :   -0.025394
  23 H :   -0.036740
  24 H :   -0.033745
  25 H :   -0.008057
  26 H :   -0.009794
  27 H :   -0.017485
  28 H :   -0.057577
  29 H :   -0.063838
  30 H :   -0.003555
  31 H :   -0.021621
  32 H :   -0.018402
  33 H :   -0.034706
  34 H :   -0.153065
  35 H :   -0.023226

  Mayer bond orders larger than 0.100000
B(  0-C ,  1-C ) :   0.9834 B(  0-C , 20-H ) :   0.9782 B(  0-C , 21-H ) :   0.9789
B(  0-C , 22-H ) :   0.9769 B(  1-C ,  2-O ) :   0.9142 B(  1-C , 23-H ) :   0.9713
B(  1-C , 24-H ) :   0.9574 B(  2-O ,  3-C ) :   1.1899 B(  3-C ,  4-O ) :   2.1039
B(  3-C ,  5-C ) :   0.9129 B(  5-C ,  6-C ) :   1.7208 B(  5-C , 12-C ) :   0.9411
B(  6-C ,  7-C ) :   0.9320 B(  6-C ,  8-N ) :   1.1049 B(  7-C , 25-H ) :   0.9782
B(  7-C , 26-H ) :   0.9734 B(  7-C , 27-H ) :   0.9672 B(  8-N ,  9-C ) :   1.1997
B(  8-N , 28-H ) :   0.9516 B(  9-C , 10-S ) :   1.6091 B(  9-C , 11-N ) :   1.2893
B( 11-N , 12-C ) :   0.9838 B( 11-N , 29-H ) :   0.9471 B( 12-C , 13-C ) :   0.9678
B( 12-C , 30-H ) :   0.9894 B( 13-C , 14-C ) :   1.3832 B( 13-C , 19-C ) :   1.3527
B( 14-C , 15-C ) :   1.3945 B( 14-C , 31-H ) :   0.9614 B( 15-C , 16-C ) :   1.3624
B( 15-C , 32-H ) :   0.9694 B( 16-C , 17-C ) :   1.3306 B( 16-C , 33-H ) :   0.9850
B( 17-C , 18-O ) :   1.1095 B( 17-C , 19-C ) :   1.3645 B( 18-O , 34-H ) :   0.9792
B( 19-C , 35-H ) :   0.9564

MP2 TOTAL ENERGY:    -1274.330160187 Eh
FINAL SINGLE POINT ENERGY     -1274.330160187330

DIPOLE MOMENT
-------------
                                X             Y             Z
Electronic contribution:     10.30580       8.53265       8.38766
Nuclear contribution   :    -12.02382      -9.69931      -8.77616
                        -----------------------------------------
Total Dipole Moment    :     -1.71802      -1.16666      -0.38850
                        -----------------------------------------
Magnitude (a.u.)       :      2.11273
Magnitude (Debye)      :      5.37013

Rotational constants in cm-1:     0.010953     0.009010     0.006232
Rotational constants in MHz :   328.360026   270.123634   186.839131

                             ****ORCA TERMINATED NORMALLY****
TOTAL RUN TIME: 0 days 1 hours 41 minutes 47 seconds 740 msec
