                         Program Version 4.2.0 -  RELEASE  -
|  1> ! ri-mp2 cc-pvtz cc-pvtz/c TightSCF NoKeepInts
|  2>
|  3> %scf
|  4>   MaxCore 4096
|  5> end
|  6> *xyz  0  1
|  7>     C       14.2694857   16.6714265   15.9447390
|  8>     C       15.2422067   15.6311453   15.3530238
|  9>     O       16.3915837   16.2303201   14.7130396
| 10>     C       17.4690475   16.6211858   15.4594543
| 11>     O       18.5314481   16.0307473   15.3923302
| 12>     C       17.2127328   17.6956966   16.4610185
| 13>     C       16.7762511   18.9146162   16.0604439
| 14>     C       16.3037916   19.3140014   14.6764987
| 15>     N       16.8132632   20.0052564   16.9311529
| 16>     C       17.4905594   20.0149954   18.1222488
| 17>     S       17.5901659   21.3751930   19.0573786
| 18>     N       18.1041539   18.8416956   18.4878591
| 19>     C       17.9555499   17.5498304   17.7881686
| 20>     C       17.3985810   16.4217100   18.6435801
| 21>     C       17.9885721   15.1457850   18.6047973
| 22>     C       17.4627796   14.0924666   19.3713882
| 23>     C       16.3352627   14.3166754   20.1800774
| 24>     C       15.7412372   15.5857797   20.2147819
| 25>     O       14.6465223   15.8027214   20.9861779
| 26>     C       16.2661447   16.6321455   19.4496340
| 27>     H       14.6770234   17.1560085   16.8384212
| 28>     H       13.3379755   16.1767300   16.2461386
| 29>     H       14.0124526   17.4341289   15.2016308
| 30>     H       15.5652266   14.9302557   16.1355749
| 31>     H       14.6973234   15.0489712   14.5985275
| 32>     H       15.2097159   19.3402384   14.6240857
| 33>     H       16.6615442   18.6311178   13.8969268
| 34>     H       16.6743025   20.3099066   14.4023091
| 35>     H       16.3972309   20.8817683   16.6583548
| 36>     H       18.5934493   18.8745639   19.3735247
| 37>     H       19.0043728   17.3468404   17.5246596
| 38>     H       18.8531749   14.9688587   17.9679287
| 39>     H       17.9277375   13.1086196   19.3337832
| 40>     H       15.9255871   13.5055255   20.7730472
| 41>     H       14.4704764   14.9864965   21.4782380
| 42>     H       15.7900681   17.6065765   19.4870565
| 43> *
| 44>
| 45>                          ****END OF INPUT****

CARTESIAN COORDINATES (ANGSTROEM)
---------------------------------
  C     14.269486   16.671426   15.944739
  C     15.242207   15.631145   15.353024
  O     16.391584   16.230320   14.713040
  C     17.469047   16.621186   15.459454
  O     18.531448   16.030747   15.392330
  C     17.212733   17.695697   16.461019
  C     16.776251   18.914616   16.060444
  C     16.303792   19.314001   14.676499
  N     16.813263   20.005256   16.931153
  C     17.490559   20.014995   18.122249
  S     17.590166   21.375193   19.057379
  N     18.104154   18.841696   18.487859
  C     17.955550   17.549830   17.788169
  C     17.398581   16.421710   18.643580
  C     17.988572   15.145785   18.604797
  C     17.462780   14.092467   19.371388
  C     16.335263   14.316675   20.180077
  C     15.741237   15.585780   20.214782
  O     14.646522   15.802721   20.986178
  C     16.266145   16.632146   19.449634
  H     14.677023   17.156008   16.838421
  H     13.337976   16.176730   16.246139
  H     14.012453   17.434129   15.201631
  H     15.565227   14.930256   16.135575
  H     14.697323   15.048971   14.598527
  H     15.209716   19.340238   14.624086
  H     16.661544   18.631118   13.896927
  H     16.674302   20.309907   14.402309
  H     16.397231   20.881768   16.658355
  H     18.593449   18.874564   19.373525
  H     19.004373   17.346840   17.524660
  H     18.853175   14.968859   17.967929
  H     17.927737   13.108620   19.333783
  H     15.925587   13.505525   20.773047
  H     14.470476   14.986496   21.478238
  H     15.790068   17.606576   19.487056

 Total Charge           Charge          ....    0
 Multiplicity           Mult            ....    1
 Number of Electrons    NEL             ....  154
 Basis Dimension        Dim             ....  828

ORBITAL ENERGIES
----------------

  NO   OCC          E(Eh)            E(eV)
   0   2.0000     -91.889767     -2500.4477
   1   2.0000     -20.600080      -560.5567
   2   2.0000     -20.589702      -560.2743
   3   2.0000     -20.555331      -559.3390
   4   2.0000     -15.627949      -425.2581
   5   2.0000     -15.609194      -424.7478
   6   2.0000     -11.396066      -310.1027
   7   2.0000     -11.385561      -309.8169
   8   2.0000     -11.333399      -308.3975
   9   2.0000     -11.317467      -307.9639
  10   2.0000     -11.309252      -307.7404
  11   2.0000     -11.307395      -307.6899
  12   2.0000     -11.264810      -306.5311
  13   2.0000     -11.262180      -306.4595
  14   2.0000     -11.259920      -306.3980
  15   2.0000     -11.257769      -306.3395
  16   2.0000     -11.246739      -306.0393
  17   2.0000     -11.242770      -305.9313
  18   2.0000     -11.239842      -305.8517
  19   2.0000     -11.232545      -305.6531
  20   2.0000      -8.894863      -242.0415
  21   2.0000      -6.576442      -178.9541
  22   2.0000      -6.574434      -178.8994
  23   2.0000      -6.573848      -178.8835
  24   2.0000      -1.447912       -39.3997
  25   2.0000      -1.419815       -38.6351
  26   2.0000      -1.359842       -37.0032
  27   2.0000      -1.340669       -36.4815
  28   2.0000      -1.239007       -33.7151
  29   2.0000      -1.161515       -31.6064
  30   2.0000      -1.125264       -30.6200
  31   2.0000      -1.047988       -28.5172
  32   2.0000      -1.036698       -28.2100
  33   2.0000      -1.019190       -27.7336
  34   2.0000      -1.004760       -27.3409
  35   2.0000      -0.989673       -26.9304
  36   2.0000      -0.926139       -25.2015
  37   2.0000      -0.892173       -24.2773
  38   2.0000      -0.851043       -23.1580
  39   2.0000      -0.841944       -22.9104
  40   2.0000      -0.837371       -22.7860
  41   2.0000      -0.829335       -22.5673
  42   2.0000      -0.755182       -20.5496
  43   2.0000      -0.737035       -20.0557
  44   2.0000      -0.730180       -19.8692
  45   2.0000      -0.697920       -18.9914
  46   2.0000      -0.688807       -18.7434
  47   2.0000      -0.679553       -18.4916
  48   2.0000      -0.674897       -18.3649
  49   2.0000      -0.663565       -18.0565
  50   2.0000      -0.653677       -17.7874
  51   2.0000      -0.644742       -17.5443
  52   2.0000      -0.638999       -17.3880
  53   2.0000      -0.612430       -16.6651
  54   2.0000      -0.606871       -16.5138
  55   2.0000      -0.603726       -16.4282
  56   2.0000      -0.598584       -16.2883
  57   2.0000      -0.594182       -16.1685
  58   2.0000      -0.578804       -15.7500
  59   2.0000      -0.573970       -15.6185
  60   2.0000      -0.563260       -15.3271
  61   2.0000      -0.555580       -15.1181
  62   2.0000      -0.544064       -14.8047
  63   2.0000      -0.528346       -14.3770
  64   2.0000      -0.522479       -14.2174
  65   2.0000      -0.512872       -13.9560
  66   2.0000      -0.501793       -13.6545
  67   2.0000      -0.491890       -13.3850
  68   2.0000      -0.490941       -13.3592
  69   2.0000      -0.466958       -12.7066
  70   2.0000      -0.458530       -12.4772
  71   2.0000      -0.452663       -12.3176
  72   2.0000      -0.354789        -9.6543
  73   2.0000      -0.352110        -9.5814
  74   2.0000      -0.329196        -8.9579
  75   2.0000      -0.324995        -8.8436
  76   2.0000      -0.319487        -8.6937
  77   0.0000       0.079903         2.1743
  78   0.0000       0.101901         2.7729
  79   0.0000       0.120732         3.2853
  80   0.0000       0.127187         3.4609
  81   0.0000       0.130045         3.5387

MULLIKEN ATOMIC CHARGES
-----------------------
   0 C :   -0.328869
   1 C :    0.041088
   2 O :   -0.358145
   3 C :    0.435411
   4 O :   -0.373109
   5 C :   -0.241525
   6 C :    0.171303
   7 C :   -0.313647
   8 N :   -0.138289
   9 C :    0.206068
  10 S :   -0.441763
  11 N :   -0.221474
  12 C :    0.073393
  13 C :    0.027640
  14 C :   -0.219122
  15 C :   -0.128352
  16 C :   -0.278765
  17 C :    0.316700
  18 O :   -0.355789
  19 C :   -0.266432
  20 H :    0.116229
  21 H :    0.122093
  22 H :    0.098480
  23 H :    0.099042
  24 H :    0.118695
  25 H :    0.122614
  26 H :    0.134630
  27 H :    0.124181
  28 H :    0.199210
  29 H :    0.201184
  30 H :    0.165870
  31 H :    0.175628
  32 H :    0.165150
  33 H :    0.132320
  34 H :    0.241355
  35 H :    0.176998
Sum of atomic charges:    0.0000000

LOEWDIN ATOMIC CHARGES
----------------------
   0 C :    0.103131
   1 C :   -0.013319
   2 O :    0.285224
   3 C :   -0.419585
   4 O :    0.130105
   5 C :   -0.087348
   6 C :   -0.078915
   7 C :    0.127133
   8 N :    0.404277
   9 C :   -0.456556
  10 S :   -0.037612
  11 N :    0.395805
  12 C :   -0.049857
  13 C :   -0.044057
  14 C :    0.019889
  15 C :    0.043060
  16 C :   -0.000616
  17 C :   -0.191963
  18 O :    0.395222
  19 C :    0.028396
  20 H :   -0.034726
  21 H :   -0.022383
  22 H :   -0.031821
  23 H :   -0.027178
  24 H :   -0.019820
  25 H :   -0.017368
  26 H :   -0.008379
  27 H :   -0.013622
  28 H :   -0.056681
  29 H :   -0.064022
  30 H :   -0.004610
  31 H :   -0.021535
  32 H :   -0.018779
  33 H :   -0.034768
  34 H :   -0.153151
  35 H :   -0.023571

  Mayer bond orders larger than 0.100000
B(  0-C ,  1-C ) :   0.9615 B(  0-C , 20-H ) :   0.9687 B(  0-C , 21-H ) :   0.9785
B(  0-C , 22-H ) :   0.9766 B(  1-C ,  2-O ) :   0.9005 B(  1-C , 23-H ) :   0.9750
B(  1-C , 24-H ) :   0.9839 B(  2-O ,  3-C ) :   1.1152 B(  3-C ,  4-O ) :   2.1017
B(  3-C ,  5-C ) :   0.9415 B(  5-C ,  6-C ) :   1.7006 B(  5-C , 12-C ) :   0.9353
B(  6-C ,  7-C ) :   0.9480 B(  6-C ,  8-N ) :   1.1173 B(  7-C , 25-H ) :   0.9648
B(  7-C , 26-H ) :   0.9707 B(  7-C , 27-H ) :   0.9792 B(  8-N ,  9-C ) :   1.1951
B(  8-N , 28-H ) :   0.9502 B(  9-C , 10-S ) :   1.6119 B(  9-C , 11-N ) :   1.2908
B( 11-N , 12-C ) :   0.9836 B( 11-N , 29-H ) :   0.9485 B( 12-C , 13-C ) :   0.9662
B( 12-C , 30-H ) :   0.9909 B( 13-C , 14-C ) :   1.3836 B( 13-C , 19-C ) :   1.3475
B( 14-C , 15-C ) :   1.3939 B( 14-C , 31-H ) :   0.9596 B( 15-C , 16-C ) :   1.3615
B( 15-C , 32-H ) :   0.9697 B( 16-C , 17-C ) :   1.3307 B( 16-C , 33-H ) :   0.9847
B( 17-C , 18-O ) :   1.1098 B( 17-C , 19-C ) :   1.3659 B( 18-O , 34-H ) :   0.9794
B( 19-C , 35-H ) :   0.9555

MP2 TOTAL ENERGY:    -1274.324126183 Eh
FINAL SINGLE POINT ENERGY     -1274.324126183385

DIPOLE MOMENT
-------------
                                X             Y             Z
Electronic contribution:      9.14090       6.41123       7.02669
Nuclear contribution   :    -10.55276      -7.83894      -7.43534
                        -----------------------------------------
Total Dipole Moment    :     -1.41186      -1.42771      -0.40865
                        -----------------------------------------
Magnitude (a.u.)       :      2.04908
Magnitude (Debye)      :      5.20834

Rotational constants in cm-1:     0.011594     0.009191     0.006596
Rotational constants in MHz :   347.581830   275.551256   197.738533

                             ****ORCA TERMINATED NORMALLY****
TOTAL RUN TIME: 0 days 1 hours 46 minutes 6 seconds 417 msec
