                         Program Version 4.2.0 -  RELEASE  -
|  1> ! ri-mp2 cc-pvtz cc-pvtz/c TightSCF NoKeepInts
|  2>
|  3> %scf
|  4>   MaxCore 4096
|  5> end
|  6> *xyz  0  1
|  7>     C       15.6375071   13.7690636   15.2466200
|  8>     C       15.3977809   15.2165221   14.7856168
|  9>     O       15.8118070   16.0778320   15.8578796
| 10>     C       15.4383325   17.3918920   15.8428432
| 11>     O       14.5234727   17.7941051   15.1439896
| 12>     C       16.3343790   18.2594091   16.6870922
| 13>     C       16.3203440   19.6111023   16.5556445
| 14>     C       15.2987372   20.4501021   15.8159135
| 15>     N       17.3215101   20.4006292   17.1259719
| 16>     C       18.4706108   19.9101855   17.6843403
| 17>     S       19.6611776   20.9059239   18.2559372
| 18>     N       18.5945245   18.5446879   17.7260592
| 19>     C       17.5489497   17.5778785   17.3409250
| 20>     C       17.1923674   16.6207675   18.4708363
| 21>     C       17.5313065   15.2574929   18.3903036
| 22>     C       17.2026759   14.3775698   19.4352482
| 23>     C       16.5338838   14.8662474   20.5707906
| 24>     C       16.1995315   16.2250689   20.6549136
| 25>     O       15.5551177   16.6995927   21.7506835
| 26>     C       16.5277643   17.0982664   19.6131269
| 27>     H       16.7022746   13.5972928   15.4459971
| 28>     H       15.3127085   13.0604370   14.4750933
| 29>     H       15.0750274   13.5592589   16.1652621
| 30>     H       15.9662158   15.4349050   13.8720801
| 31>     H       14.3276241   15.3494078   14.5743183
| 32>     H       15.3602404   20.2710007   14.7349777
| 33>     H       15.4244897   21.5264219   15.9823940
| 34>     H       14.2812711   20.1889812   16.1343765
| 35>     H       17.2525181   21.4048074   17.0828137
| 36>     H       19.4375246   18.2120559   18.1768119
| 37>     H       18.0663037   17.0453810   16.5305100
| 38>     H       18.0423933   14.8779590   17.5098445
| 39>     H       17.4641766   13.3234554   19.3626318
| 40>     H       16.2775204   14.1906751   21.3801333
| 41>     H       15.4283537   15.9557973   22.3584858
| 42>     H       16.2665779   18.1478246   19.6975339
| 43> *
| 44>
| 45>                          ****END OF INPUT****

CARTESIAN COORDINATES (ANGSTROEM)
---------------------------------
  C     15.637507   13.769064   15.246620
  C     15.397781   15.216522   14.785617
  O     15.811807   16.077832   15.857880
  C     15.438332   17.391892   15.842843
  O     14.523473   17.794105   15.143990
  C     16.334379   18.259409   16.687092
  C     16.320344   19.611102   16.555644
  C     15.298737   20.450102   15.815913
  N     17.321510   20.400629   17.125972
  C     18.470611   19.910186   17.684340
  S     19.661178   20.905924   18.255937
  N     18.594524   18.544688   17.726059
  C     17.548950   17.577879   17.340925
  C     17.192367   16.620767   18.470836
  C     17.531306   15.257493   18.390304
  C     17.202676   14.377570   19.435248
  C     16.533884   14.866247   20.570791
  C     16.199531   16.225069   20.654914
  O     15.555118   16.699593   21.750683
  C     16.527764   17.098266   19.613127
  H     16.702275   13.597293   15.445997
  H     15.312708   13.060437   14.475093
  H     15.075027   13.559259   16.165262
  H     15.966216   15.434905   13.872080
  H     14.327624   15.349408   14.574318
  H     15.360240   20.271001   14.734978
  H     15.424490   21.526422   15.982394
  H     14.281271   20.188981   16.134376
  H     17.252518   21.404807   17.082814
  H     19.437525   18.212056   18.176812
  H     18.066304   17.045381   16.530510
  H     18.042393   14.877959   17.509844
  H     17.464177   13.323455   19.362632
  H     16.277520   14.190675   21.380133
  H     15.428354   15.955797   22.358486
  H     16.266578   18.147825   19.697534

 Total Charge           Charge          ....    0
 Multiplicity           Mult            ....    1
 Number of Electrons    NEL             ....  154
 Basis Dimension        Dim             ....  828

ORBITAL ENERGIES
----------------

  NO   OCC          E(Eh)            E(eV)
   0   2.0000     -91.888616     -2500.4164
   1   2.0000     -20.601148      -560.5857
   2   2.0000     -20.595173      -560.4231
   3   2.0000     -20.541799      -558.9708
   4   2.0000     -15.628871      -425.2832
   5   2.0000     -15.606860      -424.6842
   6   2.0000     -11.395063      -310.0754
   7   2.0000     -11.383266      -309.7544
   8   2.0000     -11.337055      -308.4970
   9   2.0000     -11.312240      -307.8217
  10   2.0000     -11.307469      -307.6919
  11   2.0000     -11.297563      -307.4223
  12   2.0000     -11.259777      -306.3941
  13   2.0000     -11.259558      -306.3881
  14   2.0000     -11.253684      -306.2283
  15   2.0000     -11.251430      -306.1670
  16   2.0000     -11.242425      -305.9219
  17   2.0000     -11.237913      -305.7992
  18   2.0000     -11.237770      -305.7953
  19   2.0000     -11.231913      -305.6359
  20   2.0000      -8.893695      -242.0097
  21   2.0000      -6.575270      -178.9222
  22   2.0000      -6.573269      -178.8678
  23   2.0000      -6.572680      -178.8517
  24   2.0000      -1.453000       -39.5381
  25   2.0000      -1.414850       -38.5000
  26   2.0000      -1.355013       -36.8718
  27   2.0000      -1.340170       -36.4679
  28   2.0000      -1.238088       -33.6901
  29   2.0000      -1.156545       -31.4712
  30   2.0000      -1.120750       -30.4972
  31   2.0000      -1.043498       -28.3950
  32   2.0000      -1.040369       -28.3099
  33   2.0000      -1.013858       -27.5885
  34   2.0000      -0.996270       -27.1099
  35   2.0000      -0.984553       -26.7910
  36   2.0000      -0.921342       -25.0710
  37   2.0000      -0.888444       -24.1758
  38   2.0000      -0.846052       -23.0222
  39   2.0000      -0.837082       -22.7782
  40   2.0000      -0.833038       -22.6681
  41   2.0000      -0.818215       -22.2648
  42   2.0000      -0.766120       -20.8472
  43   2.0000      -0.732184       -19.9237
  44   2.0000      -0.720648       -19.6098
  45   2.0000      -0.695008       -18.9121
  46   2.0000      -0.689501       -18.7623
  47   2.0000      -0.679262       -18.4836
  48   2.0000      -0.671069       -18.2607
  49   2.0000      -0.666076       -18.1249
  50   2.0000      -0.645333       -17.5604
  51   2.0000      -0.643706       -17.5161
  52   2.0000      -0.635048       -17.2805
  53   2.0000      -0.605968       -16.4892
  54   2.0000      -0.601282       -16.3617
  55   2.0000      -0.597979       -16.2718
  56   2.0000      -0.594198       -16.1690
  57   2.0000      -0.577666       -15.7191
  58   2.0000      -0.569363       -15.4931
  59   2.0000      -0.566835       -15.4244
  60   2.0000      -0.562451       -15.3051
  61   2.0000      -0.549872       -14.9628
  62   2.0000      -0.539855       -14.6902
  63   2.0000      -0.524314       -14.2673
  64   2.0000      -0.522514       -14.2183
  65   2.0000      -0.512717       -13.9517
  66   2.0000      -0.504723       -13.7342
  67   2.0000      -0.497241       -13.5306
  68   2.0000      -0.483456       -13.1555
  69   2.0000      -0.462499       -12.5852
  70   2.0000      -0.460730       -12.5371
  71   2.0000      -0.447737       -12.1835
  72   2.0000      -0.352875        -9.6022
  73   2.0000      -0.348867        -9.4932
  74   2.0000      -0.327746        -8.9184
  75   2.0000      -0.319752        -8.7009
  76   2.0000      -0.317577        -8.6417
  77   0.0000       0.077744         2.1155
  78   0.0000       0.106080         2.8866
  79   0.0000       0.122497         3.3333
  80   0.0000       0.133159         3.6234
  81   0.0000       0.136277         3.7083

MULLIKEN ATOMIC CHARGES
-----------------------
   0 C :   -0.279818
   1 C :    0.037962
   2 O :   -0.334953
   3 C :    0.434268
   4 O :   -0.432267
   5 C :   -0.222571
   6 C :    0.172357
   7 C :   -0.268744
   8 N :   -0.126486
   9 C :    0.210357
  10 S :   -0.442518
  11 N :   -0.213515
  12 C :    0.044349
  13 C :    0.049440
  14 C :   -0.172512
  15 C :   -0.135406
  16 C :   -0.275016
  17 C :    0.316471
  18 O :   -0.357148
  19 C :   -0.246169
  20 H :    0.088500
  21 H :    0.103293
  22 H :    0.106688
  23 H :    0.084521
  24 H :    0.110388
  25 H :    0.128483
  26 H :    0.094312
  27 H :    0.133475
  28 H :    0.199691
  29 H :    0.200185
  30 H :    0.149903
  31 H :    0.151414
  32 H :    0.159199
  33 H :    0.129389
  34 H :    0.240333
  35 H :    0.162146
Sum of atomic charges:   -0.0000000

LOEWDIN ATOMIC CHARGES
----------------------
   0 C :    0.107003
   1 C :   -0.017473
   2 O :    0.311252
   3 C :   -0.412806
   4 O :    0.096525
   5 C :   -0.094473
   6 C :   -0.057109
   7 C :    0.130825
   8 N :    0.406922
   9 C :   -0.456987
  10 S :   -0.037131
  11 N :    0.394752
  12 C :   -0.055675
  13 C :   -0.039822
  14 C :    0.018658
  15 C :    0.039966
  16 C :    0.000287
  17 C :   -0.189470
  18 O :    0.394860
  19 C :    0.033798
  20 H :   -0.031469
  21 H :   -0.024283
  22 H :   -0.023374
  23 H :   -0.032545
  24 H :   -0.026851
  25 H :   -0.005445
  26 H :   -0.023643
  27 H :   -0.004102
  28 H :   -0.057121
  29 H :   -0.064270
  30 H :   -0.015431
  31 H :   -0.031327
  32 H :   -0.021631
  33 H :   -0.035434
  34 H :   -0.154174
  35 H :   -0.022800

  Mayer bond orders larger than 0.100000
B(  0-C ,  1-C ) :   0.9734 B(  0-C , 20-H ) :   0.9789 B(  0-C , 21-H ) :   0.9784
B(  0-C , 22-H ) :   0.9742 B(  1-C ,  2-O ) :   0.9065 B(  1-C , 23-H ) :   0.9777
B(  1-C , 24-H ) :   0.9774 B(  2-O ,  3-C ) :   1.1757 B(  3-C ,  4-O ) :   1.9726
B(  3-C ,  5-C ) :   1.0726 B(  5-C ,  6-C ) :   1.6474 B(  5-C , 12-C ) :   0.9517
B(  6-C ,  7-C ) :   0.9664 B(  6-C ,  8-N ) :   1.1528 B(  7-C , 25-H ) :   0.9581
B(  7-C , 26-H ) :   0.9903 B(  7-C , 27-H ) :   0.9622 B(  8-N ,  9-C ) :   1.1878
B(  8-N , 28-H ) :   0.9463 B(  9-C , 10-S ) :   1.6061 B(  9-C , 11-N ) :   1.3082
B( 11-N , 12-C ) :   0.9717 B( 11-N , 29-H ) :   0.9484 B( 12-C , 13-C ) :   0.9677
B( 12-C , 30-H ) :   1.0017 B( 13-C , 14-C ) :   1.3578 B( 13-C , 19-C ) :   1.3805
B( 14-C , 15-C ) :   1.3962 B( 14-C , 31-H ) :   0.9704 B( 15-C , 16-C ) :   1.3609
B( 15-C , 32-H ) :   0.9707 B( 16-C , 17-C ) :   1.3334 B( 16-C , 33-H ) :   0.9853
B( 17-C , 18-O ) :   1.1038 B( 17-C , 19-C ) :   1.3661 B( 18-O , 34-H ) :   0.9801
B( 19-C , 35-H ) :   0.9596

MP2 TOTAL ENERGY:    -1274.342731654 Eh
FINAL SINGLE POINT ENERGY     -1274.342731653885

DIPOLE MOMENT
-------------
                                X             Y             Z
Electronic contribution:      6.98937      12.32224       8.04048
Nuclear contribution   :     -7.80192     -14.08685      -8.43650
                        -----------------------------------------
Total Dipole Moment    :     -0.81255      -1.76462      -0.39602
                        -----------------------------------------
Magnitude (a.u.)       :      1.98266
Magnitude (Debye)      :      5.03953

Rotational constants in cm-1:     0.010889     0.008542     0.005886
Rotational constants in MHz :   326.440747   256.096721   176.464663

                             ****ORCA TERMINATED NORMALLY****
TOTAL RUN TIME: 0 days 1 hours 44 minutes 4 seconds 581 msec
