                         Program Version 4.2.0 -  RELEASE  -
|  1> ! ri-mp2 cc-pvtz cc-pvtz/c TightSCF NoKeepInts
|  2>
|  3> %scf
|  4>   MaxCore 4096
|  5> end
|  6> *xyz  0  1
|  7>     C       15.4536494   15.2754485   13.2693493
|  8>     C       14.5870712   15.6653900   14.4828947
|  9>     O       15.2434832   16.7255521   15.2029234
| 10>     C       16.2625256   16.4405369   16.0679947
| 11>     O       16.6701367   15.3040958   16.2463964
| 12>     C       16.8007144   17.6204742   16.8298379
| 13>     C       16.7622761   18.8928298   16.3503119
| 14>     C       16.0046481   19.4176963   15.1461353
| 15>     N       17.5121890   19.9054476   16.9545188
| 16>     C       18.4869732   19.6953219   17.8917525
| 17>     S       19.4130762   20.9327098   18.4806688
| 18>     N       18.6706419   18.3988434   18.2992653
| 19>     C       17.8124607   17.2580490   17.9256440
| 20>     C       17.1877652   16.5613297   19.1274312
| 21>     C       17.3756919   15.1830423   19.3356549
| 22>     C       16.8018060   14.5433221   20.4471608
| 23>     C       16.0348898   15.2887630   21.3590457
| 24>     C       15.8447285   16.6621599   21.1529399
| 25>     O       15.1017417   17.3835165   22.0298787
| 26>     C       16.4168919   17.2959168   20.0452816
| 27>     H       15.6498507   16.1487588   12.6353333
| 28>     H       14.9423856   14.5186897   12.6621481
| 29>     H       16.4153334   14.8562782   13.5909832
| 30>     H       13.6133531   16.0219635   14.1233811
| 31>     H       14.4126296   14.7956637   15.1315037
| 32>     H       14.9236908   19.2861585   15.2809842
| 33>     H       16.3012986   18.8828150   14.2352952
| 34>     H       16.1803725   20.4847493   14.9631063
| 35>     H       17.4035654   20.8596127   16.6503302
| 36>     H       19.3800375   18.2733153   19.0102796
| 37>     H       18.5551137   16.6059868   17.4432349
| 38>     H       17.9559415   14.6032751   18.6217058
| 39>     H       16.9480786   13.4747639   20.5939477
| 40>     H       15.5885190   14.7983652   22.2176089
| 41>     H       14.8118234   16.7789270   22.7292456
| 42>     H       16.2616459   18.3602316   19.9038260
| 43> *
| 44>
| 45>                          ****END OF INPUT****

CARTESIAN COORDINATES (ANGSTROEM)
---------------------------------
  C     15.453649   15.275448   13.269349
  C     14.587071   15.665390   14.482895
  O     15.243483   16.725552   15.202923
  C     16.262526   16.440537   16.067995
  O     16.670137   15.304096   16.246396
  C     16.800714   17.620474   16.829838
  C     16.762276   18.892830   16.350312
  C     16.004648   19.417696   15.146135
  N     17.512189   19.905448   16.954519
  C     18.486973   19.695322   17.891752
  S     19.413076   20.932710   18.480669
  N     18.670642   18.398843   18.299265
  C     17.812461   17.258049   17.925644
  C     17.187765   16.561330   19.127431
  C     17.375692   15.183042   19.335655
  C     16.801806   14.543322   20.447161
  C     16.034890   15.288763   21.359046
  C     15.844728   16.662160   21.152940
  O     15.101742   17.383516   22.029879
  C     16.416892   17.295917   20.045282
  H     15.649851   16.148759   12.635333
  H     14.942386   14.518690   12.662148
  H     16.415333   14.856278   13.590983
  H     13.613353   16.021963   14.123381
  H     14.412630   14.795664   15.131504
  H     14.923691   19.286158   15.280984
  H     16.301299   18.882815   14.235295
  H     16.180373   20.484749   14.963106
  H     17.403565   20.859613   16.650330
  H     19.380038   18.273315   19.010280
  H     18.555114   16.605987   17.443235
  H     17.955942   14.603275   18.621706
  H     16.948079   13.474764   20.593948
  H     15.588519   14.798365   22.217609
  H     14.811823   16.778927   22.729246
  H     16.261646   18.360232   19.903826

 Total Charge           Charge          ....    0
 Multiplicity           Mult            ....    1
 Number of Electrons    NEL             ....  154
 Basis Dimension        Dim             ....  828

ORBITAL ENERGIES
----------------

  NO   OCC          E(Eh)            E(eV)
   0   2.0000     -91.887756     -2500.3930
   1   2.0000     -20.604805      -560.6852
   2   2.0000     -20.590766      -560.3032
   3   2.0000     -20.545185      -559.0629
   4   2.0000     -15.628302      -425.2677
   5   2.0000     -15.605427      -424.6453
   6   2.0000     -11.397118      -310.1314
   7   2.0000     -11.382239      -309.7265
   8   2.0000     -11.338232      -308.5290
   9   2.0000     -11.306749      -307.6723
  10   2.0000     -11.303944      -307.5960
  11   2.0000     -11.301347      -307.5253
  12   2.0000     -11.261540      -306.4421
  13   2.0000     -11.259039      -306.3740
  14   2.0000     -11.254129      -306.2404
  15   2.0000     -11.246856      -306.0425
  16   2.0000     -11.237070      -305.7762
  17   2.0000     -11.233211      -305.6712
  18   2.0000     -11.230011      -305.5841
  19   2.0000     -11.228477      -305.5424
  20   2.0000      -8.892842      -241.9865
  21   2.0000      -6.574421      -178.8991
  22   2.0000      -6.572417      -178.8445
  23   2.0000      -6.571830      -178.8286
  24   2.0000      -1.454373       -39.5755
  25   2.0000      -1.410509       -38.3819
  26   2.0000      -1.357564       -36.9412
  27   2.0000      -1.339727       -36.4558
  28   2.0000      -1.236848       -33.6563
  29   2.0000      -1.151563       -31.3356
  30   2.0000      -1.120396       -30.4875
  31   2.0000      -1.042570       -28.3698
  32   2.0000      -1.035054       -28.1652
  33   2.0000      -1.009023       -27.4569
  34   2.0000      -0.998107       -27.1599
  35   2.0000      -0.983192       -26.7540
  36   2.0000      -0.920493       -25.0479
  37   2.0000      -0.894210       -24.3327
  38   2.0000      -0.847489       -23.0614
  39   2.0000      -0.834360       -22.7041
  40   2.0000      -0.827112       -22.5069
  41   2.0000      -0.817053       -22.2331
  42   2.0000      -0.755507       -20.5584
  43   2.0000      -0.735014       -20.0007
  44   2.0000      -0.725468       -19.7410
  45   2.0000      -0.690044       -18.7771
  46   2.0000      -0.685306       -18.6481
  47   2.0000      -0.680128       -18.5072
  48   2.0000      -0.671167       -18.2634
  49   2.0000      -0.658311       -17.9136
  50   2.0000      -0.647235       -17.6122
  51   2.0000      -0.639754       -17.4086
  52   2.0000      -0.630083       -17.1454
  53   2.0000      -0.612318       -16.6620
  54   2.0000      -0.602339       -16.3905
  55   2.0000      -0.597347       -16.2546
  56   2.0000      -0.593954       -16.1623
  57   2.0000      -0.584793       -15.9130
  58   2.0000      -0.572163       -15.5693
  59   2.0000      -0.565759       -15.3951
  60   2.0000      -0.560689       -15.2571
  61   2.0000      -0.547014       -14.8850
  62   2.0000      -0.536079       -14.5874
  63   2.0000      -0.530002       -14.4221
  64   2.0000      -0.514843       -14.0096
  65   2.0000      -0.509256       -13.8576
  66   2.0000      -0.499341       -13.5878
  67   2.0000      -0.493490       -13.4285
  68   2.0000      -0.480554       -13.0766
  69   2.0000      -0.465626       -12.6703
  70   2.0000      -0.455140       -12.3850
  71   2.0000      -0.454238       -12.3605
  72   2.0000      -0.353009        -9.6059
  73   2.0000      -0.343706        -9.3527
  74   2.0000      -0.326832        -8.8936
  75   2.0000      -0.316892        -8.6231
  76   2.0000      -0.313372        -8.5273
  77   0.0000       0.078004         2.1226
  78   0.0000       0.112730         3.0675
  79   0.0000       0.121158         3.2969
  80   0.0000       0.136586         3.7167
  81   0.0000       0.140839         3.8324

MULLIKEN ATOMIC CHARGES
-----------------------
   0 C :   -0.296852
   1 C :    0.030487
   2 O :   -0.343451
   3 C :    0.422978
   4 O :   -0.431872
   5 C :   -0.176499
   6 C :    0.169234
   7 C :   -0.282696
   8 N :   -0.128874
   9 C :    0.207580
  10 S :   -0.442941
  11 N :   -0.210443
  12 C :    0.040534
  13 C :    0.031288
  14 C :   -0.164460
  15 C :   -0.134279
  16 C :   -0.276624
  17 C :    0.314638
  18 O :   -0.359133
  19 C :   -0.250418
  20 H :    0.089994
  21 H :    0.098630
  22 H :    0.117119
  23 H :    0.109273
  24 H :    0.107861
  25 H :    0.131929
  26 H :    0.123344
  27 H :    0.102115
  28 H :    0.198835
  29 H :    0.199953
  30 H :    0.154745
  31 H :    0.157932
  32 H :    0.159426
  33 H :    0.127882
  34 H :    0.239786
  35 H :    0.162976
Sum of atomic charges:   -0.0000000

LOEWDIN ATOMIC CHARGES
----------------------
   0 C :    0.103990
   1 C :   -0.016265
   2 O :    0.306669
   3 C :   -0.413609
   4 O :    0.101920
   5 C :   -0.089940
   6 C :   -0.063705
   7 C :    0.124548
   8 N :    0.405389
   9 C :   -0.458878
  10 S :   -0.038000
  11 N :    0.396608
  12 C :   -0.048258
  13 C :   -0.040398
  14 C :    0.025031
  15 C :    0.040965
  16 C :   -0.000970
  17 C :   -0.192260
  18 O :    0.393090
  19 C :    0.030035
  20 H :   -0.031628
  21 H :   -0.026137
  22 H :   -0.024524
  23 H :   -0.025620
  24 H :   -0.026167
  25 H :   -0.008685
  26 H :   -0.010701
  27 H :   -0.021355
  28 H :   -0.058844
  29 H :   -0.062986
  30 H :   -0.008718
  31 H :   -0.024276
  32 H :   -0.021205
  33 H :   -0.036230
  34 H :   -0.154978
  35 H :   -0.023907

  Mayer bond orders larger than 0.100000
B(  0-C ,  1-C ) :   0.9619 B(  0-C , 20-H ) :   0.9780 B(  0-C , 21-H ) :   0.9766
B(  0-C , 22-H ) :   0.9742 B(  1-C ,  2-O ) :   0.8986 B(  1-C , 23-H ) :   0.9848
B(  1-C , 24-H ) :   0.9764 B(  2-O ,  3-C ) :   1.1555 B(  3-C ,  4-O ) :   1.9548
B(  3-C ,  5-C ) :   1.0691 B(  5-C ,  6-C ) :   1.6508 B(  5-C , 12-C ) :   0.9503
B(  6-C ,  7-C ) :   0.9532 B(  6-C ,  8-N ) :   1.1361 B(  7-C , 25-H ) :   0.9631
B(  7-C , 26-H ) :   0.9658 B(  7-C , 27-H ) :   0.9913 B(  8-N ,  9-C ) :   1.1855
B(  8-N , 28-H ) :   0.9468 B(  9-C , 10-S ) :   1.6073 B(  9-C , 11-N ) :   1.3066
B( 11-N , 12-C ) :   0.9771 B( 11-N , 29-H ) :   0.9484 B( 12-C , 13-C ) :   0.9754
B( 12-C , 30-H ) :   0.9977 B( 13-C , 14-C ) :   1.3745 B( 13-C , 19-C ) :   1.3679
B( 14-C , 15-C ) :   1.3971 B( 14-C , 31-H ) :   0.9643 B( 15-C , 16-C ) :   1.3587
B( 15-C , 32-H ) :   0.9713 B( 16-C , 17-C ) :   1.3334 B( 16-C , 33-H ) :   0.9861
B( 17-C , 18-O ) :   1.1030 B( 17-C , 19-C ) :   1.3675 B( 18-O , 34-H ) :   0.9808
B( 19-C , 35-H ) :   0.9600

MP2 TOTAL ENERGY:    -1274.342304997 Eh
FINAL SINGLE POINT ENERGY     -1274.342304997049

DIPOLE MOMENT
-------------
                                X             Y             Z
Electronic contribution:      8.20768       8.80271      13.37005
Nuclear contribution   :     -9.79683      -9.91593     -14.40282
                        -----------------------------------------
Total Dipole Moment    :     -1.58915      -1.11322      -1.03277
                        -----------------------------------------
Magnitude (a.u.)       :      2.19802
Magnitude (Debye)      :      5.58691

Rotational constants in cm-1:     0.010168     0.008657     0.005429
Rotational constants in MHz :   304.824996   259.527942   162.771541

                             ****ORCA TERMINATED NORMALLY****
TOTAL RUN TIME: 0 days 1 hours 34 minutes 42 seconds 82 msec
