                         Program Version 4.2.0 -  RELEASE  -
|  1> ! ri-mp2 cc-pvtz cc-pvtz/c TightSCF NoKeepInts
|  2>
|  3> %scf
|  4>   MaxCore 4096
|  5> end
|  6> *xyz  0  1
|  7>     C       13.7203030   16.0961382   14.4604856
|  8>     C       14.8279803   16.1399005   15.5262647
|  9>     O       16.0703845   16.3887599   14.8461265
| 10>     C       17.1916690   16.5656901   15.6027812
| 11>     O       18.1436664   15.8131431   15.5076415
| 12>     C       17.1338814   17.6814385   16.6017452
| 13>     C       16.6671742   18.9107567   16.2655960
| 14>     C       15.9725298   19.3110338   14.9789696
| 15>     N       16.8745029   20.0060830   17.1069603
| 16>     C       17.7336072   20.0070081   18.1735798
| 17>     S       18.0161508   21.3717133   19.0635573
| 18>     N       18.3646284   18.8199136   18.4513869
| 19>     C       18.0727012   17.5273549   17.8004387
| 20>     C       17.6280180   16.4335984   18.7608914
| 21>     C       18.2226459   15.1600582   18.7145174
| 22>     C       17.8036588   14.1437782   19.5893239
| 23>     C       16.7800590   14.4030677   20.5168993
| 24>     C       16.1821016   15.6699722   20.5613944
| 25>     O       15.1873997   15.9207154   21.4493676
| 26>     C       16.6002392   16.6793775   19.6882001
| 27>     H       12.7457603   15.9020534   14.9248944
| 28>     H       13.9181170   15.2981642   13.7335337
| 29>     H       13.6606925   17.0480372   13.9189345
| 30>     H       14.6028475   16.9292730   16.2550206
| 31>     H       14.8752841   15.1797848   16.0582260
| 32>     H       14.9142263   19.0271714   14.9961170
| 33>     H       16.4387719   18.8324739   14.1081972
| 34>     H       16.0218580   20.3923243   14.7993911
| 35>     H       16.4429447   20.8921676   16.8966611
| 36>     H       18.9855960   18.8444987   19.2506552
| 37>     H       19.0614581   17.2904928   17.3799193
| 38>     H       19.0048019   14.9545457   17.9865171
| 39>     H       18.2692232   13.1607450   19.5419110
| 40>     H       16.4527463   13.6202544   21.1931592
| 41>     H       15.0738971   15.1247765   21.9905997
| 42>     H       16.1254739   17.6537359   19.7381355
| 43> *
| 44>
| 45>                          ****END OF INPUT****

CARTESIAN COORDINATES (ANGSTROEM)
---------------------------------
  C     13.720303   16.096138   14.460486
  C     14.827980   16.139900   15.526265
  O     16.070384   16.388760   14.846127
  C     17.191669   16.565690   15.602781
  O     18.143666   15.813143   15.507642
  C     17.133881   17.681438   16.601745
  C     16.667174   18.910757   16.265596
  C     15.972530   19.311034   14.978970
  N     16.874503   20.006083   17.106960
  C     17.733607   20.007008   18.173580
  S     18.016151   21.371713   19.063557
  N     18.364628   18.819914   18.451387
  C     18.072701   17.527355   17.800439
  C     17.628018   16.433598   18.760891
  C     18.222646   15.160058   18.714517
  C     17.803659   14.143778   19.589324
  C     16.780059   14.403068   20.516899
  C     16.182102   15.669972   20.561394
  O     15.187400   15.920715   21.449368
  C     16.600239   16.679378   19.688200
  H     12.745760   15.902053   14.924894
  H     13.918117   15.298164   13.733534
  H     13.660692   17.048037   13.918935
  H     14.602847   16.929273   16.255021
  H     14.875284   15.179785   16.058226
  H     14.914226   19.027171   14.996117
  H     16.438772   18.832474   14.108197
  H     16.021858   20.392324   14.799391
  H     16.442945   20.892168   16.896661
  H     18.985596   18.844499   19.250655
  H     19.061458   17.290493   17.379919
  H     19.004802   14.954546   17.986517
  H     18.269223   13.160745   19.541911
  H     16.452746   13.620254   21.193159
  H     15.073897   15.124776   21.990600
  H     16.125474   17.653736   19.738135

 Total Charge           Charge          ....    0
 Multiplicity           Mult            ....    1
 Number of Electrons    NEL             ....  154
 Basis Dimension        Dim             ....  828

ORBITAL ENERGIES
----------------

  NO   OCC          E(Eh)            E(eV)
   0   2.0000     -91.890228     -2500.4602
   1   2.0000     -20.596640      -560.4631
   2   2.0000     -20.596003      -560.4457
   3   2.0000     -20.552990      -559.2753
   4   2.0000     -15.630283      -425.3216
   5   2.0000     -15.608490      -424.7286
   6   2.0000     -11.395340      -310.0830
   7   2.0000     -11.385442      -309.8136
   8   2.0000     -11.338452      -308.5350
   9   2.0000     -11.313208      -307.8480
  10   2.0000     -11.307160      -307.6835
  11   2.0000     -11.307107      -307.6820
  12   2.0000     -11.265365      -306.5462
  13   2.0000     -11.262123      -306.4579
  14   2.0000     -11.260543      -306.4149
  15   2.0000     -11.253143      -306.2136
  16   2.0000     -11.242857      -305.9337
  17   2.0000     -11.239171      -305.8334
  18   2.0000     -11.238266      -305.8088
  19   2.0000     -11.235586      -305.7358
  20   2.0000      -8.895317      -242.0539
  21   2.0000      -6.576893      -178.9664
  22   2.0000      -6.574888      -178.9118
  23   2.0000      -6.574299      -178.8958
  24   2.0000      -1.452580       -39.5267
  25   2.0000      -1.416371       -38.5414
  26   2.0000      -1.362702       -37.0810
  27   2.0000      -1.341928       -36.5157
  28   2.0000      -1.239307       -33.7233
  29   2.0000      -1.157664       -31.5016
  30   2.0000      -1.124364       -30.5955
  31   2.0000      -1.046220       -28.4691
  32   2.0000      -1.041969       -28.3534
  33   2.0000      -1.015409       -27.6307
  34   2.0000      -1.003742       -27.3132
  35   2.0000      -0.988419       -26.8963
  36   2.0000      -0.924600       -25.1596
  37   2.0000      -0.881596       -23.9895
  38   2.0000      -0.854233       -23.2449
  39   2.0000      -0.842521       -22.9262
  40   2.0000      -0.834994       -22.7213
  41   2.0000      -0.832825       -22.6623
  42   2.0000      -0.760394       -20.6914
  43   2.0000      -0.738595       -20.0982
  44   2.0000      -0.730595       -19.8805
  45   2.0000      -0.694139       -18.8885
  46   2.0000      -0.688872       -18.7452
  47   2.0000      -0.684543       -18.6274
  48   2.0000      -0.674078       -18.3426
  49   2.0000      -0.659735       -17.9523
  50   2.0000      -0.651579       -17.7304
  51   2.0000      -0.645432       -17.5631
  52   2.0000      -0.639490       -17.4014
  53   2.0000      -0.617363       -16.7993
  54   2.0000      -0.606415       -16.5014
  55   2.0000      -0.603919       -16.4335
  56   2.0000      -0.599934       -16.3250
  57   2.0000      -0.581674       -15.8282
  58   2.0000      -0.576265       -15.6810
  59   2.0000      -0.566600       -15.4180
  60   2.0000      -0.560551       -15.2534
  61   2.0000      -0.555844       -15.1253
  62   2.0000      -0.542667       -14.7667
  63   2.0000      -0.531386       -14.4598
  64   2.0000      -0.521941       -14.2027
  65   2.0000      -0.513566       -13.9748
  66   2.0000      -0.501605       -13.6494
  67   2.0000      -0.498786       -13.5727
  68   2.0000      -0.487416       -13.2633
  69   2.0000      -0.467665       -12.7258
  70   2.0000      -0.464380       -12.6364
  71   2.0000      -0.451718       -12.2919
  72   2.0000      -0.356089        -9.6897
  73   2.0000      -0.349116        -9.4999
  74   2.0000      -0.329430        -8.9642
  75   2.0000      -0.320679        -8.7261
  76   2.0000      -0.319387        -8.6909
  77   0.0000       0.075790         2.0624
  78   0.0000       0.105856         2.8805
  79   0.0000       0.117889         3.2079
  80   0.0000       0.132346         3.6013
  81   0.0000       0.135922         3.6986

MULLIKEN ATOMIC CHARGES
-----------------------
   0 C :   -0.263640
   1 C :    0.009332
   2 O :   -0.340612
   3 C :    0.445647
   4 O :   -0.376717
   5 C :   -0.258374
   6 C :    0.174981
   7 C :   -0.309182
   8 N :   -0.132915
   9 C :    0.205747
  10 S :   -0.440577
  11 N :   -0.215798
  12 C :    0.054881
  13 C :    0.025416
  14 C :   -0.198064
  15 C :   -0.130180
  16 C :   -0.277683
  17 C :    0.313474
  18 O :   -0.357793
  19 C :   -0.251438
  20 H :    0.093948
  21 H :    0.108865
  22 H :    0.093313
  23 H :    0.100612
  24 H :    0.116132
  25 H :    0.117478
  26 H :    0.141169
  27 H :    0.117682
  28 H :    0.198349
  29 H :    0.200887
  30 H :    0.161835
  31 H :    0.170587
  32 H :    0.163091
  33 H :    0.130238
  34 H :    0.240900
  35 H :    0.168410
Sum of atomic charges:    0.0000000

LOEWDIN ATOMIC CHARGES
----------------------
   0 C :    0.110573
   1 C :   -0.025738
   2 O :    0.302744
   3 C :   -0.420086
   4 O :    0.127482
   5 C :   -0.093936
   6 C :   -0.075572
   7 C :    0.127997
   8 N :    0.404464
   9 C :   -0.457957
  10 S :   -0.036383
  11 N :    0.396147
  12 C :   -0.049496
  13 C :   -0.043132
  14 C :    0.022701
  15 C :    0.042923
  16 C :   -0.000690
  17 C :   -0.192621
  18 O :    0.393668
  19 C :    0.027179
  20 H :   -0.023539
  21 H :   -0.022110
  22 H :   -0.030215
  23 H :   -0.038557
  24 H :   -0.026477
  25 H :   -0.015191
  26 H :   -0.006002
  27 H :   -0.016326
  28 H :   -0.058120
  29 H :   -0.063294
  30 H :   -0.005892
  31 H :   -0.021969
  32 H :   -0.019526
  33 H :   -0.035369
  34 H :   -0.153754
  35 H :   -0.023927

  Mayer bond orders larger than 0.100000
B(  0-C ,  1-C ) :   0.9770 B(  0-C , 20-H ) :   0.9754 B(  0-C , 21-H ) :   0.9771
B(  0-C , 22-H ) :   0.9776 B(  1-C ,  2-O ) :   0.8971 B(  1-C , 23-H ) :   0.9662
B(  1-C , 24-H ) :   0.9782 B(  2-O ,  3-C ) :   1.1293 B(  3-C ,  4-O ) :   2.0938
B(  3-C ,  5-C ) :   0.9589 B(  5-C ,  6-C ) :   1.6888 B(  5-C , 12-C ) :   0.9490
B(  6-C ,  7-C ) :   0.9397 B(  6-C ,  8-N ) :   1.1256 B(  7-C , 25-H ) :   0.9654
B(  7-C , 26-H ) :   0.9666 B(  7-C , 27-H ) :   0.9882 B(  8-N ,  9-C ) :   1.1884
B(  8-N , 28-H ) :   0.9484 B(  9-C , 10-S ) :   1.6116 B(  9-C , 11-N ) :   1.2983
B( 11-N , 12-C ) :   0.9842 B( 11-N , 29-H ) :   0.9485 B( 12-C , 13-C ) :   0.9707
B( 12-C , 30-H ) :   0.9925 B( 13-C , 14-C ) :   1.3833 B( 13-C , 19-C ) :   1.3588
B( 14-C , 15-C ) :   1.3945 B( 14-C , 31-H ) :   0.9601 B( 15-C , 16-C ) :   1.3607
B( 15-C , 32-H ) :   0.9703 B( 16-C , 17-C ) :   1.3314 B( 16-C , 33-H ) :   0.9854
B( 17-C , 18-O ) :   1.1063 B( 17-C , 19-C ) :   1.3674 B( 18-O , 34-H ) :   0.9798
B( 19-C , 35-H ) :   0.9581

MP2 TOTAL ENERGY:    -1274.330243588 Eh
FINAL SINGLE POINT ENERGY     -1274.330243588053

DIPOLE MOMENT
-------------
                                X             Y             Z
Electronic contribution:     11.26163       6.93034       9.79833
Nuclear contribution   :    -12.81454      -8.07922     -10.25065
                        -----------------------------------------
Total Dipole Moment    :     -1.55291      -1.14887      -0.45232
                        -----------------------------------------
Magnitude (a.u.)       :      1.98394
Magnitude (Debye)      :      5.04279

Rotational constants in cm-1:     0.010031     0.009316     0.006091
Rotational constants in MHz :   300.728481   279.280729   182.617953

                             ****ORCA TERMINATED NORMALLY****
TOTAL RUN TIME: 0 days 1 hours 42 minutes 57 seconds 777 msec
