                         Program Version 4.2.0 -  RELEASE  -
|  1> ! ri-mp2 cc-pvtz cc-pvtz/c TightSCF NoKeepInts
|  2>
|  3> %scf
|  4>   MaxCore 4096
|  5> end
|  6> *xyz  0  1
|  7>     C       15.1375953   14.9514151   13.8883763
|  8>     C       15.0084666   15.1280349   15.4146937
|  9>     O       16.0335091   16.0249625   15.8798668
| 10>     C       15.8670775   17.3792816   15.7797342
| 11>     O       15.0483196   17.8837262   15.0301549
| 12>     C       16.7258845   18.1388804   16.7558424
| 13>     C       16.8946231   19.4809947   16.6340805
| 14>     C       16.1080105   20.4276299   15.7508690
| 15>     N       17.8875313   20.1501272   17.3534065
| 16>     C       18.8764354   19.5304562   18.0681446
| 17>     S       20.0806146   20.3814838   18.8174577
| 18>     N       18.8300887   18.1602147   18.1127823
| 19>     C       17.7423259   17.3226773   17.5729377
| 20>     C       17.1146463   16.4251812   18.6316274
| 21>     C       17.3221555   15.0336672   18.6067644
| 22>     C       16.7434944   14.2084402   19.5857708
| 23>     C       15.9543202   14.7801915   20.5986438
| 24>     C       15.7500406   16.1668181   20.6275501
| 25>     O       14.9898762   16.7214265   21.6051004
| 26>     C       16.3270855   16.9854040   19.6516250
| 27>     H       14.9334592   15.8909073   13.3602683
| 28>     H       14.4222021   14.2019988   13.5289998
| 29>     H       16.1474479   14.6167424   13.6213047
| 30>     H       14.0104762   15.5051451   15.6771350
| 31>     H       15.1407813   14.1511959   15.8972709
| 32>     H       15.0313948   20.3249874   15.9383260
| 33>     H       16.2792886   20.2005324   14.6909254
| 34>     H       16.3674271   21.4808727   15.9100632
| 35>     H       17.9456875   21.1549850   17.3104210
| 36>     H       19.5546291   17.7325844   18.6754473
| 37>     H       18.3025449   16.7248225   16.8400602
| 38>     H       17.9281123   14.5907532   17.8208238
| 39>     H       16.9073819   13.1326146   19.5579866
| 40>     H       15.5058086   14.1472559   21.3572670
| 41>     H       14.7043278   16.0064179   22.1933376
| 42>     H       16.1639299   18.0571713   19.6929348
| 43> *
| 44>
| 45>                          ****END OF INPUT****

CARTESIAN COORDINATES (ANGSTROEM)
---------------------------------
  C     15.137595   14.951415   13.888376
  C     15.008467   15.128035   15.414694
  O     16.033509   16.024963   15.879867
  C     15.867078   17.379282   15.779734
  O     15.048320   17.883726   15.030155
  C     16.725884   18.138880   16.755842
  C     16.894623   19.480995   16.634080
  C     16.108010   20.427630   15.750869
  N     17.887531   20.150127   17.353406
  C     18.876435   19.530456   18.068145
  S     20.080615   20.381484   18.817458
  N     18.830089   18.160215   18.112782
  C     17.742326   17.322677   17.572938
  C     17.114646   16.425181   18.631627
  C     17.322156   15.033667   18.606764
  C     16.743494   14.208440   19.585771
  C     15.954320   14.780192   20.598644
  C     15.750041   16.166818   20.627550
  O     14.989876   16.721426   21.605100
  C     16.327085   16.985404   19.651625
  H     14.933459   15.890907   13.360268
  H     14.422202   14.201999   13.529000
  H     16.147448   14.616742   13.621305
  H     14.010476   15.505145   15.677135
  H     15.140781   14.151196   15.897271
  H     15.031395   20.324987   15.938326
  H     16.279289   20.200532   14.690925
  H     16.367427   21.480873   15.910063
  H     17.945687   21.154985   17.310421
  H     19.554629   17.732584   18.675447
  H     18.302545   16.724822   16.840060
  H     17.928112   14.590753   17.820824
  H     16.907382   13.132615   19.557987
  H     15.505809   14.147256   21.357267
  H     14.704328   16.006418   22.193338
  H     16.163930   18.057171   19.692935

 Total Charge           Charge          ....    0
 Multiplicity           Mult            ....    1
 Number of Electrons    NEL             ....  154
 Basis Dimension        Dim             ....  828

ORBITAL ENERGIES
----------------

  NO   OCC          E(Eh)            E(eV)
   0   2.0000     -91.888915     -2500.4245
   1   2.0000     -20.599104      -560.5301
   2   2.0000     -20.596191      -560.4508
   3   2.0000     -20.542480      -558.9893
   4   2.0000     -15.629346      -425.2961
   5   2.0000     -15.606948      -424.6867
   6   2.0000     -11.395854      -310.0970
   7   2.0000     -11.383524      -309.7614
   8   2.0000     -11.337587      -308.5114
   9   2.0000     -11.313315      -307.8510
  10   2.0000     -11.307433      -307.6909
  11   2.0000     -11.298163      -307.4386
  12   2.0000     -11.260460      -306.4127
  13   2.0000     -11.259174      -306.3777
  14   2.0000     -11.254801      -306.2587
  15   2.0000     -11.251927      -306.1805
  16   2.0000     -11.243159      -305.9419
  17   2.0000     -11.238530      -305.8160
  18   2.0000     -11.238348      -305.8110
  19   2.0000     -11.221676      -305.3573
  20   2.0000      -8.893983      -242.0176
  21   2.0000      -6.575555      -178.9300
  22   2.0000      -6.573558      -178.8756
  23   2.0000      -6.572967      -178.8595
  24   2.0000      -1.450605       -39.4730
  25   2.0000      -1.415848       -38.5272
  26   2.0000      -1.354979       -36.8709
  27   2.0000      -1.340476       -36.4762
  28   2.0000      -1.238273       -33.6951
  29   2.0000      -1.157218       -31.4895
  30   2.0000      -1.121065       -30.5057
  31   2.0000      -1.042595       -28.3704
  32   2.0000      -1.035845       -28.1868
  33   2.0000      -1.014592       -27.6085
  34   2.0000      -0.995750       -27.0957
  35   2.0000      -0.984187       -26.7811
  36   2.0000      -0.921727       -25.0815
  37   2.0000      -0.891843       -24.2683
  38   2.0000      -0.846768       -23.0417
  39   2.0000      -0.837798       -22.7976
  40   2.0000      -0.833814       -22.6892
  41   2.0000      -0.818928       -22.2842
  42   2.0000      -0.757060       -20.6006
  43   2.0000      -0.732928       -19.9440
  44   2.0000      -0.722076       -19.6487
  45   2.0000      -0.695160       -18.9163
  46   2.0000      -0.688656       -18.7393
  47   2.0000      -0.679976       -18.5031
  48   2.0000      -0.671021       -18.2594
  49   2.0000      -0.651173       -17.7193
  50   2.0000      -0.647470       -17.6186
  51   2.0000      -0.644012       -17.5245
  52   2.0000      -0.631284       -17.1781
  53   2.0000      -0.609540       -16.5864
  54   2.0000      -0.605745       -16.4832
  55   2.0000      -0.599872       -16.3234
  56   2.0000      -0.598687       -16.2911
  57   2.0000      -0.579511       -15.7693
  58   2.0000      -0.572712       -15.5843
  59   2.0000      -0.569657       -15.5011
  60   2.0000      -0.563277       -15.3275
  61   2.0000      -0.540519       -14.7083
  62   2.0000      -0.536201       -14.5908
  63   2.0000      -0.523981       -14.2583
  64   2.0000      -0.521916       -14.2021
  65   2.0000      -0.513055       -13.9609
  66   2.0000      -0.500548       -13.6206
  67   2.0000      -0.497252       -13.5309
  68   2.0000      -0.485266       -13.2047
  69   2.0000      -0.463363       -12.6087
  70   2.0000      -0.455191       -12.3864
  71   2.0000      -0.445674       -12.1274
  72   2.0000      -0.353046        -9.6069
  73   2.0000      -0.349420        -9.5082
  74   2.0000      -0.328038        -8.9264
  75   2.0000      -0.320747        -8.7280
  76   2.0000      -0.318095        -8.6558
  77   0.0000       0.076602         2.0844
  78   0.0000       0.105425         2.8687
  79   0.0000       0.124963         3.4004
  80   0.0000       0.132943         3.6176
  81   0.0000       0.136817         3.7230

MULLIKEN ATOMIC CHARGES
-----------------------
   0 C :   -0.287981
   1 C :    0.039851
   2 O :   -0.349743
   3 C :    0.432524
   4 O :   -0.437286
   5 C :   -0.212274
   6 C :    0.173456
   7 C :   -0.269027
   8 N :   -0.125804
   9 C :    0.210064
  10 S :   -0.441751
  11 N :   -0.215071
  12 C :    0.059535
  13 C :    0.044084
  14 C :   -0.178617
  15 C :   -0.134034
  16 C :   -0.276151
  17 C :    0.316621
  18 O :   -0.356952
  19 C :   -0.248718
  20 H :    0.119345
  21 H :    0.092637
  22 H :    0.089865
  23 H :    0.094131
  24 H :    0.106646
  25 H :    0.133985
  26 H :    0.128425
  27 H :    0.094939
  28 H :    0.199779
  29 H :    0.200482
  30 H :    0.152742
  31 H :    0.151000
  32 H :    0.160565
  33 H :    0.129789
  34 H :    0.240514
  35 H :    0.162429
Sum of atomic charges:   -0.0000000

LOEWDIN ATOMIC CHARGES
----------------------
   0 C :    0.104602
   1 C :   -0.015240
   2 O :    0.306695
   3 C :   -0.413382
   4 O :    0.098575
   5 C :   -0.094766
   6 C :   -0.056059
   7 C :    0.131058
   8 N :    0.407218
   9 C :   -0.456702
  10 S :   -0.036381
  11 N :    0.394671
  12 C :   -0.054682
  13 C :   -0.039286
  14 C :    0.017089
  15 C :    0.038640
  16 C :   -0.000776
  17 C :   -0.189653
  18 O :    0.394957
  19 C :    0.033070
  20 H :   -0.025466
  21 H :   -0.028482
  22 H :   -0.030471
  23 H :   -0.028128
  24 H :   -0.025658
  25 H :   -0.004280
  26 H :   -0.005232
  27 H :   -0.023600
  28 H :   -0.057169
  29 H :   -0.064313
  30 H :   -0.013717
  31 H :   -0.029248
  32 H :   -0.021482
  33 H :   -0.035525
  34 H :   -0.154030
  35 H :   -0.022848

  Mayer bond orders larger than 0.100000
B(  0-C ,  1-C ) :   0.9703 B(  0-C , 20-H ) :   0.9737 B(  0-C , 21-H ) :   0.9771
B(  0-C , 22-H ) :   0.9766 B(  1-C ,  2-O ) :   0.8990 B(  1-C , 23-H ) :   0.9755
B(  1-C , 24-H ) :   0.9827 B(  2-O ,  3-C ) :   1.1540 B(  3-C ,  4-O ) :   1.9490
B(  3-C ,  5-C ) :   1.0780 B(  5-C ,  6-C ) :   1.6363 B(  5-C , 12-C ) :   0.9552
B(  6-C ,  7-C ) :   0.9657 B(  6-C ,  8-N ) :   1.1528 B(  7-C , 25-H ) :   0.9610
B(  7-C , 26-H ) :   0.9588 B(  7-C , 27-H ) :   0.9909 B(  8-N ,  9-C ) :   1.1874
B(  8-N , 28-H ) :   0.9463 B(  9-C , 10-S ) :   1.6063 B(  9-C , 11-N ) :   1.3093
B( 11-N , 12-C ) :   0.9674 B( 11-N , 29-H ) :   0.9483 B( 12-C , 13-C ) :   0.9641
B( 12-C , 30-H ) :   1.0010 B( 13-C , 14-C ) :   1.3542 B( 13-C , 19-C ) :   1.3805
B( 14-C , 15-C ) :   1.3943 B( 14-C , 31-H ) :   0.9717 B( 15-C , 16-C ) :   1.3600
B( 15-C , 32-H ) :   0.9707 B( 16-C , 17-C ) :   1.3341 B( 16-C , 33-H ) :   0.9851
B( 17-C , 18-O ) :   1.1041 B( 17-C , 19-C ) :   1.3647 B( 18-O , 34-H ) :   0.9799
B( 19-C , 35-H ) :   0.9597

MP2 TOTAL ENERGY:    -1274.341328782 Eh
FINAL SINGLE POINT ENERGY     -1274.341328782016

DIPOLE MOMENT
-------------
                                X             Y             Z
Electronic contribution:      9.20454       9.21123      10.85222
Nuclear contribution   :    -10.37499     -10.81302     -11.16814
                        -----------------------------------------
Total Dipole Moment    :     -1.17045      -1.60179      -0.31592
                        -----------------------------------------
Magnitude (a.u.)       :      2.00885
Magnitude (Debye)      :      5.10610

Rotational constants in cm-1:     0.010539     0.008818     0.005785
Rotational constants in MHz :   315.936374   264.362329   173.418837

                             ****ORCA TERMINATED NORMALLY****
TOTAL RUN TIME: 0 days 1 hours 47 minutes 44 seconds 68 msec
