                         Program Version 4.2.0 -  RELEASE  -
|  1> ! ri-mp2 cc-pvtz cc-pvtz/c TightSCF NoKeepInts
|  2>
|  3> %scf
|  4>   MaxCore 4096
|  5> end
|  6> *xyz  0  1
|  7>     C       14.3878519   16.5319371   16.0869159
|  8>     C       15.1700959   15.7217366   15.0306234
|  9>     O       16.4156544   16.3180886   14.5904323
| 10>     C       17.4416373   16.5998718   15.4519582
| 11>     O       18.4514380   15.9200310   15.4647769
| 12>     C       17.1882739   17.6757116   16.4571833
| 13>     C       16.7859306   18.9008576   16.0388574
| 14>     C       16.3811360   19.2851049   14.6282155
| 15>     N       16.8427857   20.0021653   16.8957148
| 16>     C       17.5165789   20.0132895   18.0884489
| 17>     S       17.6476625   21.3849220   19.0028019
| 18>     N       18.1029666   18.8319853   18.4713771
| 19>     C       17.9197298   17.5324190   17.7942732
| 20>     C       17.3506494   16.4313320   18.6783938
| 21>     C       17.8870878   15.1322665   18.6263353
| 22>     C       17.3558920   14.1068221   19.4261862
| 23>     C       16.2777605   14.3824420   20.2845421
| 24>     C       15.7389809   15.6752884   20.3363800
| 25>     O       14.6923000   15.9423308   21.1572015
| 26>     C       16.2696184   16.6941634   19.5386579
| 27>     H       14.8968115   16.5280865   17.0565433
| 28>     H       13.4030307   16.0755034   16.2451130
| 29>     H       14.2202515   17.5656036   15.7690657
| 30>     H       15.3764468   14.7220269   15.4364120
| 31>     H       14.5260855   15.5852445   14.1522281
| 32>     H       15.4194767   18.8430934   14.3470269
| 33>     H       17.1279107   18.9376814   13.9025081
| 34>     H       16.2941004   20.3706866   14.4970247
| 35>     H       16.4506470   20.8851689   16.6095826
| 36>     H       18.5912279   18.8661317   19.3575703
| 37>     H       18.9646874   17.3039567   17.5365785
| 38>     H       18.7151613   14.9154751   17.9544059
| 39>     H       17.7789025   13.1048649   19.3759532
| 40>     H       15.8638267   13.5929014   20.9030605
| 41>     H       14.4991122   15.1335402   21.6549403
| 42>     H       15.8352908   17.6872694   19.5907117
| 43> *
| 44>
| 45>                          ****END OF INPUT****

CARTESIAN COORDINATES (ANGSTROEM)
---------------------------------
  C     14.387852   16.531937   16.086916
  C     15.170096   15.721737   15.030623
  O     16.415654   16.318089   14.590432
  C     17.441637   16.599872   15.451958
  O     18.451438   15.920031   15.464777
  C     17.188274   17.675712   16.457183
  C     16.785931   18.900858   16.038857
  C     16.381136   19.285105   14.628215
  N     16.842786   20.002165   16.895715
  C     17.516579   20.013289   18.088449
  S     17.647662   21.384922   19.002802
  N     18.102967   18.831985   18.471377
  C     17.919730   17.532419   17.794273
  C     17.350649   16.431332   18.678394
  C     17.887088   15.132266   18.626335
  C     17.355892   14.106822   19.426186
  C     16.277760   14.382442   20.284542
  C     15.738981   15.675288   20.336380
  O     14.692300   15.942331   21.157201
  C     16.269618   16.694163   19.538658
  H     14.896811   16.528087   17.056543
  H     13.403031   16.075503   16.245113
  H     14.220251   17.565604   15.769066
  H     15.376447   14.722027   15.436412
  H     14.526085   15.585244   14.152228
  H     15.419477   18.843093   14.347027
  H     17.127911   18.937681   13.902508
  H     16.294100   20.370687   14.497025
  H     16.450647   20.885169   16.609583
  H     18.591228   18.866132   19.357570
  H     18.964687   17.303957   17.536579
  H     18.715161   14.915475   17.954406
  H     17.778903   13.104865   19.375953
  H     15.863827   13.592901   20.903060
  H     14.499112   15.133540   21.654940
  H     15.835291   17.687269   19.590712

 Total Charge           Charge          ....    0
 Multiplicity           Mult            ....    1
 Number of Electrons    NEL             ....  154
 Basis Dimension        Dim             ....  828

ORBITAL ENERGIES
----------------

  NO   OCC          E(Eh)            E(eV)
   0   2.0000     -91.890052     -2500.4554
   1   2.0000     -20.598478      -560.5131
   2   2.0000     -20.589008      -560.2554
   3   2.0000     -20.553836      -559.2983
   4   2.0000     -15.629097      -425.2894
   5   2.0000     -15.608824      -424.7377
   6   2.0000     -11.395840      -310.0966
   7   2.0000     -11.385314      -309.8102
   8   2.0000     -11.334466      -308.4265
   9   2.0000     -11.315607      -307.9133
  10   2.0000     -11.309614      -307.7502
  11   2.0000     -11.308431      -307.7181
  12   2.0000     -11.263267      -306.4891
  13   2.0000     -11.262549      -306.4695
  14   2.0000     -11.258697      -306.3647
  15   2.0000     -11.255842      -306.2870
  16   2.0000     -11.244870      -305.9885
  17   2.0000     -11.240844      -305.8789
  18   2.0000     -11.237574      -305.7899
  19   2.0000     -11.233819      -305.6877
  20   2.0000      -8.895138      -242.0490
  21   2.0000      -6.576714      -178.9615
  22   2.0000      -6.574710      -178.9070
  23   2.0000      -6.574121      -178.8909
  24   2.0000      -1.445906       -39.3451
  25   2.0000      -1.418237       -38.5922
  26   2.0000      -1.357734       -36.9458
  27   2.0000      -1.340860       -36.4867
  28   2.0000      -1.238806       -33.7096
  29   2.0000      -1.159546       -31.5528
  30   2.0000      -1.124679       -30.6041
  31   2.0000      -1.046950       -28.4890
  32   2.0000      -1.037051       -28.2196
  33   2.0000      -1.017460       -27.6865
  34   2.0000      -1.003523       -27.3073
  35   2.0000      -0.989845       -26.9351
  36   2.0000      -0.925453       -25.1829
  37   2.0000      -0.896025       -24.3821
  38   2.0000      -0.850819       -23.1519
  39   2.0000      -0.840955       -22.8835
  40   2.0000      -0.835289       -22.7294
  41   2.0000      -0.825455       -22.4618
  42   2.0000      -0.751448       -20.4479
  43   2.0000      -0.735598       -20.0167
  44   2.0000      -0.729200       -19.8425
  45   2.0000      -0.696012       -18.9395
  46   2.0000      -0.687995       -18.7213
  47   2.0000      -0.676007       -18.3951
  48   2.0000      -0.674154       -18.3447
  49   2.0000      -0.664779       -18.0896
  50   2.0000      -0.652981       -17.7685
  51   2.0000      -0.648466       -17.6457
  52   2.0000      -0.638806       -17.3828
  53   2.0000      -0.613150       -16.6847
  54   2.0000      -0.603572       -16.4240
  55   2.0000      -0.602201       -16.3867
  56   2.0000      -0.600182       -16.3318
  57   2.0000      -0.589532       -16.0420
  58   2.0000      -0.576932       -15.6991
  59   2.0000      -0.573138       -15.5959
  60   2.0000      -0.563351       -15.3296
  61   2.0000      -0.555456       -15.1147
  62   2.0000      -0.546512       -14.8714
  63   2.0000      -0.528727       -14.3874
  64   2.0000      -0.521743       -14.1973
  65   2.0000      -0.512630       -13.9494
  66   2.0000      -0.500775       -13.6268
  67   2.0000      -0.489735       -13.3264
  68   2.0000      -0.487399       -13.2628
  69   2.0000      -0.466332       -12.6895
  70   2.0000      -0.459619       -12.5069
  71   2.0000      -0.451219       -12.2783
  72   2.0000      -0.354515        -9.6468
  73   2.0000      -0.349201        -9.5022
  74   2.0000      -0.329350        -8.9621
  75   2.0000      -0.323179        -8.7942
  76   2.0000      -0.319392        -8.6911
  77   0.0000       0.076189         2.0732
  78   0.0000       0.104418         2.8414
  79   0.0000       0.119286         3.2459
  80   0.0000       0.127610         3.4724
  81   0.0000       0.131036         3.5657

MULLIKEN ATOMIC CHARGES
-----------------------
   0 C :   -0.329720
   1 C :    0.039299
   2 O :   -0.369103
   3 C :    0.448593
   4 O :   -0.377076
   5 C :   -0.240791
   6 C :    0.153062
   7 C :   -0.285197
   8 N :   -0.136579
   9 C :    0.207852
  10 S :   -0.440708
  11 N :   -0.225988
  12 C :    0.090074
  13 C :    0.019927
  14 C :   -0.219776
  15 C :   -0.130697
  16 C :   -0.276785
  17 C :    0.325190
  18 O :   -0.357135
  19 C :   -0.272353
  20 H :    0.124585
  21 H :    0.123584
  22 H :    0.096313
  23 H :    0.102487
  24 H :    0.113504
  25 H :    0.121798
  26 H :    0.131911
  27 H :    0.106317
  28 H :    0.197606
  29 H :    0.203124
  30 H :    0.163954
  31 H :    0.178713
  32 H :    0.164385
  33 H :    0.131713
  34 H :    0.240912
  35 H :    0.177006
Sum of atomic charges:   -0.0000000

LOEWDIN ATOMIC CHARGES
----------------------
   0 C :    0.103363
   1 C :   -0.013996
   2 O :    0.283194
   3 C :   -0.417214
   4 O :    0.128106
   5 C :   -0.090099
   6 C :   -0.075567
   7 C :    0.128014
   8 N :    0.404896
   9 C :   -0.457143
  10 S :   -0.036745
  11 N :    0.396126
  12 C :   -0.048545
  13 C :   -0.043684
  14 C :    0.020543
  15 C :    0.043278
  16 C :   -0.000855
  17 C :   -0.192578
  18 O :    0.395074
  19 C :    0.027372
  20 H :   -0.030025
  21 H :   -0.021718
  22 H :   -0.033358
  23 H :   -0.026784
  24 H :   -0.020532
  25 H :   -0.016598
  26 H :   -0.005285
  27 H :   -0.018432
  28 H :   -0.058979
  29 H :   -0.063798
  30 H :   -0.005129
  31 H :   -0.021641
  32 H :   -0.019019
  33 H :   -0.035111
  34 H :   -0.153467
  35 H :   -0.023667

  Mayer bond orders larger than 0.100000
B(  0-C ,  1-C ) :   0.9626 B(  0-C , 20-H ) :   0.9646 B(  0-C , 21-H ) :   0.9784
B(  0-C , 22-H ) :   0.9749 B(  1-C ,  2-O ) :   0.9046 B(  1-C , 23-H ) :   0.9812
B(  1-C , 24-H ) :   0.9825 B(  2-O ,  3-C ) :   1.1013 B(  3-C ,  4-O ) :   2.0780
B(  3-C ,  5-C ) :   0.9632 B(  5-C ,  6-C ) :   1.6964 B(  5-C , 12-C ) :   0.9236
B(  6-C ,  7-C ) :   0.9434 B(  6-C ,  8-N ) :   1.1183 B(  7-C , 25-H ) :   0.9666
B(  7-C , 26-H ) :   0.9673 B(  7-C , 27-H ) :   0.9880 B(  8-N ,  9-C ) :   1.1920
B(  8-N , 28-H ) :   0.9479 B(  9-C , 10-S ) :   1.6105 B(  9-C , 11-N ) :   1.2940
B( 11-N , 12-C ) :   0.9751 B( 11-N , 29-H ) :   0.9476 B( 12-C , 13-C ) :   0.9707
B( 12-C , 30-H ) :   0.9916 B( 13-C , 14-C ) :   1.3879 B( 13-C , 19-C ) :   1.3449
B( 14-C , 15-C ) :   1.3962 B( 14-C , 31-H ) :   0.9571 B( 15-C , 16-C ) :   1.3596
B( 15-C , 32-H ) :   0.9701 B( 16-C , 17-C ) :   1.3328 B( 16-C , 33-H ) :   0.9846
B( 17-C , 18-O ) :   1.1078 B( 17-C , 19-C ) :   1.3597 B( 18-O , 34-H ) :   0.9797
B( 19-C , 35-H ) :   0.9578

MP2 TOTAL ENERGY:    -1274.320512407 Eh
FINAL SINGLE POINT ENERGY     -1274.320512407460

DIPOLE MOMENT
-------------
                                X             Y             Z
Electronic contribution:      8.90122       6.79119       7.08960
Nuclear contribution   :    -10.36589      -8.15505      -7.62329
                        -----------------------------------------
Total Dipole Moment    :     -1.46468      -1.36386      -0.53369
                        -----------------------------------------
Magnitude (a.u.)       :      2.07128
Magnitude (Debye)      :      5.26478

Rotational constants in cm-1:     0.011369     0.009302     0.006456
Rotational constants in MHz :   340.824525   278.878874   193.541171

                             ****ORCA TERMINATED NORMALLY****
TOTAL RUN TIME: 0 days 1 hours 48 minutes 46 seconds 24 msec
