                         Program Version 4.2.0 -  RELEASE  -
|  1> ! ri-mp2 cc-pvtz cc-pvtz/c TightSCF NoKeepInts
|  2>
|  3> %scf
|  4>   MaxCore 4096
|  5> end
|  6> *xyz  0  1
|  7>     C       14.3952157   14.6597370   15.8342068
|  8>     C       15.0331116   16.0453074   16.0226268
|  9>     O       16.2803177   16.0407701   15.3032061
| 10>     C       17.0441887   17.1699194   15.2009025
| 11>     O       17.6702765   17.4222350   14.1885872
| 12>     C       17.0572643   18.0602855   16.4012715
| 13>     C       16.9032947   19.3902291   16.2065944
| 14>     C       16.3270788   20.0376308   14.9657989
| 15>     N       17.3016740   20.3166522   17.1714561
| 16>     C       18.0934076   20.0072192   18.2455679
| 17>     S       18.6362664   21.1640124   19.2950916
| 18>     N       18.4347097   18.6848632   18.3934145
| 19>     C       17.8877984   17.5684041   17.5962030
| 20>     C       17.2731114   16.4548246   18.4300482
| 21>     C       17.6023931   15.1111334   18.1742401
| 22>     C       17.0217739   14.0783073   18.9289256
| 23>     C       16.1074646   14.3920405   19.9491002
| 24>     C       15.7807749   15.7301090   20.2085531
| 25>     O       14.8932311   16.0355642   21.1877591
| 26>     C       16.3580163   16.7566206   19.4540373
| 27>     H       13.4216801   14.6115187   16.3368033
| 28>     H       15.0397538   13.8798662   16.2588435
| 29>     H       14.2454295   14.4434630   14.7689481
| 30>     H       14.3647544   16.8124821   15.6097186
| 31>     H       15.1651792   16.2428689   17.0896715
| 32>     H       15.5230437   19.4281450   14.5353794
| 33>     H       17.1038209   20.1432011   14.1965040
| 34>     H       15.9115528   21.0323913   15.1665244
| 35>     H       17.0989021   21.2956734   17.0448723
| 36>     H       19.0153847   18.4853718   19.1986181
| 37>     H       18.8218256   17.2009993   17.1458299
| 38>     H       18.3012355   14.8654083   17.3779603
| 39>     H       17.2798247   13.0411052   18.7206391
| 40>     H       15.6564340   13.5969321   20.5339858
| 41>     H       14.6469343   15.2081405   21.6285283
| 42>     H       16.0898752   17.7865679   19.6675828
| 43> *
| 44>
| 45>                          ****END OF INPUT****

CARTESIAN COORDINATES (ANGSTROEM)
---------------------------------
  C     14.395216   14.659737   15.834207
  C     15.033112   16.045307   16.022627
  O     16.280318   16.040770   15.303206
  C     17.044189   17.169919   15.200902
  O     17.670276   17.422235   14.188587
  C     17.057264   18.060285   16.401272
  C     16.903295   19.390229   16.206594
  C     16.327079   20.037631   14.965799
  N     17.301674   20.316652   17.171456
  C     18.093408   20.007219   18.245568
  S     18.636266   21.164012   19.295092
  N     18.434710   18.684863   18.393414
  C     17.887798   17.568404   17.596203
  C     17.273111   16.454825   18.430048
  C     17.602393   15.111133   18.174240
  C     17.021774   14.078307   18.928926
  C     16.107465   14.392041   19.949100
  C     15.780775   15.730109   20.208553
  O     14.893231   16.035564   21.187759
  C     16.358016   16.756621   19.454037
  H     13.421680   14.611519   16.336803
  H     15.039754   13.879866   16.258844
  H     14.245429   14.443463   14.768948
  H     14.364754   16.812482   15.609719
  H     15.165179   16.242869   17.089672
  H     15.523044   19.428145   14.535379
  H     17.103821   20.143201   14.196504
  H     15.911553   21.032391   15.166524
  H     17.098902   21.295673   17.044872
  H     19.015385   18.485372   19.198618
  H     18.821826   17.200999   17.145830
  H     18.301236   14.865408   17.377960
  H     17.279825   13.041105   18.720639
  H     15.656434   13.596932   20.533986
  H     14.646934   15.208140   21.628528
  H     16.089875   17.786568   19.667583

 Total Charge           Charge          ....    0
 Multiplicity           Mult            ....    1
 Number of Electrons    NEL             ....  154
 Basis Dimension        Dim             ....  828

ORBITAL ENERGIES
----------------

  NO   OCC          E(Eh)            E(eV)
   0   2.0000     -91.890466     -2500.4667
   1   2.0000     -20.604128      -560.6668
   2   2.0000     -20.596940      -560.4712
   3   2.0000     -20.553059      -559.2772
   4   2.0000     -15.627252      -425.2392
   5   2.0000     -15.611215      -424.8028
   6   2.0000     -11.395086      -310.0761
   7   2.0000     -11.385847      -309.8246
   8   2.0000     -11.329509      -308.2916
   9   2.0000     -11.322620      -308.1041
  10   2.0000     -11.317016      -307.9516
  11   2.0000     -11.298851      -307.4574
  12   2.0000     -11.270053      -306.6737
  13   2.0000     -11.263751      -306.5022
  14   2.0000     -11.257464      -306.3312
  15   2.0000     -11.256484      -306.3045
  16   2.0000     -11.252228      -306.1887
  17   2.0000     -11.247197      -306.0518
  18   2.0000     -11.247016      -306.0469
  19   2.0000     -11.230208      -305.5895
  20   2.0000      -8.895536      -242.0599
  21   2.0000      -6.577109      -178.9722
  22   2.0000      -6.575109      -178.9178
  23   2.0000      -6.574518      -178.9017
  24   2.0000      -1.448528       -39.4165
  25   2.0000      -1.423905       -38.7464
  26   2.0000      -1.361667       -37.0528
  27   2.0000      -1.340285       -36.4710
  28   2.0000      -1.240113       -33.7452
  29   2.0000      -1.166094       -31.7310
  30   2.0000      -1.125330       -30.6218
  31   2.0000      -1.050916       -28.5969
  32   2.0000      -1.037196       -28.2235
  33   2.0000      -1.024258       -27.8715
  34   2.0000      -1.002989       -27.2927
  35   2.0000      -0.989418       -26.9234
  36   2.0000      -0.927154       -25.2291
  37   2.0000      -0.877287       -23.8722
  38   2.0000      -0.852901       -23.2086
  39   2.0000      -0.844384       -22.9769
  40   2.0000      -0.842384       -22.9224
  41   2.0000      -0.838435       -22.8150
  42   2.0000      -0.761348       -20.7173
  43   2.0000      -0.739488       -20.1225
  44   2.0000      -0.729034       -19.8380
  45   2.0000      -0.702595       -19.1186
  46   2.0000      -0.692304       -18.8385
  47   2.0000      -0.681417       -18.5423
  48   2.0000      -0.676024       -18.3956
  49   2.0000      -0.662124       -18.0173
  50   2.0000      -0.654088       -17.7986
  51   2.0000      -0.650072       -17.6894
  52   2.0000      -0.638188       -17.3660
  53   2.0000      -0.614673       -16.7261
  54   2.0000      -0.608614       -16.5612
  55   2.0000      -0.604107       -16.4386
  56   2.0000      -0.597739       -16.2653
  57   2.0000      -0.582505       -15.8508
  58   2.0000      -0.576892       -15.6980
  59   2.0000      -0.566004       -15.4018
  60   2.0000      -0.558817       -15.2062
  61   2.0000      -0.552837       -15.0435
  62   2.0000      -0.549020       -14.9396
  63   2.0000      -0.529753       -14.4153
  64   2.0000      -0.521447       -14.1893
  65   2.0000      -0.517718       -14.0878
  66   2.0000      -0.510067       -13.8796
  67   2.0000      -0.504014       -13.7149
  68   2.0000      -0.486857       -13.2481
  69   2.0000      -0.467067       -12.7095
  70   2.0000      -0.455111       -12.3842
  71   2.0000      -0.453849       -12.3499
  72   2.0000      -0.357888        -9.7386
  73   2.0000      -0.351953        -9.5771
  74   2.0000      -0.331014        -9.0074
  75   2.0000      -0.329068        -8.9544
  76   2.0000      -0.320267        -8.7149
  77   0.0000       0.083571         2.2741
  78   0.0000       0.097122         2.6428
  79   0.0000       0.120533         3.2799
  80   0.0000       0.125184         3.4064
  81   0.0000       0.128549         3.4980

MULLIKEN ATOMIC CHARGES
-----------------------
   0 C :   -0.262867
   1 C :    0.016995
   2 O :   -0.312662
   3 C :    0.395632
   4 O :   -0.370285
   5 C :   -0.203732
   6 C :    0.138826
   7 C :   -0.283368
   8 N :   -0.133758
   9 C :    0.213053
  10 S :   -0.439665
  11 N :   -0.221555
  12 C :    0.032645
  13 C :    0.003441
  14 C :   -0.174506
  15 C :   -0.152785
  16 C :   -0.266179
  17 C :    0.306944
  18 O :   -0.353907
  19 C :   -0.233518
  20 H :    0.088938
  21 H :    0.097799
  22 H :    0.106134
  23 H :    0.098497
  24 H :    0.112544
  25 H :    0.114206
  26 H :    0.144128
  27 H :    0.098811
  28 H :    0.197989
  29 H :    0.202254
  30 H :    0.161263
  31 H :    0.156966
  32 H :    0.168738
  33 H :    0.135392
  34 H :    0.241587
  35 H :    0.176006
Sum of atomic charges:    0.0000000

LOEWDIN ATOMIC CHARGES
----------------------
   0 C :    0.111794
   1 C :   -0.024845
   2 O :    0.306763
   3 C :   -0.421799
   4 O :    0.128645
   5 C :   -0.096195
   6 C :   -0.080674
   7 C :    0.129513
   8 N :    0.405115
   9 C :   -0.454962
  10 S :   -0.035342
  11 N :    0.395627
  12 C :   -0.053632
  13 C :   -0.045604
  14 C :    0.020279
  15 C :    0.045280
  16 C :    0.001600
  17 C :   -0.191677
  18 O :    0.397182
  19 C :    0.030128
  20 H :   -0.025099
  21 H :   -0.027232
  22 H :   -0.024825
  23 H :   -0.035553
  24 H :   -0.037238
  25 H :   -0.010878
  26 H :   -0.003493
  27 H :   -0.020411
  28 H :   -0.057757
  29 H :   -0.063937
  30 H :   -0.009432
  31 H :   -0.025665
  32 H :   -0.018482
  33 H :   -0.033574
  34 H :   -0.152297
  35 H :   -0.021322

  Mayer bond orders larger than 0.100000
B(  0-C ,  1-C ) :   0.9827 B(  0-C , 20-H ) :   0.9772 B(  0-C , 21-H ) :   0.9765
B(  0-C , 22-H ) :   0.9780 B(  1-C ,  2-O ) :   0.8920 B(  1-C , 23-H ) :   0.9809
B(  1-C , 24-H ) :   0.9572 B(  2-O ,  3-C ) :   1.1806 B(  3-C ,  4-O ) :   2.1329
B(  3-C ,  5-C ) :   0.9230 B(  5-C ,  6-C ) :   1.6993 B(  5-C , 12-C ) :   0.9537
B(  6-C ,  7-C ) :   0.9448 B(  6-C ,  8-N ) :   1.1259 B(  7-C , 25-H ) :   0.9774
B(  7-C , 26-H ) :   0.9567 B(  7-C , 27-H ) :   0.9851 B(  8-N ,  9-C ) :   1.1982
B(  8-N , 28-H ) :   0.9492 B(  9-C , 10-S ) :   1.6133 B(  9-C , 11-N ) :   1.2869
B( 11-N , 12-C ) :   0.9782 B( 11-N , 29-H ) :   0.9459 B( 12-C , 13-C ) :   0.9612
B( 12-C , 30-H ) :   1.0034 B( 13-C , 14-C ) :   1.3782 B( 13-C , 19-C ) :   1.3518
B( 14-C , 15-C ) :   1.3929 B( 14-C , 31-H ) :   0.9695 B( 15-C , 16-C ) :   1.3588
B( 15-C , 32-H ) :   0.9686 B( 16-C , 17-C ) :   1.3323 B( 16-C , 33-H ) :   0.9830
B( 17-C , 18-O ) :   1.1115 B( 17-C , 19-C ) :   1.3622 B( 18-O , 34-H ) :   0.9787
B( 19-C , 35-H ) :   0.9569

MP2 TOTAL ENERGY:    -1274.325470774 Eh
FINAL SINGLE POINT ENERGY     -1274.325470774381

DIPOLE MOMENT
-------------
                                X             Y             Z
Electronic contribution:     10.16986       9.70478       6.66590
Nuclear contribution   :    -11.77176     -11.26106      -6.50976
                        -----------------------------------------
Total Dipole Moment    :     -1.60190      -1.55628       0.15615
                        -----------------------------------------
Magnitude (a.u.)       :      2.23886
Magnitude (Debye)      :      5.69072

Rotational constants in cm-1:     0.012275     0.008823     0.005991
Rotational constants in MHz :   367.987921   264.493837   179.593409

                             ****ORCA TERMINATED NORMALLY****
TOTAL RUN TIME: 0 days 1 hours 45 minutes 51 seconds 188 msec
