                         Program Version 4.2.0 -  RELEASE  -
|  1> ! ri-mp2 cc-pvtz cc-pvtz/c TightSCF NoKeepInts
|  2>
|  3> %scf
|  4>   MaxCore 4096
|  5> end
|  6> *xyz  0  1
|  7>     C       14.4873525   14.8447246   15.2830383
|  8>     C       14.7838123   16.3541717   15.2396375
|  9>     O       16.1079152   16.5322852   14.7067318
| 10>     C       17.1448315   16.5325925   15.5907791
| 11>     O       17.9081466   15.5875163   15.6730132
| 12>     C       17.2097229   17.7199725   16.5043222
| 13>     C       16.9631949   18.9805290   16.0650989
| 14>     C       16.4079932   19.3948745   14.7168689
| 15>     N       17.2895245   20.0858114   16.8544261
| 16>     C       18.0617722   20.0270425   17.9838488
| 17>     S       18.4973717   21.3896695   18.8133098
| 18>     N       18.4721084   18.7784692   18.3797987
| 19>     C       18.0268653   17.5048315   17.7807485
| 20>     C       17.3434345   16.5665222   18.7657297
| 21>     C       17.7503571   15.2247059   18.8736953
| 22>     C       17.1092942   14.3535397   19.7702203
| 23>     C       16.0514794   14.8282186   20.5645874
| 24>     C       15.6409896   16.1639416   20.4555363
| 25>     O       14.6142141   16.6229628   21.2144249
| 26>     C       16.2801980   17.0285195   19.5611094
| 27>     H       15.1783386   14.3326642   15.9653435
| 28>     H       14.5964785   14.3997947   14.2859626
| 29>     H       13.4639808   14.6614700   15.6320781
| 30>     H       14.0565721   16.8364541   14.5738316
| 31>     H       14.6820827   16.7972408   16.2398843
| 32>     H       16.9162406   18.8636222   13.9017794
| 33>     H       16.5382027   20.4663134   14.5201513
| 34>     H       15.3362867   19.1753281   14.6480500
| 35>     H       17.0203998   21.0115455   16.5611424
| 36>     H       19.0293076   18.7616207   19.2248997
| 37>     H       18.9919559   17.0886578   17.4555187
| 38>     H       18.5581567   14.8526772   18.2470225
| 39>     H       17.4303021   13.3157145   19.8416631
| 40>     H       15.5527248   14.1580068   21.2568584
| 41>     H       14.3366905   15.8987520   21.7956026
| 42>     H       15.9487016   18.0592376   19.4912865
| 43> *
| 44>
| 45>                          ****END OF INPUT****

CARTESIAN COORDINATES (ANGSTROEM)
---------------------------------
  C     14.487353   14.844725   15.283038
  C     14.783812   16.354172   15.239637
  O     16.107915   16.532285   14.706732
  C     17.144831   16.532592   15.590779
  O     17.908147   15.587516   15.673013
  C     17.209723   17.719973   16.504322
  C     16.963195   18.980529   16.065099
  C     16.407993   19.394875   14.716869
  N     17.289524   20.085811   16.854426
  C     18.061772   20.027043   17.983849
  S     18.497372   21.389670   18.813310
  N     18.472108   18.778469   18.379799
  C     18.026865   17.504831   17.780749
  C     17.343435   16.566522   18.765730
  C     17.750357   15.224706   18.873695
  C     17.109294   14.353540   19.770220
  C     16.051479   14.828219   20.564587
  C     15.640990   16.163942   20.455536
  O     14.614214   16.622963   21.214425
  C     16.280198   17.028519   19.561109
  H     15.178339   14.332664   15.965343
  H     14.596478   14.399795   14.285963
  H     13.463981   14.661470   15.632078
  H     14.056572   16.836454   14.573832
  H     14.682083   16.797241   16.239884
  H     16.916241   18.863622   13.901779
  H     16.538203   20.466313   14.520151
  H     15.336287   19.175328   14.648050
  H     17.020400   21.011546   16.561142
  H     19.029308   18.761621   19.224900
  H     18.991956   17.088658   17.455519
  H     18.558157   14.852677   18.247022
  H     17.430302   13.315715   19.841663
  H     15.552725   14.158007   21.256858
  H     14.336690   15.898752   21.795603
  H     15.948702   18.059238   19.491287

 Total Charge           Charge          ....    0
 Multiplicity           Mult            ....    1
 Number of Electrons    NEL             ....  154
 Basis Dimension        Dim             ....  828

ORBITAL ENERGIES
----------------

  NO   OCC          E(Eh)            E(eV)
   0   2.0000     -91.890384     -2500.4645
   1   2.0000     -20.596583      -560.4615
   2   2.0000     -20.591609      -560.3262
   3   2.0000     -20.553273      -559.2830
   4   2.0000     -15.630870      -425.3376
   5   2.0000     -15.608390      -424.7259
   6   2.0000     -11.395079      -310.0759
   7   2.0000     -11.385425      -309.8132
   8   2.0000     -11.339607      -308.5664
   9   2.0000     -11.313130      -307.8459
  10   2.0000     -11.306705      -307.6711
  11   2.0000     -11.306668      -307.6701
  12   2.0000     -11.263816      -306.5040
  13   2.0000     -11.261233      -306.4337
  14   2.0000     -11.260275      -306.4077
  15   2.0000     -11.253014      -306.2101
  16   2.0000     -11.242846      -305.9334
  17   2.0000     -11.239242      -305.8353
  18   2.0000     -11.235542      -305.7346
  19   2.0000     -11.227259      -305.5093
  20   2.0000      -8.895463      -242.0579
  21   2.0000      -6.577037      -178.9703
  22   2.0000      -6.575035      -178.9158
  23   2.0000      -6.574444      -178.8997
  24   2.0000      -1.452414       -39.5222
  25   2.0000      -1.416336       -38.5405
  26   2.0000      -1.361648       -37.0523
  27   2.0000      -1.342111       -36.5207
  28   2.0000      -1.239374       -33.7251
  29   2.0000      -1.157478       -31.4966
  30   2.0000      -1.123873       -30.5821
  31   2.0000      -1.045618       -28.4527
  32   2.0000      -1.035011       -28.1641
  33   2.0000      -1.015160       -27.6239
  34   2.0000      -1.003185       -27.2980
  35   2.0000      -0.987721       -26.8773
  36   2.0000      -0.924462       -25.1559
  37   2.0000      -0.885560       -24.0973
  38   2.0000      -0.853590       -23.2274
  39   2.0000      -0.841182       -22.8897
  40   2.0000      -0.833554       -22.6822
  41   2.0000      -0.832187       -22.6450
  42   2.0000      -0.751493       -20.4492
  43   2.0000      -0.736204       -20.0331
  44   2.0000      -0.730188       -19.8694
  45   2.0000      -0.694666       -18.9028
  46   2.0000      -0.686744       -18.6872
  47   2.0000      -0.679479       -18.4896
  48   2.0000      -0.678234       -18.4557
  49   2.0000      -0.665562       -18.1109
  50   2.0000      -0.653030       -17.7698
  51   2.0000      -0.645781       -17.5726
  52   2.0000      -0.637610       -17.3502
  53   2.0000      -0.609102       -16.5745
  54   2.0000      -0.603748       -16.4288
  55   2.0000      -0.600558       -16.3420
  56   2.0000      -0.599806       -16.3215
  57   2.0000      -0.578939       -15.7537
  58   2.0000      -0.576846       -15.6968
  59   2.0000      -0.572901       -15.5894
  60   2.0000      -0.560939       -15.2639
  61   2.0000      -0.556098       -15.1322
  62   2.0000      -0.543279       -14.7834
  63   2.0000      -0.523729       -14.2514
  64   2.0000      -0.518420       -14.1069
  65   2.0000      -0.512919       -13.9572
  66   2.0000      -0.499824       -13.6009
  67   2.0000      -0.497050       -13.5254
  68   2.0000      -0.486374       -13.2349
  69   2.0000      -0.468045       -12.7362
  70   2.0000      -0.460416       -12.5286
  71   2.0000      -0.449971       -12.2443
  72   2.0000      -0.356013        -9.6876
  73   2.0000      -0.349247        -9.5035
  74   2.0000      -0.329507        -8.9663
  75   2.0000      -0.320411        -8.7188
  76   2.0000      -0.319448        -8.6926
  77   0.0000       0.073612         2.0031
  78   0.0000       0.105005         2.8573
  79   0.0000       0.119290         3.2461
  80   0.0000       0.132167         3.5964
  81   0.0000       0.137235         3.7343

MULLIKEN ATOMIC CHARGES
-----------------------
   0 C :   -0.257874
   1 C :    0.009014
   2 O :   -0.359203
   3 C :    0.464959
   4 O :   -0.383803
   5 C :   -0.262041
   6 C :    0.179512
   7 C :   -0.296390
   8 N :   -0.129496
   9 C :    0.205779
  10 S :   -0.439691
  11 N :   -0.214432
  12 C :    0.056307
  13 C :    0.028741
  14 C :   -0.192174
  15 C :   -0.131208
  16 C :   -0.277338
  17 C :    0.314581
  18 O :   -0.357961
  19 C :   -0.258489
  20 H :    0.106168
  21 H :    0.100827
  22 H :    0.089312
  23 H :    0.105093
  24 H :    0.103075
  25 H :    0.137241
  26 H :    0.110068
  27 H :    0.120181
  28 H :    0.198224
  29 H :    0.200219
  30 H :    0.159548
  31 H :    0.168650
  32 H :    0.163039
  33 H :    0.130343
  34 H :    0.240916
  35 H :    0.168304
Sum of atomic charges:   -0.0000000

LOEWDIN ATOMIC CHARGES
----------------------
   0 C :    0.109228
   1 C :   -0.027156
   2 O :    0.300820
   3 C :   -0.422116
   4 O :    0.127376
   5 C :   -0.097117
   6 C :   -0.070706
   7 C :    0.127883
   8 N :    0.405117
   9 C :   -0.457934
  10 S :   -0.035728
  11 N :    0.396105
  12 C :   -0.049554
  13 C :   -0.042943
  14 C :    0.023338
  15 C :    0.042386
  16 C :   -0.000591
  17 C :   -0.193006
  18 O :    0.393576
  19 C :    0.027118
  20 H :   -0.023298
  21 H :   -0.023430
  22 H :   -0.027921
  23 H :   -0.027715
  24 H :   -0.033987
  25 H :   -0.005698
  26 H :   -0.018273
  27 H :   -0.012698
  28 H :   -0.058166
  29 H :   -0.063347
  30 H :   -0.006445
  31 H :   -0.022319
  32 H :   -0.019696
  33 H :   -0.035368
  34 H :   -0.153807
  35 H :   -0.023926

  Mayer bond orders larger than 0.100000
B(  0-C ,  1-C ) :   0.9866 B(  0-C , 20-H ) :   0.9735 B(  0-C , 21-H ) :   0.9771
B(  0-C , 22-H ) :   0.9758 B(  1-C ,  2-O ) :   0.8953 B(  1-C , 23-H ) :   0.9793
B(  1-C , 24-H ) :   0.9619 B(  2-O ,  3-C ) :   1.1046 B(  3-C ,  4-O ) :   2.0640
B(  3-C ,  5-C ) :   0.9788 B(  5-C ,  6-C ) :   1.6770 B(  5-C , 12-C ) :   0.9515
B(  6-C ,  7-C ) :   0.9450 B(  6-C ,  8-N ) :   1.1344 B(  7-C , 25-H ) :   0.9649
B(  7-C , 26-H ) :   0.9882 B(  7-C , 27-H ) :   0.9675 B(  8-N ,  9-C ) :   1.1861
B(  8-N , 28-H ) :   0.9475 B(  9-C , 10-S ) :   1.6126 B(  9-C , 11-N ) :   1.3001
B( 11-N , 12-C ) :   0.9842 B( 11-N , 29-H ) :   0.9487 B( 12-C , 13-C ) :   0.9682
B( 12-C , 30-H ) :   0.9939 B( 13-C , 14-C ) :   1.3818 B( 13-C , 19-C ) :   1.3590
B( 14-C , 15-C ) :   1.3950 B( 14-C , 31-H ) :   0.9605 B( 15-C , 16-C ) :   1.3605
B( 15-C , 32-H ) :   0.9702 B( 16-C , 17-C ) :   1.3320 B( 16-C , 33-H ) :   0.9853
B( 17-C , 18-O ) :   1.1064 B( 17-C , 19-C ) :   1.3653 B( 18-O , 34-H ) :   0.9798
B( 19-C , 35-H ) :   0.9588

MP2 TOTAL ENERGY:    -1274.329078382 Eh
FINAL SINGLE POINT ENERGY     -1274.329078382045

DIPOLE MOMENT
-------------
                                X             Y             Z
Electronic contribution:     10.06887       9.43148       8.09945
Nuclear contribution   :    -11.66033     -10.43317      -8.60670
                        -----------------------------------------
Total Dipole Moment    :     -1.59146      -1.00169      -0.50724
                        -----------------------------------------
Magnitude (a.u.)       :      1.94767
Magnitude (Debye)      :      4.95058

Rotational constants in cm-1:     0.010930     0.009192     0.006108
Rotational constants in MHz :   327.660806   275.566789   183.122377

                             ****ORCA TERMINATED NORMALLY****
TOTAL RUN TIME: 0 days 1 hours 40 minutes 47 seconds 847 msec
