                         Program Version 5.0.0 -  RELEASE  -
|  1> ! RI-MP2 cc-pVTZ cc-pVTZ/c TightSCF KeepDens NoKeepInts
|  2>
|  3> *xyz  0  1
|  4>     C    -8.2492553   -0.6203058   -9.5472132
|  5>     C    -8.6895367   -1.3857000  -10.7636344
|  6>     O    -7.5351578   -1.5527292  -11.5131838
|  7>     C    -7.5924222   -2.1564753  -12.6991876
|  8>     O    -8.5926348   -2.7647202  -13.0929151
|  9>     C    -6.5945336   -1.8069646  -13.7653985
| 10>     C    -5.4421253   -1.1078097  -13.6329088
| 11>     C    -4.8967419   -0.6339812  -12.2492703
| 12>     N    -4.7782738   -0.5927538  -14.6682344
| 13>     C    -5.0736295   -0.8393992  -15.9651742
| 14>     S    -4.1495002    0.0508454  -17.3195671
| 15>     N    -6.1253764   -1.6006182  -16.2556839
| 16>     C    -6.8388686   -2.3080756  -15.2273381
| 17>     C    -6.5067992   -3.7893610  -15.5171876
| 18>     C    -5.2588741   -4.2592560  -15.0807581
| 19>     C    -4.9529837   -5.5960331  -15.0969030
| 20>     C    -5.8588942   -6.5335568  -15.5811706
| 21>     C    -7.1547092   -6.1124575  -16.0109931
| 22>     O    -8.1322274   -7.0323633  -16.3255920
| 23>     C    -7.5029646   -4.7591003  -15.8984541
| 24>     H    -9.1837039   -0.3954769   -9.0330602
| 25>     H    -7.8232680    0.3277080   -9.8757018
| 26>     H    -7.6660247   -1.2306482   -8.8576984
| 27>     H    -9.0374425   -2.3470100  -10.3855536
| 28>     H    -9.5177256   -0.9703332  -11.3378065
| 29>     H    -3.9280990   -0.1790251  -12.4562627
| 30>     H    -4.8288518   -1.5073583  -11.6006524
| 31>     H    -5.4837390    0.1774074  -11.8189412
| 32>     H    -4.0153670    0.0200732  -14.4182019
| 33>     H    -6.3362541   -1.7250840  -17.2355507
| 34>     H    -7.9047829   -2.1339775  -15.3743662
| 35>     H    -4.5109087   -3.6108956  -14.6488017
| 36>     H    -3.9724121   -5.8942983  -14.7564341
| 37>     H    -5.6563452   -7.5939553  -15.6116486
| 38>     H    -8.9917059   -6.6047072  -16.3228881
| 39>     H    -8.4465671   -4.4060531  -16.2875207
| 40> *
| 41>
| 42>                          ****END OF INPUT****

CARTESIAN COORDINATES (ANGSTROEM)
---------------------------------
  C     -8.249255   -0.620306   -9.547213
  C     -8.689537   -1.385700  -10.763634
  O     -7.535158   -1.552729  -11.513184
  C     -7.592422   -2.156475  -12.699188
  O     -8.592635   -2.764720  -13.092915
  C     -6.594534   -1.806965  -13.765398
  C     -5.442125   -1.107810  -13.632909
  C     -4.896742   -0.633981  -12.249270
  N     -4.778274   -0.592754  -14.668234
  C     -5.073630   -0.839399  -15.965174
  S     -4.149500    0.050845  -17.319567
  N     -6.125376   -1.600618  -16.255684
  C     -6.838869   -2.308076  -15.227338
  C     -6.506799   -3.789361  -15.517188
  C     -5.258874   -4.259256  -15.080758
  C     -4.952984   -5.596033  -15.096903
  C     -5.858894   -6.533557  -15.581171
  C     -7.154709   -6.112457  -16.010993
  O     -8.132227   -7.032363  -16.325592
  C     -7.502965   -4.759100  -15.898454
  H     -9.183704   -0.395477   -9.033060
  H     -7.823268    0.327708   -9.875702
  H     -7.666025   -1.230648   -8.857698
  H     -9.037442   -2.347010  -10.385554
  H     -9.517726   -0.970333  -11.337806
  H     -3.928099   -0.179025  -12.456263
  H     -4.828852   -1.507358  -11.600652
  H     -5.483739    0.177407  -11.818941
  H     -4.015367    0.020073  -14.418202
  H     -6.336254   -1.725084  -17.235551
  H     -7.904783   -2.133977  -15.374366
  H     -4.510909   -3.610896  -14.648802
  H     -3.972412   -5.894298  -14.756434
  H     -5.656345   -7.593955  -15.611649
  H     -8.991706   -6.604707  -16.322888
  H     -8.446567   -4.406053  -16.287521

 Total Charge           Charge          ....    0
 Multiplicity           Mult            ....    1
 Number of Electrons    NEL             ....  154
 Basis Dimension        Dim             ....  828

ORBITAL ENERGIES
----------------

  NO   OCC          E(Eh)            E(eV)
   0   2.0000     -91.888684     -2500.4182
   1   2.0000     -20.618488      -561.0576
   2   2.0000     -20.590285      -560.2901
   3   2.0000     -20.545010      -559.0582
   4   2.0000     -15.646654      -425.7671
   5   2.0000     -15.630315      -425.3225
   6   2.0000     -11.403388      -310.3020
   7   2.0000     -11.395125      -310.0771
   8   2.0000     -11.336787      -308.4896
   9   2.0000     -11.314813      -307.8917
  10   2.0000     -11.310236      -307.7672
  11   2.0000     -11.297322      -307.4158
  12   2.0000     -11.268566      -306.6333
  13   2.0000     -11.267055      -306.5922
  14   2.0000     -11.262467      -306.4673
  15   2.0000     -11.245307      -306.0003
  16   2.0000     -11.243276      -305.9451
  17   2.0000     -11.239389      -305.8393
  18   2.0000     -11.234490      -305.7060
  19   2.0000     -11.231388      -305.6216
  20   2.0000      -8.888230      -241.8610
  21   2.0000      -6.569301      -178.7598
  22   2.0000      -6.567355      -178.7068
  23   2.0000      -6.567014      -178.6975
  24   2.0000      -1.483628       -40.3716
  25   2.0000      -1.402623       -38.1673
  26   2.0000      -1.376197       -37.4482
  27   2.0000      -1.362257       -37.0689
  28   2.0000      -1.275397       -34.7053
  29   2.0000      -1.154986       -31.4288
  30   2.0000      -1.120359       -30.4865
  31   2.0000      -1.065315       -28.9887
  32   2.0000      -1.039348       -28.2821
  33   2.0000      -1.016347       -27.6562
  34   2.0000      -1.003645       -27.3106
  35   2.0000      -0.966483       -26.2993
  36   2.0000      -0.920078       -25.0366
  37   2.0000      -0.901530       -24.5319
  38   2.0000      -0.857752       -23.3406
  39   2.0000      -0.847209       -23.0537
  40   2.0000      -0.830584       -22.6013
  41   2.0000      -0.814899       -22.1745
  42   2.0000      -0.786920       -21.4132
  43   2.0000      -0.755255       -20.5515
  44   2.0000      -0.732965       -19.9450
  45   2.0000      -0.712864       -19.3980
  46   2.0000      -0.705211       -19.1898
  47   2.0000      -0.697953       -18.9923
  48   2.0000      -0.682156       -18.5624
  49   2.0000      -0.677845       -18.4451
  50   2.0000      -0.667200       -18.1554
  51   2.0000      -0.649132       -17.6638
  52   2.0000      -0.636342       -17.3157
  53   2.0000      -0.618503       -16.8303
  54   2.0000      -0.611529       -16.6406
  55   2.0000      -0.603521       -16.4226
  56   2.0000      -0.593669       -16.1545
  57   2.0000      -0.589893       -16.0518
  58   2.0000      -0.573972       -15.6186
  59   2.0000      -0.570261       -15.5176
  60   2.0000      -0.566419       -15.4131
  61   2.0000      -0.553634       -15.0651
  62   2.0000      -0.536794       -14.6069
  63   2.0000      -0.532842       -14.4994
  64   2.0000      -0.515722       -14.0335
  65   2.0000      -0.508616       -13.8402
  66   2.0000      -0.507315       -13.8047
  67   2.0000      -0.488891       -13.3034
  68   2.0000      -0.476549       -12.9676
  69   2.0000      -0.468169       -12.7395
  70   2.0000      -0.462016       -12.5721
  71   2.0000      -0.457058       -12.4372
  72   2.0000      -0.353967        -9.6319
  73   2.0000      -0.343181        -9.3384
  74   2.0000      -0.321961        -8.7610
  75   2.0000      -0.313328        -8.5261
  76   2.0000      -0.302784        -8.2392
  77   0.0000       0.063390         1.7249
  78   0.0000       0.110587         3.0092
  79   0.0000       0.114541         3.1168
  80   0.0000       0.128578         3.4988
  81   0.0000       0.131057         3.5663

MULLIKEN ATOMIC CHARGES
-----------------------
   0 C :   -0.270727
   1 C :    0.038234
   2 O :   -0.284699
   3 C :    0.418619
   4 O :   -0.442851
   5 C :   -0.162302
   6 C :    0.074306
   7 C :   -0.280036
   8 N :   -0.066774
   9 C :    0.186021
  10 S :   -0.507341
  11 N :   -0.132120
  12 C :    0.018644
  13 C :    0.034381
  14 C :   -0.229881
  15 C :   -0.120395
  16 C :   -0.221605
  17 C :    0.287977
  18 O :   -0.361860
  19 C :   -0.220196
  20 H :    0.091076
  21 H :    0.092142
  22 H :    0.107433
  23 H :    0.089832
  24 H :    0.096531
  25 H :    0.094300
  26 H :    0.131853
  27 H :    0.137250
  28 H :    0.205814
  29 H :    0.207147
  30 H :    0.149185
  31 H :    0.150972
  32 H :    0.156658
  33 H :    0.162395
  34 H :    0.242475
  35 H :    0.127544
Sum of atomic charges:    0.0000000

LOEWDIN ATOMIC CHARGES
----------------------
   0 C :    0.110455
   1 C :   -0.059506
   2 O :    0.371335
   3 C :   -0.422337
   4 O :    0.078934
   5 C :   -0.083475
   6 C :   -0.101310
   7 C :    0.151701
   8 N :    0.425065
   9 C :   -0.306416
  10 S :   -0.260220
  11 N :    0.432708
  12 C :   -0.046778
  13 C :   -0.022860
  14 C :    0.005062
  15 C :    0.028681
  16 C :    0.032395
  17 C :   -0.160801
  18 O :    0.382602
  19 C :    0.020295
  20 H :   -0.021581
  21 H :   -0.031027
  22 H :   -0.024128
  23 H :   -0.026342
  24 H :   -0.026846
  25 H :   -0.028792
  26 H :   -0.015560
  27 H :   -0.016013
  28 H :   -0.037473
  29 H :   -0.041628
  30 H :   -0.018186
  31 H :   -0.030851
  32 H :   -0.019397
  33 H :   -0.029383
  34 H :   -0.169902
  35 H :   -0.038418

  Mayer bond orders larger than 0.100000
B(  0-C ,  1-C ) :   0.9662 B(  0-C , 20-H ) :   0.9803 B(  0-C , 21-H ) :   0.9791
B(  0-C , 22-H ) :   0.9785 B(  1-C ,  2-O ) :   0.9050 B(  1-C , 23-H ) :   0.9816
B(  1-C , 24-H ) :   0.9725 B(  2-O ,  3-C ) :   1.2023 B(  3-C ,  4-O ) :   1.9490
B(  3-C ,  5-C ) :   1.0691 B(  5-C ,  6-C ) :   1.6088 B(  5-C , 12-C ) :   0.9867
B(  6-C ,  7-C ) :   0.9524 B(  6-C ,  8-N ) :   1.1892 B(  7-C , 25-H ) :   0.9881
B(  7-C , 26-H ) :   0.9719 B(  7-C , 27-H ) :   0.9613 B(  8-N ,  9-C ) :   1.2042
B(  8-N , 28-H ) :   0.9430 B(  9-C , 10-S ) :   1.3212 B(  9-C , 11-N ) :   1.4280
B( 11-N , 12-C ) :   0.9612 B( 11-N , 29-H ) :   0.9428 B( 12-C , 13-C ) :   0.9455
B( 12-C , 30-H ) :   0.9936 B( 13-C , 14-C ) :   1.3826 B( 13-C , 19-C ) :   1.3310
B( 14-C , 15-C ) :   1.3833 B( 14-C , 31-H ) :   0.9762 B( 15-C , 16-C ) :   1.3909
B( 15-C , 32-H ) :   0.9758 B( 16-C , 17-C ) :   1.3383 B( 16-C , 33-H ) :   0.9679
B( 17-C , 18-O ) :   1.0947 B( 17-C , 19-C ) :   1.3750 B( 18-O , 34-H ) :   0.9792
B( 19-C , 35-H ) :   0.9741

MP2 TOTAL ENERGY:    -1274.284796658 Eh
FINAL SINGLE POINT ENERGY     -1274.284796657754

DIPOLE MOMENT
-------------
                                X             Y             Z
Electronic contribution:      3.96362      -2.72846     -17.27011
Nuclear contribution   :     -4.76336       2.79968      19.82694
                        -----------------------------------------
Total Dipole Moment    :     -0.79975       0.07123       2.55682
                        -----------------------------------------
Magnitude (a.u.)       :      2.67993
Magnitude (Debye)      :      6.81184

Rotational constants in cm-1:     0.010160     0.008176     0.005177
Rotational constants in MHz :   304.599514   245.107993   155.190811

                             ****ORCA TERMINATED NORMALLY****
TOTAL RUN TIME: 0 days 2 hours 1 minutes 4 seconds 274 msec
