                         Program Version 5.0.0 -  RELEASE  -
|  1> ! RI-MP2 cc-pVTZ cc-pVTZ/c TightSCF KeepDens NoKeepInts
|  2>
|  3> %pointcharges "srfp_output"
|  4>
|  5> *xyz  0  1
|  6>     C    -8.2492553   -0.6203058   -9.5472132
|  7>     C    -8.6895367   -1.3857000  -10.7636344
|  8>     O    -7.5351578   -1.5527292  -11.5131838
|  9>     C    -7.5924222   -2.1564753  -12.6991876
| 10>     O    -8.5926348   -2.7647202  -13.0929151
| 11>     C    -6.5945336   -1.8069646  -13.7653985
| 12>     C    -5.4421253   -1.1078097  -13.6329088
| 13>     C    -4.8967419   -0.6339812  -12.2492703
| 14>     N    -4.7782738   -0.5927538  -14.6682344
| 15>     C    -5.0736295   -0.8393992  -15.9651742
| 16>     S    -4.1495002    0.0508454  -17.3195671
| 17>     N    -6.1253764   -1.6006182  -16.2556839
| 18>     C    -6.8388686   -2.3080756  -15.2273381
| 19>     C    -6.5067992   -3.7893610  -15.5171876
| 20>     C    -5.2588741   -4.2592560  -15.0807581
| 21>     C    -4.9529837   -5.5960331  -15.0969030
| 22>     C    -5.8588942   -6.5335568  -15.5811706
| 23>     C    -7.1547092   -6.1124575  -16.0109931
| 24>     O    -8.1322274   -7.0323633  -16.3255920
| 25>     C    -7.5029646   -4.7591003  -15.8984541
| 26>     H    -9.1837039   -0.3954769   -9.0330602
| 27>     H    -7.8232680    0.3277080   -9.8757018
| 28>     H    -7.6660247   -1.2306482   -8.8576984
| 29>     H    -9.0374425   -2.3470100  -10.3855536
| 30>     H    -9.5177256   -0.9703332  -11.3378065
| 31>     H    -3.9280990   -0.1790251  -12.4562627
| 32>     H    -4.8288518   -1.5073583  -11.6006524
| 33>     H    -5.4837390    0.1774074  -11.8189412
| 34>     H    -4.0153670    0.0200732  -14.4182019
| 35>     H    -6.3362541   -1.7250840  -17.2355507
| 36>     H    -7.9047829   -2.1339775  -15.3743662
| 37>     H    -4.5109087   -3.6108956  -14.6488017
| 38>     H    -3.9724121   -5.8942983  -14.7564341
| 39>     H    -5.6563452   -7.5939553  -15.6116486
| 40>     H    -8.9917059   -6.6047072  -16.3228881
| 41>     H    -8.4465671   -4.4060531  -16.2875207
| 42> *
| 43>
| 44>                          ****END OF INPUT****

CARTESIAN COORDINATES (ANGSTROEM)
---------------------------------
  C     -8.249255   -0.620306   -9.547213
  C     -8.689537   -1.385700  -10.763634
  O     -7.535158   -1.552729  -11.513184
  C     -7.592422   -2.156475  -12.699188
  O     -8.592635   -2.764720  -13.092915
  C     -6.594534   -1.806965  -13.765398
  C     -5.442125   -1.107810  -13.632909
  C     -4.896742   -0.633981  -12.249270
  N     -4.778274   -0.592754  -14.668234
  C     -5.073630   -0.839399  -15.965174
  S     -4.149500    0.050845  -17.319567
  N     -6.125376   -1.600618  -16.255684
  C     -6.838869   -2.308076  -15.227338
  C     -6.506799   -3.789361  -15.517188
  C     -5.258874   -4.259256  -15.080758
  C     -4.952984   -5.596033  -15.096903
  C     -5.858894   -6.533557  -15.581171
  C     -7.154709   -6.112457  -16.010993
  O     -8.132227   -7.032363  -16.325592
  C     -7.502965   -4.759100  -15.898454
  H     -9.183704   -0.395477   -9.033060
  H     -7.823268    0.327708   -9.875702
  H     -7.666025   -1.230648   -8.857698
  H     -9.037442   -2.347010  -10.385554
  H     -9.517726   -0.970333  -11.337806
  H     -3.928099   -0.179025  -12.456263
  H     -4.828852   -1.507358  -11.600652
  H     -5.483739    0.177407  -11.818941
  H     -4.015367    0.020073  -14.418202
  H     -6.336254   -1.725084  -17.235551
  H     -7.904783   -2.133977  -15.374366
  H     -4.510909   -3.610896  -14.648802
  H     -3.972412   -5.894298  -14.756434
  H     -5.656345   -7.593955  -15.611649
  H     -8.991706   -6.604707  -16.322888
  H     -8.446567   -4.406053  -16.287521

 Total Charge           Charge          ....    0
 Multiplicity           Mult            ....    1
 Number of Electrons    NEL             ....  154
 Basis Dimension        Dim             ....  828

ORBITAL ENERGIES
----------------

  NO   OCC          E(Eh)            E(eV)
   0   2.0000     -91.894449     -2500.5751
   1   2.0000     -20.605608      -560.7071
   2   2.0000     -20.576090      -559.9039
   3   2.0000     -20.547597      -559.1285
   4   2.0000     -15.627311      -425.2407
   5   2.0000     -15.618340      -424.9966
   6   2.0000     -11.403792      -310.3130
   7   2.0000     -11.392579      -310.0078
   8   2.0000     -11.320283      -308.0406
   9   2.0000     -11.305559      -307.6399
  10   2.0000     -11.296207      -307.3854
  11   2.0000     -11.272700      -306.7458
  12   2.0000     -11.252520      -306.1966
  13   2.0000     -11.249354      -306.1105
  14   2.0000     -11.233794      -305.6871
  15   2.0000     -11.233066      -305.6673
  16   2.0000     -11.232593      -305.6544
  17   2.0000     -11.230783      -305.6051
  18   2.0000     -11.220241      -305.3183
  19   2.0000     -11.203233      -304.8555
  20   2.0000      -8.895085      -242.0476
  21   2.0000      -6.576459      -178.9546
  22   2.0000      -6.574660      -178.9056
  23   2.0000      -6.574384      -178.8981
  24   2.0000      -1.473749       -40.1027
  25   2.0000      -1.389859       -37.8200
  26   2.0000      -1.365216       -37.1494
  27   2.0000      -1.359519       -36.9944
  28   2.0000      -1.259117       -34.2623
  29   2.0000      -1.145982       -31.1838
  30   2.0000      -1.105709       -30.0879
  31   2.0000      -1.043060       -28.3831
  32   2.0000      -1.023851       -27.8604
  33   2.0000      -1.004894       -27.3446
  34   2.0000      -0.982790       -26.7431
  35   2.0000      -0.955612       -26.0035
  36   2.0000      -0.904533       -24.6136
  37   2.0000      -0.881684       -23.9918
  38   2.0000      -0.849665       -23.1206
  39   2.0000      -0.835128       -22.7250
  40   2.0000      -0.815461       -22.1898
  41   2.0000      -0.803109       -21.8537
  42   2.0000      -0.773247       -21.0411
  43   2.0000      -0.741495       -20.1771
  44   2.0000      -0.719988       -19.5919
  45   2.0000      -0.696473       -18.9520
  46   2.0000      -0.693219       -18.8635
  47   2.0000      -0.684789       -18.6341
  48   2.0000      -0.673765       -18.3341
  49   2.0000      -0.665872       -18.1193
  50   2.0000      -0.655049       -17.8248
  51   2.0000      -0.630763       -17.1639
  52   2.0000      -0.617947       -16.8152
  53   2.0000      -0.599702       -16.3187
  54   2.0000      -0.594318       -16.1722
  55   2.0000      -0.584984       -15.9182
  56   2.0000      -0.581087       -15.8122
  57   2.0000      -0.570171       -15.5151
  58   2.0000      -0.559466       -15.2238
  59   2.0000      -0.555187       -15.1074
  60   2.0000      -0.543172       -14.7805
  61   2.0000      -0.527145       -14.3443
  62   2.0000      -0.519401       -14.1336
  63   2.0000      -0.517229       -14.0745
  64   2.0000      -0.498566       -13.5667
  65   2.0000      -0.494901       -13.4669
  66   2.0000      -0.494464       -13.4551
  67   2.0000      -0.481924       -13.1138
  68   2.0000      -0.474999       -12.9254
  69   2.0000      -0.462356       -12.5814
  70   2.0000      -0.453154       -12.3310
  71   2.0000      -0.448752       -12.2112
  72   2.0000      -0.340789        -9.2733
  73   2.0000      -0.335287        -9.1236
  74   2.0000      -0.324110        -8.8195
  75   2.0000      -0.322362        -8.7719
  76   2.0000      -0.307749        -8.3743
  77   0.0000       0.073527         2.0008
  78   0.0000       0.123143         3.3509
  79   0.0000       0.139759         3.8030
  80   0.0000       0.152158         4.1404
  81   0.0000       0.164112         4.4657

MULLIKEN ATOMIC CHARGES
-----------------------
   0 C :   -0.272702
   1 C :    0.035184
   2 O :   -0.269562
   3 C :    0.445723
   4 O :   -0.559865
   5 C :   -0.173474
   6 C :    0.095346
   7 C :   -0.270720
   8 N :   -0.074937
   9 C :    0.283922
  10 S :   -0.684388
  11 N :   -0.141255
  12 C :    0.039418
  13 C :    0.014161
  14 C :   -0.251483
  15 C :   -0.135285
  16 C :   -0.267390
  17 C :    0.261067
  18 O :   -0.430443
  19 C :   -0.267349
  20 H :    0.103297
  21 H :    0.095210
  22 H :    0.109847
  23 H :    0.094541
  24 H :    0.101897
  25 H :    0.116253
  26 H :    0.133594
  27 H :    0.141258
  28 H :    0.255942
  29 H :    0.251392
  30 H :    0.157463
  31 H :    0.184648
  32 H :    0.190447
  33 H :    0.180600
  34 H :    0.318760
  35 H :    0.188883
Sum of atomic charges:   -0.0000000

LOEWDIN ATOMIC CHARGES
----------------------
   0 C :    0.115051
   1 C :   -0.058090
   2 O :    0.381458
   3 C :   -0.409215
   4 O :   -0.001482
   5 C :   -0.090252
   6 C :   -0.079549
   7 C :    0.162644
   8 N :    0.440448
   9 C :   -0.276685
  10 S :   -0.373447
  11 N :    0.449859
  12 C :   -0.043130
  13 C :   -0.031284
  14 C :    0.003230
  15 C :    0.027537
  16 C :    0.012359
  17 C :   -0.184354
  18 O :    0.355871
  19 C :    0.018531
  20 H :   -0.016351
  21 H :   -0.029045
  22 H :   -0.022643
  23 H :   -0.025120
  24 H :   -0.024975
  25 H :   -0.016921
  26 H :   -0.013293
  27 H :   -0.012180
  28 H :   -0.012168
  29 H :   -0.019517
  30 H :   -0.014830
  31 H :   -0.021182
  32 H :   -0.009137
  33 H :   -0.027678
  34 H :   -0.132075
  35 H :   -0.022382

  Mayer bond orders larger than 0.100000
B(  0-C ,  1-C ) :   0.9737 B(  0-C , 20-H ) :   0.9774 B(  0-C , 21-H ) :   0.9796
B(  0-C , 22-H ) :   0.9777 B(  1-C ,  2-O ) :   0.8898 B(  1-C , 23-H ) :   0.9789
B(  1-C , 24-H ) :   0.9713 B(  2-O ,  3-C ) :   1.2421 B(  3-C ,  4-O ) :   1.9004
B(  3-C ,  5-C ) :   1.0929 B(  5-C ,  6-C ) :   1.5710 B(  5-C , 12-C ) :   0.9842
B(  6-C ,  7-C ) :   0.9530 B(  6-C ,  8-N ) :   1.2098 B(  7-C , 25-H ) :   0.9846
B(  7-C , 26-H ) :   0.9694 B(  7-C , 27-H ) :   0.9569 B(  8-N ,  9-C ) :   1.2451
B(  8-N , 28-H ) :   0.9193 B(  9-C , 10-S ) :   1.1615 B(  9-C , 11-N ) :   1.4898
B( 11-N , 12-C ) :   0.9597 B( 11-N , 29-H ) :   0.9219 B( 12-C , 13-C ) :   0.9478
B( 12-C , 30-H ) :   0.9900 B( 13-C , 14-C ) :   1.3590 B( 13-C , 19-C ) :   1.2884
B( 14-C , 15-C ) :   1.3843 B( 14-C , 31-H ) :   0.9669 B( 15-C , 16-C ) :   1.3782
B( 15-C , 32-H ) :   0.9644 B( 16-C , 17-C ) :   1.3272 B( 16-C , 33-H ) :   0.9604
B( 17-C , 18-O ) :   1.1063 B( 17-C , 19-C ) :   1.3799 B( 18-O , 34-H ) :   0.9209
B( 19-C , 35-H ) :   0.9596

MP2 TOTAL ENERGY:    -1274.391000111 Eh
FINAL SINGLE POINT ENERGY     -1274.391000111136

DIPOLE MOMENT
-------------
                                X             Y             Z
Electronic contribution:      4.00159      -2.36907     -16.54021
Nuclear contribution   :     -4.76336       2.79968      19.82694
                        -----------------------------------------
Total Dipole Moment    :     -0.76178       0.43061       3.28672
                        -----------------------------------------
Magnitude (a.u.)       :      3.40122
Magnitude (Debye)      :      8.64521

Rotational constants in cm-1:     0.010160     0.008176     0.005177
Rotational constants in MHz :   304.599514   245.107993   155.190811

                             ****ORCA TERMINATED NORMALLY****
TOTAL RUN TIME: 0 days 1 hours 53 minutes 18 seconds 589 msec
