                         Program Version 4.2.0 -  RELEASE  -
|  1> ! ri-mp2 cc-pvtz cc-pvtz/c TightSCF NoKeepInts
|  2>
|  3> %scf
|  4>   MaxCore 4096
|  5> end
|  6> *xyz  0  1
|  7>     C       15.8717759   13.4367079   17.3778846
|  8>     C       16.2417290   14.1793319   16.0843989
|  9>     O       17.3375482   15.0779304   16.3565898
| 10>     C       17.1625321   16.4162233   16.1372525
| 11>     O       16.4600974   16.8198820   15.2261284
| 12>     C       17.6303651   17.2755139   17.2805985
| 13>     C       17.4069049   18.6149256   17.3230751
| 14>     C       16.6316959   19.4523075   16.3281165
| 15>     N       17.9674973   19.3850695   18.3470725
| 16>     C       18.9115961   18.9341746   19.2309343
| 17>     S       19.6657654   19.9455021   20.3008199
| 18>     N       19.2137295   17.5977174   19.1686626
| 19>     C       18.4509976   16.6023037   18.3940465
| 20>     C       17.6011942   15.7802371   19.3574319
| 21>     C       18.0520243   14.5198333   19.7927887
| 22>     C       17.2984607   13.7673231   20.7095705
| 23>     C       16.0866953   14.2818000   21.2010586
| 24>     C       15.6407279   15.5419880   20.7799288
| 25>     O       14.4740695   16.0441407   21.2568291
| 26>     C       16.3925520   16.2887253   19.8675443
| 27>     H       16.7431803   12.9128414   17.7884470
| 28>     H       15.0878516   12.6952268   17.1827274
| 29>     H       15.4939880   14.1370230   18.1314113
| 30>     H       16.5474370   13.4541287   15.3193431
| 31>     H       15.3566916   14.7116304   15.7096346
| 32>     H       15.6006916   19.0872142   16.2373792
| 33>     H       17.0894137   19.3907009   15.3325278
| 34>     H       16.5828324   20.5119819   16.6047421
| 35>     H       17.7646598   20.3706858   18.3965249
| 36>     H       19.8932195   17.2880390   19.8512253
| 37>     H       19.1751043   15.9288969   17.9139851
| 38>     H       18.9906759   14.1210923   19.4175054
| 39>     H       17.6549543   12.7924735   21.0378414
| 40>     H       15.5017146   13.7049915   21.9098905
| 41>     H       14.1311116   15.4150743   21.9093235
| 42>     H       16.0355156   17.2683623   19.5707594
| 43> *
| 44>
| 45>                          ****END OF INPUT****

CARTESIAN COORDINATES (ANGSTROEM)
---------------------------------
  C     15.871776   13.436708   17.377885
  C     16.241729   14.179332   16.084399
  O     17.337548   15.077930   16.356590
  C     17.162532   16.416223   16.137252
  O     16.460097   16.819882   15.226128
  C     17.630365   17.275514   17.280598
  C     17.406905   18.614926   17.323075
  C     16.631696   19.452307   16.328117
  N     17.967497   19.385070   18.347072
  C     18.911596   18.934175   19.230934
  S     19.665765   19.945502   20.300820
  N     19.213729   17.597717   19.168663
  C     18.450998   16.602304   18.394047
  C     17.601194   15.780237   19.357432
  C     18.052024   14.519833   19.792789
  C     17.298461   13.767323   20.709570
  C     16.086695   14.281800   21.201059
  C     15.640728   15.541988   20.779929
  O     14.474069   16.044141   21.256829
  C     16.392552   16.288725   19.867544
  H     16.743180   12.912841   17.788447
  H     15.087852   12.695227   17.182727
  H     15.493988   14.137023   18.131411
  H     16.547437   13.454129   15.319343
  H     15.356692   14.711630   15.709635
  H     15.600692   19.087214   16.237379
  H     17.089414   19.390701   15.332528
  H     16.582832   20.511982   16.604742
  H     17.764660   20.370686   18.396525
  H     19.893220   17.288039   19.851225
  H     19.175104   15.928897   17.913985
  H     18.990676   14.121092   19.417505
  H     17.654954   12.792473   21.037841
  H     15.501715   13.704992   21.909890
  H     14.131112   15.415074   21.909323
  H     16.035516   17.268362   19.570759

 Total Charge           Charge          ....    0
 Multiplicity           Mult            ....    1
 Number of Electrons    NEL             ....  154
 Basis Dimension        Dim             ....  828

ORBITAL ENERGIES
----------------

  NO   OCC          E(Eh)            E(eV)
   0   2.0000     -91.889514     -2500.4408
   1   2.0000     -20.599481      -560.5404
   2   2.0000     -20.594407      -560.4023
   3   2.0000     -20.542851      -558.9994
   4   2.0000     -15.630226      -425.3201
   5   2.0000     -15.608364      -424.7252
   6   2.0000     -11.394170      -310.0511
   7   2.0000     -11.384198      -309.7798
   8   2.0000     -11.337022      -308.4961
   9   2.0000     -11.316687      -307.9427
  10   2.0000     -11.310062      -307.7624
  11   2.0000     -11.293626      -307.3152
  12   2.0000     -11.261917      -306.4523
  13   2.0000     -11.259711      -306.3923
  14   2.0000     -11.257797      -306.3402
  15   2.0000     -11.252568      -306.1979
  16   2.0000     -11.245428      -306.0037
  17   2.0000     -11.240144      -305.8599
  18   2.0000     -11.239868      -305.8523
  19   2.0000     -11.221004      -305.3390
  20   2.0000      -8.894548      -242.0330
  21   2.0000      -6.576117      -178.9452
  22   2.0000      -6.574120      -178.8909
  23   2.0000      -6.573529      -178.8748
  24   2.0000      -1.448974       -39.4286
  25   2.0000      -1.419145       -38.6169
  26   2.0000      -1.352314       -36.7983
  27   2.0000      -1.341208       -36.4961
  28   2.0000      -1.239485       -33.7281
  29   2.0000      -1.159539       -31.5527
  30   2.0000      -1.120738       -30.4968
  31   2.0000      -1.043845       -28.4045
  32   2.0000      -1.034961       -28.1627
  33   2.0000      -1.017802       -27.6958
  34   2.0000      -0.996804       -27.1244
  35   2.0000      -0.984765       -26.7968
  36   2.0000      -0.923827       -25.1386
  37   2.0000      -0.887095       -24.1391
  38   2.0000      -0.847738       -23.0681
  39   2.0000      -0.840223       -22.8636
  40   2.0000      -0.835466       -22.7342
  41   2.0000      -0.816305       -22.2128
  42   2.0000      -0.761755       -20.7284
  43   2.0000      -0.734084       -19.9754
  44   2.0000      -0.720873       -19.6159
  45   2.0000      -0.698270       -19.0009
  46   2.0000      -0.689116       -18.7518
  47   2.0000      -0.678430       -18.4610
  48   2.0000      -0.672067       -18.2879
  49   2.0000      -0.666458       -18.1352
  50   2.0000      -0.647883       -17.6298
  51   2.0000      -0.645178       -17.5562
  52   2.0000      -0.637715       -17.3531
  53   2.0000      -0.610423       -16.6105
  54   2.0000      -0.602994       -16.4083
  55   2.0000      -0.599930       -16.3249
  56   2.0000      -0.585366       -15.9286
  57   2.0000      -0.578219       -15.7341
  58   2.0000      -0.571383       -15.5481
  59   2.0000      -0.567167       -15.4334
  60   2.0000      -0.565100       -15.3772
  61   2.0000      -0.551000       -14.9935
  62   2.0000      -0.537231       -14.6188
  63   2.0000      -0.527746       -14.3607
  64   2.0000      -0.522127       -14.2078
  65   2.0000      -0.513199       -13.9648
  66   2.0000      -0.503312       -13.6958
  67   2.0000      -0.494970       -13.4688
  68   2.0000      -0.483856       -13.1664
  69   2.0000      -0.462996       -12.5988
  70   2.0000      -0.451595       -12.2885
  71   2.0000      -0.446890       -12.1605
  72   2.0000      -0.356582        -9.7031
  73   2.0000      -0.352203        -9.5839
  74   2.0000      -0.329189        -8.9577
  75   2.0000      -0.323923        -8.8144
  76   2.0000      -0.316611        -8.6154
  77   0.0000       0.073397         1.9972
  78   0.0000       0.104454         2.8423
  79   0.0000       0.122565         3.3352
  80   0.0000       0.130380         3.5478
  81   0.0000       0.133928         3.6444

MULLIKEN ATOMIC CHARGES
-----------------------
   0 C :   -0.293944
   1 C :    0.039515
   2 O :   -0.368198
   3 C :    0.472884
   4 O :   -0.423884
   5 C :   -0.247150
   6 C :    0.151720
   7 C :   -0.269173
   8 N :   -0.123018
   9 C :    0.216429
  10 S :   -0.439805
  11 N :   -0.206245
  12 C :    0.049993
  13 C :    0.085332
  14 C :   -0.211128
  15 C :   -0.118765
  16 C :   -0.275127
  17 C :    0.305216
  18 O :   -0.359190
  19 C :   -0.254423
  20 H :    0.096814
  21 H :    0.109766
  22 H :    0.105039
  23 H :    0.102494
  24 H :    0.101778
  25 H :    0.129663
  26 H :    0.133749
  27 H :    0.094770
  28 H :    0.198308
  29 H :    0.193156
  30 H :    0.149740
  31 H :    0.149737
  32 H :    0.162892
  33 H :    0.132167
  34 H :    0.241545
  35 H :    0.167343
Sum of atomic charges:    0.0000000

LOEWDIN ATOMIC CHARGES
----------------------
   0 C :    0.103656
   1 C :   -0.011555
   2 O :    0.294394
   3 C :   -0.416229
   4 O :    0.103234
   5 C :   -0.096289
   6 C :   -0.057753
   7 C :    0.130935
   8 N :    0.407508
   9 C :   -0.455016
  10 S :   -0.034443
  11 N :    0.396290
  12 C :   -0.053312
  13 C :   -0.035290
  14 C :    0.014933
  15 C :    0.045047
  16 C :   -0.001486
  17 C :   -0.190470
  18 O :    0.396139
  19 C :    0.028920
  20 H :   -0.029782
  21 H :   -0.026591
  22 H :   -0.025977
  23 H :   -0.029461
  24 H :   -0.028004
  25 H :   -0.005388
  26 H :   -0.003246
  27 H :   -0.023380
  28 H :   -0.057505
  29 H :   -0.065927
  30 H :   -0.007949
  31 H :   -0.031132
  32 H :   -0.020637
  33 H :   -0.035094
  34 H :   -0.153103
  35 H :   -0.026039

  Mayer bond orders larger than 0.100000
B(  0-C ,  1-C ) :   0.9730 B(  0-C , 20-H ) :   0.9740 B(  0-C , 21-H ) :   0.9785
B(  0-C , 22-H ) :   0.9730 B(  1-C ,  2-O ) :   0.8870 B(  1-C , 23-H ) :   0.9877
B(  1-C , 24-H ) :   0.9720 B(  2-O ,  3-C ) :   1.1434 B(  3-C ,  4-O ) :   1.9861
B(  3-C ,  5-C ) :   1.0656 B(  5-C ,  6-C ) :   1.6500 B(  5-C , 12-C ) :   0.9758
B(  6-C ,  7-C ) :   0.9695 B(  6-C ,  8-N ) :   1.1585 B(  7-C , 25-H ) :   0.9617
B(  7-C , 26-H ) :   0.9582 B(  7-C , 27-H ) :   0.9900 B(  8-N ,  9-C ) :   1.1812
B(  8-N , 28-H ) :   0.9479 B(  9-C , 10-S ) :   1.6058 B(  9-C , 11-N ) :   1.3064
B( 11-N , 12-C ) :   0.9629 B( 11-N , 29-H ) :   0.9533 B( 12-C , 13-C ) :   0.9463
B( 12-C , 30-H ) :   1.0019 B( 13-C , 14-C ) :   1.3451 B( 13-C , 19-C ) :   1.3735
B( 14-C , 15-C ) :   1.3829 B( 14-C , 31-H ) :   0.9753 B( 15-C , 16-C ) :   1.3655
B( 15-C , 32-H ) :   0.9701 B( 16-C , 17-C ) :   1.3301 B( 16-C , 33-H ) :   0.9845
B( 17-C , 18-O ) :   1.1127 B( 17-C , 19-C ) :   1.3733 B( 18-O , 34-H ) :   0.9793
B( 19-C , 35-H ) :   0.9572

MP2 TOTAL ENERGY:    -1274.342691323 Eh
FINAL SINGLE POINT ENERGY     -1274.342691323114

DIPOLE MOMENT
-------------
                                X             Y             Z
Electronic contribution:      8.26487      11.13182       5.00152
Nuclear contribution   :     -9.25115     -12.76865      -5.04228
                        -----------------------------------------
Total Dipole Moment    :     -0.98627      -1.63683      -0.04075
                        -----------------------------------------
Magnitude (a.u.)       :      1.91144
Magnitude (Debye)      :      4.85849

Rotational constants in cm-1:     0.012181     0.009035     0.006466
Rotational constants in MHz :   365.182124   270.862759   193.833719

                             ****ORCA TERMINATED NORMALLY****
TOTAL RUN TIME: 0 days 1 hours 39 minutes 9 seconds 956 msec
