                         Program Version 4.2.0 -  RELEASE  -
|  1> ! ri-mp2 cc-pvtz cc-pvtz/c TightSCF NoKeepInts
|  2>
|  3> %scf
|  4>   MaxCore 4096
|  5> end
|  6> *xyz  0  1
|  7>     C       14.9860396   14.4146889   16.7009566
|  8>     C       16.4689887   13.9880121   16.6137972
|  9>     O       17.4098803   15.0847339   16.4856182
| 10>     C       17.0493776   16.3992629   16.3615623
| 11>     O       16.2624336   16.7807381   15.5129737
| 12>     C       17.6835650   17.2835369   17.4005589
| 13>     C       17.4983136   18.6283129   17.4208843
| 14>     C       16.6687118   19.4551057   16.4617649
| 15>     N       18.1323608   19.4098955   18.3910578
| 16>     C       19.0294897   18.9414718   19.3128745
| 17>     S       19.7966635   19.9480466   20.3778894
| 18>     N       19.2642752   17.5905834   19.3069686
| 19>     C       18.5504516   16.6051545   18.4753348
| 20>     C       17.7438238   15.6723396   19.3740566
| 21>     C       18.2278943   14.3849013   19.6730709
| 22>     C       17.4869197   13.5142180   20.4897642
| 23>     C       16.2534754   13.9353715   21.0150912
| 24>     C       15.7736919   15.2206447   20.7283708
| 25>     O       14.5840386   15.6310010   21.2350536
| 26>     C       16.5137542   16.0854793   19.9165062
| 27>     H       14.8298126   15.1484574   17.5016156
| 28>     H       14.3564170   13.5438141   16.9188428
| 29>     H       14.6379427   14.8426713   15.7526290
| 30>     H       16.7207298   13.4116134   17.5128970
| 31>     H       16.5890492   13.3155347   15.7546827
| 32>     H       15.6165678   19.1445753   16.4960449
| 33>     H       17.0169481   19.3146219   15.4304631
| 34>     H       16.7042697   20.5291432   16.6784437
| 35>     H       17.9742539   20.4047540   18.4089056
| 36>     H       19.9023269   17.2713428   20.0243906
| 37>     H       19.3102749   16.0071495   17.9524790
| 38>     H       19.1799464   14.0557594   19.2649796
| 39>     H       17.8691179   12.5197746   20.7144638
| 40>     H       15.6774346   13.2667653   21.6465272
| 41>     H       14.2502432   14.9237410   21.8073573
| 42>     H       16.1275162   17.0787837   19.7151233
| 43> *
| 44>
| 45>                          ****END OF INPUT****

CARTESIAN COORDINATES (ANGSTROEM)
---------------------------------
  C     14.986040   14.414689   16.700957
  C     16.468989   13.988012   16.613797
  O     17.409880   15.084734   16.485618
  C     17.049378   16.399263   16.361562
  O     16.262434   16.780738   15.512974
  C     17.683565   17.283537   17.400559
  C     17.498314   18.628313   17.420884
  C     16.668712   19.455106   16.461765
  N     18.132361   19.409896   18.391058
  C     19.029490   18.941472   19.312874
  S     19.796664   19.948047   20.377889
  N     19.264275   17.590583   19.306969
  C     18.550452   16.605155   18.475335
  C     17.743824   15.672340   19.374057
  C     18.227894   14.384901   19.673071
  C     17.486920   13.514218   20.489764
  C     16.253475   13.935372   21.015091
  C     15.773692   15.220645   20.728371
  O     14.584039   15.631001   21.235054
  C     16.513754   16.085479   19.916506
  H     14.829813   15.148457   17.501616
  H     14.356417   13.543814   16.918843
  H     14.637943   14.842671   15.752629
  H     16.720730   13.411613   17.512897
  H     16.589049   13.315535   15.754683
  H     15.616568   19.144575   16.496045
  H     17.016948   19.314622   15.430463
  H     16.704270   20.529143   16.678444
  H     17.974254   20.404754   18.408906
  H     19.902327   17.271343   20.024391
  H     19.310275   16.007150   17.952479
  H     19.179946   14.055759   19.264980
  H     17.869118   12.519775   20.714464
  H     15.677435   13.266765   21.646527
  H     14.250243   14.923741   21.807357
  H     16.127516   17.078784   19.715123

 Total Charge           Charge          ....    0
 Multiplicity           Mult            ....    1
 Number of Electrons    NEL             ....  154
 Basis Dimension        Dim             ....  828

ORBITAL ENERGIES
----------------

  NO   OCC          E(Eh)            E(eV)
   0   2.0000     -91.889306     -2500.4351
   1   2.0000     -20.601331      -560.5907
   2   2.0000     -20.587273      -560.2082
   3   2.0000     -20.542194      -558.9815
   4   2.0000     -15.629458      -425.2992
   5   2.0000     -15.608902      -424.7398
   6   2.0000     -11.393961      -310.0454
   7   2.0000     -11.384468      -309.7871
   8   2.0000     -11.336299      -308.4764
   9   2.0000     -11.318731      -307.9983
  10   2.0000     -11.309906      -307.7582
  11   2.0000     -11.298353      -307.4438
  12   2.0000     -11.264117      -306.5122
  13   2.0000     -11.260267      -306.4074
  14   2.0000     -11.258088      -306.3482
  15   2.0000     -11.252388      -306.1931
  16   2.0000     -11.247613      -306.0631
  17   2.0000     -11.242417      -305.9217
  18   2.0000     -11.242303      -305.9186
  19   2.0000     -11.223061      -305.3950
  20   2.0000      -8.894371      -242.0281
  21   2.0000      -6.575946      -178.9406
  22   2.0000      -6.573940      -178.8860
  23   2.0000      -6.573355      -178.8701
  24   2.0000      -1.441443       -39.2237
  25   2.0000      -1.420962       -38.6663
  26   2.0000      -1.350494       -36.7488
  27   2.0000      -1.340602       -36.4796
  28   2.0000      -1.239413       -33.7261
  29   2.0000      -1.161681       -31.6110
  30   2.0000      -1.120882       -30.5007
  31   2.0000      -1.045365       -28.4458
  32   2.0000      -1.032055       -28.0836
  33   2.0000      -1.019896       -27.7528
  34   2.0000      -0.996975       -27.1291
  35   2.0000      -0.985078       -26.8053
  36   2.0000      -0.924279       -25.1509
  37   2.0000      -0.896004       -24.3815
  38   2.0000      -0.848565       -23.0906
  39   2.0000      -0.841377       -22.8950
  40   2.0000      -0.837946       -22.8017
  41   2.0000      -0.818890       -22.2831
  42   2.0000      -0.744077       -20.2474
  43   2.0000      -0.733954       -19.9719
  44   2.0000      -0.719236       -19.5714
  45   2.0000      -0.699717       -19.0403
  46   2.0000      -0.689213       -18.7544
  47   2.0000      -0.673631       -18.3304
  48   2.0000      -0.670849       -18.2547
  49   2.0000      -0.659348       -17.9418
  50   2.0000      -0.653524       -17.7833
  51   2.0000      -0.643972       -17.5234
  52   2.0000      -0.637667       -17.3518
  53   2.0000      -0.618920       -16.8417
  54   2.0000      -0.611743       -16.6464
  55   2.0000      -0.603693       -16.4273
  56   2.0000      -0.600725       -16.3465
  57   2.0000      -0.580991       -15.8096
  58   2.0000      -0.571506       -15.5515
  59   2.0000      -0.567294       -15.4368
  60   2.0000      -0.551049       -14.9948
  61   2.0000      -0.540712       -14.7135
  62   2.0000      -0.534513       -14.5448
  63   2.0000      -0.529003       -14.3949
  64   2.0000      -0.521693       -14.1960
  65   2.0000      -0.514624       -14.0036
  66   2.0000      -0.503247       -13.6940
  67   2.0000      -0.493881       -13.4392
  68   2.0000      -0.489238       -13.3128
  69   2.0000      -0.463293       -12.6068
  70   2.0000      -0.454228       -12.3602
  71   2.0000      -0.440974       -11.9995
  72   2.0000      -0.354783        -9.6541
  73   2.0000      -0.353206        -9.6112
  74   2.0000      -0.329653        -8.9703
  75   2.0000      -0.325672        -8.8620
  76   2.0000      -0.317165        -8.6305
  77   0.0000       0.074388         2.0242
  78   0.0000       0.100817         2.7434
  79   0.0000       0.122355         3.3294
  80   0.0000       0.130475         3.5504
  81   0.0000       0.133427         3.6307

MULLIKEN ATOMIC CHARGES
-----------------------
   0 C :   -0.317164
   1 C :    0.036950
   2 O :   -0.384277
   3 C :    0.472134
   4 O :   -0.416335
   5 C :   -0.262829
   6 C :    0.167711
   7 C :   -0.270253
   8 N :   -0.123438
   9 C :    0.216248
  10 S :   -0.441555
  11 N :   -0.211615
  12 C :    0.082350
  13 C :    0.069994
  14 C :   -0.212057
  15 C :   -0.125147
  16 C :   -0.276748
  17 C :    0.325390
  18 O :   -0.358495
  19 C :   -0.289688
  20 H :    0.103734
  21 H :    0.101832
  22 H :    0.127188
  23 H :    0.106243
  24 H :    0.114448
  25 H :    0.130256
  26 H :    0.132910
  27 H :    0.095354
  28 H :    0.197061
  29 H :    0.195838
  30 H :    0.149569
  31 H :    0.151571
  32 H :    0.165036
  33 H :    0.133074
  34 H :    0.241790
  35 H :    0.172919
Sum of atomic charges:   -0.0000000

LOEWDIN ATOMIC CHARGES
----------------------
   0 C :    0.104460
   1 C :   -0.009691
   2 O :    0.288846
   3 C :   -0.418173
   4 O :    0.110023
   5 C :   -0.097705
   6 C :   -0.058750
   7 C :    0.131519
   8 N :    0.406980
   9 C :   -0.455045
  10 S :   -0.036025
  11 N :    0.395982
  12 C :   -0.052151
  13 C :   -0.036276
  14 C :    0.014125
  15 C :    0.040490
  16 C :   -0.002334
  17 C :   -0.189389
  18 O :    0.396377
  19 C :    0.031274
  20 H :   -0.029418
  21 H :   -0.025313
  22 H :   -0.024973
  23 H :   -0.029851
  24 H :   -0.028234
  25 H :   -0.005174
  26 H :   -0.003338
  27 H :   -0.023424
  28 H :   -0.057488
  29 H :   -0.065152
  30 H :   -0.010253
  31 H :   -0.029485
  32 H :   -0.020259
  33 H :   -0.034811
  34 H :   -0.152717
  35 H :   -0.024646

  Mayer bond orders larger than 0.100000
B(  0-C ,  1-C ) :   0.9662 B(  0-C , 20-H ) :   0.9727 B(  0-C , 21-H ) :   0.9751
B(  0-C , 22-H ) :   0.9717 B(  1-C ,  2-O ) :   0.8878 B(  1-C , 23-H ) :   0.9723
B(  1-C , 24-H ) :   0.9847 B(  2-O ,  3-C ) :   1.1261 B(  3-C ,  4-O ) :   2.0022
B(  3-C ,  5-C ) :   1.0493 B(  5-C ,  6-C ) :   1.6457 B(  5-C , 12-C ) :   0.9718
B(  6-C ,  7-C ) :   0.9654 B(  6-C ,  8-N ) :   1.1634 B(  7-C , 25-H ) :   0.9607
B(  7-C , 26-H ) :   0.9597 B(  7-C , 27-H ) :   0.9904 B(  8-N ,  9-C ) :   1.1847
B(  8-N , 28-H ) :   0.9477 B(  9-C , 10-S ) :   1.6023 B(  9-C , 11-N ) :   1.3090
B( 11-N , 12-C ) :   0.9736 B( 11-N , 29-H ) :   0.9512 B( 12-C , 13-C ) :   0.9421
B( 12-C , 30-H ) :   1.0008 B( 13-C , 14-C ) :   1.3480 B( 13-C , 19-C ) :   1.3631
B( 14-C , 15-C ) :   1.3888 B( 14-C , 31-H ) :   0.9747 B( 15-C , 16-C ) :   1.3603
B( 15-C , 32-H ) :   0.9695 B( 16-C , 17-C ) :   1.3322 B( 16-C , 33-H ) :   0.9839
B( 17-C , 18-O ) :   1.1081 B( 17-C , 19-C ) :   1.3632 B( 18-O , 34-H ) :   0.9793
B( 19-C , 35-H ) :   0.9581

MP2 TOTAL ENERGY:    -1274.337826394 Eh
FINAL SINGLE POINT ENERGY     -1274.337826393662

DIPOLE MOMENT
-------------
                                X             Y             Z
Electronic contribution:      9.78445       9.47569       6.28925
Nuclear contribution   :    -10.74086     -11.20200      -6.31986
                        -----------------------------------------
Total Dipole Moment    :     -0.95641      -1.72630      -0.03061
                        -----------------------------------------
Magnitude (a.u.)       :      1.97377
Magnitude (Debye)      :      5.01693

Rotational constants in cm-1:     0.012811     0.008743     0.006481
Rotational constants in MHz :   384.051045   262.112770   194.294371

                             ****ORCA TERMINATED NORMALLY****
TOTAL RUN TIME: 0 days 1 hours 40 minutes 6 seconds 79 msec
