                         Program Version 4.2.0 -  RELEASE  -
|  1> ! ri-mp2 cc-pvtz cc-pvtz/c TightSCF NoKeepInts
|  2>
|  3> %scf
|  4>   MaxCore 4096
|  5> end
|  6> *xyz  0  1
|  7>     C       15.0038349   15.9016432   17.3201022
|  8>     C       15.5164375   15.1630804   16.0664124
|  9>     O       16.9546823   15.0355866   15.8856351
| 10>     C       18.0568350   15.6049950   16.4875358
| 11>     O       19.1092352   14.9937132   16.4629557
| 12>     C       17.8984126   16.7678141   17.4101003
| 13>     C       17.3979251   17.9502594   16.9792878
| 14>     C       16.9011496   18.2817747   15.5859331
| 15>     N       17.4032081   19.0606092   17.8260306
| 16>     C       18.0334677   19.1097950   19.0415942
| 17>     S       18.0610529   20.4908910   19.9504608
| 18>     N       18.6475930   17.9568040   19.4641174
| 19>     C       18.5729312   16.6488616   18.7816865
| 20>     C       17.9038635   15.5924438   19.6593461
| 21>     C       18.3405952   14.2558434   19.6009198
| 22>     C       17.7345333   13.2662357   20.3923200
| 23>     C       16.6806812   13.6136329   21.2538481
| 24>     C       16.2410581   14.9424146   21.3170782
| 25>     O       15.2172464   15.2796768   22.1408781
| 26>     C       16.8461200   15.9260906   20.5281302
| 27>     H       15.5365995   15.5697522   18.2154376
| 28>     H       13.9457642   15.6570114   17.4745585
| 29>     H       15.0550840   16.9884733   17.2338225
| 30>     H       15.0986822   14.1478064   16.0799918
| 31>     H       15.0943800   15.6579977   15.1823258
| 32>     H       17.0949524   17.4772754   14.8669550
| 33>     H       17.4083954   19.1737887   15.1965120
| 34>     H       15.8232901   18.4824488   15.5818380
| 35>     H       16.9809513   19.9240417   17.5226516
| 36>     H       19.0968223   18.0193491   20.3690530
| 37>     H       19.6069987   16.3159730   18.6072134
| 38>     H       19.1513729   13.9802829   18.9294398
| 39>     H       18.0816593   12.2360365   20.3326589
| 40>     H       16.2087360   12.8517542   21.8654205
| 41>     H       14.9631774   14.4826191   22.6300983
| 42>     H       16.4792715   16.9452242   20.5916507
| 43> *
| 44>
| 45>                          ****END OF INPUT****

CARTESIAN COORDINATES (ANGSTROEM)
---------------------------------
  C     15.003835   15.901643   17.320102
  C     15.516438   15.163080   16.066412
  O     16.954682   15.035587   15.885635
  C     18.056835   15.604995   16.487536
  O     19.109235   14.993713   16.462956
  C     17.898413   16.767814   17.410100
  C     17.397925   17.950259   16.979288
  C     16.901150   18.281775   15.585933
  N     17.403208   19.060609   17.826031
  C     18.033468   19.109795   19.041594
  S     18.061053   20.490891   19.950461
  N     18.647593   17.956804   19.464117
  C     18.572931   16.648862   18.781686
  C     17.903863   15.592444   19.659346
  C     18.340595   14.255843   19.600920
  C     17.734533   13.266236   20.392320
  C     16.680681   13.613633   21.253848
  C     16.241058   14.942415   21.317078
  O     15.217246   15.279677   22.140878
  C     16.846120   15.926091   20.528130
  H     15.536599   15.569752   18.215438
  H     13.945764   15.657011   17.474558
  H     15.055084   16.988473   17.233822
  H     15.098682   14.147806   16.079992
  H     15.094380   15.657998   15.182326
  H     17.094952   17.477275   14.866955
  H     17.408395   19.173789   15.196512
  H     15.823290   18.482449   15.581838
  H     16.980951   19.924042   17.522652
  H     19.096822   18.019349   20.369053
  H     19.606999   16.315973   18.607213
  H     19.151373   13.980283   18.929440
  H     18.081659   12.236037   20.332659
  H     16.208736   12.851754   21.865420
  H     14.963177   14.482619   22.630098
  H     16.479271   16.945224   20.591651

 Total Charge           Charge          ....    0
 Multiplicity           Mult            ....    1
 Number of Electrons    NEL             ....  154
 Basis Dimension        Dim             ....  828

ORBITAL ENERGIES
----------------

  NO   OCC          E(Eh)            E(eV)
   0   2.0000     -91.890431     -2500.4658
   1   2.0000     -20.598179      -560.5050
   2   2.0000     -20.596380      -560.4560
   3   2.0000     -20.546001      -559.0851
   4   2.0000     -15.628120      -425.2628
   5   2.0000     -15.611130      -424.8004
   6   2.0000     -11.400596      -310.2260
   7   2.0000     -11.386925      -309.8540
   8   2.0000     -11.331121      -308.3355
   9   2.0000     -11.315090      -307.8993
  10   2.0000     -11.313851      -307.8655
  11   2.0000     -11.313664      -307.8605
  12   2.0000     -11.269126      -306.6485
  13   2.0000     -11.264819      -306.5313
  14   2.0000     -11.262913      -306.4795
  15   2.0000     -11.255329      -306.2731
  16   2.0000     -11.244235      -305.9712
  17   2.0000     -11.240240      -305.8625
  18   2.0000     -11.236654      -305.7649
  19   2.0000     -11.235964      -305.7461
  20   2.0000      -8.895532      -242.0597
  21   2.0000      -6.577119      -178.9725
  22   2.0000      -6.575095      -178.9174
  23   2.0000      -6.574518      -178.9017
  24   2.0000      -1.440572       -39.2000
  25   2.0000      -1.417989       -38.5854
  26   2.0000      -1.352952       -36.8157
  27   2.0000      -1.340993       -36.4903
  28   2.0000      -1.240160       -33.7465
  29   2.0000      -1.159354       -31.5476
  30   2.0000      -1.124941       -30.6112
  31   2.0000      -1.047572       -28.5059
  32   2.0000      -1.042251       -28.3611
  33   2.0000      -1.017795       -27.6956
  34   2.0000      -1.005210       -27.3531
  35   2.0000      -0.990424       -26.9508
  36   2.0000      -0.927963       -25.2512
  37   2.0000      -0.902547       -24.5596
  38   2.0000      -0.853920       -23.2363
  39   2.0000      -0.840721       -22.8772
  40   2.0000      -0.834762       -22.7150
  41   2.0000      -0.827941       -22.5294
  42   2.0000      -0.745073       -20.2745
  43   2.0000      -0.733444       -19.9580
  44   2.0000      -0.730728       -19.8841
  45   2.0000      -0.695170       -18.9165
  46   2.0000      -0.686256       -18.6740
  47   2.0000      -0.677760       -18.4428
  48   2.0000      -0.674302       -18.3487
  49   2.0000      -0.660938       -17.9850
  50   2.0000      -0.658850       -17.9282
  51   2.0000      -0.652208       -17.7475
  52   2.0000      -0.641431       -17.4542
  53   2.0000      -0.614427       -16.7194
  54   2.0000      -0.607308       -16.5257
  55   2.0000      -0.604554       -16.4508
  56   2.0000      -0.602135       -16.3849
  57   2.0000      -0.593963       -16.1626
  58   2.0000      -0.576899       -15.6982
  59   2.0000      -0.574163       -15.6238
  60   2.0000      -0.565434       -15.3862
  61   2.0000      -0.558194       -15.1892
  62   2.0000      -0.543442       -14.7878
  63   2.0000      -0.530590       -14.4381
  64   2.0000      -0.520482       -14.1630
  65   2.0000      -0.514020       -13.9872
  66   2.0000      -0.501428       -13.6445
  67   2.0000      -0.496123       -13.5002
  68   2.0000      -0.483791       -13.1646
  69   2.0000      -0.467554       -12.7228
  70   2.0000      -0.454645       -12.3715
  71   2.0000      -0.448368       -12.2007
  72   2.0000      -0.356258        -9.6943
  73   2.0000      -0.349047        -9.4980
  74   2.0000      -0.330013        -8.9801
  75   2.0000      -0.323346        -8.7987
  76   2.0000      -0.319021        -8.6810
  77   0.0000       0.084699         2.3048
  78   0.0000       0.107334         2.9207
  79   0.0000       0.113765         3.0957
  80   0.0000       0.128110         3.4860
  81   0.0000       0.130989         3.5644

MULLIKEN ATOMIC CHARGES
-----------------------
   0 C :   -0.351399
   1 C :    0.053377
   2 O :   -0.339063
   3 C :    0.423099
   4 O :   -0.385678
   5 C :   -0.216660
   6 C :    0.146155
   7 C :   -0.325919
   8 N :   -0.141311
   9 C :    0.204211
  10 S :   -0.440747
  11 N :   -0.229328
  12 C :    0.102220
  13 C :    0.013943
  14 C :   -0.218008
  15 C :   -0.135136
  16 C :   -0.275590
  17 C :    0.323818
  18 O :   -0.357458
  19 C :   -0.279845
  20 H :    0.136377
  21 H :    0.124225
  22 H :    0.102314
  23 H :    0.125333
  24 H :    0.089578
  25 H :    0.130035
  26 H :    0.139812
  27 H :    0.119963
  28 H :    0.196964
  29 H :    0.203210
  30 H :    0.166911
  31 H :    0.178742
  32 H :    0.164304
  33 H :    0.132024
  34 H :    0.241052
  35 H :    0.178475
Sum of atomic charges:   -0.0000000

LOEWDIN ATOMIC CHARGES
----------------------
   0 C :    0.105652
   1 C :   -0.013230
   2 O :    0.289378
   3 C :   -0.417217
   4 O :    0.120010
   5 C :   -0.081558
   6 C :   -0.096141
   7 C :    0.126480
   8 N :    0.403051
   9 C :   -0.456764
  10 S :   -0.037322
  11 N :    0.398114
  12 C :   -0.042185
  13 C :   -0.043550
  14 C :    0.019865
  15 C :    0.044386
  16 C :   -0.001371
  17 C :   -0.193667
  18 O :    0.395313
  19 C :    0.025873
  20 H :   -0.025337
  21 H :   -0.020151
  22 H :   -0.035981
  23 H :   -0.018285
  24 H :   -0.031999
  25 H :   -0.008342
  26 H :   -0.009326
  27 H :   -0.018772
  28 H :   -0.057430
  29 H :   -0.063672
  30 H :   -0.002151
  31 H :   -0.021613
  32 H :   -0.018476
  33 H :   -0.035040
  34 H :   -0.153467
  35 H :   -0.025077

  Mayer bond orders larger than 0.100000
B(  0-C ,  1-C ) :   0.9585 B(  0-C , 20-H ) :   0.9627 B(  0-C , 21-H ) :   0.9788
B(  0-C , 22-H ) :   0.9741 B(  1-C ,  2-O ) :   0.9063 B(  1-C , 23-H ) :   0.9780
B(  1-C , 24-H ) :   0.9776 B(  2-O ,  3-C ) :   1.1723 B(  3-C ,  4-O ) :   2.0735
B(  3-C ,  5-C ) :   0.9370 B(  5-C ,  6-C ) :   1.6930 B(  5-C , 12-C ) :   0.9455
B(  6-C ,  7-C ) :   0.9443 B(  6-C ,  8-N ) :   1.1037 B(  7-C , 25-H ) :   0.9779
B(  7-C , 26-H ) :   0.9716 B(  7-C , 27-H ) :   0.9646 B(  8-N ,  9-C ) :   1.1968
B(  8-N , 28-H ) :   0.9517 B(  9-C , 10-S ) :   1.6085 B(  9-C , 11-N ) :   1.2894
B( 11-N , 12-C ) :   0.9864 B( 11-N , 29-H ) :   0.9472 B( 12-C , 13-C ) :   0.9531
B( 12-C , 30-H ) :   0.9934 B( 13-C , 14-C ) :   1.3904 B( 13-C , 19-C ) :   1.3398
B( 14-C , 15-C ) :   1.4020 B( 14-C , 31-H ) :   0.9566 B( 15-C , 16-C ) :   1.3593
B( 15-C , 32-H ) :   0.9699 B( 16-C , 17-C ) :   1.3319 B( 16-C , 33-H ) :   0.9846
B( 17-C , 18-O ) :   1.1088 B( 17-C , 19-C ) :   1.3652 B( 18-O , 34-H ) :   0.9795
B( 19-C , 35-H ) :   0.9589

MP2 TOTAL ENERGY:    -1274.323043456 Eh
FINAL SINGLE POINT ENERGY     -1274.323043455901

DIPOLE MOMENT
-------------
                                X             Y             Z
Electronic contribution:      9.43683       5.56420       6.82447
Nuclear contribution   :    -11.05553      -6.65290      -7.42015
                        -----------------------------------------
Total Dipole Moment    :     -1.61870      -1.08870      -0.59567
                        -----------------------------------------
Magnitude (a.u.)       :      2.03967
Magnitude (Debye)      :      5.18444

Rotational constants in cm-1:     0.011507     0.009557     0.006717
Rotational constants in MHz :   344.956717   286.503323   201.379278

                             ****ORCA TERMINATED NORMALLY****
TOTAL RUN TIME: 0 days 1 hours 43 minutes 29 seconds 538 msec
