                         Program Version 4.2.0 -  RELEASE  -
|  1> ! ri-mp2 cc-pvtz cc-pvtz/c TightSCF NoKeepInts
|  2>
|  3> %scf
|  4>   MaxCore 4096
|  5> end
|  6> *xyz  0  1
|  7>     C       14.8395335   14.4641904   17.3089775
|  8>     C       15.5326056   15.6481639   16.6151629
|  9>     O       16.8133160   15.1670338   16.1561992
| 10>     C       18.0412952   15.6714255   16.5114230
| 11>     O       19.0221449   14.9539199   16.4450514
| 12>     C       18.0519253   16.8904066   17.3750579
| 13>     C       17.5620337   18.0829759   16.9638314
| 14>     C       16.9578048   18.4004576   15.6127404
| 15>     N       17.6495935   19.1967794   17.8015992
| 16>     C       18.2992737   19.2139640   19.0088281
| 17>     S       18.4067893   20.5921059   19.9159919
| 18>     N       18.8508913   18.0284917   19.4305707
| 19>     C       18.7151333   16.7297710   18.7406855
| 20>     C       17.9352403   15.7278290   19.5860735
| 21>     C       18.3852978   14.4001277   19.7024815
| 22>     C       17.6593557   13.4611544   20.4540127
| 23>     C       16.4694728   13.8508923   21.0918981
| 24>     C       16.0127026   15.1700749   20.9708382
| 25>     O       14.8548803   15.5455469   21.5698630
| 26>     C       16.7371479   16.1029231   20.2221008
| 27>     H       15.4432550   14.1038024   18.1514606
| 28>     H       14.6994705   13.6326186   16.6070852
| 29>     H       13.8564369   14.7613864   17.6935388
| 30>     H       14.9292431   15.9858247   15.7627442
| 31>     H       15.6070745   16.4665287   17.3390667
| 32>     H       17.1362047   17.6030875   14.8805619
| 33>     H       17.3961478   19.3146617   15.1922826
| 34>     H       15.8741845   18.5511908   15.6897151
| 35>     H       17.2640703   20.0798007   17.5050740
| 36>     H       19.3047529   18.0666823   20.3346194
| 37>     H       19.7264884   16.3288524   18.5769858
| 38>     H       19.2946309   14.0904268   19.1915359
| 39>     H       18.0166216   12.4356353   20.5318995
| 40>     H       15.9040104   13.1271306   21.6695669
| 41>     H       14.5354753   14.7884727   22.0840869
| 42>     H       16.3624958   17.1176645   20.1403899
| 43> *
| 44>
| 45>                          ****END OF INPUT****

CARTESIAN COORDINATES (ANGSTROEM)
---------------------------------
  C     14.839533   14.464190   17.308978
  C     15.532606   15.648164   16.615163
  O     16.813316   15.167034   16.156199
  C     18.041295   15.671425   16.511423
  O     19.022145   14.953920   16.445051
  C     18.051925   16.890407   17.375058
  C     17.562034   18.082976   16.963831
  C     16.957805   18.400458   15.612740
  N     17.649593   19.196779   17.801599
  C     18.299274   19.213964   19.008828
  S     18.406789   20.592106   19.915992
  N     18.850891   18.028492   19.430571
  C     18.715133   16.729771   18.740686
  C     17.935240   15.727829   19.586074
  C     18.385298   14.400128   19.702482
  C     17.659356   13.461154   20.454013
  C     16.469473   13.850892   21.091898
  C     16.012703   15.170075   20.970838
  O     14.854880   15.545547   21.569863
  C     16.737148   16.102923   20.222101
  H     15.443255   14.103802   18.151461
  H     14.699470   13.632619   16.607085
  H     13.856437   14.761386   17.693539
  H     14.929243   15.985825   15.762744
  H     15.607074   16.466529   17.339067
  H     17.136205   17.603088   14.880562
  H     17.396148   19.314662   15.192283
  H     15.874185   18.551191   15.689715
  H     17.264070   20.079801   17.505074
  H     19.304753   18.066682   20.334619
  H     19.726488   16.328852   18.576986
  H     19.294631   14.090427   19.191536
  H     18.016622   12.435635   20.531900
  H     15.904010   13.127131   21.669567
  H     14.535475   14.788473   22.084087
  H     16.362496   17.117665   20.140390

 Total Charge           Charge          ....    0
 Multiplicity           Mult            ....    1
 Number of Electrons    NEL             ....  154
 Basis Dimension        Dim             ....  828

ORBITAL ENERGIES
----------------

  NO   OCC          E(Eh)            E(eV)
   0   2.0000     -91.890778     -2500.4752
   1   2.0000     -20.601435      -560.5935
   2   2.0000     -20.600521      -560.5687
   3   2.0000     -20.548178      -559.1444
   4   2.0000     -15.628372      -425.2696
   5   2.0000     -15.612157      -424.8284
   6   2.0000     -11.397986      -310.1550
   7   2.0000     -11.387544      -309.8708
   8   2.0000     -11.330831      -308.3276
   9   2.0000     -11.317309      -307.9596
  10   2.0000     -11.314737      -307.8897
  11   2.0000     -11.304016      -307.5979
  12   2.0000     -11.269783      -306.6664
  13   2.0000     -11.264832      -306.5316
  14   2.0000     -11.264072      -306.5110
  15   2.0000     -11.257402      -306.3295
  16   2.0000     -11.246560      -306.0345
  17   2.0000     -11.242980      -305.9371
  18   2.0000     -11.239909      -305.8535
  19   2.0000     -11.226758      -305.4956
  20   2.0000      -8.895884      -242.0693
  21   2.0000      -6.577469      -178.9820
  22   2.0000      -6.575446      -178.9270
  23   2.0000      -6.574868      -178.9113
  24   2.0000      -1.446993       -39.3747
  25   2.0000      -1.420287       -38.6480
  26   2.0000      -1.358441       -36.9651
  27   2.0000      -1.341264       -36.4976
  28   2.0000      -1.240724       -33.7618
  29   2.0000      -1.162155       -31.6238
  30   2.0000      -1.126488       -30.6533
  31   2.0000      -1.049715       -28.5642
  32   2.0000      -1.037968       -28.2446
  33   2.0000      -1.019421       -27.7399
  34   2.0000      -1.005895       -27.3718
  35   2.0000      -0.990143       -26.9432
  36   2.0000      -0.928551       -25.2671
  37   2.0000      -0.883117       -24.0308
  38   2.0000      -0.855616       -23.2825
  39   2.0000      -0.842498       -22.9255
  40   2.0000      -0.837633       -22.7931
  41   2.0000      -0.836123       -22.7521
  42   2.0000      -0.755060       -20.5462
  43   2.0000      -0.741020       -20.1642
  44   2.0000      -0.731784       -19.9128
  45   2.0000      -0.698680       -19.0121
  46   2.0000      -0.689152       -18.7528
  47   2.0000      -0.681076       -18.5330
  48   2.0000      -0.677426       -18.4337
  49   2.0000      -0.660294       -17.9675
  50   2.0000      -0.656895       -17.8750
  51   2.0000      -0.647380       -17.6161
  52   2.0000      -0.640621       -17.4322
  53   2.0000      -0.612702       -16.6725
  54   2.0000      -0.608962       -16.5707
  55   2.0000      -0.606446       -16.5022
  56   2.0000      -0.600576       -16.3425
  57   2.0000      -0.584430       -15.9032
  58   2.0000      -0.579241       -15.7620
  59   2.0000      -0.569725       -15.5030
  60   2.0000      -0.560490       -15.2517
  61   2.0000      -0.557705       -15.1759
  62   2.0000      -0.547891       -14.9089
  63   2.0000      -0.529632       -14.4120
  64   2.0000      -0.519477       -14.1357
  65   2.0000      -0.514531       -14.0011
  66   2.0000      -0.503022       -13.6879
  67   2.0000      -0.502014       -13.6605
  68   2.0000      -0.488541       -13.2939
  69   2.0000      -0.471724       -12.8363
  70   2.0000      -0.451872       -12.2961
  71   2.0000      -0.449734       -12.2379
  72   2.0000      -0.357521        -9.7286
  73   2.0000      -0.353059        -9.6072
  74   2.0000      -0.330391        -8.9904
  75   2.0000      -0.325165        -8.8482
  76   2.0000      -0.319019        -8.6809
  77   0.0000       0.082781         2.2526
  78   0.0000       0.103413         2.8140
  79   0.0000       0.113129         3.0784
  80   0.0000       0.127282         3.4635
  81   0.0000       0.134235         3.6527

MULLIKEN ATOMIC CHARGES
-----------------------
   0 C :   -0.263217
   1 C :    0.007365
   2 O :   -0.314264
   3 C :    0.399186
   4 O :   -0.385697
   5 C :   -0.185655
   6 C :    0.130126
   7 C :   -0.320967
   8 N :   -0.136008
   9 C :    0.202531
  10 S :   -0.439545
  11 N :   -0.210986
  12 C :    0.068516
  13 C :    0.028632
  14 C :   -0.193113
  15 C :   -0.127095
  16 C :   -0.280289
  17 C :    0.312582
  18 O :   -0.360901
  19 C :   -0.275639
  20 H :    0.108722
  21 H :    0.107496
  22 H :    0.090077
  23 H :    0.110243
  24 H :    0.098706
  25 H :    0.129656
  26 H :    0.135594
  27 H :    0.122494
  28 H :    0.196967
  29 H :    0.197645
  30 H :    0.163998
  31 H :    0.167803
  32 H :    0.163988
  33 H :    0.132485
  34 H :    0.242002
  35 H :    0.176563
Sum of atomic charges:   -0.0000000

LOEWDIN ATOMIC CHARGES
----------------------
   0 C :    0.109464
   1 C :   -0.021975
   2 O :    0.309795
   3 C :   -0.417587
   4 O :    0.121354
   5 C :   -0.084772
   6 C :   -0.100883
   7 C :    0.126354
   8 N :    0.401534
   9 C :   -0.456224
  10 S :   -0.036640
  11 N :    0.397327
  12 C :   -0.044568
  13 C :   -0.043465
  14 C :    0.022889
  15 C :    0.045300
  16 C :   -0.000553
  17 C :   -0.193512
  18 O :    0.395156
  19 C :    0.027116
  20 H :   -0.022438
  21 H :   -0.025859
  22 H :   -0.026284
  23 H :   -0.032659
  24 H :   -0.039627
  25 H :   -0.006992
  26 H :   -0.010315
  27 H :   -0.016225
  28 H :   -0.057691
  29 H :   -0.063527
  30 H :   -0.002299
  31 H :   -0.021604
  32 H :   -0.018343
  33 H :   -0.034660
  34 H :   -0.152721
  35 H :   -0.024863

  Mayer bond orders larger than 0.100000
B(  0-C ,  1-C ) :   0.9809 B(  0-C , 20-H ) :   0.9709 B(  0-C , 21-H ) :   0.9810
B(  0-C , 22-H ) :   0.9756 B(  1-C ,  2-O ) :   0.9038 B(  1-C , 23-H ) :   0.9774
B(  1-C , 24-H ) :   0.9606 B(  2-O ,  3-C ) :   1.1916 B(  3-C ,  4-O ) :   2.0886
B(  3-C ,  5-C ) :   0.9287 B(  5-C ,  6-C ) :   1.6835 B(  5-C , 12-C ) :   0.9601
B(  6-C ,  7-C ) :   0.9457 B(  6-C ,  8-N ) :   1.1181 B(  7-C , 25-H ) :   0.9793
B(  7-C , 26-H ) :   0.9735 B(  7-C , 27-H ) :   0.9644 B(  8-N ,  9-C ) :   1.1927
B(  8-N , 28-H ) :   0.9517 B(  9-C , 10-S ) :   1.6129 B(  9-C , 11-N ) :   1.2887
B( 11-N , 12-C ) :   0.9995 B( 11-N , 29-H ) :   0.9496 B( 12-C , 13-C ) :   0.9427
B( 12-C , 30-H ) :   0.9967 B( 13-C , 14-C ) :   1.3882 B( 13-C , 19-C ) :   1.3473
B( 14-C , 15-C ) :   1.3944 B( 14-C , 31-H ) :   0.9608 B( 15-C , 16-C ) :   1.3610
B( 15-C , 32-H ) :   0.9705 B( 16-C , 17-C ) :   1.3300 B( 16-C , 33-H ) :   0.9852
B( 17-C , 18-O ) :   1.1062 B( 17-C , 19-C ) :   1.3721 B( 18-O , 34-H ) :   0.9789
B( 19-C , 35-H ) :   0.9563

MP2 TOTAL ENERGY:    -1274.335195937 Eh
FINAL SINGLE POINT ENERGY     -1274.335195937004

DIPOLE MOMENT
-------------
                                X             Y             Z
Electronic contribution:     10.23942       8.11818       5.90205
Nuclear contribution   :    -11.76780      -9.03855      -6.30813
                        -----------------------------------------
Total Dipole Moment    :     -1.52838      -0.92037      -0.40609
                        -----------------------------------------
Magnitude (a.u.)       :      1.82974
Magnitude (Debye)      :      4.65082

Rotational constants in cm-1:     0.012439     0.009133     0.006905
Rotational constants in MHz :   372.906613   273.803833   206.993863

                             ****ORCA TERMINATED NORMALLY****
TOTAL RUN TIME: 0 days 1 hours 43 minutes 21 seconds 472 msec
