                         Program Version 4.2.0 -  RELEASE  -
|  1> ! ri-mp2 cc-pvtz cc-pvtz/c TightSCF NoKeepInts
|  2>
|  3> %scf
|  4>   MaxCore 4096
|  5> end
|  6> *xyz  0  1
|  7>     C       15.4341040   13.9505367   16.7035164
|  8>     C       15.3672997   15.1274797   15.7029106
|  9>     O       16.4878770   16.0471637   15.7607190
| 10>     C       17.5883461   15.8848976   16.5555515
| 11>     O       18.1928811   14.8293101   16.6423655
| 12>     C       17.8605732   17.0409571   17.4734144
| 13>     C       17.4199322   18.3114182   17.2804275
| 14>     C       16.6145983   18.8519837   16.1167384
| 15>     N       17.7682712   19.3128389   18.1927434
| 16>     C       18.6446972   19.1561747   19.2338798
| 17>     S       19.0838571   20.4239065   20.2011026
| 18>     N       19.1376276   17.8917807   19.4337581
| 19>     C       18.6894025   16.6860701   18.7121624
| 20>     C       17.9005936   15.7659153   19.6403815
| 21>     C       18.2716063   14.4170404   19.7911932
| 22>     C       17.5375573   13.5612578   20.6293303
| 23>     C       16.4213221   14.0574370   21.3238295
| 24>     C       16.0460486   15.3992879   21.1737331
| 25>     O       14.9634999   15.8793566   21.8361174
| 26>     C       16.7780409   16.2483902   20.3379111
| 27>     H       16.2330117   13.2471009   16.4376648
| 28>     H       14.4902368   13.3925594   16.6936499
| 29>     H       15.6025577   14.3062313   17.7283444
| 30>     H       15.2960329   14.7179246   14.6869547
| 31>     H       14.4448876   15.6923527   15.8890414
| 32>     H       15.5762643   18.5021780   16.1682610
| 33>     H       17.0374955   18.5176225   15.1610064
| 34>     H       16.5943595   19.9482662   16.0903634
| 35>     H       17.4179742   20.2485429   18.0633325
| 36>     H       19.7582813   17.7965689   20.2272877
| 37>     H       19.5867153   16.1484543   18.3727150
| 38>     H       19.1224732   14.0257681   19.2385317
| 39>     H       17.8316789   12.5182116   20.7316624
| 40>     H       15.8504198   13.3993150   21.9703071
| 41>     H       14.6256559   15.1640532   22.3957146
| 42>     H       16.4708194   17.2836474   20.2373771
| 43> *
| 44>
| 45>                          ****END OF INPUT****

CARTESIAN COORDINATES (ANGSTROEM)
---------------------------------
  C     15.434104   13.950537   16.703516
  C     15.367300   15.127480   15.702911
  O     16.487877   16.047164   15.760719
  C     17.588346   15.884898   16.555551
  O     18.192881   14.829310   16.642366
  C     17.860573   17.040957   17.473414
  C     17.419932   18.311418   17.280427
  C     16.614598   18.851984   16.116738
  N     17.768271   19.312839   18.192743
  C     18.644697   19.156175   19.233880
  S     19.083857   20.423907   20.201103
  N     19.137628   17.891781   19.433758
  C     18.689402   16.686070   18.712162
  C     17.900594   15.765915   19.640382
  C     18.271606   14.417040   19.791193
  C     17.537557   13.561258   20.629330
  C     16.421322   14.057437   21.323829
  C     16.046049   15.399288   21.173733
  O     14.963500   15.879357   21.836117
  C     16.778041   16.248390   20.337911
  H     16.233012   13.247101   16.437665
  H     14.490237   13.392559   16.693650
  H     15.602558   14.306231   17.728344
  H     15.296033   14.717925   14.686955
  H     14.444888   15.692353   15.889041
  H     15.576264   18.502178   16.168261
  H     17.037495   18.517623   15.161006
  H     16.594359   19.948266   16.090363
  H     17.417974   20.248543   18.063332
  H     19.758281   17.796569   20.227288
  H     19.586715   16.148454   18.372715
  H     19.122473   14.025768   19.238532
  H     17.831679   12.518212   20.731662
  H     15.850420   13.399315   21.970307
  H     14.625656   15.164053   22.395715
  H     16.470819   17.283647   20.237377

 Total Charge           Charge          ....    0
 Multiplicity           Mult            ....    1
 Number of Electrons    NEL             ....  154
 Basis Dimension        Dim             ....  828

ORBITAL ENERGIES
----------------

  NO   OCC          E(Eh)            E(eV)
   0   2.0000     -91.888325     -2500.4084
   1   2.0000     -20.594428      -560.4029
   2   2.0000     -20.590728      -560.3022
   3   2.0000     -20.548151      -559.1436
   4   2.0000     -15.628247      -425.2662
   5   2.0000     -15.607332      -424.6971
   6   2.0000     -11.396354      -310.1106
   7   2.0000     -11.383408      -309.7583
   8   2.0000     -11.335228      -308.4472
   9   2.0000     -11.310564      -307.7761
  10   2.0000     -11.306334      -307.6610
  11   2.0000     -11.306266      -307.6591
  12   2.0000     -11.259388      -306.3835
  13   2.0000     -11.258852      -306.3689
  14   2.0000     -11.255924      -306.2893
  15   2.0000     -11.250521      -306.1423
  16   2.0000     -11.240319      -305.8646
  17   2.0000     -11.236305      -305.7554
  18   2.0000     -11.233033      -305.6664
  19   2.0000     -11.225612      -305.4644
  20   2.0000      -8.893395      -242.0016
  21   2.0000      -6.574973      -178.9141
  22   2.0000      -6.572965      -178.8595
  23   2.0000      -6.572380      -178.8436
  24   2.0000      -1.445390       -39.3310
  25   2.0000      -1.414214       -38.4827
  26   2.0000      -1.355123       -36.8748
  27   2.0000      -1.339312       -36.4445
  28   2.0000      -1.237283       -33.6682
  29   2.0000      -1.154718       -31.4215
  30   2.0000      -1.119855       -30.4728
  31   2.0000      -1.042889       -28.3785
  32   2.0000      -1.032997       -28.1093
  33   2.0000      -1.012165       -27.5424
  34   2.0000      -0.998468       -27.1697
  35   2.0000      -0.983791       -26.7703
  36   2.0000      -0.922707       -25.1081
  37   2.0000      -0.896420       -24.3928
  38   2.0000      -0.848478       -23.0883
  39   2.0000      -0.837302       -22.7841
  40   2.0000      -0.830644       -22.6030
  41   2.0000      -0.818753       -22.2794
  42   2.0000      -0.742992       -20.2178
  43   2.0000      -0.727879       -19.8066
  44   2.0000      -0.725844       -19.7512
  45   2.0000      -0.692121       -18.8336
  46   2.0000      -0.684975       -18.6391
  47   2.0000      -0.675871       -18.3914
  48   2.0000      -0.674345       -18.3499
  49   2.0000      -0.663763       -18.0619
  50   2.0000      -0.650140       -17.6912
  51   2.0000      -0.644906       -17.5488
  52   2.0000      -0.634559       -17.2672
  53   2.0000      -0.619530       -16.8583
  54   2.0000      -0.602859       -16.4046
  55   2.0000      -0.601252       -16.3609
  56   2.0000      -0.598031       -16.2733
  57   2.0000      -0.576341       -15.6830
  58   2.0000      -0.574786       -15.6407
  59   2.0000      -0.564741       -15.3674
  60   2.0000      -0.553088       -15.0503
  61   2.0000      -0.545226       -14.8364
  62   2.0000      -0.537089       -14.6149
  63   2.0000      -0.525586       -14.3019
  64   2.0000      -0.518037       -14.0965
  65   2.0000      -0.510847       -13.9008
  66   2.0000      -0.500516       -13.6197
  67   2.0000      -0.495960       -13.4957
  68   2.0000      -0.479823       -13.0566
  69   2.0000      -0.463834       -12.6216
  70   2.0000      -0.455499       -12.3948
  71   2.0000      -0.448708       -12.2100
  72   2.0000      -0.353825        -9.6281
  73   2.0000      -0.346611        -9.4318
  74   2.0000      -0.327585        -8.9140
  75   2.0000      -0.317655        -8.6438
  76   2.0000      -0.315227        -8.5777
  77   0.0000       0.074233         2.0200
  78   0.0000       0.109065         2.9678
  79   0.0000       0.121265         3.2998
  80   0.0000       0.133513         3.6331
  81   0.0000       0.139708         3.8016

MULLIKEN ATOMIC CHARGES
-----------------------
   0 C :   -0.314026
   1 C :    0.061624
   2 O :   -0.372496
   3 C :    0.443129
   4 O :   -0.409112
   5 C :   -0.181211
   6 C :    0.142042
   7 C :   -0.282303
   8 N :   -0.122931
   9 C :    0.202541
  10 S :   -0.439815
  11 N :   -0.201519
  12 C :    0.051930
  13 C :    0.033499
  14 C :   -0.160465
  15 C :   -0.135759
  16 C :   -0.277545
  17 C :    0.307833
  18 O :   -0.359127
  19 C :   -0.265018
  20 H :    0.122541
  21 H :    0.102011
  22 H :    0.112565
  23 H :    0.098295
  24 H :    0.087416
  25 H :    0.123181
  26 H :    0.129234
  27 H :    0.103051
  28 H :    0.196945
  29 H :    0.194438
  30 H :    0.154593
  31 H :    0.156880
  32 H :    0.160258
  33 H :    0.129981
  34 H :    0.240447
  35 H :    0.166893
Sum of atomic charges:   -0.0000000

LOEWDIN ATOMIC CHARGES
----------------------
   0 C :    0.105809
   1 C :   -0.009047
   2 O :    0.287792
   3 C :   -0.416870
   4 O :    0.119053
   5 C :   -0.093356
   6 C :   -0.068337
   7 C :    0.125340
   8 N :    0.404538
   9 C :   -0.458363
  10 S :   -0.036414
  11 N :    0.397635
  12 C :   -0.046229
  13 C :   -0.040978
  14 C :    0.022123
  15 C :    0.040846
  16 C :   -0.002619
  17 C :   -0.193900
  18 O :    0.393492
  19 C :    0.027314
  20 H :   -0.023582
  21 H :   -0.025906
  22 H :   -0.024091
  23 H :   -0.027361
  24 H :   -0.030380
  25 H :   -0.010483
  26 H :   -0.007069
  27 H :   -0.020719
  28 H :   -0.059050
  29 H :   -0.063849
  30 H :   -0.005102
  31 H :   -0.024673
  32 H :   -0.020706
  33 H :   -0.035933
  34 H :   -0.154440
  35 H :   -0.024487

  Mayer bond orders larger than 0.100000
B(  0-C ,  1-C ) :   0.9709 B(  0-C , 20-H ) :   0.9715 B(  0-C , 21-H ) :   0.9738
B(  0-C , 22-H ) :   0.9676 B(  1-C ,  2-O ) :   0.9021 B(  1-C , 23-H ) :   0.9816
B(  1-C , 24-H ) :   0.9780 B(  2-O ,  3-C ) :   1.1122 B(  3-C ,  4-O ) :   2.0148
B(  3-C ,  5-C ) :   1.0282 B(  5-C ,  6-C ) :   1.6597 B(  5-C , 12-C ) :   0.9613
B(  6-C ,  7-C ) :   0.9529 B(  6-C ,  8-N ) :   1.1460 B(  7-C , 25-H ) :   0.9654
B(  7-C , 26-H ) :   0.9663 B(  7-C , 27-H ) :   0.9903 B(  8-N ,  9-C ) :   1.1816
B(  8-N , 28-H ) :   0.9489 B(  9-C , 10-S ) :   1.6100 B(  9-C , 11-N ) :   1.3029
B( 11-N , 12-C ) :   0.9913 B( 11-N , 29-H ) :   0.9516 B( 12-C , 13-C ) :   0.9439
B( 12-C , 30-H ) :   0.9998 B( 13-C , 14-C ) :   1.3809 B( 13-C , 19-C ) :   1.3694
B( 14-C , 15-C ) :   1.3946 B( 14-C , 31-H ) :   0.9633 B( 15-C , 16-C ) :   1.3615
B( 15-C , 32-H ) :   0.9712 B( 16-C , 17-C ) :   1.3315 B( 16-C , 33-H ) :   0.9853
B( 17-C , 18-O ) :   1.1097 B( 17-C , 19-C ) :   1.3759 B( 18-O , 34-H ) :   0.9802
B( 19-C , 35-H ) :   0.9578

MP2 TOTAL ENERGY:    -1274.333830885 Eh
FINAL SINGLE POINT ENERGY     -1274.333830885078

DIPOLE MOMENT
-------------
                                X             Y             Z
Electronic contribution:      9.87714      10.13539       7.72869
Nuclear contribution   :    -11.44102     -11.38938      -8.55445
                        -----------------------------------------
Total Dipole Moment    :     -1.56388      -1.25399      -0.82576
                        -----------------------------------------
Magnitude (a.u.)       :      2.16797
Magnitude (Debye)      :      5.51054

Rotational constants in cm-1:     0.011613     0.009211     0.006366
Rotational constants in MHz :   348.151397   276.153194   190.856374

                             ****ORCA TERMINATED NORMALLY****
TOTAL RUN TIME: 0 days 1 hours 33 minutes 27 seconds 503 msec
