                         Program Version 4.2.0 -  RELEASE  -
|  1> ! ri-mp2 cc-pvtz cc-pvtz/c TightSCF NoKeepInts
|  2>
|  3> %scf
|  4>   MaxCore 4096
|  5> end
|  6> *xyz  0  1
|  7>     C       15.0049383   14.1016981   14.9350991
|  8>     C       15.2774261   14.7204675   16.3164221
|  9>     O       16.2694880   15.7483379   16.1418117
| 10>     C       17.4663260   15.6363666   16.7877919
| 11>     O       17.9750127   14.5500401   17.0108517
| 12>     C       17.8342556   16.8597552   17.5753233
| 13>     C       17.4374361   18.1214511   17.2666321
| 14>     C       16.5928869   18.5672749   16.0906457
| 15>     N       17.8834399   19.1984255   18.0395175
| 16>     C       18.8300038   19.1151552   19.0264959
| 17>     S       19.3930834   20.4587604   19.8095486
| 18>     N       19.2871070   17.8579216   19.3310805
| 19>     C       18.7273201   16.6032391   18.7940080
| 20>     C       17.9639388   15.8505805   19.8808174
| 21>     C       18.2869047   14.5149336   20.1837320
| 22>     C       17.5837532   13.8155413   21.1788829
| 23>     C       16.5472387   14.4563692   21.8785909
| 24>     C       16.2195392   15.7852518   21.5773933
| 25>     O       15.2144637   16.4046858   22.2462828
| 26>     C       16.9207176   16.4785133   20.5858266
| 27>     H       15.9165632   13.6393078   14.5357302
| 28>     H       14.6643268   14.8667717   14.2265588
| 29>     H       14.2311980   13.3276658   15.0057450
| 30>     H       14.3533479   15.1631364   16.7097813
| 31>     H       15.6071874   13.9423825   17.0190039
| 32>     H       16.9282396   18.0860095   15.1633557
| 33>     H       16.6403976   19.6502425   15.9237463
| 34>     H       15.5402736   18.3003003   16.2467550
| 35>     H       17.5605118   20.1296092   17.8304679
| 36>     H       19.9621378   17.8209597   20.0840364
| 37>     H       19.5692662   15.9761213   18.4667305
| 38>     H       19.0764881   14.0113814   19.6311532
| 39>     H       17.8400889   12.7808346   21.3992671
| 40>     H       16.0006089   13.9193645   22.6465690
| 41>     H       14.8880894   15.7857189   22.9165313
| 42>     H       16.6529952   17.5074254   20.3718146
| 43> *
| 44>
| 45>                          ****END OF INPUT****

CARTESIAN COORDINATES (ANGSTROEM)
---------------------------------
  C     15.004938   14.101698   14.935099
  C     15.277426   14.720467   16.316422
  O     16.269488   15.748338   16.141812
  C     17.466326   15.636367   16.787792
  O     17.975013   14.550040   17.010852
  C     17.834256   16.859755   17.575323
  C     17.437436   18.121451   17.266632
  C     16.592887   18.567275   16.090646
  N     17.883440   19.198425   18.039517
  C     18.830004   19.115155   19.026496
  S     19.393083   20.458760   19.809549
  N     19.287107   17.857922   19.331080
  C     18.727320   16.603239   18.794008
  C     17.963939   15.850580   19.880817
  C     18.286905   14.514934   20.183732
  C     17.583753   13.815541   21.178883
  C     16.547239   14.456369   21.878591
  C     16.219539   15.785252   21.577393
  O     15.214464   16.404686   22.246283
  C     16.920718   16.478513   20.585827
  H     15.916563   13.639308   14.535730
  H     14.664327   14.866772   14.226559
  H     14.231198   13.327666   15.005745
  H     14.353348   15.163136   16.709781
  H     15.607187   13.942383   17.019004
  H     16.928240   18.086009   15.163356
  H     16.640398   19.650243   15.923746
  H     15.540274   18.300300   16.246755
  H     17.560512   20.129609   17.830468
  H     19.962138   17.820960   20.084036
  H     19.569266   15.976121   18.466731
  H     19.076488   14.011381   19.631153
  H     17.840089   12.780835   21.399267
  H     16.000609   13.919365   22.646569
  H     14.888089   15.785719   22.916531
  H     16.652995   17.507425   20.371815

 Total Charge           Charge          ....    0
 Multiplicity           Mult            ....    1
 Number of Electrons    NEL             ....  154
 Basis Dimension        Dim             ....  828

ORBITAL ENERGIES
----------------

  NO   OCC          E(Eh)            E(eV)
   0   2.0000     -91.888278     -2500.4072
   1   2.0000     -20.594855      -560.4145
   2   2.0000     -20.593132      -560.3676
   3   2.0000     -20.550300      -559.2021
   4   2.0000     -15.628323      -425.2683
   5   2.0000     -15.607242      -424.6947
   6   2.0000     -11.396126      -310.1044
   7   2.0000     -11.383401      -309.7581
   8   2.0000     -11.334893      -308.4381
   9   2.0000     -11.309101      -307.7363
  10   2.0000     -11.306769      -307.6728
  11   2.0000     -11.299333      -307.4705
  12   2.0000     -11.260212      -306.4059
  13   2.0000     -11.259417      -306.3843
  14   2.0000     -11.254964      -306.2631
  15   2.0000     -11.249299      -306.1090
  16   2.0000     -11.238891      -305.8258
  17   2.0000     -11.234938      -305.7182
  18   2.0000     -11.232065      -305.6400
  19   2.0000     -11.227533      -305.5167
  20   2.0000      -8.893345      -242.0002
  21   2.0000      -6.574924      -178.9128
  22   2.0000      -6.572915      -178.8581
  23   2.0000      -6.572331      -178.8422
  24   2.0000      -1.453432       -39.5499
  25   2.0000      -1.412872       -38.4462
  26   2.0000      -1.357411       -36.9370
  27   2.0000      -1.339332       -36.4451
  28   2.0000      -1.237210       -33.6662
  29   2.0000      -1.153526       -31.3891
  30   2.0000      -1.120189       -30.4819
  31   2.0000      -1.043439       -28.3934
  32   2.0000      -1.035282       -28.1715
  33   2.0000      -1.010931       -27.5088
  34   2.0000      -0.997951       -27.1556
  35   2.0000      -0.983324       -26.7576
  36   2.0000      -0.921874       -25.0855
  37   2.0000      -0.886408       -24.1204
  38   2.0000      -0.847811       -23.0701
  39   2.0000      -0.836583       -22.7646
  40   2.0000      -0.829426       -22.5698
  41   2.0000      -0.821749       -22.3609
  42   2.0000      -0.757912       -20.6238
  43   2.0000      -0.735535       -20.0149
  44   2.0000      -0.726175       -19.7602
  45   2.0000      -0.691680       -18.8216
  46   2.0000      -0.685616       -18.6566
  47   2.0000      -0.680486       -18.5170
  48   2.0000      -0.672580       -18.3018
  49   2.0000      -0.657282       -17.8855
  50   2.0000      -0.646765       -17.5994
  51   2.0000      -0.641244       -17.4491
  52   2.0000      -0.628132       -17.0923
  53   2.0000      -0.617385       -16.7999
  54   2.0000      -0.601456       -16.3664
  55   2.0000      -0.601191       -16.3592
  56   2.0000      -0.596420       -16.2294
  57   2.0000      -0.581961       -15.8360
  58   2.0000      -0.574427       -15.6310
  59   2.0000      -0.564121       -15.3505
  60   2.0000      -0.561713       -15.2850
  61   2.0000      -0.547130       -14.8882
  62   2.0000      -0.533747       -14.5240
  63   2.0000      -0.523387       -14.2421
  64   2.0000      -0.518557       -14.1106
  65   2.0000      -0.510521       -13.8920
  66   2.0000      -0.501448       -13.6451
  67   2.0000      -0.496301       -13.5050
  68   2.0000      -0.481244       -13.0953
  69   2.0000      -0.463031       -12.5997
  70   2.0000      -0.458862       -12.4863
  71   2.0000      -0.453383       -12.3372
  72   2.0000      -0.353979        -9.6322
  73   2.0000      -0.345331        -9.3969
  74   2.0000      -0.327471        -8.9109
  75   2.0000      -0.316438        -8.6107
  76   2.0000      -0.314916        -8.5693
  77   0.0000       0.073976         2.0130
  78   0.0000       0.110047         2.9945
  79   0.0000       0.120492         3.2787
  80   0.0000       0.134772         3.6673
  81   0.0000       0.138834         3.7779

MULLIKEN ATOMIC CHARGES
-----------------------
   0 C :   -0.265386
   1 C :    0.039483
   2 O :   -0.361909
   3 C :    0.443335
   4 O :   -0.414952
   5 C :   -0.178008
   6 C :    0.142997
   7 C :   -0.283109
   8 N :   -0.124038
   9 C :    0.202040
  10 S :   -0.439621
  11 N :   -0.198806
  12 C :    0.043304
  13 C :    0.053487
  14 C :   -0.164469
  15 C :   -0.133989
  16 C :   -0.279651
  17 C :    0.311376
  18 O :   -0.358821
  19 C :   -0.273173
  20 H :    0.104027
  21 H :    0.090384
  22 H :    0.089231
  23 H :    0.096522
  24 H :    0.110507
  25 H :    0.125708
  26 H :    0.103038
  27 H :    0.126032
  28 H :    0.197044
  29 H :    0.193943
  30 H :    0.154159
  31 H :    0.154818
  32 H :    0.159915
  33 H :    0.128765
  34 H :    0.240278
  35 H :    0.165542
Sum of atomic charges:   -0.0000000

LOEWDIN ATOMIC CHARGES
----------------------
   0 C :    0.104780
   1 C :   -0.012756
   2 O :    0.300869
   3 C :   -0.415147
   4 O :    0.112735
   5 C :   -0.092249
   6 C :   -0.069381
   7 C :    0.125369
   8 N :    0.404497
   9 C :   -0.458339
  10 S :   -0.036263
  11 N :    0.397462
  12 C :   -0.045929
  13 C :   -0.039377
  14 C :    0.021364
  15 C :    0.040613
  16 C :   -0.002340
  17 C :   -0.192872
  18 O :    0.393105
  19 C :    0.028331
  20 H :   -0.023539
  21 H :   -0.029550
  22 H :   -0.027330
  23 H :   -0.030579
  24 H :   -0.025714
  25 H :   -0.008260
  26 H :   -0.020334
  27 H :   -0.009825
  28 H :   -0.058936
  29 H :   -0.063855
  30 H :   -0.004829
  31 H :   -0.025110
  32 H :   -0.020998
  33 H :   -0.036205
  34 H :   -0.154666
  35 H :   -0.024741

  Mayer bond orders larger than 0.100000
B(  0-C ,  1-C ) :   0.9746 B(  0-C , 20-H ) :   0.9775 B(  0-C , 21-H ) :   0.9791
B(  0-C , 22-H ) :   0.9760 B(  1-C ,  2-O ) :   0.8863 B(  1-C , 23-H ) :   0.9803
B(  1-C , 24-H ) :   0.9715 B(  2-O ,  3-C ) :   1.1123 B(  3-C ,  4-O ) :   2.0001
B(  3-C ,  5-C ) :   1.0453 B(  5-C ,  6-C ) :   1.6587 B(  5-C , 12-C ) :   0.9650
B(  6-C ,  7-C ) :   0.9529 B(  6-C ,  8-N ) :   1.1414 B(  7-C , 25-H ) :   0.9683
B(  7-C , 26-H ) :   0.9899 B(  7-C , 27-H ) :   0.9636 B(  8-N ,  9-C ) :   1.1816
B(  8-N , 28-H ) :   0.9493 B(  9-C , 10-S ) :   1.6105 B(  9-C , 11-N ) :   1.3022
B( 11-N , 12-C ) :   0.9911 B( 11-N , 29-H ) :   0.9517 B( 12-C , 13-C ) :   0.9466
B( 12-C , 30-H ) :   0.9989 B( 13-C , 14-C ) :   1.3762 B( 13-C , 19-C ) :   1.3694
B( 14-C , 15-C ) :   1.3943 B( 14-C , 31-H ) :   0.9644 B( 15-C , 16-C ) :   1.3630
B( 15-C , 32-H ) :   0.9712 B( 16-C , 17-C ) :   1.3312 B( 16-C , 33-H ) :   0.9857
B( 17-C , 18-O ) :   1.1084 B( 17-C , 19-C ) :   1.3777 B( 18-O , 34-H ) :   0.9804
B( 19-C , 35-H ) :   0.9583

MP2 TOTAL ENERGY:    -1274.336042732 Eh
FINAL SINGLE POINT ENERGY     -1274.336042732428

DIPOLE MOMENT
-------------
                                X             Y             Z
Electronic contribution:     10.96717      10.16137      10.51818
Nuclear contribution   :    -12.52211     -11.40423     -11.21555
                        -----------------------------------------
Total Dipole Moment    :     -1.55494      -1.24286      -0.69737
                        -----------------------------------------
Magnitude (a.u.)       :      2.10923
Magnitude (Debye)      :      5.36125

Rotational constants in cm-1:     0.010702     0.008979     0.005958
Rotational constants in MHz :   320.843599   269.173826   178.622795

                             ****ORCA TERMINATED NORMALLY****
TOTAL RUN TIME: 0 days 1 hours 30 minutes 3 seconds 442 msec
