                         Program Version 4.2.0 -  RELEASE  -
|  1> ! ri-mp2 cc-pvtz cc-pvtz/c TightSCF NoKeepInts
|  2>
|  3> %scf
|  4>   MaxCore 4096
|  5> end
|  6> *xyz  0  1
|  7>     C       14.3963402   15.0801426   16.6489787
|  8>     C       15.7030948   14.6796207   15.9432740
|  9>     O       16.5326649   15.8539844   15.8881884
| 10>     C       17.7470285   15.8397338   16.5098285
| 11>     O       18.4080565   14.8187516   16.6065909
| 12>     C       17.9281402   16.9920283   17.4519274
| 13>     C       17.3771593   18.2198097   17.2738273
| 14>     C       16.5294405   18.6932043   16.1113115
| 15>     N       17.6359204   19.2378761   18.1968750
| 16>     C       18.5250606   19.1462439   19.2353046
| 17>     S       18.8529186   20.4359145   20.2175826
| 18>     N       19.1301702   17.9283373   19.4181855
| 19>     C       18.7899428   16.6956896   18.6828152
| 20>     C       18.0875258   15.7013334   19.6031864
| 21>     C       18.6094852   14.4078460   19.7879078
| 22>     C       17.9571333   13.4848726   20.6225052
| 23>     C       16.7707600   13.8568973   21.2774265
| 24>     C       16.2452103   15.1428096   21.0923538
| 25>     O       15.0946559   15.5021621   21.7154924
| 26>     C       16.8972788   16.0596105   20.2620923
| 27>     H       14.5997883   15.4195321   17.6728299
| 28>     H       13.7111581   14.2253929   16.7022098
| 29>     H       13.8940764   15.8905176   16.1064729
| 30>     H       16.1813319   13.8598325   16.4972105
| 31>     H       15.4866645   14.3281190   14.9262627
| 32>     H       16.9466113   18.3494659   15.1565380
| 33>     H       16.4634122   19.7866022   16.0563546
| 34>     H       15.5083991   18.3000352   16.1926041
| 35>     H       17.2018675   20.1395262   18.0797093
| 36>     H       19.7573351   17.8792856   20.2107683
| 37>     H       19.7293769   16.2427540   18.3342533
| 38>     H       19.5159974   14.1112764   19.2659993
| 39>     H       18.3681700   12.4853329   20.7523683
| 40>     H       16.2622713   13.1460413   21.9201477
| 41>     H       14.8271757   14.7608353   22.2792895
| 42>     H       16.4753772   17.0505825   20.1353280
| 43> *
| 44>
| 45>                          ****END OF INPUT****

CARTESIAN COORDINATES (ANGSTROEM)
---------------------------------
  C     14.396340   15.080143   16.648979
  C     15.703095   14.679621   15.943274
  O     16.532665   15.853984   15.888188
  C     17.747028   15.839734   16.509829
  O     18.408056   14.818752   16.606591
  C     17.928140   16.992028   17.451927
  C     17.377159   18.219810   17.273827
  C     16.529440   18.693204   16.111311
  N     17.635920   19.237876   18.196875
  C     18.525061   19.146244   19.235305
  S     18.852919   20.435914   20.217583
  N     19.130170   17.928337   19.418185
  C     18.789943   16.695690   18.682815
  C     18.087526   15.701333   19.603186
  C     18.609485   14.407846   19.787908
  C     17.957133   13.484873   20.622505
  C     16.770760   13.856897   21.277427
  C     16.245210   15.142810   21.092354
  O     15.094656   15.502162   21.715492
  C     16.897279   16.059611   20.262092
  H     14.599788   15.419532   17.672830
  H     13.711158   14.225393   16.702210
  H     13.894076   15.890518   16.106473
  H     16.181332   13.859832   16.497211
  H     15.486664   14.328119   14.926263
  H     16.946611   18.349466   15.156538
  H     16.463412   19.786602   16.056355
  H     15.508399   18.300035   16.192604
  H     17.201867   20.139526   18.079709
  H     19.757335   17.879286   20.210768
  H     19.729377   16.242754   18.334253
  H     19.515997   14.111276   19.265999
  H     18.368170   12.485333   20.752368
  H     16.262271   13.146041   21.920148
  H     14.827176   14.760835   22.279290
  H     16.475377   17.050583   20.135328

 Total Charge           Charge          ....    0
 Multiplicity           Mult            ....    1
 Number of Electrons    NEL             ....  154
 Basis Dimension        Dim             ....  828

ORBITAL ENERGIES
----------------

  NO   OCC          E(Eh)            E(eV)
   0   2.0000     -91.888196     -2500.4049
   1   2.0000     -20.594903      -560.4158
   2   2.0000     -20.594819      -560.4135
   3   2.0000     -20.550066      -559.1957
   4   2.0000     -15.627898      -425.2567
   5   2.0000     -15.607593      -424.7042
   6   2.0000     -11.395335      -310.0828
   7   2.0000     -11.383554      -309.7623
   8   2.0000     -11.333649      -308.4043
   9   2.0000     -11.310814      -307.7829
  10   2.0000     -11.307489      -307.6924
  11   2.0000     -11.298259      -307.4412
  12   2.0000     -11.259799      -306.3947
  13   2.0000     -11.259217      -306.3789
  14   2.0000     -11.256317      -306.3000
  15   2.0000     -11.250933      -306.1535
  16   2.0000     -11.240486      -305.8692
  17   2.0000     -11.236457      -305.7595
  18   2.0000     -11.233727      -305.6852
  19   2.0000     -11.230416      -305.5952
  20   2.0000      -8.893273      -241.9983
  21   2.0000      -6.574852      -178.9108
  22   2.0000      -6.572843      -178.8561
  23   2.0000      -6.572259      -178.8403
  24   2.0000      -1.453238       -39.5446
  25   2.0000      -1.414641       -38.4944
  26   2.0000      -1.357172       -36.9305
  27   2.0000      -1.339110       -36.4390
  28   2.0000      -1.237306       -33.6688
  29   2.0000      -1.155056       -31.4307
  30   2.0000      -1.120664       -30.4948
  31   2.0000      -1.044270       -28.4160
  32   2.0000      -1.036085       -28.1933
  33   2.0000      -1.012421       -27.5494
  34   2.0000      -0.998745       -27.1772
  35   2.0000      -0.984280       -26.7836
  36   2.0000      -0.922545       -25.1037
  37   2.0000      -0.888711       -24.1831
  38   2.0000      -0.847277       -23.0556
  39   2.0000      -0.836898       -22.7731
  40   2.0000      -0.830973       -22.6119
  41   2.0000      -0.817881       -22.2557
  42   2.0000      -0.759307       -20.6618
  43   2.0000      -0.736380       -20.0379
  44   2.0000      -0.727045       -19.7839
  45   2.0000      -0.693284       -18.8652
  46   2.0000      -0.685159       -18.6441
  47   2.0000      -0.678196       -18.4547
  48   2.0000      -0.676757       -18.4155
  49   2.0000      -0.661117       -17.9899
  50   2.0000      -0.650930       -17.7127
  51   2.0000      -0.644852       -17.5473
  52   2.0000      -0.635678       -17.2977
  53   2.0000      -0.603931       -16.4338
  54   2.0000      -0.602038       -16.3823
  55   2.0000      -0.598294       -16.2804
  56   2.0000      -0.590726       -16.0745
  57   2.0000      -0.581616       -15.8266
  58   2.0000      -0.575608       -15.6631
  59   2.0000      -0.566829       -15.4242
  60   2.0000      -0.560470       -15.2512
  61   2.0000      -0.555997       -15.1294
  62   2.0000      -0.540986       -14.7210
  63   2.0000      -0.520153       -14.1541
  64   2.0000      -0.519931       -14.1480
  65   2.0000      -0.511279       -13.9126
  66   2.0000      -0.500357       -13.6154
  67   2.0000      -0.497209       -13.5297
  68   2.0000      -0.482528       -13.1303
  69   2.0000      -0.463374       -12.6091
  70   2.0000      -0.457728       -12.4554
  71   2.0000      -0.454917       -12.3789
  72   2.0000      -0.353664        -9.6237
  73   2.0000      -0.346769        -9.4361
  74   2.0000      -0.327504        -8.9118
  75   2.0000      -0.317947        -8.6518
  76   2.0000      -0.315108        -8.5745
  77   0.0000       0.074539         2.0283
  78   0.0000       0.107320         2.9203
  79   0.0000       0.119645         3.2557
  80   0.0000       0.133229         3.6253
  81   0.0000       0.141363         3.8467

MULLIKEN ATOMIC CHARGES
-----------------------
   0 C :   -0.282032
   1 C :    0.036148
   2 O :   -0.358399
   3 C :    0.445072
   4 O :   -0.413356
   5 C :   -0.182809
   6 C :    0.139959
   7 C :   -0.284820
   8 N :   -0.124770
   9 C :    0.205074
  10 S :   -0.440574
  11 N :   -0.200045
  12 C :    0.050691
  13 C :    0.053635
  14 C :   -0.160388
  15 C :   -0.132497
  16 C :   -0.280287
  17 C :    0.317295
  18 O :   -0.360988
  19 C :   -0.288968
  20 H :    0.107485
  21 H :    0.101305
  22 H :    0.089497
  23 H :    0.109486
  24 H :    0.100216
  25 H :    0.124994
  26 H :    0.104456
  27 H :    0.126116
  28 H :    0.196969
  29 H :    0.194222
  30 H :    0.153962
  31 H :    0.153883
  32 H :    0.160312
  33 H :    0.129693
  34 H :    0.240830
  35 H :    0.168634
Sum of atomic charges:    0.0000000

LOEWDIN ATOMIC CHARGES
----------------------
   0 C :    0.103580
   1 C :   -0.012647
   2 O :    0.301743
   3 C :   -0.415483
   4 O :    0.114526
   5 C :   -0.092752
   6 C :   -0.072266
   7 C :    0.125595
   8 N :    0.404212
   9 C :   -0.457510
  10 S :   -0.036823
  11 N :    0.397322
  12 C :   -0.045766
  13 C :   -0.039731
  14 C :    0.021943
  15 C :    0.041521
  16 C :   -0.002205
  17 C :   -0.193684
  18 O :    0.393132
  19 C :    0.028377
  20 H :   -0.025363
  21 H :   -0.024641
  22 H :   -0.031108
  23 H :   -0.025198
  24 H :   -0.029381
  25 H :   -0.008111
  26 H :   -0.020098
  27 H :   -0.010578
  28 H :   -0.058925
  29 H :   -0.063986
  30 H :   -0.004890
  31 H :   -0.025019
  32 H :   -0.020687
  33 H :   -0.035953
  34 H :   -0.154254
  35 H :   -0.024894

  Mayer bond orders larger than 0.100000
B(  0-C ,  1-C ) :   0.9694 B(  0-C , 20-H ) :   0.9734 B(  0-C , 21-H ) :   0.9781
B(  0-C , 22-H ) :   0.9791 B(  1-C ,  2-O ) :   0.8909 B(  1-C , 23-H ) :   0.9709
B(  1-C , 24-H ) :   0.9848 B(  2-O ,  3-C ) :   1.1286 B(  3-C ,  4-O ) :   2.0085
B(  3-C ,  5-C ) :   1.0307 B(  5-C ,  6-C ) :   1.6637 B(  5-C , 12-C ) :   0.9652
B(  6-C ,  7-C ) :   0.9543 B(  6-C ,  8-N ) :   1.1425 B(  7-C , 25-H ) :   0.9692
B(  7-C , 26-H ) :   0.9886 B(  7-C , 27-H ) :   0.9636 B(  8-N ,  9-C ) :   1.1835
B(  8-N , 28-H ) :   0.9495 B(  9-C , 10-S ) :   1.6093 B(  9-C , 11-N ) :   1.3017
B( 11-N , 12-C ) :   0.9928 B( 11-N , 29-H ) :   0.9517 B( 12-C , 13-C ) :   0.9452
B( 12-C , 30-H ) :   0.9984 B( 13-C , 14-C ) :   1.3757 B( 13-C , 19-C ) :   1.3653
B( 14-C , 15-C ) :   1.3935 B( 14-C , 31-H ) :   0.9648 B( 15-C , 16-C ) :   1.3636
B( 15-C , 32-H ) :   0.9711 B( 16-C , 17-C ) :   1.3322 B( 16-C , 33-H ) :   0.9852
B( 17-C , 18-O ) :   1.1059 B( 17-C , 19-C ) :   1.3736 B( 18-O , 34-H ) :   0.9802
B( 19-C , 35-H ) :   0.9581

MP2 TOTAL ENERGY:    -1274.336533395 Eh
FINAL SINGLE POINT ENERGY     -1274.336533395497

DIPOLE MOMENT
-------------
                                X             Y             Z
Electronic contribution:     11.41353       8.34022       7.46330
Nuclear contribution   :    -12.77598      -9.68391      -8.27030
                        -----------------------------------------
Total Dipole Moment    :     -1.36245      -1.34369      -0.80700
                        -----------------------------------------
Magnitude (a.u.)       :      2.07678
Magnitude (Debye)      :      5.27876

Rotational constants in cm-1:     0.011315     0.009216     0.006597
Rotational constants in MHz :   339.201637   276.295478   197.765303

                             ****ORCA TERMINATED NORMALLY****
TOTAL RUN TIME: 0 days 1 hours 36 minutes 27 seconds 596 msec
