                         Program Version 5.0.0 -  RELEASE  -
|  1> ! ri-mp2 cc-pvtz cc-pvtz/c TightSCF NoKeepInts
|  2>
|  3> %scf
|  4>   MaxCore 4096
|  5> end
|  6> *xyz  0  1
|  7>     C       15.5863073   13.5448981   15.5082771
|  8>     C       15.6581465   14.4392121   16.7571369
|  9>     O       16.7816560   15.3229829   16.5929966
| 10>     C       16.5628771   16.6705182   16.5679315
| 11>     O       15.5876910   17.1486617   16.0142309
| 12>     C       17.4402912   17.4201756   17.5330527
| 13>     C       17.3634901   18.7665174   17.6886027
| 14>     C       16.4349852   19.7211795   16.9687530
| 15>     N       18.2312641   19.4218083   18.5672780
| 16>     C       19.2679738   18.8261489   19.2345039
| 17>     S       20.3124324   19.6920051   20.1806733
| 18>     N       19.4008967   17.4707068   19.0736243
| 19>     C       18.4476762   16.6022819   18.3593774
| 20>     C       17.7595122   15.6734012   19.3557473
| 21>     C       18.0872510   14.3050017   19.3947626
| 22>     C       17.4515071   13.4431405   20.3042079
| 23>     C       16.4830375   13.9541026   21.1850214
| 24>     C       16.1598752   15.3176337   21.1542531
| 25>     O       15.2268296   15.8143790   22.0047515
| 26>     C       16.7932435   16.1726395   20.2471451
| 27>     H       15.4249893   14.1538112   14.6096338
| 28>     H       14.7574973   12.8317109   15.5924937
| 29>     H       16.5175408   12.9790719   15.3819740
| 30>     H       14.7161774   14.9919814   16.8778818
| 31>     H       15.8037245   13.8168836   17.6495456
| 32>     H       15.3887108   19.4987554   17.2148302
| 33>     H       16.5432244   19.6201074   15.8813448
| 34>     H       16.6194640   20.7718729   17.2214470
| 35>     H       18.1502501   20.4178638   18.6954750
| 36>     H       20.1531663   17.0549958   19.6075892
| 37>     H       19.0277185   15.9870122   17.6570562
| 38>     H       18.8328077   13.9066731   18.7115883
| 39>     H       17.7109483   12.3859691   20.3257634
| 40>     H       15.9903118   13.2928935   21.8903867
| 41>     H       14.9395154   15.0891223   22.5796045
| 42>     H       16.5340098   17.2258807   20.2450590
| 43> *
| 44>
| 45>                          ****END OF INPUT****

CARTESIAN COORDINATES (ANGSTROEM)
---------------------------------
  C     15.586307   13.544898   15.508277
  C     15.658147   14.439212   16.757137
  O     16.781656   15.322983   16.592997
  C     16.562877   16.670518   16.567932
  O     15.587691   17.148662   16.014231
  C     17.440291   17.420176   17.533053
  C     17.363490   18.766517   17.688603
  C     16.434985   19.721180   16.968753
  N     18.231264   19.421808   18.567278
  C     19.267974   18.826149   19.234504
  S     20.312432   19.692005   20.180673
  N     19.400897   17.470707   19.073624
  C     18.447676   16.602282   18.359377
  C     17.759512   15.673401   19.355747
  C     18.087251   14.305002   19.394763
  C     17.451507   13.443141   20.304208
  C     16.483037   13.954103   21.185021
  C     16.159875   15.317634   21.154253
  O     15.226830   15.814379   22.004752
  C     16.793243   16.172639   20.247145
  H     15.424989   14.153811   14.609634
  H     14.757497   12.831711   15.592494
  H     16.517541   12.979072   15.381974
  H     14.716177   14.991981   16.877882
  H     15.803724   13.816884   17.649546
  H     15.388711   19.498755   17.214830
  H     16.543224   19.620107   15.881345
  H     16.619464   20.771873   17.221447
  H     18.150250   20.417864   18.695475
  H     20.153166   17.054996   19.607589
  H     19.027718   15.987012   17.657056
  H     18.832808   13.906673   18.711588
  H     17.710948   12.385969   20.325763
  H     15.990312   13.292893   21.890387
  H     14.939515   15.089122   22.579604
  H     16.534010   17.225881   20.245059

 Total Charge           Charge          ....    0
 Multiplicity           Mult            ....    1
 Number of Electrons    NEL             ....  154
 Basis Dimension        Dim             ....  828

ORBITAL ENERGIES
----------------

  NO   OCC          E(Eh)            E(eV)
   0   2.0000     -91.889572     -2500.4424
   1   2.0000     -20.599046      -560.5285
   2   2.0000     -20.592274      -560.3443
   3   2.0000     -20.544238      -559.0371
   4   2.0000     -15.629842      -425.3096
   5   2.0000     -15.609038      -424.7435
   6   2.0000     -11.394362      -310.0563
   7   2.0000     -11.384693      -309.7932
   8   2.0000     -11.336468      -308.4810
   9   2.0000     -11.316658      -307.9419
  10   2.0000     -11.310271      -307.7681
  11   2.0000     -11.293470      -307.3109
  12   2.0000     -11.262088      -306.4570
  13   2.0000     -11.259097      -306.3756
  14   2.0000     -11.258025      -306.3464
  15   2.0000     -11.252798      -306.2042
  16   2.0000     -11.245595      -306.0082
  17   2.0000     -11.240731      -305.8759
  18   2.0000     -11.240434      -305.8678
  19   2.0000     -11.223146      -305.3973
  20   2.0000      -8.894630      -242.0352
  21   2.0000      -6.576203      -178.9476
  22   2.0000      -6.574199      -178.8931
  23   2.0000      -6.573611      -178.8771
  24   2.0000      -1.449972       -39.4557
  25   2.0000      -1.418687       -38.6044
  26   2.0000      -1.353719       -36.8366
  27   2.0000      -1.340849       -36.4864
  28   2.0000      -1.239456       -33.7273
  29   2.0000      -1.159877       -31.5619
  30   2.0000      -1.121063       -30.5057
  31   2.0000      -1.044344       -28.4180
  32   2.0000      -1.035466       -28.1765
  33   2.0000      -1.017742       -27.6942
  34   2.0000      -0.996267       -27.1098
  35   2.0000      -0.984742       -26.7962
  36   2.0000      -0.923862       -25.1396
  37   2.0000      -0.884966       -24.0812
  38   2.0000      -0.848066       -23.0770
  39   2.0000      -0.839805       -22.8523
  40   2.0000      -0.836283       -22.7564
  41   2.0000      -0.822153       -22.3719
  42   2.0000      -0.761120       -20.7111
  43   2.0000      -0.734218       -19.9791
  44   2.0000      -0.724059       -19.7026
  45   2.0000      -0.697924       -18.9915
  46   2.0000      -0.689172       -18.7533
  47   2.0000      -0.679131       -18.4801
  48   2.0000      -0.672166       -18.2906
  49   2.0000      -0.654493       -17.8097
  50   2.0000      -0.647503       -17.6194
  51   2.0000      -0.643371       -17.5070
  52   2.0000      -0.627383       -17.0720
  53   2.0000      -0.616994       -16.7893
  54   2.0000      -0.609592       -16.5878
  55   2.0000      -0.601597       -16.3703
  56   2.0000      -0.600025       -16.3275
  57   2.0000      -0.580123       -15.7860
  58   2.0000      -0.572150       -15.5690
  59   2.0000      -0.567041       -15.4300
  60   2.0000      -0.565027       -15.3752
  61   2.0000      -0.539505       -14.6807
  62   2.0000      -0.533663       -14.5217
  63   2.0000      -0.527286       -14.3482
  64   2.0000      -0.519926       -14.1479
  65   2.0000      -0.514607       -14.0032
  66   2.0000      -0.502703       -13.6792
  67   2.0000      -0.496269       -13.5042
  68   2.0000      -0.488310       -13.2876
  69   2.0000      -0.464261       -12.6332
  70   2.0000      -0.454013       -12.3543
  71   2.0000      -0.447941       -12.1891
  72   2.0000      -0.354856        -9.6561
  73   2.0000      -0.351865        -9.5747
  74   2.0000      -0.329203        -8.9581
  75   2.0000      -0.324086        -8.8188
  76   2.0000      -0.317007        -8.6262
  77   0.0000       0.073132         1.9900
  78   0.0000       0.103760         2.8234
  79   0.0000       0.124186         3.3793
  80   0.0000       0.130965         3.5637
  81   0.0000       0.135370         3.6836

MULLIKEN ATOMIC CHARGES
-----------------------
   0 C :   -0.264618
   1 C :    0.030580
   2 O :   -0.372386
   3 C :    0.467485
   4 O :   -0.421672
   5 C :   -0.248080
   6 C :    0.160685
   7 C :   -0.270200
   8 N :   -0.123409
   9 C :    0.213518
  10 S :   -0.439671
  11 N :   -0.207088
  12 C :    0.070469
  13 C :    0.058223
  14 C :   -0.200204
  15 C :   -0.130234
  16 C :   -0.278908
  17 C :    0.313674
  18 O :   -0.355562
  19 C :   -0.260397
  20 H :    0.104402
  21 H :    0.088118
  22 H :    0.090279
  23 H :    0.103837
  24 H :    0.115235
  25 H :    0.132116
  26 H :    0.130627
  27 H :    0.095386
  28 H :    0.197694
  29 H :    0.195222
  30 H :    0.149752
  31 H :    0.151951
  32 H :    0.163407
  33 H :    0.131981
  34 H :    0.241170
  35 H :    0.166620
Sum of atomic charges:   -0.0000000

LOEWDIN ATOMIC CHARGES
----------------------
   0 C :    0.105084
   1 C :   -0.014870
   2 O :    0.303112
   3 C :   -0.417119
   4 O :    0.103343
   5 C :   -0.096863
   6 C :   -0.058840
   7 C :    0.131631
   8 N :    0.406798
   9 C :   -0.455885
  10 S :   -0.034987
  11 N :    0.396176
  12 C :   -0.052319
  13 C :   -0.037322
  14 C :    0.013706
  15 C :    0.038894
  16 C :   -0.002646
  17 C :   -0.189266
  18 O :    0.395933
  19 C :    0.031211
  20 H :   -0.023830
  21 H :   -0.028110
  22 H :   -0.029433
  23 H :   -0.028413
  24 H :   -0.029435
  25 H :   -0.004665
  26 H :   -0.003860
  27 H :   -0.023221
  28 H :   -0.057433
  29 H :   -0.064771
  30 H :   -0.009938
  31 H :   -0.029707
  32 H :   -0.020779
  33 H :   -0.035178
  34 H :   -0.153341
  35 H :   -0.023655

  Mayer bond orders larger than 0.100000
B(  0-C ,  1-C ) :   0.9818 B(  0-C , 20-H ) :   0.9784 B(  0-C , 21-H ) :   0.9768
B(  0-C , 22-H ) :   0.9790 B(  1-C ,  2-O ) :   0.8723 B(  1-C , 23-H ) :   0.9723
B(  1-C , 24-H ) :   0.9710 B(  2-O ,  3-C ) :   1.1322 B(  3-C ,  4-O ) :   1.9898
B(  3-C ,  5-C ) :   1.0670 B(  5-C ,  6-C ) :   1.6496 B(  5-C , 12-C ) :   0.9704
B(  6-C ,  7-C ) :   0.9665 B(  6-C ,  8-N ) :   1.1612 B(  7-C , 25-H ) :   0.9594
B(  7-C , 26-H ) :   0.9610 B(  7-C , 27-H ) :   0.9905 B(  8-N ,  9-C ) :   1.1832
B(  8-N , 28-H ) :   0.9477 B(  9-C , 10-S ) :   1.6064 B(  9-C , 11-N ) :   1.3066
B( 11-N , 12-C ) :   0.9795 B( 11-N , 29-H ) :   0.9517 B( 12-C , 13-C ) :   0.9372
B( 12-C , 30-H ) :   1.0020 B( 13-C , 14-C ) :   1.3506 B( 13-C , 19-C ) :   1.3810
B( 14-C , 15-C ) :   1.3901 B( 14-C , 31-H ) :   0.9733 B( 15-C , 16-C ) :   1.3603
B( 15-C , 32-H ) :   0.9703 B( 16-C , 17-C ) :   1.3307 B( 16-C , 33-H ) :   0.9845
B( 17-C , 18-O ) :   1.1123 B( 17-C , 19-C ) :   1.3713 B( 18-O , 34-H ) :   0.9794
B( 19-C , 35-H ) :   0.9578

MP2 TOTAL ENERGY:    -1274.341158481 Eh
FINAL SINGLE POINT ENERGY     -1274.341158481445

DIPOLE MOMENT
-------------
                                X             Y             Z
Electronic contribution:      9.63310      10.62510       8.39138
Nuclear contribution   :    -10.66266     -12.20429      -8.53075
                        -----------------------------------------
Total Dipole Moment    :     -1.02956      -1.57918      -0.13937
                        -----------------------------------------
Magnitude (a.u.)       :      1.89030
Magnitude (Debye)      :      4.80476

Rotational constants in cm-1:     0.012048     0.008528     0.006185
Rotational constants in MHz :   361.195754   255.670058   185.424890

                             ****ORCA TERMINATED NORMALLY****
TOTAL RUN TIME: 0 days 1 hours 43 minutes 24 seconds 197 msec
