                         Program Version 5.0.0 -  RELEASE  -
|  1> ! ri-mp2 cc-pvtz cc-pvtz/c TightSCF NoKeepInts
|  2>
|  3> %scf
|  4>   MaxCore 4096
|  5> end
|  6> *xyz  0  1
|  7>     C       14.2975141   15.6758417   16.1847241
|  8>     C       15.4353343   15.4102762   17.1867721
|  9>     O       16.6246209   15.0888436   16.4343572
| 10>     C       17.8344651   15.7370490   16.5103674
| 11>     O       18.8452879   15.1468070   16.1776415
| 12>     C       17.9176996   16.8959242   17.4471149
| 13>     C       17.3317926   18.0870900   17.1913587
| 14>     C       16.5474479   18.4653945   15.9559535
| 15>     N       17.4830263   19.1438517   18.0914725
| 16>     C       18.2705743   19.1051231   19.2131457
| 17>     S       18.4291468   20.4166488   20.2073976
| 18>     N       18.9152551   17.9205011   19.4753389
| 19>     C       18.7618223   16.6732340   18.6995081
| 20>     C       18.1622496   15.5554543   19.5466687
| 21>     C       18.6832714   14.2513689   19.4641475
| 22>     C       18.1174722   13.2055527   20.2120789
| 23>     C       17.0173513   13.4637506   21.0472820
| 24>     C       16.4900993   14.7595405   21.1261120
| 25>     O       15.4174297   15.0095285   21.9180245
| 26>     C       17.0550393   15.7990899   20.3805750
| 27>     H       14.5446673   16.4929303   15.4993871
| 28>     H       13.3730488   15.9371395   16.7140466
| 29>     H       14.1029676   14.7778389   15.5847348
| 30>     H       15.5564047   16.2786545   17.8430022
| 31>     H       15.1695263   14.5555446   17.8228570
| 32>     H       16.6152239   17.7011456   15.1720414
| 33>     H       16.9312881   19.3965832   15.5199390
| 34>     H       15.4875731   18.6165993   16.1936397
| 35>     H       17.0300990   20.0260624   17.9102517
| 36>     H       19.4723871   17.9157482   20.3205573
| 37>     H       19.7636412   16.3566626   18.3730214
| 38>     H       19.5207286   14.0441562   18.8010149
| 39>     H       18.5274300   12.1998259   20.1349872
| 40>     H       16.5752091   12.6573061   21.6230813
| 41>     H       15.2121323   14.1913920   22.3958352
| 42>     H       16.6277730   16.7935406   20.4555625
| 43> *
| 44>
| 45>                          ****END OF INPUT****

CARTESIAN COORDINATES (ANGSTROEM)
---------------------------------
  C     14.297514   15.675842   16.184724
  C     15.435334   15.410276   17.186772
  O     16.624621   15.088844   16.434357
  C     17.834465   15.737049   16.510367
  O     18.845288   15.146807   16.177642
  C     17.917700   16.895924   17.447115
  C     17.331793   18.087090   17.191359
  C     16.547448   18.465394   15.955953
  N     17.483026   19.143852   18.091472
  C     18.270574   19.105123   19.213146
  S     18.429147   20.416649   20.207398
  N     18.915255   17.920501   19.475339
  C     18.761822   16.673234   18.699508
  C     18.162250   15.555454   19.546669
  C     18.683271   14.251369   19.464147
  C     18.117472   13.205553   20.212079
  C     17.017351   13.463751   21.047282
  C     16.490099   14.759540   21.126112
  O     15.417430   15.009529   21.918025
  C     17.055039   15.799090   20.380575
  H     14.544667   16.492930   15.499387
  H     13.373049   15.937139   16.714047
  H     14.102968   14.777839   15.584735
  H     15.556405   16.278654   17.843002
  H     15.169526   14.555545   17.822857
  H     16.615224   17.701146   15.172041
  H     16.931288   19.396583   15.519939
  H     15.487573   18.616599   16.193640
  H     17.030099   20.026062   17.910252
  H     19.472387   17.915748   20.320557
  H     19.763641   16.356663   18.373021
  H     19.520729   14.044156   18.801015
  H     18.527430   12.199826   20.134987
  H     16.575209   12.657306   21.623081
  H     15.212132   14.191392   22.395835
  H     16.627773   16.793541   20.455562

 Total Charge           Charge          ....    0
 Multiplicity           Mult            ....    1
 Number of Electrons    NEL             ....  154
 Basis Dimension        Dim             ....  828

ORBITAL ENERGIES
----------------

  NO   OCC          E(Eh)            E(eV)
   0   2.0000     -91.890100     -2500.4567
   1   2.0000     -20.600763      -560.5753
   2   2.0000     -20.600464      -560.5671
   3   2.0000     -20.550208      -559.1996
   4   2.0000     -15.626832      -425.2277
   5   2.0000     -15.612031      -424.8250
   6   2.0000     -11.398535      -310.1699
   7   2.0000     -11.387039      -309.8571
   8   2.0000     -11.328110      -308.2536
   9   2.0000     -11.317132      -307.9548
  10   2.0000     -11.315594      -307.9130
  11   2.0000     -11.303705      -307.5894
  12   2.0000     -11.269523      -306.6593
  13   2.0000     -11.264922      -306.5341
  14   2.0000     -11.263867      -306.5054
  15   2.0000     -11.257101      -306.3213
  16   2.0000     -11.246524      -306.0335
  17   2.0000     -11.242733      -305.9303
  18   2.0000     -11.239813      -305.8509
  19   2.0000     -11.235291      -305.7278
  20   2.0000      -8.895219      -242.0512
  21   2.0000      -6.576808      -178.9640
  22   2.0000      -6.574781      -178.9089
  23   2.0000      -6.574207      -178.8933
  24   2.0000      -1.447133       -39.3785
  25   2.0000      -1.420267       -38.6474
  26   2.0000      -1.358737       -36.9731
  27   2.0000      -1.340365       -36.4732
  28   2.0000      -1.240242       -33.7487
  29   2.0000      -1.161973       -31.6189
  30   2.0000      -1.126361       -30.6499
  31   2.0000      -1.049749       -28.5651
  32   2.0000      -1.041197       -28.3324
  33   2.0000      -1.019297       -27.7365
  34   2.0000      -1.005652       -27.3652
  35   2.0000      -0.990011       -26.9396
  36   2.0000      -0.928302       -25.2604
  37   2.0000      -0.888337       -24.1729
  38   2.0000      -0.854129       -23.2420
  39   2.0000      -0.842258       -22.9190
  40   2.0000      -0.837424       -22.7875
  41   2.0000      -0.836649       -22.7664
  42   2.0000      -0.756880       -20.5958
  43   2.0000      -0.738194       -20.0873
  44   2.0000      -0.732569       -19.9342
  45   2.0000      -0.698117       -18.9967
  46   2.0000      -0.688799       -18.7432
  47   2.0000      -0.680398       -18.5146
  48   2.0000      -0.677129       -18.4256
  49   2.0000      -0.667233       -18.1563
  50   2.0000      -0.653428       -17.7807
  51   2.0000      -0.641088       -17.4449
  52   2.0000      -0.639832       -17.4107
  53   2.0000      -0.615937       -16.7605
  54   2.0000      -0.608884       -16.5686
  55   2.0000      -0.606404       -16.5011
  56   2.0000      -0.603807       -16.4304
  57   2.0000      -0.589329       -16.0365
  58   2.0000      -0.578979       -15.7548
  59   2.0000      -0.570152       -15.5146
  60   2.0000      -0.566165       -15.4061
  61   2.0000      -0.560055       -15.2399
  62   2.0000      -0.541212       -14.7271
  63   2.0000      -0.535638       -14.5754
  64   2.0000      -0.523584       -14.2474
  65   2.0000      -0.516493       -14.0545
  66   2.0000      -0.502881       -13.6841
  67   2.0000      -0.501191       -13.6381
  68   2.0000      -0.489022       -13.3070
  69   2.0000      -0.471100       -12.8193
  70   2.0000      -0.453445       -12.3389
  71   2.0000      -0.448621       -12.2076
  72   2.0000      -0.356816        -9.7095
  73   2.0000      -0.352333        -9.5875
  74   2.0000      -0.329812        -8.9746
  75   2.0000      -0.324961        -8.8426
  76   2.0000      -0.318554        -8.6683
  77   0.0000       0.086189         2.3453
  78   0.0000       0.104483         2.8431
  79   0.0000       0.113845         3.0979
  80   0.0000       0.127820         3.4782
  81   0.0000       0.130235         3.5439

MULLIKEN ATOMIC CHARGES
-----------------------
   0 C :   -0.269849
   1 C :    0.015012
   2 O :   -0.316824
   3 C :    0.393131
   4 O :   -0.380946
   5 C :   -0.175830
   6 C :    0.130511
   7 C :   -0.337126
   8 N :   -0.137033
   9 C :    0.204775
  10 S :   -0.441211
  11 N :   -0.213824
  12 C :    0.069763
  13 C :    0.029095
  14 C :   -0.191090
  15 C :   -0.129183
  16 C :   -0.277245
  17 C :    0.313539
  18 O :   -0.357920
  19 C :   -0.283858
  20 H :    0.087580
  21 H :    0.094593
  22 H :    0.111928
  23 H :    0.097960
  24 H :    0.129020
  25 H :    0.125448
  26 H :    0.144053
  27 H :    0.124702
  28 H :    0.196372
  29 H :    0.198687
  30 H :    0.164163
  31 H :    0.166255
  32 H :    0.163609
  33 H :    0.132813
  34 H :    0.241991
  35 H :    0.176937
Sum of atomic charges:   -0.0000000

LOEWDIN ATOMIC CHARGES
----------------------
   0 C :    0.104655
   1 C :   -0.016504
   2 O :    0.308579
   3 C :   -0.417081
   4 O :    0.124890
   5 C :   -0.082179
   6 C :   -0.105631
   7 C :    0.125122
   8 N :    0.401074
   9 C :   -0.455775
  10 S :   -0.037991
  11 N :    0.397306
  12 C :   -0.044439
  13 C :   -0.043455
  14 C :    0.023590
  15 C :    0.046223
  16 C :   -0.000108
  17 C :   -0.194158
  18 O :    0.394356
  19 C :    0.028001
  20 H :   -0.034201
  21 H :   -0.025145
  22 H :   -0.023253
  23 H :   -0.040921
  24 H :   -0.021986
  25 H :   -0.009134
  26 H :   -0.009490
  27 H :   -0.016011
  28 H :   -0.058000
  29 H :   -0.063597
  30 H :   -0.002311
  31 H :   -0.021852
  32 H :   -0.018314
  33 H :   -0.034522
  34 H :   -0.152777
  35 H :   -0.024961

  Mayer bond orders larger than 0.100000
B(  0-C ,  1-C ) :   0.9716 B(  0-C , 20-H ) :   0.9779 B(  0-C , 21-H ) :   0.9754
B(  0-C , 22-H ) :   0.9797 B(  1-C ,  2-O ) :   0.8991 B(  1-C , 23-H ) :   0.9612
B(  1-C , 24-H ) :   0.9782 B(  2-O ,  3-C ) :   1.1859 B(  3-C ,  4-O ) :   2.0947
B(  3-C ,  5-C ) :   0.9233 B(  5-C ,  6-C ) :   1.6919 B(  5-C , 12-C ) :   0.9600
B(  6-C ,  7-C ) :   0.9437 B(  6-C ,  8-N ) :   1.1124 B(  7-C , 25-H ) :   0.9813
B(  7-C , 26-H ) :   0.9716 B(  7-C , 27-H ) :   0.9651 B(  8-N ,  9-C ) :   1.1958
B(  8-N , 28-H ) :   0.9522 B(  9-C , 10-S ) :   1.6114 B(  9-C , 11-N ) :   1.2869
B( 11-N , 12-C ) :   0.9984 B( 11-N , 29-H ) :   0.9487 B( 12-C , 13-C ) :   0.9433
B( 12-C , 30-H ) :   0.9971 B( 13-C , 14-C ) :   1.3869 B( 13-C , 19-C ) :   1.3436
B( 14-C , 15-C ) :   1.3967 B( 14-C , 31-H ) :   0.9618 B( 15-C , 16-C ) :   1.3643
B( 15-C , 32-H ) :   0.9700 B( 16-C , 17-C ) :   1.3284 B( 16-C , 33-H ) :   0.9842
B( 17-C , 18-O ) :   1.1105 B( 17-C , 19-C ) :   1.3710 B( 18-O , 34-H ) :   0.9789
B( 19-C , 35-H ) :   0.9572

MP2 TOTAL ENERGY:    -1274.330381261 Eh
FINAL SINGLE POINT ENERGY     -1274.330381261470

DIPOLE MOMENT
-------------
                                X             Y             Z
Electronic contribution:     11.53595       5.48209       7.91599
Nuclear contribution   :    -13.08323      -6.51954      -8.20194
                        -----------------------------------------
Total Dipole Moment    :     -1.54728      -1.03745      -0.28596
                        -----------------------------------------
Magnitude (a.u.)       :      1.88472
Magnitude (Debye)      :      4.79057

Rotational constants in cm-1:     0.011505     0.009246     0.006861
Rotational constants in MHz :   344.924433   277.183126   205.694221

                             ****ORCA TERMINATED NORMALLY****
TOTAL RUN TIME: 0 days 1 hours 50 minutes 7 seconds 111 msec
