                         Program Version 5.0.0 -  RELEASE  -
|  1> ! RI-MP2 cc-pVTZ cc-pVTZ/c TightSCF KeepDens NoKeepInts
|  2>
|  3> %pointcharges "srfp_output"
|  4>
|  5> *xyz  0  1
|  6>     C     2.3136998    0.1441371   14.9745446
|  7>     C     1.0908644   -0.8121057   15.2314846
|  8>     O     1.5376877   -2.1305411   15.6626518
|  9>     C     2.1080903   -2.2834831   16.8780988
| 10>     O     2.0812418   -1.3949803   17.7288233
| 11>     C     3.0133928   -3.4547956   17.0039798
| 12>     C     2.9949905   -4.5729167   16.2390143
| 13>     C     1.8298994   -5.0404787   15.3222838
| 14>     N     4.0203862   -5.4490967   16.3107866
| 15>     C     4.9644776   -5.4935573   17.3094086
| 16>     S     6.0866853   -6.7395877   17.6036228
| 17>     N     4.9353525   -4.3897870   18.0716489
| 18>     C     4.2338417   -3.1473450   17.8359305
| 19>     C     5.0470491   -2.0781227   17.0370631
| 20>     C     5.3500095   -2.3028098   15.6401841
| 21>     C     5.8153642   -1.2456973   14.8255083
| 22>     C     6.2891435   -0.0585613   15.4578886
| 23>     C     6.0378804    0.1044813   16.8635222
| 24>     O     6.4959157    1.2144006   17.3875064
| 25>     C     5.4879238   -0.9042191   17.6772661
| 26>     H     1.9038550    1.1371266   14.7527761
| 27>     H     2.9123049   -0.2050470   14.1242905
| 28>     H     2.9078208    0.1096826   15.8959704
| 29>     H     0.5363647   -0.2850633   16.0175817
| 30>     H     0.5052809   -0.8974774   14.3079083
| 31>     H     1.0500771   -5.5498430   15.9016084
| 32>     H     2.1632646   -5.8576511   14.6709108
| 33>     H     1.3374800   -4.3076280   14.6714054
| 34>     H     3.9220486   -6.3046043   15.7774921
| 35>     H     5.5789338   -4.3647882   18.8534063
| 36>     H     4.0032977   -2.7519068   18.8327594
| 37>     H     5.2167868   -3.3119005   15.2615234
| 38>     H     5.9497847   -1.5544789   13.7930448
| 39>     H     6.8538881    0.7365698   14.9801585
| 40>     H     6.4236537    1.8717801   16.6738123
| 41>     H     5.3658157   -0.6376965   18.7229483
| 42> *
| 43>
| 44>                          ****END OF INPUT****

CARTESIAN COORDINATES (ANGSTROEM)
---------------------------------
  C      2.313700    0.144137   14.974545
  C      1.090864   -0.812106   15.231485
  O      1.537688   -2.130541   15.662652
  C      2.108090   -2.283483   16.878099
  O      2.081242   -1.394980   17.728823
  C      3.013393   -3.454796   17.003980
  C      2.994991   -4.572917   16.239014
  C      1.829899   -5.040479   15.322284
  N      4.020386   -5.449097   16.310787
  C      4.964478   -5.493557   17.309409
  S      6.086685   -6.739588   17.603623
  N      4.935352   -4.389787   18.071649
  C      4.233842   -3.147345   17.835930
  C      5.047049   -2.078123   17.037063
  C      5.350009   -2.302810   15.640184
  C      5.815364   -1.245697   14.825508
  C      6.289143   -0.058561   15.457889
  C      6.037880    0.104481   16.863522
  O      6.495916    1.214401   17.387506
  C      5.487924   -0.904219   17.677266
  H      1.903855    1.137127   14.752776
  H      2.912305   -0.205047   14.124291
  H      2.907821    0.109683   15.895970
  H      0.536365   -0.285063   16.017582
  H      0.505281   -0.897477   14.307908
  H      1.050077   -5.549843   15.901608
  H      2.163265   -5.857651   14.670911
  H      1.337480   -4.307628   14.671405
  H      3.922049   -6.304604   15.777492
  H      5.578934   -4.364788   18.853406
  H      4.003298   -2.751907   18.832759
  H      5.216787   -3.311901   15.261523
  H      5.949785   -1.554479   13.793045
  H      6.853888    0.736570   14.980158
  H      6.423654    1.871780   16.673812
  H      5.365816   -0.637696   18.722948

 Total Charge           Charge          ....    0
 Multiplicity           Mult            ....    1
 Number of Electrons    NEL             ....  154
 Basis Dimension        Dim             ....  828

ORBITAL ENERGIES
----------------

  NO   OCC          E(Eh)            E(eV)
   0   2.0000     -92.063444     -2505.1737
   1   2.0000     -20.732689      -564.1652
   2   2.0000     -20.718113      -563.7685
   3   2.0000     -20.690409      -563.0146
   4   2.0000     -15.760533      -428.8659
   5   2.0000     -15.749806      -428.5740
   6   2.0000     -11.541559      -314.0618
   7   2.0000     -11.537888      -313.9619
   8   2.0000     -11.456995      -311.7607
   9   2.0000     -11.435861      -311.1856
  10   2.0000     -11.435378      -311.1725
  11   2.0000     -11.416716      -310.6646
  12   2.0000     -11.393018      -310.0198
  13   2.0000     -11.381777      -309.7139
  14   2.0000     -11.377745      -309.6042
  15   2.0000     -11.367313      -309.3203
  16   2.0000     -11.366433      -309.2964
  17   2.0000     -11.365679      -309.2759
  18   2.0000     -11.364407      -309.2412
  19   2.0000     -11.340594      -308.5932
  20   2.0000      -9.068296      -246.7609
  21   2.0000      -6.750185      -183.6819
  22   2.0000      -6.748259      -183.6295
  23   2.0000      -6.747925      -183.6204
  24   2.0000      -1.588685       -43.2303
  25   2.0000      -1.562229       -42.5104
  26   2.0000      -1.493825       -40.6490
  27   2.0000      -1.492033       -40.6003
  28   2.0000      -1.382022       -37.6067
  29   2.0000      -1.278296       -34.7842
  30   2.0000      -1.245475       -33.8911
  31   2.0000      -1.160421       -31.5767
  32   2.0000      -1.152833       -31.3702
  33   2.0000      -1.134310       -30.8661
  34   2.0000      -1.125093       -30.6153
  35   2.0000      -1.108091       -30.1527
  36   2.0000      -1.054576       -28.6965
  37   2.0000      -1.018923       -27.7263
  38   2.0000      -0.996048       -27.1038
  39   2.0000      -0.970701       -26.4141
  40   2.0000      -0.949615       -25.8404
  41   2.0000      -0.943533       -25.6748
  42   2.0000      -0.885324       -24.0909
  43   2.0000      -0.875468       -23.8227
  44   2.0000      -0.850268       -23.1370
  45   2.0000      -0.821061       -22.3422
  46   2.0000      -0.819041       -22.2872
  47   2.0000      -0.813559       -22.1381
  48   2.0000      -0.808255       -21.9937
  49   2.0000      -0.789782       -21.4911
  50   2.0000      -0.784551       -21.3487
  51   2.0000      -0.767624       -20.8881
  52   2.0000      -0.762544       -20.7499
  53   2.0000      -0.748191       -20.3593
  54   2.0000      -0.737110       -20.0578
  55   2.0000      -0.728932       -19.8353
  56   2.0000      -0.713759       -19.4224
  57   2.0000      -0.701540       -19.0899
  58   2.0000      -0.693146       -18.8615
  59   2.0000      -0.682869       -18.5818
  60   2.0000      -0.675041       -18.3688
  61   2.0000      -0.671579       -18.2746
  62   2.0000      -0.669342       -18.2137
  63   2.0000      -0.657820       -17.9002
  64   2.0000      -0.651170       -17.7192
  65   2.0000      -0.640693       -17.4341
  66   2.0000      -0.625042       -17.0082
  67   2.0000      -0.618030       -16.8175
  68   2.0000      -0.604238       -16.4421
  69   2.0000      -0.601040       -16.3551
  70   2.0000      -0.590104       -16.0576
  71   2.0000      -0.573674       -15.6105
  72   2.0000      -0.506755       -13.7895
  73   2.0000      -0.503264       -13.6945
  74   2.0000      -0.473555       -12.8861
  75   2.0000      -0.469352       -12.7717
  76   2.0000      -0.430706       -11.7201
  77   0.0000      -0.065014        -1.7691
  78   0.0000      -0.012756        -0.3471
  79   0.0000      -0.000377        -0.0102
  80   0.0000       0.014324         0.3898
  81   0.0000       0.023752         0.6463

MULLIKEN ATOMIC CHARGES
-----------------------
   0 C :   -0.288130
   1 C :    0.018998
   2 O :   -0.335020
   3 C :    0.505542
   4 O :   -0.596796
   5 C :   -0.069133
   6 C :    0.064233
   7 C :   -0.295609
   8 N :   -0.115371
   9 C :    0.370761
  10 S :   -0.764051
  11 N :   -0.181862
  12 C :    0.052294
  13 C :    0.014452
  14 C :   -0.307263
  15 C :   -0.138985
  16 C :   -0.285364
  17 C :    0.308298
  18 O :   -0.431758
  19 C :   -0.264767
  20 H :    0.117869
  21 H :    0.101907
  22 H :    0.094886
  23 H :    0.112764
  24 H :    0.134603
  25 H :    0.139409
  26 H :    0.116171
  27 H :    0.145967
  28 H :    0.251564
  29 H :    0.255226
  30 H :    0.171655
  31 H :    0.205055
  32 H :    0.201024
  33 H :    0.180672
  34 H :    0.330889
  35 H :    0.179868
Sum of atomic charges:    0.0000000

LOEWDIN ATOMIC CHARGES
----------------------
   0 C :    0.118603
   1 C :    0.014367
   2 O :    0.317973
   3 C :   -0.395222
   4 O :   -0.007964
   5 C :   -0.101056
   6 C :   -0.065587
   7 C :    0.148357
   8 N :    0.432048
   9 C :   -0.375121
  10 S :   -0.283805
  11 N :    0.439211
  12 C :   -0.048412
  13 C :   -0.028837
  14 C :    0.003053
  15 C :    0.044511
  16 C :    0.014946
  17 C :   -0.235418
  18 O :    0.395085
  19 C :    0.013316
  20 H :   -0.021967
  21 H :   -0.032980
  22 H :   -0.035799
  23 H :   -0.031624
  24 H :   -0.021519
  25 H :   -0.004462
  26 H :   -0.010803
  27 H :   -0.014048
  28 H :   -0.014303
  29 H :   -0.023068
  30 H :    0.004026
  31 H :   -0.029988
  32 H :   -0.016813
  33 H :   -0.024513
  34 H :   -0.100520
  35 H :   -0.021666

  Mayer bond orders larger than 0.100000
B(  0-C ,  1-C ) :   0.9554 B(  0-C , 20-H ) :   0.9754 B(  0-C , 21-H ) :   0.9738
B(  0-C , 22-H ) :   0.9715 B(  1-C ,  2-O ) :   0.8642 B(  1-C , 23-H ) :   0.9809
B(  1-C , 24-H ) :   0.9803 B(  2-O ,  3-C ) :   1.2269 B(  3-C ,  4-O ) :   1.8814
B(  3-C ,  5-C ) :   1.0796 B(  5-C ,  6-C ) :   1.6055 B(  5-C , 12-C ) :   0.9602
B(  6-C ,  7-C ) :   0.9609 B(  6-C ,  8-N ) :   1.1692 B(  7-C , 25-H ) :   0.9598
B(  7-C , 26-H ) :   0.9833 B(  7-C , 27-H ) :   0.9633 B(  8-N ,  9-C ) :   1.2508
B(  8-N , 28-H ) :   0.9290 B(  9-C , 10-S ) :   1.1507 B(  9-C , 11-N ) :   1.4650
B( 11-N , 12-C ) :   0.9497 B( 11-N , 29-H ) :   0.9262 B( 12-C , 13-C ) :   0.9440
B( 12-C , 30-H ) :   0.9902 B( 13-C , 14-C ) :   1.3248 B( 13-C , 19-C ) :   1.4041
B( 14-C , 15-C ) :   1.4165 B( 14-C , 31-H ) :   0.9548 B( 15-C , 16-C ) :   1.3252
B( 15-C , 32-H ) :   0.9565 B( 16-C , 17-C ) :   1.3458 B( 16-C , 33-H ) :   0.9659
B( 17-C , 18-O ) :   1.1069 B( 17-C , 19-C ) :   1.3587 B( 18-O , 34-H ) :   0.9129
B( 19-C , 35-H ) :   0.9471

MP2 TOTAL ENERGY:    -1274.447590094 Eh
FINAL SINGLE POINT ENERGY     -1274.447590094260

DIPOLE MOMENT
-------------
                                X             Y             Z
Electronic contribution:      7.17426      -9.06345       8.86567
Nuclear contribution   :     -9.54915      10.93625     -11.74243
                        -----------------------------------------
Total Dipole Moment    :     -2.37489       1.87280      -2.87676
                        -----------------------------------------
Magnitude (a.u.)       :      4.17411
Magnitude (Debye)      :     10.60975

Rotational constants in cm-1:     0.013367     0.008613     0.006218
Rotational constants in MHz :   400.739102   258.225003   186.416164

                             ****ORCA TERMINATED NORMALLY****
TOTAL RUN TIME: 0 days 2 hours 1 minutes 5 seconds 767 msec
