                         Program Version 5.0.0 -  RELEASE  -
|  1> ! RI-MP2 cc-pVTZ cc-pVTZ/c TightSCF KeepDens NoKeepInts
|  2>
|  3> *xyz  0  1
|  4>     C     2.3136998    0.1441371   14.9745446
|  5>     C     1.0908644   -0.8121057   15.2314846
|  6>     O     1.5376877   -2.1305411   15.6626518
|  7>     C     2.1080903   -2.2834831   16.8780988
|  8>     O     2.0812418   -1.3949803   17.7288233
|  9>     C     3.0133928   -3.4547956   17.0039798
| 10>     C     2.9949905   -4.5729167   16.2390143
| 11>     C     1.8298994   -5.0404787   15.3222838
| 12>     N     4.0203862   -5.4490967   16.3107866
| 13>     C     4.9644776   -5.4935573   17.3094086
| 14>     S     6.0866853   -6.7395877   17.6036228
| 15>     N     4.9353525   -4.3897870   18.0716489
| 16>     C     4.2338417   -3.1473450   17.8359305
| 17>     C     5.0470491   -2.0781227   17.0370631
| 18>     C     5.3500095   -2.3028098   15.6401841
| 19>     C     5.8153642   -1.2456973   14.8255083
| 20>     C     6.2891435   -0.0585613   15.4578886
| 21>     C     6.0378804    0.1044813   16.8635222
| 22>     O     6.4959157    1.2144006   17.3875064
| 23>     C     5.4879238   -0.9042191   17.6772661
| 24>     H     1.9038550    1.1371266   14.7527761
| 25>     H     2.9123049   -0.2050470   14.1242905
| 26>     H     2.9078208    0.1096826   15.8959704
| 27>     H     0.5363647   -0.2850633   16.0175817
| 28>     H     0.5052809   -0.8974774   14.3079083
| 29>     H     1.0500771   -5.5498430   15.9016084
| 30>     H     2.1632646   -5.8576511   14.6709108
| 31>     H     1.3374800   -4.3076280   14.6714054
| 32>     H     3.9220486   -6.3046043   15.7774921
| 33>     H     5.5789338   -4.3647882   18.8534063
| 34>     H     4.0032977   -2.7519068   18.8327594
| 35>     H     5.2167868   -3.3119005   15.2615234
| 36>     H     5.9497847   -1.5544789   13.7930448
| 37>     H     6.8538881    0.7365698   14.9801585
| 38>     H     6.4236537    1.8717801   16.6738123
| 39>     H     5.3658157   -0.6376965   18.7229483
| 40> *
| 41>
| 42>                          ****END OF INPUT****

CARTESIAN COORDINATES (ANGSTROEM)
---------------------------------
  C      2.313700    0.144137   14.974545
  C      1.090864   -0.812106   15.231485
  O      1.537688   -2.130541   15.662652
  C      2.108090   -2.283483   16.878099
  O      2.081242   -1.394980   17.728823
  C      3.013393   -3.454796   17.003980
  C      2.994991   -4.572917   16.239014
  C      1.829899   -5.040479   15.322284
  N      4.020386   -5.449097   16.310787
  C      4.964478   -5.493557   17.309409
  S      6.086685   -6.739588   17.603623
  N      4.935352   -4.389787   18.071649
  C      4.233842   -3.147345   17.835930
  C      5.047049   -2.078123   17.037063
  C      5.350009   -2.302810   15.640184
  C      5.815364   -1.245697   14.825508
  C      6.289143   -0.058561   15.457889
  C      6.037880    0.104481   16.863522
  O      6.495916    1.214401   17.387506
  C      5.487924   -0.904219   17.677266
  H      1.903855    1.137127   14.752776
  H      2.912305   -0.205047   14.124291
  H      2.907821    0.109683   15.895970
  H      0.536365   -0.285063   16.017582
  H      0.505281   -0.897477   14.307908
  H      1.050077   -5.549843   15.901608
  H      2.163265   -5.857651   14.670911
  H      1.337480   -4.307628   14.671405
  H      3.922049   -6.304604   15.777492
  H      5.578934   -4.364788   18.853406
  H      4.003298   -2.751907   18.832759
  H      5.216787   -3.311901   15.261523
  H      5.949785   -1.554479   13.793045
  H      6.853888    0.736570   14.980158
  H      6.423654    1.871780   16.673812
  H      5.365816   -0.637696   18.722948

 Total Charge           Charge          ....    0
 Multiplicity           Mult            ....    1
 Number of Electrons    NEL             ....  154
 Basis Dimension        Dim             ....  828

ORBITAL ENERGIES
----------------

  NO   OCC          E(Eh)            E(eV)
   0   2.0000     -91.894104     -2500.5657
   1   2.0000     -20.603554      -560.6512
   2   2.0000     -20.595429      -560.4301
   3   2.0000     -20.541480      -558.9621
   4   2.0000     -15.633989      -425.4225
   5   2.0000     -15.611223      -424.8030
   6   2.0000     -11.392387      -310.0026
   7   2.0000     -11.390137      -309.9414
   8   2.0000     -11.333192      -308.3918
   9   2.0000     -11.311002      -307.7880
  10   2.0000     -11.307168      -307.6837
  11   2.0000     -11.300097      -307.4913
  12   2.0000     -11.266071      -306.5654
  13   2.0000     -11.263582      -306.4977
  14   2.0000     -11.258797      -306.3674
  15   2.0000     -11.252600      -306.1988
  16   2.0000     -11.245211      -305.9977
  17   2.0000     -11.239828      -305.8513
  18   2.0000     -11.239258      -305.8358
  19   2.0000     -11.224178      -305.4254
  20   2.0000      -8.897163      -242.1041
  21   2.0000      -6.578568      -179.0119
  22   2.0000      -6.576636      -178.9594
  23   2.0000      -6.576103      -178.9449
  24   2.0000      -1.452210       -39.5167
  25   2.0000      -1.438410       -39.1411
  26   2.0000      -1.361936       -37.0602
  27   2.0000      -1.348761       -36.7017
  28   2.0000      -1.252522       -34.0829
  29   2.0000      -1.149203       -31.2714
  30   2.0000      -1.117237       -30.4016
  31   2.0000      -1.036344       -28.2004
  32   2.0000      -1.029659       -28.0184
  33   2.0000      -1.012078       -27.5400
  34   2.0000      -0.989276       -26.9196
  35   2.0000      -0.980732       -26.6871
  36   2.0000      -0.924932       -25.1687
  37   2.0000      -0.892130       -24.2761
  38   2.0000      -0.862939       -23.4818
  39   2.0000      -0.846498       -23.0344
  40   2.0000      -0.825156       -22.4536
  41   2.0000      -0.816580       -22.2203
  42   2.0000      -0.753189       -20.4953
  43   2.0000      -0.745216       -20.2784
  44   2.0000      -0.723746       -19.6941
  45   2.0000      -0.696485       -18.9523
  46   2.0000      -0.691360       -18.8128
  47   2.0000      -0.679065       -18.4783
  48   2.0000      -0.676920       -18.4199
  49   2.0000      -0.658509       -17.9189
  50   2.0000      -0.656391       -17.8613
  51   2.0000      -0.642169       -17.4743
  52   2.0000      -0.634916       -17.2769
  53   2.0000      -0.622389       -16.9361
  54   2.0000      -0.610777       -16.6201
  55   2.0000      -0.606275       -16.4976
  56   2.0000      -0.596602       -16.2344
  57   2.0000      -0.579784       -15.7767
  58   2.0000      -0.571216       -15.5436
  59   2.0000      -0.560542       -15.2531
  60   2.0000      -0.552559       -15.0359
  61   2.0000      -0.547052       -14.8860
  62   2.0000      -0.535895       -14.5824
  63   2.0000      -0.531343       -14.4586
  64   2.0000      -0.516219       -14.0470
  65   2.0000      -0.508816       -13.8456
  66   2.0000      -0.498990       -13.5782
  67   2.0000      -0.495591       -13.4857
  68   2.0000      -0.472550       -12.8587
  69   2.0000      -0.462625       -12.5887
  70   2.0000      -0.457324       -12.4444
  71   2.0000      -0.443409       -12.0658
  72   2.0000      -0.352141        -9.5822
  73   2.0000      -0.346423        -9.4266
  74   2.0000      -0.328511        -8.9392
  75   2.0000      -0.322130        -8.7656
  76   2.0000      -0.300983        -8.1902
  77   0.0000       0.071263         1.9392
  78   0.0000       0.111255         3.0274
  79   0.0000       0.119198         3.2436
  80   0.0000       0.123897         3.3714
  81   0.0000       0.134706         3.6655

MULLIKEN ATOMIC CHARGES
-----------------------
   0 C :   -0.299433
   1 C :    0.033909
   2 O :   -0.353729
   3 C :    0.440434
   4 O :   -0.444445
   5 C :   -0.071928
   6 C :    0.045114
   7 C :   -0.304896
   8 N :   -0.101226
   9 C :    0.190487
  10 S :   -0.442889
  11 N :   -0.159319
  12 C :    0.023129
  13 C :    0.020997
  14 C :   -0.211971
  15 C :   -0.156853
  16 C :   -0.269755
  17 C :    0.281763
  18 O :   -0.341804
  19 C :   -0.209215
  20 H :    0.100177
  21 H :    0.089931
  22 H :    0.125930
  23 H :    0.109056
  24 H :    0.109753
  25 H :    0.129390
  26 H :    0.088757
  27 H :    0.148371
  28 H :    0.187915
  29 H :    0.190653
  30 H :    0.160434
  31 H :    0.169073
  32 H :    0.168030
  33 H :    0.145302
  34 H :    0.246116
  35 H :    0.162743
Sum of atomic charges:    0.0000000

LOEWDIN ATOMIC CHARGES
----------------------
   0 C :    0.116521
   1 C :    0.008661
   2 O :    0.303512
   3 C :   -0.422799
   4 O :    0.088905
   5 C :   -0.102818
   6 C :   -0.089097
   7 C :    0.137332
   8 N :    0.410835
   9 C :   -0.421096
  10 S :   -0.084770
  11 N :    0.412946
  12 C :   -0.056423
  13 C :   -0.015443
  14 C :    0.018558
  15 C :    0.041429
  16 C :    0.000894
  17 C :   -0.226686
  18 O :    0.429462
  19 C :    0.025872
  20 H :   -0.029450
  21 H :   -0.037015
  22 H :   -0.027316
  23 H :   -0.031132
  24 H :   -0.031468
  25 H :   -0.011616
  26 H :   -0.024552
  27 H :   -0.015605
  28 H :   -0.047645
  29 H :   -0.054099
  30 H :   -0.001153
  31 H :   -0.035386
  32 H :   -0.026751
  33 H :   -0.039894
  34 H :   -0.139076
  35 H :   -0.023638

  Mayer bond orders larger than 0.100000
B(  0-C ,  1-C ) :   0.9549 B(  0-C , 20-H ) :   0.9771 B(  0-C , 21-H ) :   0.9757
B(  0-C , 22-H ) :   0.9687 B(  1-C ,  2-O ) :   0.8836 B(  1-C , 23-H ) :   0.9816
B(  1-C , 24-H ) :   0.9842 B(  2-O ,  3-C ) :   1.1779 B(  3-C ,  4-O ) :   1.9600
B(  3-C ,  5-C ) :   1.0366 B(  5-C ,  6-C ) :   1.6288 B(  5-C , 12-C ) :   0.9658
B(  6-C ,  7-C ) :   0.9558 B(  6-C ,  8-N ) :   1.1628 B(  7-C , 25-H ) :   0.9659
B(  7-C , 26-H ) :   0.9882 B(  7-C , 27-H ) :   0.9647 B(  8-N ,  9-C ) :   1.1541
B(  8-N , 28-H ) :   0.9596 B(  9-C , 10-S ) :   1.5623 B(  9-C , 11-N ) :   1.3494
B( 11-N , 12-C ) :   0.9685 B( 11-N , 29-H ) :   0.9566 B( 12-C , 13-C ) :   0.9439
B( 12-C , 30-H ) :   0.9932 B( 13-C , 14-C ) :   1.3413 B( 13-C , 19-C ) :   1.4057
B( 14-C , 15-C ) :   1.4298 B( 14-C , 31-H ) :   0.9639 B( 15-C , 16-C ) :   1.3311
B( 15-C , 32-H ) :   0.9667 B( 16-C , 17-C ) :   1.3511 B( 16-C , 33-H ) :   0.9785
B( 17-C , 18-O ) :   1.0998 B( 17-C , 19-C ) :   1.3752 B( 18-O , 34-H ) :   0.9706
B( 19-C , 35-H ) :   0.9518

MP2 TOTAL ENERGY:    -1274.308514794 Eh
FINAL SINGLE POINT ENERGY     -1274.308514794248

DIPOLE MOMENT
-------------
                                X             Y             Z
Electronic contribution:      8.21192      -9.75345      10.02412
Nuclear contribution   :     -9.54915      10.93625     -11.74243
                        -----------------------------------------
Total Dipole Moment    :     -1.33723       1.18280      -1.71831
                        -----------------------------------------
Magnitude (a.u.)       :      2.47786
Magnitude (Debye)      :      6.29822

Rotational constants in cm-1:     0.013367     0.008613     0.006218
Rotational constants in MHz :   400.739102   258.225003   186.416164

                             ****ORCA TERMINATED NORMALLY****
TOTAL RUN TIME: 0 days 1 hours 53 minutes 24 seconds 592 msec
