                         Program Version 5.0.0 -  RELEASE  -
|  1> ! RI-MP2 cc-pVTZ cc-pVTZ/c TightSCF KeepDens NoKeepInts
|  2>
|  3> *xyz  0  1
|  4>     C    -7.9428074  -12.3782487   -0.4374761
|  5>     C    -8.5842398  -12.2721285    0.9081726
|  6>     O    -7.6251855  -12.6512972    1.9319591
|  7>     C    -7.9830275  -12.6344601    3.2226045
|  8>     O    -8.9840251  -12.0841117    3.6619919
|  9>     C    -6.9806071  -13.2180517    4.1487647
| 10>     C    -5.8057311  -13.8274916    3.8104517
| 11>     C    -5.3503973  -14.1765334    2.4024133
| 12>     N    -4.9314063  -14.2706054    4.7555430
| 13>     C    -5.2889194  -14.3686422    6.0095225
| 14>     S    -4.4464787  -15.1830724    7.1911223
| 15>     N    -6.2848852  -13.5183366    6.4664824
| 16>     C    -7.1377525  -12.7519947    5.5560806
| 17>     C    -7.0376188  -11.2021870    5.7955354
| 18>     C    -6.0922197  -10.4014337    5.0336493
| 19>     C    -5.9195470   -9.0116301    5.2403483
| 20>     C    -6.7216400   -8.4092121    6.2212832
| 21>     C    -7.4882237   -9.1836572    7.1288582
| 22>     O    -8.0983941   -8.6131022    8.1923970
| 23>     C    -7.6524502  -10.5519085    6.9064719
| 24>     H    -8.7069637  -12.0555327   -1.1551837
| 25>     H    -7.6176009  -13.3856777   -0.7247343
| 26>     H    -7.1757922  -11.6404416   -0.7030472
| 27>     H    -8.8353548  -11.2200378    1.0904853
| 28>     H    -9.5482620  -12.7952699    0.9213568
| 29>     H    -6.0449122  -14.8886510    1.9401133
| 30>     H    -4.3814527  -14.6880272    2.4544720
| 31>     H    -5.2592625  -13.3157695    1.7286344
| 32>     H    -4.1438325  -14.8074820    4.4128161
| 33>     H    -6.5229565  -13.4433984    7.4481507
| 34>     H    -8.1237614  -13.0626383    5.9227909
| 35>     H    -5.4288999  -10.8464764    4.2978913
| 36>     H    -5.1336782   -8.4776768    4.7143254
| 37>     H    -6.5924335   -7.3626109    6.4807597
| 38>     H    -8.0068060   -7.6841736    7.9177472
| 39>     H    -8.2911143  -11.0783956    7.6095477
| 40> *
| 41>
| 42>                          ****END OF INPUT****

CARTESIAN COORDINATES (ANGSTROEM)
---------------------------------
  C     -7.942807  -12.378249   -0.437476
  C     -8.584240  -12.272129    0.908173
  O     -7.625185  -12.651297    1.931959
  C     -7.983028  -12.634460    3.222605
  O     -8.984025  -12.084112    3.661992
  C     -6.980607  -13.218052    4.148765
  C     -5.805731  -13.827492    3.810452
  C     -5.350397  -14.176533    2.402413
  N     -4.931406  -14.270605    4.755543
  C     -5.288919  -14.368642    6.009523
  S     -4.446479  -15.183072    7.191122
  N     -6.284885  -13.518337    6.466482
  C     -7.137753  -12.751995    5.556081
  C     -7.037619  -11.202187    5.795535
  C     -6.092220  -10.401434    5.033649
  C     -5.919547   -9.011630    5.240348
  C     -6.721640   -8.409212    6.221283
  C     -7.488224   -9.183657    7.128858
  O     -8.098394   -8.613102    8.192397
  C     -7.652450  -10.551908    6.906472
  H     -8.706964  -12.055533   -1.155184
  H     -7.617601  -13.385678   -0.724734
  H     -7.175792  -11.640442   -0.703047
  H     -8.835355  -11.220038    1.090485
  H     -9.548262  -12.795270    0.921357
  H     -6.044912  -14.888651    1.940113
  H     -4.381453  -14.688027    2.454472
  H     -5.259262  -13.315770    1.728634
  H     -4.143833  -14.807482    4.412816
  H     -6.522957  -13.443398    7.448151
  H     -8.123761  -13.062638    5.922791
  H     -5.428900  -10.846476    4.297891
  H     -5.133678   -8.477677    4.714325
  H     -6.592434   -7.362611    6.480760
  H     -8.006806   -7.684174    7.917747
  H     -8.291114  -11.078396    7.609548

 Total Charge           Charge          ....    0
 Multiplicity           Mult            ....    1
 Number of Electrons    NEL             ....  154
 Basis Dimension        Dim             ....  828

ORBITAL ENERGIES
----------------

  NO   OCC          E(Eh)            E(eV)
   0   2.0000     -91.883062     -2500.2652
   1   2.0000     -20.610913      -560.8514
   2   2.0000     -20.596272      -560.4530
   3   2.0000     -20.540321      -558.9306
   4   2.0000     -15.639300      -425.5670
   5   2.0000     -15.600103      -424.5004
   6   2.0000     -11.390392      -309.9483
   7   2.0000     -11.379986      -309.6652
   8   2.0000     -11.338173      -308.5274
   9   2.0000     -11.308209      -307.7120
  10   2.0000     -11.305099      -307.6274
  11   2.0000     -11.296823      -307.4022
  12   2.0000     -11.269199      -306.6505
  13   2.0000     -11.263746      -306.5021
  14   2.0000     -11.253832      -306.2323
  15   2.0000     -11.252027      -306.1832
  16   2.0000     -11.239070      -305.8306
  17   2.0000     -11.238479      -305.8146
  18   2.0000     -11.237367      -305.7843
  19   2.0000     -11.236148      -305.7511
  20   2.0000      -8.888036      -241.8558
  21   2.0000      -6.569576      -178.7672
  22   2.0000      -6.567605      -178.7136
  23   2.0000      -6.567012      -178.6975
  24   2.0000      -1.460931       -39.7540
  25   2.0000      -1.420273       -38.6476
  26   2.0000      -1.370121       -37.2829
  27   2.0000      -1.356342       -36.9079
  28   2.0000      -1.241344       -33.7787
  29   2.0000      -1.144000       -31.1298
  30   2.0000      -1.123622       -30.5753
  31   2.0000      -1.060184       -28.8491
  32   2.0000      -1.034337       -28.1457
  33   2.0000      -1.013787       -27.5866
  34   2.0000      -0.994769       -27.0690
  35   2.0000      -0.983312       -26.7573
  36   2.0000      -0.918726       -24.9998
  37   2.0000      -0.896969       -24.4078
  38   2.0000      -0.863343       -23.4928
  39   2.0000      -0.841222       -22.8908
  40   2.0000      -0.823684       -22.4136
  41   2.0000      -0.813655       -22.1407
  42   2.0000      -0.768720       -20.9179
  43   2.0000      -0.746465       -20.3124
  44   2.0000      -0.718078       -19.5399
  45   2.0000      -0.701068       -19.0770
  46   2.0000      -0.690908       -18.8005
  47   2.0000      -0.686921       -18.6921
  48   2.0000      -0.672802       -18.3079
  49   2.0000      -0.662382       -18.0243
  50   2.0000      -0.655549       -17.8384
  51   2.0000      -0.643309       -17.5053
  52   2.0000      -0.629552       -17.1310
  53   2.0000      -0.614996       -16.7349
  54   2.0000      -0.604309       -16.4441
  55   2.0000      -0.600042       -16.3280
  56   2.0000      -0.596369       -16.2280
  57   2.0000      -0.590379       -16.0650
  58   2.0000      -0.576785       -15.6951
  59   2.0000      -0.570394       -15.5212
  60   2.0000      -0.564196       -15.3526
  61   2.0000      -0.555011       -15.1026
  62   2.0000      -0.534747       -14.5512
  63   2.0000      -0.521914       -14.2020
  64   2.0000      -0.517840       -14.0911
  65   2.0000      -0.509242       -13.8572
  66   2.0000      -0.503986       -13.7142
  67   2.0000      -0.495259       -13.4767
  68   2.0000      -0.476473       -12.9655
  69   2.0000      -0.463960       -12.6250
  70   2.0000      -0.455414       -12.3924
  71   2.0000      -0.451240       -12.2789
  72   2.0000      -0.350128        -9.5275
  73   2.0000      -0.341362        -9.2889
  74   2.0000      -0.321261        -8.7420
  75   2.0000      -0.316351        -8.6083
  76   2.0000      -0.307041        -8.3550
  77   0.0000       0.072822         1.9816
  78   0.0000       0.109359         2.9758
  79   0.0000       0.114613         3.1188
  80   0.0000       0.129749         3.5307
  81   0.0000       0.132643         3.6094

MULLIKEN ATOMIC CHARGES
-----------------------
   0 C :   -0.289063
   1 C :    0.050360
   2 O :   -0.325973
   3 C :    0.452787
   4 O :   -0.433804
   5 C :   -0.196561
   6 C :    0.107157
   7 C :   -0.292601
   8 N :   -0.061429
   9 C :    0.197306
  10 S :   -0.458009
  11 N :   -0.212144
  12 C :    0.065626
  13 C :    0.087244
  14 C :   -0.209393
  15 C :   -0.155065
  16 C :   -0.260569
  17 C :    0.311504
  18 O :   -0.351210
  19 C :   -0.270824
  20 H :    0.097807
  21 H :    0.099142
  22 H :    0.103550
  23 H :    0.099742
  24 H :    0.100777
  25 H :    0.129447
  26 H :    0.094206
  27 H :    0.134632
  28 H :    0.193254
  29 H :    0.204370
  30 H :    0.150833
  31 H :    0.151290
  32 H :    0.169169
  33 H :    0.116599
  34 H :    0.244833
  35 H :    0.155009
Sum of atomic charges:   -0.0000000

LOEWDIN ATOMIC CHARGES
----------------------
   0 C :    0.095900
   1 C :   -0.012529
   2 O :    0.324984
   3 C :   -0.443941
   4 O :    0.100894
   5 C :   -0.103767
   6 C :   -0.066286
   7 C :    0.127938
   8 N :    0.432275
   9 C :   -0.464115
  10 S :   -0.055565
  11 N :    0.395837
  12 C :   -0.070905
  13 C :    0.009784
  14 C :    0.015364
  15 C :    0.038058
  16 C :   -0.005378
  17 C :   -0.194203
  18 O :    0.395456
  19 C :    0.019756
  20 H :   -0.012928
  21 H :   -0.026445
  22 H :   -0.023000
  23 H :   -0.019965
  24 H :   -0.020833
  25 H :   -0.008017
  26 H :   -0.024204
  27 H :   -0.012243
  28 H :   -0.035065
  29 H :   -0.062026
  30 H :   -0.012017
  31 H :   -0.041476
  32 H :   -0.021880
  33 H :   -0.039651
  34 H :   -0.150959
  35 H :   -0.028850

  Mayer bond orders larger than 0.100000
B(  0-C ,  1-C ) :   0.9766 B(  0-C , 20-H ) :   0.9761 B(  0-C , 21-H ) :   0.9766
B(  0-C , 22-H ) :   0.9772 B(  1-C ,  2-O ) :   0.8959 B(  1-C , 23-H ) :   0.9770
B(  1-C , 24-H ) :   0.9740 B(  2-O ,  3-C ) :   1.2095 B(  3-C ,  4-O ) :   1.9803
B(  3-C ,  5-C ) :   1.0393 B(  5-C ,  6-C ) :   1.6337 B(  5-C , 12-C ) :   0.9886
B(  6-C ,  7-C ) :   0.9504 B(  6-C ,  8-N ) :   1.1576 B(  7-C , 25-H ) :   0.9639
B(  7-C , 26-H ) :   0.9966 B(  7-C , 27-H ) :   0.9634 B(  8-N ,  9-C ) :   1.2293
B(  8-N , 28-H ) :   0.9448 B(  9-C , 10-S ) :   1.5773 B(  9-C , 11-N ) :   1.2947
B( 11-N , 12-C ) :   0.9445 B( 11-N , 29-H ) :   0.9476 B( 12-C , 13-C ) :   0.9564
B( 12-C , 30-H ) :   1.0000 B( 13-C , 14-C ) :   1.3426 B( 13-C , 19-C ) :   1.3776
B( 14-C , 15-C ) :   1.4179 B( 14-C , 31-H ) :   0.9705 B( 15-C , 16-C ) :   1.3567
B( 15-C , 32-H ) :   0.9662 B( 16-C , 17-C ) :   1.3413 B( 16-C , 33-H ) :   0.9893
B( 17-C , 18-O ) :   1.0994 B( 17-C , 19-C ) :   1.3607 B( 18-O , 34-H ) :   0.9777
B( 19-C , 35-H ) :   0.9623

MP2 TOTAL ENERGY:    -1274.303562148 Eh
FINAL SINGLE POINT ENERGY     -1274.303562147665

DIPOLE MOMENT
-------------
                                X             Y             Z
Electronic contribution:      2.64174      -3.88070      18.62522
Nuclear contribution   :     -2.58512       4.78144     -21.32320
                        -----------------------------------------
Total Dipole Moment    :      0.05662       0.90074      -2.69798
                        -----------------------------------------
Magnitude (a.u.)       :      2.84493
Magnitude (Debye)      :      7.23124

Rotational constants in cm-1:     0.010125     0.008609     0.005285
Rotational constants in MHz :   303.539678   258.099789   158.433401

                             ****ORCA TERMINATED NORMALLY****
TOTAL RUN TIME: 0 days 1 hours 45 minutes 8 seconds 501 msec
