                         Program Version 5.0.0 -  RELEASE  -
|  1> ! RI-MP2 cc-pVTZ cc-pVTZ/c TightSCF KeepDens NoKeepInts
|  2>
|  3> %pointcharges "srfp_output"
|  4>
|  5> *xyz  0  1
|  6>     C    -7.9428074  -12.3782487   -0.4374761
|  7>     C    -8.5842398  -12.2721285    0.9081726
|  8>     O    -7.6251855  -12.6512972    1.9319591
|  9>     C    -7.9830275  -12.6344601    3.2226045
| 10>     O    -8.9840251  -12.0841117    3.6619919
| 11>     C    -6.9806071  -13.2180517    4.1487647
| 12>     C    -5.8057311  -13.8274916    3.8104517
| 13>     C    -5.3503973  -14.1765334    2.4024133
| 14>     N    -4.9314063  -14.2706054    4.7555430
| 15>     C    -5.2889194  -14.3686422    6.0095225
| 16>     S    -4.4464787  -15.1830724    7.1911223
| 17>     N    -6.2848852  -13.5183366    6.4664824
| 18>     C    -7.1377525  -12.7519947    5.5560806
| 19>     C    -7.0376188  -11.2021870    5.7955354
| 20>     C    -6.0922197  -10.4014337    5.0336493
| 21>     C    -5.9195470   -9.0116301    5.2403483
| 22>     C    -6.7216400   -8.4092121    6.2212832
| 23>     C    -7.4882237   -9.1836572    7.1288582
| 24>     O    -8.0983941   -8.6131022    8.1923970
| 25>     C    -7.6524502  -10.5519085    6.9064719
| 26>     H    -8.7069637  -12.0555327   -1.1551837
| 27>     H    -7.6176009  -13.3856777   -0.7247343
| 28>     H    -7.1757922  -11.6404416   -0.7030472
| 29>     H    -8.8353548  -11.2200378    1.0904853
| 30>     H    -9.5482620  -12.7952699    0.9213568
| 31>     H    -6.0449122  -14.8886510    1.9401133
| 32>     H    -4.3814527  -14.6880272    2.4544720
| 33>     H    -5.2592625  -13.3157695    1.7286344
| 34>     H    -4.1438325  -14.8074820    4.4128161
| 35>     H    -6.5229565  -13.4433984    7.4481507
| 36>     H    -8.1237614  -13.0626383    5.9227909
| 37>     H    -5.4288999  -10.8464764    4.2978913
| 38>     H    -5.1336782   -8.4776768    4.7143254
| 39>     H    -6.5924335   -7.3626109    6.4807597
| 40>     H    -8.0068060   -7.6841736    7.9177472
| 41>     H    -8.2911143  -11.0783956    7.6095477
| 42> *
| 43>
| 44>                          ****END OF INPUT****

CARTESIAN COORDINATES (ANGSTROEM)
---------------------------------
  C     -7.942807  -12.378249   -0.437476
  C     -8.584240  -12.272129    0.908173
  O     -7.625185  -12.651297    1.931959
  C     -7.983028  -12.634460    3.222605
  O     -8.984025  -12.084112    3.661992
  C     -6.980607  -13.218052    4.148765
  C     -5.805731  -13.827492    3.810452
  C     -5.350397  -14.176533    2.402413
  N     -4.931406  -14.270605    4.755543
  C     -5.288919  -14.368642    6.009523
  S     -4.446479  -15.183072    7.191122
  N     -6.284885  -13.518337    6.466482
  C     -7.137753  -12.751995    5.556081
  C     -7.037619  -11.202187    5.795535
  C     -6.092220  -10.401434    5.033649
  C     -5.919547   -9.011630    5.240348
  C     -6.721640   -8.409212    6.221283
  C     -7.488224   -9.183657    7.128858
  O     -8.098394   -8.613102    8.192397
  C     -7.652450  -10.551908    6.906472
  H     -8.706964  -12.055533   -1.155184
  H     -7.617601  -13.385678   -0.724734
  H     -7.175792  -11.640442   -0.703047
  H     -8.835355  -11.220038    1.090485
  H     -9.548262  -12.795270    0.921357
  H     -6.044912  -14.888651    1.940113
  H     -4.381453  -14.688027    2.454472
  H     -5.259262  -13.315770    1.728634
  H     -4.143833  -14.807482    4.412816
  H     -6.522957  -13.443398    7.448151
  H     -8.123761  -13.062638    5.922791
  H     -5.428900  -10.846476    4.297891
  H     -5.133678   -8.477677    4.714325
  H     -6.592434   -7.362611    6.480760
  H     -8.006806   -7.684174    7.917747
  H     -8.291114  -11.078396    7.609548

 Total Charge           Charge          ....    0
 Multiplicity           Mult            ....    1
 Number of Electrons    NEL             ....  154
 Basis Dimension        Dim             ....  828

ORBITAL ENERGIES
----------------

  NO   OCC          E(Eh)            E(eV)
   0   2.0000     -93.438688     -2542.5960
   1   2.0000     -22.120416      -601.9271
   2   2.0000     -22.104073      -601.4824
   3   2.0000     -22.072330      -600.6186
   4   2.0000     -17.153764      -466.7776
   5   2.0000     -17.127018      -466.0499
   6   2.0000     -12.920533      -351.5856
   7   2.0000     -12.919316      -351.5525
   8   2.0000     -12.847651      -349.6024
   9   2.0000     -12.818918      -348.8205
  10   2.0000     -12.812024      -348.6329
  11   2.0000     -12.799631      -348.2957
  12   2.0000     -12.781484      -347.8019
  13   2.0000     -12.764191      -347.3313
  14   2.0000     -12.759486      -347.2033
  15   2.0000     -12.749580      -346.9337
  16   2.0000     -12.749110      -346.9209
  17   2.0000     -12.748811      -346.9128
  18   2.0000     -12.746790      -346.8578
  19   2.0000     -12.724031      -346.2385
  20   2.0000     -10.445495      -284.2364
  21   2.0000      -8.127527      -221.1613
  22   2.0000      -8.125508      -221.1063
  23   2.0000      -8.125130      -221.0960
  24   2.0000      -2.977711       -81.0276
  25   2.0000      -2.929156       -79.7064
  26   2.0000      -2.888402       -78.5974
  27   2.0000      -2.883724       -78.4701
  28   2.0000      -2.761189       -75.1358
  29   2.0000      -2.659138       -72.3588
  30   2.0000      -2.636937       -71.7547
  31   2.0000      -2.557927       -69.6047
  32   2.0000      -2.542413       -69.1826
  33   2.0000      -2.521718       -68.6194
  34   2.0000      -2.517048       -68.4924
  35   2.0000      -2.499930       -68.0266
  36   2.0000      -2.432607       -66.1946
  37   2.0000      -2.401802       -65.3563
  38   2.0000      -2.381903       -64.8149
  39   2.0000      -2.349730       -63.9394
  40   2.0000      -2.332075       -63.4590
  41   2.0000      -2.323151       -63.2162
  42   2.0000      -2.281288       -62.0770
  43   2.0000      -2.264876       -61.6304
  44   2.0000      -2.228757       -60.6475
  45   2.0000      -2.217484       -60.3408
  46   2.0000      -2.203734       -59.9667
  47   2.0000      -2.198945       -59.8363
  48   2.0000      -2.188304       -59.5468
  49   2.0000      -2.177664       -59.2573
  50   2.0000      -2.166772       -58.9609
  51   2.0000      -2.155354       -58.6502
  52   2.0000      -2.142227       -58.2930
  53   2.0000      -2.122913       -57.7674
  54   2.0000      -2.112352       -57.4800
  55   2.0000      -2.110452       -57.4283
  56   2.0000      -2.099994       -57.1437
  57   2.0000      -2.091715       -56.9185
  58   2.0000      -2.084322       -56.7173
  59   2.0000      -2.072411       -56.3932
  60   2.0000      -2.068519       -56.2873
  61   2.0000      -2.052150       -55.8418
  62   2.0000      -2.048405       -55.7399
  63   2.0000      -2.039798       -55.5057
  64   2.0000      -2.025336       -55.1122
  65   2.0000      -2.019028       -54.9406
  66   2.0000      -2.014558       -54.8189
  67   2.0000      -2.008790       -54.6620
  68   2.0000      -1.992161       -54.2095
  69   2.0000      -1.983881       -53.9841
  70   2.0000      -1.972887       -53.6850
  71   2.0000      -1.971660       -53.6516
  72   2.0000      -1.884767       -51.2871
  73   2.0000      -1.883016       -51.2395
  74   2.0000      -1.857984       -50.5583
  75   2.0000      -1.851493       -50.3817
  76   2.0000      -1.823157       -49.6106
  77   0.0000      -1.449876       -39.4531
  78   0.0000      -1.402084       -38.1526
  79   0.0000      -1.381628       -37.5960
  80   0.0000      -1.365871       -37.1673
  81   0.0000      -1.364189       -37.1215

MULLIKEN ATOMIC CHARGES
-----------------------
   0 C :   -0.293539
   1 C :    0.050679
   2 O :   -0.305509
   3 C :    0.512168
   4 O :   -0.592664
   5 C :   -0.176951
   6 C :    0.124252
   7 C :   -0.285495
   8 N :   -0.079055
   9 C :    0.375814
  10 S :   -0.780158
  11 N :   -0.242189
  12 C :    0.100065
  13 C :   -0.032432
  14 C :   -0.262603
  15 C :   -0.180478
  16 C :   -0.268783
  17 C :    0.331623
  18 O :   -0.443362
  19 C :   -0.264616
  20 H :    0.105945
  21 H :    0.107076
  22 H :    0.111008
  23 H :    0.102801
  24 H :    0.109197
  25 H :    0.138975
  26 H :    0.118934
  27 H :    0.139255
  28 H :    0.261762
  29 H :    0.267199
  30 H :    0.165944
  31 H :    0.202411
  32 H :    0.210235
  33 H :    0.167595
  34 H :    0.328089
  35 H :    0.176806
Sum of atomic charges:   -0.0000000

LOEWDIN ATOMIC CHARGES
----------------------
   0 C :    0.101202
   1 C :   -0.008320
   2 O :    0.341266
   3 C :   -0.415606
   4 O :   -0.001131
   5 C :   -0.098871
   6 C :   -0.040728
   7 C :    0.140701
   8 N :    0.455288
   9 C :   -0.418649
  10 S :   -0.261028
  11 N :    0.419167
  12 C :   -0.066392
  13 C :   -0.019130
  14 C :    0.002519
  15 C :    0.035066
  16 C :    0.008422
  17 C :   -0.201063
  18 O :    0.360963
  19 C :    0.012168
  20 H :   -0.008755
  21 H :   -0.023026
  22 H :   -0.019762
  23 H :   -0.019359
  24 H :   -0.017433
  25 H :   -0.001543
  26 H :   -0.010888
  27 H :   -0.007473
  28 H :   -0.000744
  29 H :   -0.033040
  30 H :   -0.006621
  31 H :   -0.030878
  32 H :   -0.010136
  33 H :   -0.020353
  34 H :   -0.113546
  35 H :   -0.022289

  Mayer bond orders larger than 0.100000
B(  0-C ,  1-C ) :   0.9835 B(  0-C , 20-H ) :   0.9728 B(  0-C , 21-H ) :   0.9765
B(  0-C , 22-H ) :   0.9764 B(  1-C ,  2-O ) :   0.8753 B(  1-C , 23-H ) :   0.9758
B(  1-C , 24-H ) :   0.9727 B(  2-O ,  3-C ) :   1.2676 B(  3-C ,  4-O ) :   1.8975
B(  3-C ,  5-C ) :   1.0746 B(  5-C ,  6-C ) :   1.6095 B(  5-C , 12-C ) :   0.9830
B(  6-C ,  7-C ) :   0.9530 B(  6-C ,  8-N ) :   1.1519 B(  7-C , 25-H ) :   0.9593
B(  7-C , 26-H ) :   0.9920 B(  7-C , 27-H ) :   0.9580 B(  8-N ,  9-C ) :   1.3337
B(  8-N , 28-H ) :   0.9130 B(  9-C , 10-S ) :   1.1779 B(  9-C , 11-N ) :   1.4037
B( 11-N , 12-C ) :   0.9276 B( 11-N , 29-H ) :   0.9173 B( 12-C , 13-C ) :   0.9491
B( 12-C , 30-H ) :   1.0014 B( 13-C , 14-C ) :   1.3317 B( 13-C , 19-C ) :   1.3988
B( 14-C , 15-C ) :   1.3999 B( 14-C , 31-H ) :   0.9546 B( 15-C , 16-C ) :   1.3351
B( 15-C , 32-H ) :   0.9515 B( 16-C , 17-C ) :   1.3561 B( 16-C , 33-H ) :   0.9734
B( 17-C , 18-O ) :   1.0966 B( 17-C , 19-C ) :   1.3401 B( 18-O , 34-H ) :   0.9204
B( 19-C , 35-H ) :   0.9512

MP2 TOTAL ENERGY:    -1274.448294699 Eh
FINAL SINGLE POINT ENERGY     -1274.448294699500

DIPOLE MOMENT
-------------
                                X             Y             Z
Electronic contribution:      2.69698      -3.21673      17.17812
Nuclear contribution   :     -2.58512       4.78144     -21.32320
                        -----------------------------------------
Total Dipole Moment    :      0.11186       1.56471      -4.14508
                        -----------------------------------------
Magnitude (a.u.)       :      4.43199
Magnitude (Debye)      :     11.26523

Rotational constants in cm-1:     0.010125     0.008609     0.005285
Rotational constants in MHz :   303.539678   258.099789   158.433401

                             ****ORCA TERMINATED NORMALLY****
TOTAL RUN TIME: 0 days 2 hours 6 minutes 37 seconds 569 msec
