                         Program Version 5.0.0 -  RELEASE  -
|  1> ! RI-MP2 cc-pVTZ cc-pVTZ/c TightSCF KeepDens NoKeepInts
|  2>
|  3> *xyz  0  1
|  4>     C     5.1488347    1.9362183  -18.9327749
|  5>     C     4.3929959    0.6878907  -18.4304656
|  6>     O     3.8793165   -0.1250248  -19.5202086
|  7>     C     3.4495119   -1.3492777  -19.2209892
|  8>     O     3.5582271   -1.8991178  -18.0932229
|  9>     C     2.6443393   -2.0437524  -20.2404581
| 10>     C     2.3517395   -1.5257998  -21.4586287
| 11>     C     2.8167385   -0.2772190  -22.0247312
| 12>     N     1.4689873   -2.1514419  -22.2887671
| 13>     C     0.7955234   -3.3488387  -22.0165728
| 14>     S    -0.2337944   -3.9767343  -23.1201376
| 15>     N     1.1812132   -3.9062238  -20.8604264
| 16>     C     2.0284879   -3.3548130  -19.7766381
| 17>     C     2.9257236   -4.5117745  -19.2729206
| 18>     C     4.1954914   -4.6808495  -19.7264281
| 19>     C     4.9460920   -5.8373884  -19.3806999
| 20>     C     4.3413769   -6.8360192  -18.6022513
| 21>     C     3.0325179   -6.6648699  -18.1535029
| 22>     O     2.3094372   -7.6130447  -17.4815068
| 23>     C     2.2902143   -5.5224446  -18.5078604
| 24>     H     4.5157153    2.4391340  -19.6740083
| 25>     H     5.9789456    1.6675411  -19.5975443
| 26>     H     5.5602889    2.6725045  -18.2315063
| 27>     H     5.1266574    0.0607094  -17.9093375
| 28>     H     3.6481412    0.9936447  -17.6855526
| 29>     H     3.9075006   -0.1809688  -22.0892253
| 30>     H     2.3377092    0.5868248  -21.5481295
| 31>     H     2.5528919   -0.0903566  -23.0728996
| 32>     H     1.0980217   -1.6094417  -23.0598616
| 33>     H     0.9435467   -4.8857765  -20.7606381
| 34>     H     1.3588267   -3.0352912  -18.9687709
| 35>     H     4.6211650   -4.0115675  -20.4682247
| 36>     H     5.9994754   -5.9471207  -19.6209878
| 37>     H     4.8717352   -7.7679172  -18.4299662
| 38>     H     3.0151856   -8.0865350  -17.0077392
| 39>     H     1.2895136   -5.3687872  -18.1149437
| 40> *
| 41>
| 42>                          ****END OF INPUT****

CARTESIAN COORDINATES (ANGSTROEM)
---------------------------------
  C      5.148835    1.936218  -18.932775
  C      4.392996    0.687891  -18.430466
  O      3.879316   -0.125025  -19.520209
  C      3.449512   -1.349278  -19.220989
  O      3.558227   -1.899118  -18.093223
  C      2.644339   -2.043752  -20.240458
  C      2.351739   -1.525800  -21.458629
  C      2.816739   -0.277219  -22.024731
  N      1.468987   -2.151442  -22.288767
  C      0.795523   -3.348839  -22.016573
  S     -0.233794   -3.976734  -23.120138
  N      1.181213   -3.906224  -20.860426
  C      2.028488   -3.354813  -19.776638
  C      2.925724   -4.511774  -19.272921
  C      4.195491   -4.680849  -19.726428
  C      4.946092   -5.837388  -19.380700
  C      4.341377   -6.836019  -18.602251
  C      3.032518   -6.664870  -18.153503
  O      2.309437   -7.613045  -17.481507
  C      2.290214   -5.522445  -18.507860
  H      4.515715    2.439134  -19.674008
  H      5.978946    1.667541  -19.597544
  H      5.560289    2.672504  -18.231506
  H      5.126657    0.060709  -17.909337
  H      3.648141    0.993645  -17.685553
  H      3.907501   -0.180969  -22.089225
  H      2.337709    0.586825  -21.548129
  H      2.552892   -0.090357  -23.072900
  H      1.098022   -1.609442  -23.059862
  H      0.943547   -4.885777  -20.760638
  H      1.358827   -3.035291  -18.968771
  H      4.621165   -4.011567  -20.468225
  H      5.999475   -5.947121  -19.620988
  H      4.871735   -7.767917  -18.429966
  H      3.015186   -8.086535  -17.007739
  H      1.289514   -5.368787  -18.114944

 Total Charge           Charge          ....    0
 Multiplicity           Mult            ....    1
 Number of Electrons    NEL             ....  154
 Basis Dimension        Dim             ....  828

ORBITAL ENERGIES
----------------

  NO   OCC          E(Eh)            E(eV)
   0   2.0000     -91.890444     -2500.4661
   1   2.0000     -20.617200      -561.0225
   2   2.0000     -20.591977      -560.3362
   3   2.0000     -20.531222      -558.6830
   4   2.0000     -15.620563      -425.0571
   5   2.0000     -15.604411      -424.6176
   6   2.0000     -11.389870      -309.9341
   7   2.0000     -11.380763      -309.6863
   8   2.0000     -11.328870      -308.2742
   9   2.0000     -11.306867      -307.6755
  10   2.0000     -11.305832      -307.6473
  11   2.0000     -11.303977      -307.5969
  12   2.0000     -11.254361      -306.2467
  13   2.0000     -11.252293      -306.1905
  14   2.0000     -11.252213      -306.1883
  15   2.0000     -11.248262      -306.0808
  16   2.0000     -11.239089      -305.8312
  17   2.0000     -11.238779      -305.8227
  18   2.0000     -11.233749      -305.6859
  19   2.0000     -11.229066      -305.5584
  20   2.0000      -8.896052      -242.0739
  21   2.0000      -6.577689      -178.9880
  22   2.0000      -6.575619      -178.9317
  23   2.0000      -6.574987      -178.9145
  24   2.0000      -1.460268       -39.7359
  25   2.0000      -1.408422       -38.3251
  26   2.0000      -1.344251       -36.5789
  27   2.0000      -1.335224       -36.3333
  28   2.0000      -1.242757       -33.8171
  29   2.0000      -1.155375       -31.4393
  30   2.0000      -1.123005       -30.5585
  31   2.0000      -1.049078       -28.5469
  32   2.0000      -1.040956       -28.3258
  33   2.0000      -1.012270       -27.5453
  34   2.0000      -1.002909       -27.2906
  35   2.0000      -0.990653       -26.9570
  36   2.0000      -0.924119       -25.1465
  37   2.0000      -0.894674       -24.3453
  38   2.0000      -0.849734       -23.1224
  39   2.0000      -0.839579       -22.8461
  40   2.0000      -0.823743       -22.4152
  41   2.0000      -0.816276       -22.2120
  42   2.0000      -0.764614       -20.8062
  43   2.0000      -0.739068       -20.1111
  44   2.0000      -0.721609       -19.6360
  45   2.0000      -0.691078       -18.8052
  46   2.0000      -0.688955       -18.7474
  47   2.0000      -0.679620       -18.4934
  48   2.0000      -0.669003       -18.2045
  49   2.0000      -0.660610       -17.9761
  50   2.0000      -0.648635       -17.6503
  51   2.0000      -0.646796       -17.6002
  52   2.0000      -0.634172       -17.2567
  53   2.0000      -0.621216       -16.9041
  54   2.0000      -0.606990       -16.5170
  55   2.0000      -0.593984       -16.1631
  56   2.0000      -0.589342       -16.0368
  57   2.0000      -0.577459       -15.7135
  58   2.0000      -0.570095       -15.5131
  59   2.0000      -0.566132       -15.4052
  60   2.0000      -0.561414       -15.2769
  61   2.0000      -0.545734       -14.8502
  62   2.0000      -0.535674       -14.5764
  63   2.0000      -0.522066       -14.2061
  64   2.0000      -0.517483       -14.0814
  65   2.0000      -0.505643       -13.7593
  66   2.0000      -0.499932       -13.6039
  67   2.0000      -0.495975       -13.4962
  68   2.0000      -0.477029       -12.9806
  69   2.0000      -0.469464       -12.7748
  70   2.0000      -0.451609       -12.2889
  71   2.0000      -0.447349       -12.1730
  72   2.0000      -0.347950        -9.4682
  73   2.0000      -0.343412        -9.3447
  74   2.0000      -0.329520        -8.9667
  75   2.0000      -0.320771        -8.7286
  76   2.0000      -0.317445        -8.6381
  77   0.0000       0.080873         2.2007
  78   0.0000       0.108141         2.9427
  79   0.0000       0.115520         3.1434
  80   0.0000       0.135762         3.6943
  81   0.0000       0.138664         3.7733

MULLIKEN ATOMIC CHARGES
-----------------------
   0 C :   -0.288249
   1 C :    0.044497
   2 O :   -0.311788
   3 C :    0.482661
   4 O :   -0.471245
   5 C :   -0.266042
   6 C :    0.188466
   7 C :   -0.331027
   8 N :   -0.126085
   9 C :    0.211677
  10 S :   -0.425024
  11 N :   -0.200731
  12 C :    0.093902
  13 C :    0.140098
  14 C :   -0.204067
  15 C :   -0.130715
  16 C :   -0.273330
  17 C :    0.300051
  18 O :   -0.357849
  19 C :   -0.302627
  20 H :    0.085276
  21 H :    0.094044
  22 H :    0.119784
  23 H :    0.102111
  24 H :    0.097095
  25 H :    0.128887
  26 H :    0.125113
  27 H :    0.104236
  28 H :    0.186049
  29 H :    0.195072
  30 H :    0.138533
  31 H :    0.141850
  32 H :    0.159619
  33 H :    0.141225
  34 H :    0.235310
  35 H :    0.173224
Sum of atomic charges:   -0.0000000

LOEWDIN ATOMIC CHARGES
----------------------
   0 C :    0.106612
   1 C :    0.002427
   2 O :    0.333714
   3 C :   -0.415972
   4 O :    0.045227
   5 C :   -0.104223
   6 C :   -0.102961
   7 C :    0.110788
   8 N :    0.406322
   9 C :   -0.475518
  10 S :   -0.004773
  11 N :    0.406415
  12 C :   -0.026215
  13 C :   -0.031957
  14 C :    0.014923
  15 C :    0.059077
  16 C :   -0.001485
  17 C :   -0.187469
  18 O :    0.381504
  19 C :    0.032679
  20 H :   -0.030526
  21 H :   -0.026606
  22 H :   -0.021005
  23 H :   -0.026940
  24 H :   -0.028124
  25 H :   -0.004340
  26 H :   -0.004436
  27 H :   -0.013399
  28 H :   -0.055772
  29 H :   -0.061604
  30 H :   -0.013090
  31 H :   -0.028132
  32 H :   -0.022933
  33 H :   -0.031573
  34 H :   -0.156366
  35 H :   -0.024269

  Mayer bond orders larger than 0.100000
B(  0-C ,  1-C ) :   0.9675 B(  0-C , 20-H ) :   0.9785 B(  0-C , 21-H ) :   0.9780
B(  0-C , 22-H ) :   0.9735 B(  1-C ,  2-O ) :   0.9005 B(  1-C , 23-H ) :   0.9796
B(  1-C , 24-H ) :   0.9758 B(  2-O ,  3-C ) :   1.2077 B(  3-C ,  4-O ) :   1.9109
B(  3-C ,  5-C ) :   1.0742 B(  5-C ,  6-C ) :   1.6137 B(  5-C , 12-C ) :   0.9994
B(  6-C ,  7-C ) :   0.9517 B(  6-C ,  8-N ) :   1.1957 B(  7-C , 25-H ) :   0.9679
B(  7-C , 26-H ) :   0.9619 B(  7-C , 27-H ) :   0.9961 B(  8-N ,  9-C ) :   1.1158
B(  8-N , 28-H ) :   0.9533 B(  9-C , 10-S ) :   1.6337 B(  9-C , 11-N ) :   1.3576
B( 11-N , 12-C ) :   0.9252 B( 11-N , 29-H ) :   0.9471 B( 12-C , 13-C ) :   0.9970
B( 12-C , 30-H ) :   0.9841 B( 13-C , 14-C ) :   1.3861 B( 13-C , 19-C ) :   1.3288
B( 14-C , 15-C ) :   1.3682 B( 14-C , 31-H ) :   0.9726 B( 15-C , 16-C ) :   1.3909
B( 15-C , 32-H ) :   0.9714 B( 16-C , 17-C ) :   1.3432 B( 16-C , 33-H ) :   0.9751
B( 17-C , 18-O ) :   1.0727 B( 17-C , 19-C ) :   1.3823 B( 18-O , 34-H ) :   0.9853
B( 19-C , 35-H ) :   0.9610

MP2 TOTAL ENERGY:    -1274.313330238 Eh
FINAL SINGLE POINT ENERGY     -1274.313330238054

DIPOLE MOMENT
-------------
                                X             Y             Z
Electronic contribution:    -11.19539     -15.14275      -3.83903
Nuclear contribution   :     12.96409      16.69800       4.22754
                        -----------------------------------------
Total Dipole Moment    :      1.76870       1.55525       0.38850
                        -----------------------------------------
Magnitude (a.u.)       :      2.38706
Magnitude (Debye)      :      6.06742

Rotational constants in cm-1:     0.011028     0.007753     0.004978
Rotational constants in MHz :   330.611692   232.441027   149.242588

                             ****ORCA TERMINATED NORMALLY****
TOTAL RUN TIME: 0 days 1 hours 47 minutes 31 seconds 406 msec
