                         Program Version 5.0.0 -  RELEASE  -
|  1> ! RI-MP2 cc-pVTZ cc-pVTZ/c TightSCF KeepDens NoKeepInts
|  2>
|  3> %pointcharges "srfp_output"
|  4>
|  5> *xyz  0  1
|  6>     C     5.1488347    1.9362183  -18.9327749
|  7>     C     4.3929959    0.6878907  -18.4304656
|  8>     O     3.8793165   -0.1250248  -19.5202086
|  9>     C     3.4495119   -1.3492777  -19.2209892
| 10>     O     3.5582271   -1.8991178  -18.0932229
| 11>     C     2.6443393   -2.0437524  -20.2404581
| 12>     C     2.3517395   -1.5257998  -21.4586287
| 13>     C     2.8167385   -0.2772190  -22.0247312
| 14>     N     1.4689873   -2.1514419  -22.2887671
| 15>     C     0.7955234   -3.3488387  -22.0165728
| 16>     S    -0.2337944   -3.9767343  -23.1201376
| 17>     N     1.1812132   -3.9062238  -20.8604264
| 18>     C     2.0284879   -3.3548130  -19.7766381
| 19>     C     2.9257236   -4.5117745  -19.2729206
| 20>     C     4.1954914   -4.6808495  -19.7264281
| 21>     C     4.9460920   -5.8373884  -19.3806999
| 22>     C     4.3413769   -6.8360192  -18.6022513
| 23>     C     3.0325179   -6.6648699  -18.1535029
| 24>     O     2.3094372   -7.6130447  -17.4815068
| 25>     C     2.2902143   -5.5224446  -18.5078604
| 26>     H     4.5157153    2.4391340  -19.6740083
| 27>     H     5.9789456    1.6675411  -19.5975443
| 28>     H     5.5602889    2.6725045  -18.2315063
| 29>     H     5.1266574    0.0607094  -17.9093375
| 30>     H     3.6481412    0.9936447  -17.6855526
| 31>     H     3.9075006   -0.1809688  -22.0892253
| 32>     H     2.3377092    0.5868248  -21.5481295
| 33>     H     2.5528919   -0.0903566  -23.0728996
| 34>     H     1.0980217   -1.6094417  -23.0598616
| 35>     H     0.9435467   -4.8857765  -20.7606381
| 36>     H     1.3588267   -3.0352912  -18.9687709
| 37>     H     4.6211650   -4.0115675  -20.4682247
| 38>     H     5.9994754   -5.9471207  -19.6209878
| 39>     H     4.8717352   -7.7679172  -18.4299662
| 40>     H     3.0151856   -8.0865350  -17.0077392
| 41>     H     1.2895136   -5.3687872  -18.1149437
| 42> *
| 43>
| 44>                          ****END OF INPUT****

CARTESIAN COORDINATES (ANGSTROEM)
---------------------------------
  C      5.148835    1.936218  -18.932775
  C      4.392996    0.687891  -18.430466
  O      3.879316   -0.125025  -19.520209
  C      3.449512   -1.349278  -19.220989
  O      3.558227   -1.899118  -18.093223
  C      2.644339   -2.043752  -20.240458
  C      2.351739   -1.525800  -21.458629
  C      2.816739   -0.277219  -22.024731
  N      1.468987   -2.151442  -22.288767
  C      0.795523   -3.348839  -22.016573
  S     -0.233794   -3.976734  -23.120138
  N      1.181213   -3.906224  -20.860426
  C      2.028488   -3.354813  -19.776638
  C      2.925724   -4.511774  -19.272921
  C      4.195491   -4.680849  -19.726428
  C      4.946092   -5.837388  -19.380700
  C      4.341377   -6.836019  -18.602251
  C      3.032518   -6.664870  -18.153503
  O      2.309437   -7.613045  -17.481507
  C      2.290214   -5.522445  -18.507860
  H      4.515715    2.439134  -19.674008
  H      5.978946    1.667541  -19.597544
  H      5.560289    2.672504  -18.231506
  H      5.126657    0.060709  -17.909337
  H      3.648141    0.993645  -17.685553
  H      3.907501   -0.180969  -22.089225
  H      2.337709    0.586825  -21.548129
  H      2.552892   -0.090357  -23.072900
  H      1.098022   -1.609442  -23.059862
  H      0.943547   -4.885777  -20.760638
  H      1.358827   -3.035291  -18.968771
  H      4.621165   -4.011567  -20.468225
  H      5.999475   -5.947121  -19.620988
  H      4.871735   -7.767917  -18.429966
  H      3.015186   -8.086535  -17.007739
  H      1.289514   -5.368787  -18.114944

 Total Charge           Charge          ....    0
 Multiplicity           Mult            ....    1
 Number of Electrons    NEL             ....  154
 Basis Dimension        Dim             ....  828

ORBITAL ENERGIES
----------------

  NO   OCC          E(Eh)            E(eV)
   0   2.0000     -94.465860     -2570.5467
   1   2.0000     -23.153741      -630.0453
   2   2.0000     -23.130041      -629.4004
   3   2.0000     -23.088371      -628.2665
   4   2.0000     -18.161601      -494.2023
   5   2.0000     -18.158127      -494.1077
   6   2.0000     -13.945433      -379.4745
   7   2.0000     -13.944388      -379.4461
   8   2.0000     -13.866689      -377.3318
   9   2.0000     -13.848171      -376.8279
  10   2.0000     -13.846517      -376.7829
  11   2.0000     -13.829699      -376.3252
  12   2.0000     -13.796811      -375.4303
  13   2.0000     -13.790999      -375.2722
  14   2.0000     -13.785404      -375.1199
  15   2.0000     -13.777600      -374.9076
  16   2.0000     -13.776174      -374.8687
  17   2.0000     -13.771191      -374.7332
  18   2.0000     -13.767174      -374.6238
  19   2.0000     -13.754868      -374.2890
  20   2.0000     -11.473260      -312.2033
  21   2.0000      -9.155368      -249.1302
  22   2.0000      -9.153219      -249.0717
  23   2.0000      -9.152778      -249.0597
  24   2.0000      -4.000367      -108.8555
  25   2.0000      -3.948170      -107.4352
  26   2.0000      -3.893388      -105.9445
  27   2.0000      -3.888667      -105.8160
  28   2.0000      -3.786689      -103.0411
  29   2.0000      -3.699374      -100.6651
  30   2.0000      -3.665177       -99.7345
  31   2.0000      -3.584256       -97.5326
  32   2.0000      -3.573453       -97.2386
  33   2.0000      -3.549733       -96.5932
  34   2.0000      -3.545884       -96.4884
  35   2.0000      -3.538885       -96.2980
  36   2.0000      -3.467249       -94.3486
  37   2.0000      -3.424696       -93.1907
  38   2.0000      -3.393654       -92.3460
  39   2.0000      -3.379627       -91.9643
  40   2.0000      -3.361342       -91.4668
  41   2.0000      -3.355029       -91.2950
  42   2.0000      -3.303496       -89.8927
  43   2.0000      -3.284759       -89.3828
  44   2.0000      -3.261609       -88.7529
  45   2.0000      -3.233328       -87.9833
  46   2.0000      -3.229621       -87.8824
  47   2.0000      -3.217442       -87.5511
  48   2.0000      -3.206986       -87.2665
  49   2.0000      -3.206139       -87.2435
  50   2.0000      -3.189000       -86.7771
  51   2.0000      -3.184734       -86.6610
  52   2.0000      -3.175024       -86.3968
  53   2.0000      -3.157455       -85.9187
  54   2.0000      -3.143371       -85.5355
  55   2.0000      -3.131447       -85.2110
  56   2.0000      -3.127206       -85.0956
  57   2.0000      -3.110268       -84.6347
  58   2.0000      -3.106098       -84.5212
  59   2.0000      -3.102320       -84.4184
  60   2.0000      -3.097635       -84.2909
  61   2.0000      -3.094384       -84.2025
  62   2.0000      -3.071138       -83.5699
  63   2.0000      -3.061782       -83.3153
  64   2.0000      -3.055014       -83.1312
  65   2.0000      -3.041638       -82.7672
  66   2.0000      -3.039055       -82.6969
  67   2.0000      -3.027715       -82.3883
  68   2.0000      -3.020831       -82.2010
  69   2.0000      -3.010660       -81.9242
  70   2.0000      -3.003002       -81.7158
  71   2.0000      -2.994682       -81.4894
  72   2.0000      -2.913756       -79.2873
  73   2.0000      -2.912010       -79.2398
  74   2.0000      -2.884448       -78.4898
  75   2.0000      -2.875866       -78.2563
  76   2.0000      -2.863521       -77.9204
  77   0.0000      -2.469842       -67.2078
  78   0.0000      -2.431706       -66.1701
  79   0.0000      -2.406194       -65.4759
  80   0.0000      -2.395649       -65.1889
  81   0.0000      -2.390324       -65.0440

MULLIKEN ATOMIC CHARGES
-----------------------
   0 C :   -0.285229
   1 C :    0.046313
   2 O :   -0.291901
   3 C :    0.546028
   4 O :   -0.632522
   5 C :   -0.253295
   6 C :    0.226440
   7 C :   -0.335714
   8 N :   -0.142304
   9 C :    0.348866
  10 S :   -0.697807
  11 N :   -0.214589
  12 C :    0.103480
  13 C :    0.079327
  14 C :   -0.310098
  15 C :   -0.148455
  16 C :   -0.276756
  17 C :    0.303211
  18 O :   -0.461454
  19 C :   -0.264027
  20 H :    0.092839
  21 H :    0.097109
  22 H :    0.124942
  23 H :    0.095896
  24 H :    0.109882
  25 H :    0.136872
  26 H :    0.135167
  27 H :    0.128424
  28 H :    0.246592
  29 H :    0.253602
  30 H :    0.159363
  31 H :    0.191508
  32 H :    0.198364
  33 H :    0.181669
  34 H :    0.327505
  35 H :    0.180752
Sum of atomic charges:   -0.0000000

LOEWDIN ATOMIC CHARGES
----------------------
   0 C :    0.112620
   1 C :    0.006124
   2 O :    0.350037
   3 C :   -0.385991
   4 O :   -0.057864
   5 C :   -0.099817
   6 C :   -0.075466
   7 C :    0.122203
   8 N :    0.424250
   9 C :   -0.434763
  10 S :   -0.182120
  11 N :    0.429616
  12 C :   -0.022411
  13 C :   -0.050984
  14 C :   -0.005368
  15 C :    0.052548
  16 C :    0.007740
  17 C :   -0.193175
  18 O :    0.340928
  19 C :    0.034830
  20 H :   -0.027033
  21 H :   -0.024725
  22 H :   -0.017508
  23 H :   -0.029486
  24 H :   -0.023674
  25 H :    0.000661
  26 H :    0.002104
  27 H :   -0.000985
  28 H :   -0.026289
  29 H :   -0.035847
  30 H :   -0.006987
  31 H :   -0.019920
  32 H :   -0.012971
  33 H :   -0.016614
  34 H :   -0.114636
  35 H :   -0.019031

  Mayer bond orders larger than 0.100000
B(  0-C ,  1-C ) :   0.9718 B(  0-C , 20-H ) :   0.9776 B(  0-C , 21-H ) :   0.9769
B(  0-C , 22-H ) :   0.9724 B(  1-C ,  2-O ) :   0.8855 B(  1-C , 23-H ) :   0.9782
B(  1-C , 24-H ) :   0.9739 B(  2-O ,  3-C ) :   1.2587 B(  3-C ,  4-O ) :   1.8212
B(  3-C ,  5-C ) :   1.1061 B(  5-C ,  6-C ) :   1.5952 B(  5-C , 12-C ) :   1.0021
B(  6-C ,  7-C ) :   0.9557 B(  6-C ,  8-N ) :   1.1858 B(  7-C , 25-H ) :   0.9640
B(  7-C , 26-H ) :   0.9568 B(  7-C , 27-H ) :   0.9889 B(  8-N ,  9-C ) :   1.1939
B(  8-N , 28-H ) :   0.9290 B(  9-C , 10-S ) :   1.3247 B(  9-C , 11-N ) :   1.4667
B( 11-N , 12-C ) :   0.9096 B( 11-N , 29-H ) :   0.9229 B( 12-C , 13-C ) :   0.9916
B( 12-C , 30-H ) :   0.9821 B( 13-C , 14-C ) :   1.3492 B( 13-C , 19-C ) :   1.3528
B( 14-C , 15-C ) :   1.3587 B( 14-C , 31-H ) :   0.9618 B( 15-C , 16-C ) :   1.3689
B( 15-C , 32-H ) :   0.9598 B( 16-C , 17-C ) :   1.3381 B( 16-C , 33-H ) :   0.9639
B( 17-C , 18-O ) :   1.0736 B( 17-C , 19-C ) :   1.3770 B( 18-O , 34-H ) :   0.9198
B( 19-C , 35-H ) :   0.9521

MP2 TOTAL ENERGY:    -1274.438959468 Eh
FINAL SINGLE POINT ENERGY     -1274.438959468384

DIPOLE MOMENT
-------------
                                X             Y             Z
Electronic contribution:    -10.34831     -14.33621      -3.62343
Nuclear contribution   :     12.96409      16.69800       4.22754
                        -----------------------------------------
Total Dipole Moment    :      2.61578       2.36179       0.60411
                        -----------------------------------------
Magnitude (a.u.)       :      3.57565
Magnitude (Debye)      :      9.08859

Rotational constants in cm-1:     0.011028     0.007753     0.004978
Rotational constants in MHz :   330.611692   232.441027   149.242588

                             ****ORCA TERMINATED NORMALLY****
TOTAL RUN TIME: 0 days 1 hours 51 minutes 33 seconds 538 msec
