                         Program Version 5.0.0 -  RELEASE  -
|  1> ! RI-MP2 cc-pVTZ cc-pVTZ/c TightSCF KeepDens NoKeepInts
|  2>
|  3> *xyz  0  1
|  4>     C     0.6366931    6.6131353   -4.4638707
|  5>     C    -0.6172097    5.8015957   -3.8696090
|  6>     O    -1.2738452    6.6503934   -2.8653293
|  7>     C    -2.0228248    6.0248390   -1.8571825
|  8>     O    -2.0609221    4.7994937   -1.7514550
|  9>     C    -2.5231122    7.0149179   -0.8958418
| 10>     C    -2.5015962    8.3531400   -1.0194557
| 11>     C    -1.8817223    9.1270387   -2.0876270
| 12>     N    -3.0492963    9.1926332   -0.0350064
| 13>     C    -3.5757269    8.7318309    1.1207484
| 14>     S    -4.1780940    9.8094547    2.2704603
| 15>     N    -3.5624417    7.3467618    1.2654322
| 16>     C    -3.1734770    6.4170087    0.2997541
| 17>     C    -4.4931809    5.7370225   -0.2227807
| 18>     C    -4.6814634    4.3462969   -0.0128399
| 19>     C    -5.9097034    3.7209045   -0.3585270
| 20>     C    -6.9997656    4.4669132   -0.8117498
| 21>     C    -6.9028915    5.8664264   -0.9295546
| 22>     O    -7.9633021    6.5844152   -1.3110666
| 23>     C    -5.6164760    6.4459210   -0.7178742
| 24>     H     1.2854685    6.7830619   -3.5958808
| 25>     H     0.3951874    7.5725983   -4.9374691
| 26>     H     1.0399496    5.9939048   -5.2744985
| 27>     H    -1.3722821    5.5844393   -4.6350527
| 28>     H    -0.1823814    4.9097930   -3.4018463
| 29>     H    -2.3183955    8.8943544   -3.0665863
| 30>     H    -0.8111809    8.9358411   -1.9441901
| 31>     H    -1.9382638   10.2114286   -1.9324097
| 32>     H    -3.2464676   10.1687193   -0.2203323
| 33>     H    -3.9846043    7.0913968    2.1500417
| 34>     H    -2.5601947    5.6409274    0.7738574
| 35>     H    -3.8077316    3.8315686    0.3758031
| 36>     H    -5.9266230    2.6464449   -0.2015356
| 37>     H    -7.9428507    3.9563705   -0.9830185
| 38>     H    -8.7620838    6.1295577   -0.9920341
| 39>     H    -5.6273880    7.5297418   -0.7857969
| 40> *
| 41>
| 42>                          ****END OF INPUT****

CARTESIAN COORDINATES (ANGSTROEM)
---------------------------------
  C      0.636693    6.613135   -4.463871
  C     -0.617210    5.801596   -3.869609
  O     -1.273845    6.650393   -2.865329
  C     -2.022825    6.024839   -1.857182
  O     -2.060922    4.799494   -1.751455
  C     -2.523112    7.014918   -0.895842
  C     -2.501596    8.353140   -1.019456
  C     -1.881722    9.127039   -2.087627
  N     -3.049296    9.192633   -0.035006
  C     -3.575727    8.731831    1.120748
  S     -4.178094    9.809455    2.270460
  N     -3.562442    7.346762    1.265432
  C     -3.173477    6.417009    0.299754
  C     -4.493181    5.737023   -0.222781
  C     -4.681463    4.346297   -0.012840
  C     -5.909703    3.720904   -0.358527
  C     -6.999766    4.466913   -0.811750
  C     -6.902891    5.866426   -0.929555
  O     -7.963302    6.584415   -1.311067
  C     -5.616476    6.445921   -0.717874
  H      1.285468    6.783062   -3.595881
  H      0.395187    7.572598   -4.937469
  H      1.039950    5.993905   -5.274498
  H     -1.372282    5.584439   -4.635053
  H     -0.182381    4.909793   -3.401846
  H     -2.318395    8.894354   -3.066586
  H     -0.811181    8.935841   -1.944190
  H     -1.938264   10.211429   -1.932410
  H     -3.246468   10.168719   -0.220332
  H     -3.984604    7.091397    2.150042
  H     -2.560195    5.640927    0.773857
  H     -3.807732    3.831569    0.375803
  H     -5.926623    2.646445   -0.201536
  H     -7.942851    3.956370   -0.983019
  H     -8.762084    6.129558   -0.992034
  H     -5.627388    7.529742   -0.785797

 Total Charge           Charge          ....    0
 Multiplicity           Mult            ....    1
 Number of Electrons    NEL             ....  154
 Basis Dimension        Dim             ....  828

ORBITAL ENERGIES
----------------

  NO   OCC          E(Eh)            E(eV)
   0   2.0000     -91.894401     -2500.5738
   1   2.0000     -20.597226      -560.4790
   2   2.0000     -20.593658      -560.3819
   3   2.0000     -20.550052      -559.1953
   4   2.0000     -15.631526      -425.3555
   5   2.0000     -15.608379      -424.7256
   6   2.0000     -11.398059      -310.1570
   7   2.0000     -11.388046      -309.8845
   8   2.0000     -11.334666      -308.4319
   9   2.0000     -11.307735      -307.6991
  10   2.0000     -11.303286      -307.5781
  11   2.0000     -11.302698      -307.5620
  12   2.0000     -11.256370      -306.3014
  13   2.0000     -11.251868      -306.1789
  14   2.0000     -11.250755      -306.1486
  15   2.0000     -11.243167      -305.9421
  16   2.0000     -11.240502      -305.8696
  17   2.0000     -11.234013      -305.6930
  18   2.0000     -11.232536      -305.6528
  19   2.0000     -11.226658      -305.4929
  20   2.0000      -8.898083      -242.1291
  21   2.0000      -6.579519      -179.0378
  22   2.0000      -6.577634      -178.9865
  23   2.0000      -6.577067      -178.9711
  24   2.0000      -1.435986       -39.0752
  25   2.0000      -1.419098       -38.6156
  26   2.0000      -1.352143       -36.7937
  27   2.0000      -1.346476       -36.6395
  28   2.0000      -1.251219       -34.0474
  29   2.0000      -1.149946       -31.2916
  30   2.0000      -1.126625       -30.6570
  31   2.0000      -1.041380       -28.3374
  32   2.0000      -1.029977       -28.0271
  33   2.0000      -1.003740       -27.3132
  34   2.0000      -0.996204       -27.1081
  35   2.0000      -0.982926       -26.7468
  36   2.0000      -0.921002       -25.0617
  37   2.0000      -0.888042       -24.1648
  38   2.0000      -0.845018       -22.9941
  39   2.0000      -0.831103       -22.6155
  40   2.0000      -0.824333       -22.4313
  41   2.0000      -0.822764       -22.3885
  42   2.0000      -0.752827       -20.4855
  43   2.0000      -0.746879       -20.3236
  44   2.0000      -0.728491       -19.8232
  45   2.0000      -0.699309       -19.0292
  46   2.0000      -0.680357       -18.5134
  47   2.0000      -0.678471       -18.4621
  48   2.0000      -0.669781       -18.2257
  49   2.0000      -0.658976       -17.9316
  50   2.0000      -0.656222       -17.8567
  51   2.0000      -0.645758       -17.5720
  52   2.0000      -0.645333       -17.5604
  53   2.0000      -0.616390       -16.7728
  54   2.0000      -0.608198       -16.5499
  55   2.0000      -0.592207       -16.1148
  56   2.0000      -0.587254       -15.9800
  57   2.0000      -0.580829       -15.8052
  58   2.0000      -0.568144       -15.4600
  59   2.0000      -0.559279       -15.2188
  60   2.0000      -0.556709       -15.1488
  61   2.0000      -0.545364       -14.8401
  62   2.0000      -0.530827       -14.4445
  63   2.0000      -0.524320       -14.2675
  64   2.0000      -0.516775       -14.0622
  65   2.0000      -0.507758       -13.8168
  66   2.0000      -0.492624       -13.4050
  67   2.0000      -0.484103       -13.1731
  68   2.0000      -0.478650       -13.0247
  69   2.0000      -0.459390       -12.5006
  70   2.0000      -0.457148       -12.4396
  71   2.0000      -0.451496       -12.2858
  72   2.0000      -0.352837        -9.6012
  73   2.0000      -0.340368        -9.2619
  74   2.0000      -0.330033        -8.9806
  75   2.0000      -0.316268        -8.6061
  76   2.0000      -0.307061        -8.3556
  77   0.0000       0.069276         1.8851
  78   0.0000       0.116191         3.1617
  79   0.0000       0.121173         3.2973
  80   0.0000       0.136044         3.7020
  81   0.0000       0.137856         3.7512

MULLIKEN ATOMIC CHARGES
-----------------------
   0 C :   -0.273591
   1 C :    0.022832
   2 O :   -0.372688
   3 C :    0.455254
   4 O :   -0.430141
   5 C :   -0.173964
   6 C :    0.170287
   7 C :   -0.295226
   8 N :   -0.111960
   9 C :    0.195334
  10 S :   -0.442557
  11 N :   -0.187110
  12 C :    0.073469
  13 C :    0.009288
  14 C :   -0.145356
  15 C :   -0.146711
  16 C :   -0.249574
  17 C :    0.271014
  18 O :   -0.348862
  19 C :   -0.277120
  20 H :    0.099898
  21 H :    0.098443
  22 H :    0.101573
  23 H :    0.099918
  24 H :    0.115540
  25 H :    0.129903
  26 H :    0.128372
  27 H :    0.101261
  28 H :    0.201739
  29 H :    0.194023
  30 H :    0.151707
  31 H :    0.146630
  32 H :    0.157927
  33 H :    0.134132
  34 H :    0.247480
  35 H :    0.148835
Sum of atomic charges:   -0.0000000

LOEWDIN ATOMIC CHARGES
----------------------
   0 C :    0.121922
   1 C :    0.022332
   2 O :    0.257852
   3 C :   -0.373882
   4 O :    0.096824
   5 C :   -0.103962
   6 C :   -0.064857
   7 C :    0.115716
   8 N :    0.410311
   9 C :   -0.416487
  10 S :   -0.066048
  11 N :    0.411794
  12 C :   -0.090299
  13 C :   -0.019765
  14 C :    0.021694
  15 C :    0.037412
  16 C :   -0.008051
  17 C :   -0.206608
  18 O :    0.405259
  19 C :    0.018316
  20 H :   -0.031378
  21 H :   -0.034603
  22 H :   -0.028758
  23 H :   -0.038541
  24 H :   -0.031300
  25 H :   -0.007251
  26 H :   -0.000892
  27 H :   -0.017955
  28 H :   -0.049452
  29 H :   -0.056758
  30 H :   -0.002660
  31 H :   -0.032521
  32 H :   -0.024616
  33 H :   -0.035388
  34 H :   -0.141170
  35 H :   -0.036230

  Mayer bond orders larger than 0.100000
B(  0-C ,  1-C ) :   0.9684 B(  0-C , 20-H ) :   0.9773 B(  0-C , 21-H ) :   0.9759
B(  0-C , 22-H ) :   0.9778 B(  1-C ,  2-O ) :   0.8954 B(  1-C , 23-H ) :   0.9814
B(  1-C , 24-H ) :   0.9743 B(  2-O ,  3-C ) :   1.1476 B(  3-C ,  4-O ) :   1.9797
B(  3-C ,  5-C ) :   1.0722 B(  5-C ,  6-C ) :   1.6468 B(  5-C , 12-C ) :   0.9677
B(  6-C ,  7-C ) :   0.9527 B(  6-C ,  8-N ) :   1.1480 B(  7-C , 25-H ) :   0.9686
B(  7-C , 26-H ) :   0.9590 B(  7-C , 27-H ) :   0.9951 B(  8-N ,  9-C ) :   1.2021
B(  8-N , 28-H ) :   0.9409 B(  9-C , 10-S ) :   1.5802 B(  9-C , 11-N ) :   1.2875
B( 11-N , 12-C ) :   1.0211 B( 11-N , 29-H ) :   0.9526 B( 12-C , 13-C ) :   0.9270
B( 12-C , 30-H ) :   0.9978 B( 13-C , 14-C ) :   1.3708 B( 13-C , 19-C ) :   1.3850
B( 14-C , 15-C ) :   1.3834 B( 14-C , 31-H ) :   0.9676 B( 15-C , 16-C ) :   1.3620
B( 15-C , 32-H ) :   0.9715 B( 16-C , 17-C ) :   1.3309 B( 16-C , 33-H ) :   0.9799
B( 17-C , 18-O ) :   1.1041 B( 17-C , 19-C ) :   1.4106 B( 18-O , 34-H ) :   0.9711
B( 19-C , 35-H ) :   0.9572

MP2 TOTAL ENERGY:    -1274.310143091 Eh
FINAL SINGLE POINT ENERGY     -1274.310143090557

DIPOLE MOMENT
-------------
                                X             Y             Z
Electronic contribution:    -10.75912       3.35127      14.06166
Nuclear contribution   :     11.36126      -3.79142     -15.53353
                        -----------------------------------------
Total Dipole Moment    :      0.60214      -0.44015      -1.47188
                        -----------------------------------------
Magnitude (a.u.)       :      1.65007
Magnitude (Debye)      :      4.19414

Rotational constants in cm-1:     0.011126     0.008209     0.005580
Rotational constants in MHz :   333.562912   246.085666   167.294220

                             ****ORCA TERMINATED NORMALLY****
TOTAL RUN TIME: 0 days 1 hours 50 minutes 47 seconds 90 msec
