                         Program Version 5.0.0 -  RELEASE  -
|  1> ! RI-MP2 cc-pVTZ cc-pVTZ/c TightSCF KeepDens NoKeepInts
|  2>
|  3> %pointcharges "srfp_output"
|  4>
|  5> *xyz  0  1
|  6>     C     0.6366931    6.6131353   -4.4638707
|  7>     C    -0.6172097    5.8015957   -3.8696090
|  8>     O    -1.2738452    6.6503934   -2.8653293
|  9>     C    -2.0228248    6.0248390   -1.8571825
| 10>     O    -2.0609221    4.7994937   -1.7514550
| 11>     C    -2.5231122    7.0149179   -0.8958418
| 12>     C    -2.5015962    8.3531400   -1.0194557
| 13>     C    -1.8817223    9.1270387   -2.0876270
| 14>     N    -3.0492963    9.1926332   -0.0350064
| 15>     C    -3.5757269    8.7318309    1.1207484
| 16>     S    -4.1780940    9.8094547    2.2704603
| 17>     N    -3.5624417    7.3467618    1.2654322
| 18>     C    -3.1734770    6.4170087    0.2997541
| 19>     C    -4.4931809    5.7370225   -0.2227807
| 20>     C    -4.6814634    4.3462969   -0.0128399
| 21>     C    -5.9097034    3.7209045   -0.3585270
| 22>     C    -6.9997656    4.4669132   -0.8117498
| 23>     C    -6.9028915    5.8664264   -0.9295546
| 24>     O    -7.9633021    6.5844152   -1.3110666
| 25>     C    -5.6164760    6.4459210   -0.7178742
| 26>     H     1.2854685    6.7830619   -3.5958808
| 27>     H     0.3951874    7.5725983   -4.9374691
| 28>     H     1.0399496    5.9939048   -5.2744985
| 29>     H    -1.3722821    5.5844393   -4.6350527
| 30>     H    -0.1823814    4.9097930   -3.4018463
| 31>     H    -2.3183955    8.8943544   -3.0665863
| 32>     H    -0.8111809    8.9358411   -1.9441901
| 33>     H    -1.9382638   10.2114286   -1.9324097
| 34>     H    -3.2464676   10.1687193   -0.2203323
| 35>     H    -3.9846043    7.0913968    2.1500417
| 36>     H    -2.5601947    5.6409274    0.7738574
| 37>     H    -3.8077316    3.8315686    0.3758031
| 38>     H    -5.9266230    2.6464449   -0.2015356
| 39>     H    -7.9428507    3.9563705   -0.9830185
| 40>     H    -8.7620838    6.1295577   -0.9920341
| 41>     H    -5.6273880    7.5297418   -0.7857969
| 42> *
| 43>
| 44>                          ****END OF INPUT****

CARTESIAN COORDINATES (ANGSTROEM)
---------------------------------
  C      0.636693    6.613135   -4.463871
  C     -0.617210    5.801596   -3.869609
  O     -1.273845    6.650393   -2.865329
  C     -2.022825    6.024839   -1.857182
  O     -2.060922    4.799494   -1.751455
  C     -2.523112    7.014918   -0.895842
  C     -2.501596    8.353140   -1.019456
  C     -1.881722    9.127039   -2.087627
  N     -3.049296    9.192633   -0.035006
  C     -3.575727    8.731831    1.120748
  S     -4.178094    9.809455    2.270460
  N     -3.562442    7.346762    1.265432
  C     -3.173477    6.417009    0.299754
  C     -4.493181    5.737023   -0.222781
  C     -4.681463    4.346297   -0.012840
  C     -5.909703    3.720904   -0.358527
  C     -6.999766    4.466913   -0.811750
  C     -6.902891    5.866426   -0.929555
  O     -7.963302    6.584415   -1.311067
  C     -5.616476    6.445921   -0.717874
  H      1.285468    6.783062   -3.595881
  H      0.395187    7.572598   -4.937469
  H      1.039950    5.993905   -5.274498
  H     -1.372282    5.584439   -4.635053
  H     -0.182381    4.909793   -3.401846
  H     -2.318395    8.894354   -3.066586
  H     -0.811181    8.935841   -1.944190
  H     -1.938264   10.211429   -1.932410
  H     -3.246468   10.168719   -0.220332
  H     -3.984604    7.091397    2.150042
  H     -2.560195    5.640927    0.773857
  H     -3.807732    3.831569    0.375803
  H     -5.926623    2.646445   -0.201536
  H     -7.942851    3.956370   -0.983019
  H     -8.762084    6.129558   -0.992034
  H     -5.627388    7.529742   -0.785797

 Total Charge           Charge          ....    0
 Multiplicity           Mult            ....    1
 Number of Electrons    NEL             ....  154
 Basis Dimension        Dim             ....  828

ORBITAL ENERGIES
----------------

  NO   OCC          E(Eh)            E(eV)
   0   2.0000     -93.569796     -2546.1636
   1   2.0000     -22.239624      -605.1709
   2   2.0000     -22.233289      -604.9986
   3   2.0000     -22.211470      -604.4048
   4   2.0000     -17.275093      -470.0792
   5   2.0000     -17.259231      -469.6475
   6   2.0000     -13.057116      -355.3022
   7   2.0000     -13.051895      -355.1601
   8   2.0000     -12.976603      -353.1113
   9   2.0000     -12.953865      -352.4926
  10   2.0000     -12.946331      -352.2876
  11   2.0000     -12.932367      -351.9076
  12   2.0000     -12.898828      -350.9950
  13   2.0000     -12.897515      -350.9592
  14   2.0000     -12.887366      -350.6831
  15   2.0000     -12.881151      -350.5139
  16   2.0000     -12.875650      -350.3643
  17   2.0000     -12.872943      -350.2906
  18   2.0000     -12.872702      -350.2840
  19   2.0000     -12.863144      -350.0239
  20   2.0000     -10.575137      -287.7641
  21   2.0000      -8.257019      -224.6849
  22   2.0000      -8.255114      -224.6331
  23   2.0000      -8.254728      -224.6226
  24   2.0000      -3.089002       -84.0560
  25   2.0000      -3.060342       -83.2761
  26   2.0000      -3.000145       -81.6381
  27   2.0000      -2.998829       -81.6023
  28   2.0000      -2.895576       -78.7926
  29   2.0000      -2.796174       -76.0878
  30   2.0000      -2.772661       -75.4479
  31   2.0000      -2.681311       -72.9622
  32   2.0000      -2.668649       -72.6176
  33   2.0000      -2.645568       -71.9896
  34   2.0000      -2.638613       -71.8003
  35   2.0000      -2.636302       -71.7374
  36   2.0000      -2.566838       -69.8472
  37   2.0000      -2.526916       -68.7609
  38   2.0000      -2.491405       -67.7946
  39   2.0000      -2.472842       -67.2894
  40   2.0000      -2.468970       -67.1841
  41   2.0000      -2.462420       -67.0059
  42   2.0000      -2.400563       -65.3226
  43   2.0000      -2.392056       -65.0911
  44   2.0000      -2.370858       -64.5143
  45   2.0000      -2.341005       -63.7020
  46   2.0000      -2.330156       -63.4068
  47   2.0000      -2.323607       -63.2286
  48   2.0000      -2.315344       -63.0037
  49   2.0000      -2.307042       -62.7778
  50   2.0000      -2.301018       -62.6139
  51   2.0000      -2.285061       -62.1797
  52   2.0000      -2.283533       -62.1381
  53   2.0000      -2.253775       -61.3283
  54   2.0000      -2.248826       -61.1937
  55   2.0000      -2.236129       -60.8482
  56   2.0000      -2.230846       -60.7044
  57   2.0000      -2.219289       -60.3899
  58   2.0000      -2.207760       -60.0762
  59   2.0000      -2.200679       -59.8835
  60   2.0000      -2.195674       -59.7473
  61   2.0000      -2.187015       -59.5117
  62   2.0000      -2.176759       -59.2326
  63   2.0000      -2.161388       -58.8143
  64   2.0000      -2.159843       -58.7723
  65   2.0000      -2.154691       -58.6321
  66   2.0000      -2.135212       -58.1021
  67   2.0000      -2.126362       -57.8613
  68   2.0000      -2.123897       -57.7942
  69   2.0000      -2.112159       -57.4748
  70   2.0000      -2.100958       -57.1700
  71   2.0000      -2.098930       -57.1148
  72   2.0000      -2.013575       -54.7922
  73   2.0000      -2.012283       -54.7570
  74   2.0000      -1.993429       -54.2440
  75   2.0000      -1.974251       -53.7221
  76   2.0000      -1.956456       -53.2379
  77   0.0000      -1.583309       -43.0840
  78   0.0000      -1.525757       -41.5180
  79   0.0000      -1.501674       -40.8626
  80   0.0000      -1.501062       -40.8460
  81   0.0000      -1.493578       -40.6423

MULLIKEN ATOMIC CHARGES
-----------------------
   0 C :   -0.271720
   1 C :    0.014920
   2 O :   -0.354344
   3 C :    0.509375
   4 O :   -0.573741
   5 C :   -0.175764
   6 C :    0.199274
   7 C :   -0.294105
   8 N :   -0.127686
   9 C :    0.345687
  10 S :   -0.716042
  11 N :   -0.202271
  12 C :    0.088731
  13 C :   -0.015936
  14 C :   -0.212895
  15 C :   -0.173609
  16 C :   -0.261683
  17 C :    0.281196
  18 O :   -0.436847
  19 C :   -0.295070
  20 H :    0.103022
  21 H :    0.106436
  22 H :    0.109423
  23 H :    0.112304
  24 H :    0.114929
  25 H :    0.135682
  26 H :    0.132699
  27 H :    0.124199
  28 H :    0.264141
  29 H :    0.248667
  30 H :    0.177248
  31 H :    0.176847
  32 H :    0.194836
  33 H :    0.176697
  34 H :    0.334861
  35 H :    0.160539
Sum of atomic charges:   -0.0000000

LOEWDIN ATOMIC CHARGES
----------------------
   0 C :    0.127977
   1 C :    0.024363
   2 O :    0.272318
   3 C :   -0.350868
   4 O :    0.003311
   5 C :   -0.102501
   6 C :   -0.040993
   7 C :    0.126957
   8 N :    0.431147
   9 C :   -0.377583
  10 S :   -0.237008
  11 N :    0.432874
  12 C :   -0.081804
  13 C :   -0.031075
  14 C :    0.005575
  15 C :    0.027403
  16 C :   -0.001287
  17 C :   -0.215954
  18 O :    0.373094
  19 C :    0.008149
  20 H :   -0.029713
  21 H :   -0.030943
  22 H :   -0.024665
  23 H :   -0.034593
  24 H :   -0.032766
  25 H :   -0.002729
  26 H :    0.003300
  27 H :   -0.005946
  28 H :   -0.018448
  29 H :   -0.030280
  30 H :    0.005854
  31 H :   -0.026184
  32 H :   -0.014894
  33 H :   -0.019387
  34 H :   -0.099248
  35 H :   -0.033453

  Mayer bond orders larger than 0.100000
B(  0-C ,  1-C ) :   0.9712 B(  0-C , 20-H ) :   0.9756 B(  0-C , 21-H ) :   0.9746
B(  0-C , 22-H ) :   0.9762 B(  1-C ,  2-O ) :   0.8790 B(  1-C , 23-H ) :   0.9788
B(  1-C , 24-H ) :   0.9746 B(  2-O ,  3-C ) :   1.1950 B(  3-C ,  4-O ) :   1.8977
B(  3-C ,  5-C ) :   1.1032 B(  5-C ,  6-C ) :   1.6235 B(  5-C , 12-C ) :   0.9613
B(  6-C ,  7-C ) :   0.9570 B(  6-C ,  8-N ) :   1.1455 B(  7-C , 25-H ) :   0.9651
B(  7-C , 26-H ) :   0.9534 B(  7-C , 27-H ) :   0.9904 B(  8-N ,  9-C ) :   1.2912
B(  8-N , 28-H ) :   0.9148 B(  9-C , 10-S ) :   1.2442 B(  9-C , 11-N ) :   1.3825
B( 11-N , 12-C ) :   1.0115 B( 11-N , 29-H ) :   0.9274 B( 12-C , 13-C ) :   0.9160
B( 12-C , 30-H ) :   0.9942 B( 13-C , 14-C ) :   1.3451 B( 13-C , 19-C ) :   1.3849
B( 14-C , 15-C ) :   1.3729 B( 14-C , 31-H ) :   0.9637 B( 15-C , 16-C ) :   1.3396
B( 15-C , 32-H ) :   0.9600 B( 16-C , 17-C ) :   1.3314 B( 16-C , 33-H ) :   0.9665
B( 17-C , 18-O ) :   1.1142 B( 17-C , 19-C ) :   1.4026 B( 18-O , 34-H ) :   0.9076
B( 19-C , 35-H ) :   0.9525

MP2 TOTAL ENERGY:    -1274.434898127 Eh
FINAL SINGLE POINT ENERGY     -1274.434898126871

DIPOLE MOMENT
-------------
                                X             Y             Z
Electronic contribution:    -10.51418       3.21041      13.32021
Nuclear contribution   :     11.36126      -3.79142     -15.53353
                        -----------------------------------------
Total Dipole Moment    :      0.84708      -0.58101      -2.21332
                        -----------------------------------------
Magnitude (a.u.)       :      2.44006
Magnitude (Debye)      :      6.20215

Rotational constants in cm-1:     0.011126     0.008209     0.005580
Rotational constants in MHz :   333.562912   246.085666   167.294220

                             ****ORCA TERMINATED NORMALLY****
TOTAL RUN TIME: 0 days 1 hours 50 minutes 26 seconds 964 msec
