                         Program Version 5.0.0 -  RELEASE  -
|  1> ! RI-MP2 cc-pVTZ cc-pVTZ/c TightSCF KeepDens NoKeepInts
|  2>
|  3> *xyz  0  1
|  4>     C     1.7474176    0.4002070   -8.6592961
|  5>     C     2.5760915    0.8284569   -9.8777228
|  6>     O     2.3560189    2.2843806  -10.1658152
|  7>     C     1.2781730    2.7285492  -10.7835389
|  8>     O     0.4237918    2.0387225  -11.3566402
|  9>     C     1.4164011    4.1694632  -11.1505098
| 10>     C     2.3445066    5.0363176  -10.7836011
| 11>     C     3.3091438    4.8949847   -9.6293990
| 12>     N     2.3983048    6.2617488  -11.3245686
| 13>     C     1.4339858    6.7749730  -12.0770561
| 14>     S     1.5111113    8.3163729  -12.5807502
| 15>     N     0.4575980    5.9745256  -12.5074823
| 16>     C     0.4403212    4.5274998  -12.2261153
| 17>     C     0.6338649    3.7444799  -13.5490605
| 18>     C    -0.4847372    3.2123158  -14.2704765
| 19>     C    -0.3347861    2.5165353  -15.4408966
| 20>     C     0.9495288    2.2560450  -15.9598675
| 21>     C     2.0785724    2.6915317  -15.2856235
| 22>     O     3.2893716    2.4134911  -15.8415166
| 23>     C     1.9405698    3.3950794  -14.0901556
| 24>     H     2.1692890    0.7914854   -7.7254306
| 25>     H     1.7343250   -0.6922493   -8.5615260
| 26>     H     0.7286355    0.7939476   -8.7604937
| 27>     H     3.6079097    0.5847181   -9.5964165
| 28>     H     2.3242227    0.1640524  -10.7133772
| 29>     H     2.8078207    4.5359146   -8.7222433
| 30>     H     3.7725866    5.8305839   -9.2931482
| 31>     H     4.1370723    4.2218495   -9.8836089
| 32>     H     2.9588194    7.0321384  -10.9806359
| 33>     H    -0.1949714    6.4068785  -13.1502813
| 34>     H    -0.5928494    4.3671591  -11.8943938
| 35>     H    -1.5041160    3.3444320  -13.9200365
| 36>     H    -1.1296834    2.0364498  -16.0039705
| 37>     H     1.0666140    1.7190943  -16.8965483
| 38>     H     3.8950344    2.9103247  -15.2644049
| 39>     H     2.7592098    3.7634394  -13.4789783
| 40> *
| 41>
| 42>                          ****END OF INPUT****

CARTESIAN COORDINATES (ANGSTROEM)
---------------------------------
  C      1.747418    0.400207   -8.659296
  C      2.576091    0.828457   -9.877723
  O      2.356019    2.284381  -10.165815
  C      1.278173    2.728549  -10.783539
  O      0.423792    2.038722  -11.356640
  C      1.416401    4.169463  -11.150510
  C      2.344507    5.036318  -10.783601
  C      3.309144    4.894985   -9.629399
  N      2.398305    6.261749  -11.324569
  C      1.433986    6.774973  -12.077056
  S      1.511111    8.316373  -12.580750
  N      0.457598    5.974526  -12.507482
  C      0.440321    4.527500  -12.226115
  C      0.633865    3.744480  -13.549060
  C     -0.484737    3.212316  -14.270476
  C     -0.334786    2.516535  -15.440897
  C      0.949529    2.256045  -15.959867
  C      2.078572    2.691532  -15.285623
  O      3.289372    2.413491  -15.841517
  C      1.940570    3.395079  -14.090156
  H      2.169289    0.791485   -7.725431
  H      1.734325   -0.692249   -8.561526
  H      0.728635    0.793948   -8.760494
  H      3.607910    0.584718   -9.596417
  H      2.324223    0.164052  -10.713377
  H      2.807821    4.535915   -8.722243
  H      3.772587    5.830584   -9.293148
  H      4.137072    4.221850   -9.883609
  H      2.958819    7.032138  -10.980636
  H     -0.194971    6.406879  -13.150281
  H     -0.592849    4.367159  -11.894394
  H     -1.504116    3.344432  -13.920036
  H     -1.129683    2.036450  -16.003971
  H      1.066614    1.719094  -16.896548
  H      3.895034    2.910325  -15.264405
  H      2.759210    3.763439  -13.478978

 Total Charge           Charge          ....    0
 Multiplicity           Mult            ....    1
 Number of Electrons    NEL             ....  154
 Basis Dimension        Dim             ....  828

ORBITAL ENERGIES
----------------

  NO   OCC          E(Eh)            E(eV)
   0   2.0000     -91.880723     -2500.2016
   1   2.0000     -20.618744      -561.0645
   2   2.0000     -20.589828      -560.2777
   3   2.0000     -20.542802      -558.9981
   4   2.0000     -15.626326      -425.2139
   5   2.0000     -15.603503      -424.5929
   6   2.0000     -11.396731      -310.1208
   7   2.0000     -11.366718      -309.3041
   8   2.0000     -11.329087      -308.2801
   9   2.0000     -11.316967      -307.9503
  10   2.0000     -11.303886      -307.5944
  11   2.0000     -11.300373      -307.4988
  12   2.0000     -11.262907      -306.4793
  13   2.0000     -11.260189      -306.4053
  14   2.0000     -11.251428      -306.1669
  15   2.0000     -11.238639      -305.8189
  16   2.0000     -11.237910      -305.7991
  17   2.0000     -11.235809      -305.7419
  18   2.0000     -11.227088      -305.5046
  19   2.0000     -11.222475      -305.3791
  20   2.0000      -8.887752      -241.8480
  21   2.0000      -6.569545      -178.7664
  22   2.0000      -6.567292      -178.7051
  23   2.0000      -6.566756      -178.6905
  24   2.0000      -1.462143       -39.7869
  25   2.0000      -1.408397       -38.3244
  26   2.0000      -1.372696       -37.3529
  27   2.0000      -1.352213       -36.7956
  28   2.0000      -1.253017       -34.0963
  29   2.0000      -1.151259       -31.3274
  30   2.0000      -1.128838       -30.7172
  31   2.0000      -1.055218       -28.7139
  32   2.0000      -1.038333       -28.2545
  33   2.0000      -1.005089       -27.3499
  34   2.0000      -1.002526       -27.2801
  35   2.0000      -0.989830       -26.9346
  36   2.0000      -0.929956       -25.3054
  37   2.0000      -0.901599       -24.5338
  38   2.0000      -0.859501       -23.3882
  39   2.0000      -0.837041       -22.7770
  40   2.0000      -0.827332       -22.5129
  41   2.0000      -0.806606       -21.9489
  42   2.0000      -0.766342       -20.8532
  43   2.0000      -0.751306       -20.4441
  44   2.0000      -0.725849       -19.7514
  45   2.0000      -0.697942       -18.9920
  46   2.0000      -0.685372       -18.6499
  47   2.0000      -0.679381       -18.4869
  48   2.0000      -0.671548       -18.2737
  49   2.0000      -0.661205       -17.9923
  50   2.0000      -0.658488       -17.9184
  51   2.0000      -0.648103       -17.6358
  52   2.0000      -0.633433       -17.2366
  53   2.0000      -0.616085       -16.7645
  54   2.0000      -0.611225       -16.6323
  55   2.0000      -0.594860       -16.1870
  56   2.0000      -0.591208       -16.0876
  57   2.0000      -0.583469       -15.8770
  58   2.0000      -0.580079       -15.7847
  59   2.0000      -0.565747       -15.3947
  60   2.0000      -0.560450       -15.2506
  61   2.0000      -0.544944       -14.8287
  62   2.0000      -0.538249       -14.6465
  63   2.0000      -0.534516       -14.5449
  64   2.0000      -0.513116       -13.9626
  65   2.0000      -0.505599       -13.7580
  66   2.0000      -0.499596       -13.5947
  67   2.0000      -0.490915       -13.3585
  68   2.0000      -0.482133       -13.1195
  69   2.0000      -0.471047       -12.8178
  70   2.0000      -0.459287       -12.4978
  71   2.0000      -0.455220       -12.3872
  72   2.0000      -0.357802        -9.7363
  73   2.0000      -0.334485        -9.1018
  74   2.0000      -0.326884        -8.8950
  75   2.0000      -0.318785        -8.6746
  76   2.0000      -0.308805        -8.4030
  77   0.0000       0.079158         2.1540
  78   0.0000       0.112081         3.0499
  79   0.0000       0.113040         3.0760
  80   0.0000       0.133642         3.6366
  81   0.0000       0.141423         3.8483

MULLIKEN ATOMIC CHARGES
-----------------------
   0 C :   -0.278015
   1 C :    0.037658
   2 O :   -0.340867
   3 C :    0.463922
   4 O :   -0.443132
   5 C :   -0.211826
   6 C :    0.110678
   7 C :   -0.296798
   8 N :   -0.065583
   9 C :    0.197354
  10 S :   -0.469866
  11 N :   -0.188459
  12 C :    0.070010
  13 C :    0.028522
  14 C :   -0.164838
  15 C :   -0.115580
  16 C :   -0.230144
  17 C :    0.311151
  18 O :   -0.357274
  19 C :   -0.300631
  20 H :    0.090180
  21 H :    0.101793
  22 H :    0.107771
  23 H :    0.114497
  24 H :    0.119322
  25 H :    0.122740
  26 H :    0.106163
  27 H :    0.122173
  28 H :    0.190085
  29 H :    0.199275
  30 H :    0.152674
  31 H :    0.135232
  32 H :    0.154798
  33 H :    0.152749
  34 H :    0.239268
  35 H :    0.134994
Sum of atomic charges:    0.0000000

LOEWDIN ATOMIC CHARGES
----------------------
   0 C :    0.106155
   1 C :    0.043883
   2 O :    0.319945
   3 C :   -0.447529
   4 O :    0.085945
   5 C :   -0.105029
   6 C :   -0.109126
   7 C :    0.128772
   8 N :    0.433042
   9 C :   -0.522974
  10 S :   -0.014077
  11 N :    0.415954
  12 C :   -0.052230
  13 C :    0.005560
  14 C :    0.009312
  15 C :    0.033248
  16 C :    0.020515
  17 C :   -0.207194
  18 O :    0.386456
  19 C :    0.011312
  20 H :   -0.029900
  21 H :   -0.020957
  22 H :   -0.023933
  23 H :   -0.023460
  24 H :   -0.022938
  25 H :   -0.008718
  26 H :   -0.019050
  27 H :   -0.012897
  28 H :   -0.044556
  29 H :   -0.057695
  30 H :   -0.005511
  31 H :   -0.031218
  32 H :   -0.019173
  33 H :   -0.025141
  34 H :   -0.152802
  35 H :   -0.043989

  Mayer bond orders larger than 0.100000
B(  0-C ,  1-C ) :   0.9572 B(  0-C , 20-H ) :   0.9793 B(  0-C , 21-H ) :   0.9738
B(  0-C , 22-H ) :   0.9771 B(  1-C ,  2-O ) :   0.8692 B(  1-C , 23-H ) :   0.9851
B(  1-C , 24-H ) :   0.9751 B(  2-O ,  3-C ) :   1.2196 B(  3-C ,  4-O ) :   1.9515
B(  3-C ,  5-C ) :   1.0452 B(  5-C ,  6-C ) :   1.6423 B(  5-C , 12-C ) :   0.9864
B(  6-C ,  7-C ) :   0.9473 B(  6-C ,  8-N ) :   1.1862 B(  7-C , 25-H ) :   0.9697
B(  7-C , 26-H ) :   0.9928 B(  7-C , 27-H ) :   0.9672 B(  8-N ,  9-C ) :   1.1770
B(  8-N , 28-H ) :   0.9403 B(  9-C , 10-S ) :   1.5921 B(  9-C , 11-N ) :   1.3508
B( 11-N , 12-C ) :   0.9511 B( 11-N , 29-H ) :   0.9467 B( 12-C , 13-C ) :   0.9557
B( 12-C , 30-H ) :   0.9956 B( 13-C , 14-C ) :   1.3616 B( 13-C , 19-C ) :   1.3483
B( 14-C , 15-C ) :   1.4049 B( 14-C , 31-H ) :   0.9763 B( 15-C , 16-C ) :   1.3608
B( 15-C , 32-H ) :   0.9767 B( 16-C , 17-C ) :   1.3551 B( 16-C , 33-H ) :   0.9727
B( 17-C , 18-O ) :   1.0988 B( 17-C , 19-C ) :   1.3465 B( 18-O , 34-H ) :   0.9833
B( 19-C , 35-H ) :   0.9734

MP2 TOTAL ENERGY:    -1274.307183268 Eh
FINAL SINGLE POINT ENERGY     -1274.307183267682

DIPOLE MOMENT
-------------
                                X             Y             Z
Electronic contribution:     -2.88884      13.46234      -9.94139
Nuclear contribution   :      3.87244     -14.91633      11.87078
                        -----------------------------------------
Total Dipole Moment    :      0.98360      -1.45399       1.92939
                        -----------------------------------------
Magnitude (a.u.)       :      2.60847
Magnitude (Debye)      :      6.63020

Rotational constants in cm-1:     0.010214     0.009364     0.005940
Rotational constants in MHz :   306.215051   280.731754   178.087116

                             ****ORCA TERMINATED NORMALLY****
TOTAL RUN TIME: 0 days 1 hours 29 minutes 35 seconds 633 msec
