                         Program Version 5.0.0 -  RELEASE  -
|  1> ! RI-MP2 cc-pVTZ cc-pVTZ/c TightSCF KeepDens NoKeepInts
|  2>
|  3> %pointcharges "srfp_output"
|  4>
|  5> *xyz  0  1
|  6>     C     1.7474176    0.4002070   -8.6592961
|  7>     C     2.5760915    0.8284569   -9.8777228
|  8>     O     2.3560189    2.2843806  -10.1658152
|  9>     C     1.2781730    2.7285492  -10.7835389
| 10>     O     0.4237918    2.0387225  -11.3566402
| 11>     C     1.4164011    4.1694632  -11.1505098
| 12>     C     2.3445066    5.0363176  -10.7836011
| 13>     C     3.3091438    4.8949847   -9.6293990
| 14>     N     2.3983048    6.2617488  -11.3245686
| 15>     C     1.4339858    6.7749730  -12.0770561
| 16>     S     1.5111113    8.3163729  -12.5807502
| 17>     N     0.4575980    5.9745256  -12.5074823
| 18>     C     0.4403212    4.5274998  -12.2261153
| 19>     C     0.6338649    3.7444799  -13.5490605
| 20>     C    -0.4847372    3.2123158  -14.2704765
| 21>     C    -0.3347861    2.5165353  -15.4408966
| 22>     C     0.9495288    2.2560450  -15.9598675
| 23>     C     2.0785724    2.6915317  -15.2856235
| 24>     O     3.2893716    2.4134911  -15.8415166
| 25>     C     1.9405698    3.3950794  -14.0901556
| 26>     H     2.1692890    0.7914854   -7.7254306
| 27>     H     1.7343250   -0.6922493   -8.5615260
| 28>     H     0.7286355    0.7939476   -8.7604937
| 29>     H     3.6079097    0.5847181   -9.5964165
| 30>     H     2.3242227    0.1640524  -10.7133772
| 31>     H     2.8078207    4.5359146   -8.7222433
| 32>     H     3.7725866    5.8305839   -9.2931482
| 33>     H     4.1370723    4.2218495   -9.8836089
| 34>     H     2.9588194    7.0321384  -10.9806359
| 35>     H    -0.1949714    6.4068785  -13.1502813
| 36>     H    -0.5928494    4.3671591  -11.8943938
| 37>     H    -1.5041160    3.3444320  -13.9200365
| 38>     H    -1.1296834    2.0364498  -16.0039705
| 39>     H     1.0666140    1.7190943  -16.8965483
| 40>     H     3.8950344    2.9103247  -15.2644049
| 41>     H     2.7592098    3.7634394  -13.4789783
| 42> *
| 43>
| 44>                          ****END OF INPUT****

CARTESIAN COORDINATES (ANGSTROEM)
---------------------------------
  C      1.747418    0.400207   -8.659296
  C      2.576091    0.828457   -9.877723
  O      2.356019    2.284381  -10.165815
  C      1.278173    2.728549  -10.783539
  O      0.423792    2.038722  -11.356640
  C      1.416401    4.169463  -11.150510
  C      2.344507    5.036318  -10.783601
  C      3.309144    4.894985   -9.629399
  N      2.398305    6.261749  -11.324569
  C      1.433986    6.774973  -12.077056
  S      1.511111    8.316373  -12.580750
  N      0.457598    5.974526  -12.507482
  C      0.440321    4.527500  -12.226115
  C      0.633865    3.744480  -13.549060
  C     -0.484737    3.212316  -14.270476
  C     -0.334786    2.516535  -15.440897
  C      0.949529    2.256045  -15.959867
  C      2.078572    2.691532  -15.285623
  O      3.289372    2.413491  -15.841517
  C      1.940570    3.395079  -14.090156
  H      2.169289    0.791485   -7.725431
  H      1.734325   -0.692249   -8.561526
  H      0.728635    0.793948   -8.760494
  H      3.607910    0.584718   -9.596417
  H      2.324223    0.164052  -10.713377
  H      2.807821    4.535915   -8.722243
  H      3.772587    5.830584   -9.293148
  H      4.137072    4.221850   -9.883609
  H      2.958819    7.032138  -10.980636
  H     -0.194971    6.406879  -13.150281
  H     -0.592849    4.367159  -11.894394
  H     -1.504116    3.344432  -13.920036
  H     -1.129683    2.036450  -16.003971
  H      1.066614    1.719094  -16.896548
  H      3.895034    2.910325  -15.264405
  H      2.759210    3.763439  -13.478978

 Total Charge           Charge          ....    0
 Multiplicity           Mult            ....    1
 Number of Electrons    NEL             ....  154
 Basis Dimension        Dim             ....  828

ORBITAL ENERGIES
----------------

  NO   OCC          E(Eh)            E(eV)
   0   2.0000     -90.357480     -2458.7520
   1   2.0000     -19.056333      -518.5492
   2   2.0000     -19.031205      -517.8654
   3   2.0000     -19.001936      -517.0690
   4   2.0000     -14.066964      -382.7816
   5   2.0000     -14.054649      -382.4464
   6   2.0000      -9.853105      -268.1166
   7   2.0000      -9.829968      -267.4870
   8   2.0000      -9.764930      -265.7172
   9   2.0000      -9.745986      -265.2018
  10   2.0000      -9.745861      -265.1984
  11   2.0000      -9.739497      -265.0252
  12   2.0000      -9.707697      -264.1599
  13   2.0000      -9.689214      -263.6569
  14   2.0000      -9.682108      -263.4636
  15   2.0000      -9.679978      -263.4056
  16   2.0000      -9.674726      -263.2627
  17   2.0000      -9.672250      -263.1953
  18   2.0000      -9.668686      -263.0983
  19   2.0000      -9.655743      -262.7461
  20   2.0000      -7.366264      -200.4462
  21   2.0000      -5.048509      -137.3769
  22   2.0000      -5.046236      -137.3150
  23   2.0000      -5.045875      -137.3052
  24   2.0000       0.094169         2.5625
  25   2.0000       0.148894         4.0516
  26   2.0000       0.182847         4.9755
  27   2.0000       0.191572         5.2129
  28   2.0000       0.302515         8.2318
  29   2.0000       0.403360        10.9760
  30   2.0000       0.426531        11.6065
  31   2.0000       0.516154        14.0453
  32   2.0000       0.523358        14.2413
  33   2.0000       0.549102        14.9418
  34   2.0000       0.552938        15.0462
  35   2.0000       0.565390        15.3851
  36   2.0000       0.629595        17.1321
  37   2.0000       0.665343        18.1049
  38   2.0000       0.697199        18.9717
  39   2.0000       0.720643        19.6097
  40   2.0000       0.735053        20.0018
  41   2.0000       0.749560        20.3966
  42   2.0000       0.791444        21.5363
  43   2.0000       0.807669        21.9778
  44   2.0000       0.831896        22.6371
  45   2.0000       0.858884        23.3714
  46   2.0000       0.866502        23.5787
  47   2.0000       0.877523        23.8786
  48   2.0000       0.889657        24.2088
  49   2.0000       0.895138        24.3579
  50   2.0000       0.900220        24.4962
  51   2.0000       0.911146        24.7935
  52   2.0000       0.928400        25.2631
  53   2.0000       0.946959        25.7681
  54   2.0000       0.954907        25.9844
  55   2.0000       0.960262        26.1300
  56   2.0000       0.966466        26.2989
  57   2.0000       0.984716        26.7955
  58   2.0000       0.986043        26.8316
  59   2.0000       0.996596        27.1188
  60   2.0000       1.005871        27.3711
  61   2.0000       1.018097        27.7038
  62   2.0000       1.022040        27.8111
  63   2.0000       1.029157        28.0048
  64   2.0000       1.042884        28.3783
  65   2.0000       1.046138        28.4669
  66   2.0000       1.066784        29.0287
  67   2.0000       1.069122        29.0923
  68   2.0000       1.075593        29.2684
  69   2.0000       1.083408        29.4810
  70   2.0000       1.088427        29.6176
  71   2.0000       1.094644        29.7868
  72   2.0000       1.186748        32.2931
  73   2.0000       1.191448        32.4209
  74   2.0000       1.211221        32.9590
  75   2.0000       1.225146        33.3379
  76   2.0000       1.239611        33.7315
  77   0.0000       1.630581        44.3704
  78   0.0000       1.667578        45.3771
  79   0.0000       1.702414        46.3250
  80   0.0000       1.705034        46.3963
  81   0.0000       1.714463        46.6529

MULLIKEN ATOMIC CHARGES
-----------------------
   0 C :   -0.280250
   1 C :    0.037313
   2 O :   -0.320020
   3 C :    0.542159
   4 O :   -0.618238
   5 C :   -0.190850
   6 C :    0.125616
   7 C :   -0.296217
   8 N :   -0.083777
   9 C :    0.358661
  10 S :   -0.766190
  11 N :   -0.206903
  12 C :    0.093049
  13 C :   -0.007195
  14 C :   -0.220497
  15 C :   -0.158739
  16 C :   -0.259712
  17 C :    0.307806
  18 O :   -0.447657
  19 C :   -0.295513
  20 H :    0.103882
  21 H :    0.114628
  22 H :    0.098181
  23 H :    0.136105
  24 H :    0.113726
  25 H :    0.129109
  26 H :    0.127803
  27 H :    0.131144
  28 H :    0.257209
  29 H :    0.257513
  30 H :    0.172788
  31 H :    0.170648
  32 H :    0.185666
  33 H :    0.182004
  34 H :    0.321015
  35 H :    0.185733
Sum of atomic charges:    0.0000000

LOEWDIN ATOMIC CHARGES
----------------------
   0 C :    0.109598
   1 C :    0.050025
   2 O :    0.337582
   3 C :   -0.412496
   4 O :   -0.022587
   5 C :   -0.097452
   6 C :   -0.085324
   7 C :    0.140053
   8 N :    0.453739
   9 C :   -0.482522
  10 S :   -0.200680
  11 N :    0.440622
  12 C :   -0.045379
  13 C :   -0.009793
  14 C :   -0.003426
  15 C :    0.023457
  16 C :    0.009148
  17 C :   -0.216498
  18 O :    0.352266
  19 C :    0.019664
  20 H :   -0.023930
  21 H :   -0.016170
  22 H :   -0.027430
  23 H :   -0.014061
  24 H :   -0.025039
  25 H :   -0.004007
  26 H :   -0.007775
  27 H :   -0.007297
  28 H :   -0.012537
  29 H :   -0.029685
  30 H :    0.001233
  31 H :   -0.021621
  32 H :   -0.008950
  33 H :   -0.020068
  34 H :   -0.114220
  35 H :   -0.028441

  Mayer bond orders larger than 0.100000
B(  0-C ,  1-C ) :   0.9503 B(  0-C , 20-H ) :   0.9782 B(  0-C , 21-H ) :   0.9715
B(  0-C , 22-H ) :   0.9785 B(  1-C ,  2-O ) :   0.8478 B(  1-C , 23-H ) :   0.9815
B(  1-C , 24-H ) :   0.9791 B(  2-O ,  3-C ) :   1.2788 B(  3-C ,  4-O ) :   1.8387
B(  3-C ,  5-C ) :   1.0905 B(  5-C ,  6-C ) :   1.6244 B(  5-C , 12-C ) :   0.9831
B(  6-C ,  7-C ) :   0.9489 B(  6-C ,  8-N ) :   1.1760 B(  7-C , 25-H ) :   0.9675
B(  7-C , 26-H ) :   0.9887 B(  7-C , 27-H ) :   0.9608 B(  8-N ,  9-C ) :   1.2745
B(  8-N , 28-H ) :   0.9202 B(  9-C , 10-S ) :   1.2425 B(  9-C , 11-N ) :   1.4545
B( 11-N , 12-C ) :   0.9403 B( 11-N , 29-H ) :   0.9210 B( 12-C , 13-C ) :   0.9456
B( 12-C , 30-H ) :   0.9948 B( 13-C , 14-C ) :   1.3404 B( 13-C , 19-C ) :   1.3178
B( 14-C , 15-C ) :   1.4216 B( 14-C , 31-H ) :   0.9673 B( 15-C , 16-C ) :   1.3408
B( 15-C , 32-H ) :   0.9670 B( 16-C , 17-C ) :   1.3401 B( 16-C , 33-H ) :   0.9658
B( 17-C , 18-O ) :   1.0899 B( 17-C , 19-C ) :   1.3696 B( 18-O , 34-H ) :   0.9241
B( 19-C , 35-H ) :   0.9622

MP2 TOTAL ENERGY:    -1274.442857571 Eh
FINAL SINGLE POINT ENERGY     -1274.442857570645

DIPOLE MOMENT
-------------
                                X             Y             Z
Electronic contribution:     -2.22465      12.85570      -8.88410
Nuclear contribution   :      3.87244     -14.91633      11.87078
                        -----------------------------------------
Total Dipole Moment    :      1.64780      -2.06063       2.98668
                        -----------------------------------------
Magnitude (a.u.)       :      3.98518
Magnitude (Debye)      :     10.12954

Rotational constants in cm-1:     0.010214     0.009364     0.005940
Rotational constants in MHz :   306.215051   280.731754   178.087116

                             ****ORCA TERMINATED NORMALLY****
TOTAL RUN TIME: 0 days 1 hours 28 minutes 5 seconds 407 msec
