                         Program Version 5.0.0 -  RELEASE  -
|  1> ! RI-MP2 cc-pVTZ cc-pVTZ/c TightSCF KeepDens NoKeepInts
|  2>
|  3> *xyz  0  1
|  4>     C    -7.2971057   17.2219270   -7.4448221
|  5>     C    -7.5998330   15.6903159   -7.5451468
|  6>     O    -8.4262391   15.4364844   -8.7157509
|  7>     C    -9.7606576   15.0053118   -8.5495047
|  8>     O   -10.3220910   14.7239768   -7.5373750
|  9>     C   -10.5624102   14.9507961   -9.7755582
| 10>     C   -10.1171561   15.4598820  -10.9428109
| 11>     C    -8.9102711   16.2756491  -11.2470678
| 12>     N   -10.9547862   15.4458704  -12.0063905
| 13>     C   -12.1727174   14.9439972  -12.0241825
| 14>     S   -13.0956345   14.8455254  -13.3772533
| 15>     N   -12.6110278   14.3635717  -10.8202088
| 16>     C   -11.8873798   14.3126802   -9.5974520
| 17>     C   -11.8397029   12.8342667   -9.2014929
| 18>     C   -12.8731234   12.3469815   -8.3766504
| 19>     C   -12.7815267   11.0402242   -7.8258599
| 20>     C   -11.7184175   10.1870575   -8.1952224
| 21>     C   -10.7064254   10.6893209   -9.0339625
| 22>     O    -9.7121480    9.8185800   -9.3331579
| 23>     C   -10.7661955   12.0062794   -9.5649820
| 24>     H    -6.9348999   17.4902912   -6.4448335
| 25>     H    -8.2022220   17.8023473   -7.6617729
| 26>     H    -6.4372238   17.4868068   -8.0722260
| 27>     H    -6.5971135   15.3078651   -7.7720332
| 28>     H    -7.9610222   15.2590028   -6.6034988
| 29>     H    -8.9453965   16.9925734  -10.4176272
| 30>     H    -8.9546589   16.7494969  -12.2353428
| 31>     H    -7.9329147   15.7848311  -11.3311726
| 32>     H   -10.6142082   15.9081169  -12.8408372
| 33>     H   -13.4922771   13.8670957  -10.8738519
| 34>     H   -12.5146203   14.8733684   -8.8936133
| 35>     H   -13.7384584   12.9613823   -8.1462096
| 36>     H   -13.5753908   10.6297943   -7.2088324
| 37>     H   -11.6277210    9.1494984   -7.8875734
| 38>     H    -9.1596768   10.3122222   -9.9638891
| 39>     H   -10.0340457   12.3602013  -10.2847681
| 40> *
| 41>
| 42>                          ****END OF INPUT****

CARTESIAN COORDINATES (ANGSTROEM)
---------------------------------
  C     -7.297106   17.221927   -7.444822
  C     -7.599833   15.690316   -7.545147
  O     -8.426239   15.436484   -8.715751
  C     -9.760658   15.005312   -8.549505
  O    -10.322091   14.723977   -7.537375
  C    -10.562410   14.950796   -9.775558
  C    -10.117156   15.459882  -10.942811
  C     -8.910271   16.275649  -11.247068
  N    -10.954786   15.445870  -12.006390
  C    -12.172717   14.943997  -12.024183
  S    -13.095634   14.845525  -13.377253
  N    -12.611028   14.363572  -10.820209
  C    -11.887380   14.312680   -9.597452
  C    -11.839703   12.834267   -9.201493
  C    -12.873123   12.346981   -8.376650
  C    -12.781527   11.040224   -7.825860
  C    -11.718417   10.187057   -8.195222
  C    -10.706425   10.689321   -9.033962
  O     -9.712148    9.818580   -9.333158
  C    -10.766196   12.006279   -9.564982
  H     -6.934900   17.490291   -6.444833
  H     -8.202222   17.802347   -7.661773
  H     -6.437224   17.486807   -8.072226
  H     -6.597113   15.307865   -7.772033
  H     -7.961022   15.259003   -6.603499
  H     -8.945396   16.992573  -10.417627
  H     -8.954659   16.749497  -12.235343
  H     -7.932915   15.784831  -11.331173
  H    -10.614208   15.908117  -12.840837
  H    -13.492277   13.867096  -10.873852
  H    -12.514620   14.873368   -8.893613
  H    -13.738458   12.961382   -8.146210
  H    -13.575391   10.629794   -7.208832
  H    -11.627721    9.149498   -7.887573
  H     -9.159677   10.312222   -9.963889
  H    -10.034046   12.360201  -10.284768

 Total Charge           Charge          ....    0
 Multiplicity           Mult            ....    1
 Number of Electrons    NEL             ....  154
 Basis Dimension        Dim             ....  828

ORBITAL ENERGIES
----------------

  NO   OCC          E(Eh)            E(eV)
   0   2.0000     -91.888612     -2500.4162
   1   2.0000     -20.607751      -560.7654
   2   2.0000     -20.594629      -560.4083
   3   2.0000     -20.548928      -559.1648
   4   2.0000     -15.631010      -425.3414
   5   2.0000     -15.596126      -424.3922
   6   2.0000     -11.389239      -309.9170
   7   2.0000     -11.380830      -309.6881
   8   2.0000     -11.332627      -308.3765
   9   2.0000     -11.309738      -307.7536
  10   2.0000     -11.304559      -307.6127
  11   2.0000     -11.293986      -307.3250
  12   2.0000     -11.262655      -306.4724
  13   2.0000     -11.255360      -306.2739
  14   2.0000     -11.249533      -306.1154
  15   2.0000     -11.249085      -306.1032
  16   2.0000     -11.238153      -305.8057
  17   2.0000     -11.237804      -305.7962
  18   2.0000     -11.231531      -305.6255
  19   2.0000     -11.229658      -305.5745
  20   2.0000      -8.894218      -242.0240
  21   2.0000      -6.575852      -178.9380
  22   2.0000      -6.573795      -178.8821
  23   2.0000      -6.573181      -178.8654
  24   2.0000      -1.448986       -39.4289
  25   2.0000      -1.414512       -38.4908
  26   2.0000      -1.371124       -37.3102
  27   2.0000      -1.366064       -37.1725
  28   2.0000      -1.249562       -34.0023
  29   2.0000      -1.150935       -31.3185
  30   2.0000      -1.127116       -30.6704
  31   2.0000      -1.041140       -28.3309
  32   2.0000      -1.038676       -28.2638
  33   2.0000      -1.010630       -27.5006
  34   2.0000      -1.002372       -27.2759
  35   2.0000      -0.990002       -26.9393
  36   2.0000      -0.925795       -25.1922
  37   2.0000      -0.890554       -24.2332
  38   2.0000      -0.863721       -23.5030
  39   2.0000      -0.843894       -22.9635
  40   2.0000      -0.826303       -22.4848
  41   2.0000      -0.806207       -21.9380
  42   2.0000      -0.755109       -20.5476
  43   2.0000      -0.748869       -20.3778
  44   2.0000      -0.730355       -19.8740
  45   2.0000      -0.699597       -19.0370
  46   2.0000      -0.682859       -18.5815
  47   2.0000      -0.679955       -18.5025
  48   2.0000      -0.676940       -18.4205
  49   2.0000      -0.662854       -18.0372
  50   2.0000      -0.655227       -17.8296
  51   2.0000      -0.642120       -17.4730
  52   2.0000      -0.631943       -17.1961
  53   2.0000      -0.617776       -16.8105
  54   2.0000      -0.608551       -16.5595
  55   2.0000      -0.598079       -16.2745
  56   2.0000      -0.594371       -16.1737
  57   2.0000      -0.587548       -15.9880
  58   2.0000      -0.576292       -15.6817
  59   2.0000      -0.573493       -15.6055
  60   2.0000      -0.565517       -15.3885
  61   2.0000      -0.550278       -14.9738
  62   2.0000      -0.544174       -14.8077
  63   2.0000      -0.534553       -14.5459
  64   2.0000      -0.520746       -14.1702
  65   2.0000      -0.512187       -13.9373
  66   2.0000      -0.503602       -13.7037
  67   2.0000      -0.497033       -13.5250
  68   2.0000      -0.477132       -12.9834
  69   2.0000      -0.463277       -12.6064
  70   2.0000      -0.454212       -12.3597
  71   2.0000      -0.450017       -12.2456
  72   2.0000      -0.353662        -9.6236
  73   2.0000      -0.339723        -9.2443
  74   2.0000      -0.328864        -8.9488
  75   2.0000      -0.317573        -8.6416
  76   2.0000      -0.308781        -8.4024
  77   0.0000       0.074857         2.0370
  78   0.0000       0.112038         3.0487
  79   0.0000       0.113917         3.0998
  80   0.0000       0.134051         3.6477
  81   0.0000       0.137234         3.7343

MULLIKEN ATOMIC CHARGES
-----------------------
   0 C :   -0.285879
   1 C :    0.015447
   2 O :   -0.375586
   3 C :    0.483875
   4 O :   -0.393662
   5 C :   -0.284766
   6 C :    0.148847
   7 C :   -0.295012
   8 N :   -0.055823
   9 C :    0.192688
  10 S :   -0.438460
  11 N :   -0.228459
  12 C :    0.113988
  13 C :    0.081982
  14 C :   -0.225304
  15 C :   -0.103432
  16 C :   -0.237022
  17 C :    0.322902
  18 O :   -0.352838
  19 C :   -0.335260
  20 H :    0.105110
  21 H :    0.097083
  22 H :    0.094008
  23 H :    0.095221
  24 H :    0.130476
  25 H :    0.128428
  26 H :    0.099292
  27 H :    0.132040
  28 H :    0.188642
  29 H :    0.192169
  30 H :    0.145258
  31 H :    0.149335
  32 H :    0.156613
  33 H :    0.163045
  34 H :    0.238456
  35 H :    0.136599
Sum of atomic charges:    0.0000000

LOEWDIN ATOMIC CHARGES
----------------------
   0 C :    0.107428
   1 C :   -0.001695
   2 O :    0.263777
   3 C :   -0.420971
   4 O :    0.164227
   5 C :   -0.107985
   6 C :   -0.084981
   7 C :    0.128165
   8 N :    0.428756
   9 C :   -0.466871
  10 S :   -0.021299
  11 N :    0.397704
  12 C :   -0.091584
  13 C :   -0.024907
  14 C :    0.012712
  15 C :    0.052810
  16 C :    0.015525
  17 C :   -0.183598
  18 O :    0.392565
  19 C :    0.006617
  20 H :   -0.025072
  21 H :   -0.032580
  22 H :   -0.029650
  23 H :   -0.030388
  24 H :   -0.029028
  25 H :   -0.006511
  26 H :   -0.018766
  27 H :   -0.008768
  28 H :   -0.040527
  29 H :   -0.064644
  30 H :   -0.005873
  31 H :   -0.032758
  32 H :   -0.024455
  33 H :   -0.026815
  34 H :   -0.151025
  35 H :   -0.039535

  Mayer bond orders larger than 0.100000
B(  0-C ,  1-C ) :   0.9481 B(  0-C , 20-H ) :   0.9781 B(  0-C , 21-H ) :   0.9790
B(  0-C , 22-H ) :   0.9831 B(  1-C ,  2-O ) :   0.9035 B(  1-C , 23-H ) :   0.9889
B(  1-C , 24-H ) :   0.9725 B(  2-O ,  3-C ) :   1.1402 B(  3-C ,  4-O ) :   2.0246
B(  3-C ,  5-C ) :   1.0501 B(  5-C ,  6-C ) :   1.6213 B(  5-C , 12-C ) :   0.9891
B(  6-C ,  7-C ) :   0.9500 B(  6-C ,  8-N ) :   1.1680 B(  7-C , 25-H ) :   0.9630
B(  7-C , 26-H ) :   0.9938 B(  7-C , 27-H ) :   0.9646 B(  8-N ,  9-C ) :   1.2257
B(  8-N , 28-H ) :   0.9486 B(  9-C , 10-S ) :   1.6105 B(  9-C , 11-N ) :   1.2739
B( 11-N , 12-C ) :   0.9622 B( 11-N , 29-H ) :   0.9539 B( 12-C , 13-C ) :   0.9543
B( 12-C , 30-H ) :   0.9933 B( 13-C , 14-C ) :   1.3724 B( 13-C , 19-C ) :   1.3406
B( 14-C , 15-C ) :   1.3956 B( 14-C , 31-H ) :   0.9686 B( 15-C , 16-C ) :   1.3968
B( 15-C , 32-H ) :   0.9740 B( 16-C , 17-C ) :   1.3397 B( 16-C , 33-H ) :   0.9659
B( 17-C , 18-O ) :   1.1040 B( 17-C , 19-C ) :   1.3651 B( 18-O , 34-H ) :   0.9840
B( 19-C , 35-H ) :   0.9703

MP2 TOTAL ENERGY:    -1274.307679742 Eh
FINAL SINGLE POINT ENERGY     -1274.307679742210

DIPOLE MOMENT
-------------
                                X             Y             Z
Electronic contribution:    -12.91548      -7.67370      -8.83672
Nuclear contribution   :     14.96086       8.71521       9.36894
                        -----------------------------------------
Total Dipole Moment    :      2.04538       1.04151       0.53222
                        -----------------------------------------
Magnitude (a.u.)       :      2.35618
Magnitude (Debye)      :      5.98892

Rotational constants in cm-1:     0.010002     0.009218     0.005676
Rotational constants in MHz :   299.838023   276.358807   170.171391

                             ****ORCA TERMINATED NORMALLY****
TOTAL RUN TIME: 0 days 2 hours 4 minutes 8 seconds 6 msec
