                         Program Version 5.0.0 -  RELEASE  -
|  1> ! RI-MP2 cc-pVTZ cc-pVTZ/c TightSCF KeepDens NoKeepInts
|  2>
|  3> %pointcharges "srfp_output"
|  4>
|  5> *xyz  0  1
|  6>     C    -7.2971057   17.2219270   -7.4448221
|  7>     C    -7.5998330   15.6903159   -7.5451468
|  8>     O    -8.4262391   15.4364844   -8.7157509
|  9>     C    -9.7606576   15.0053118   -8.5495047
| 10>     O   -10.3220910   14.7239768   -7.5373750
| 11>     C   -10.5624102   14.9507961   -9.7755582
| 12>     C   -10.1171561   15.4598820  -10.9428109
| 13>     C    -8.9102711   16.2756491  -11.2470678
| 14>     N   -10.9547862   15.4458704  -12.0063905
| 15>     C   -12.1727174   14.9439972  -12.0241825
| 16>     S   -13.0956345   14.8455254  -13.3772533
| 17>     N   -12.6110278   14.3635717  -10.8202088
| 18>     C   -11.8873798   14.3126802   -9.5974520
| 19>     C   -11.8397029   12.8342667   -9.2014929
| 20>     C   -12.8731234   12.3469815   -8.3766504
| 21>     C   -12.7815267   11.0402242   -7.8258599
| 22>     C   -11.7184175   10.1870575   -8.1952224
| 23>     C   -10.7064254   10.6893209   -9.0339625
| 24>     O    -9.7121480    9.8185800   -9.3331579
| 25>     C   -10.7661955   12.0062794   -9.5649820
| 26>     H    -6.9348999   17.4902912   -6.4448335
| 27>     H    -8.2022220   17.8023473   -7.6617729
| 28>     H    -6.4372238   17.4868068   -8.0722260
| 29>     H    -6.5971135   15.3078651   -7.7720332
| 30>     H    -7.9610222   15.2590028   -6.6034988
| 31>     H    -8.9453965   16.9925734  -10.4176272
| 32>     H    -8.9546589   16.7494969  -12.2353428
| 33>     H    -7.9329147   15.7848311  -11.3311726
| 34>     H   -10.6142082   15.9081169  -12.8408372
| 35>     H   -13.4922771   13.8670957  -10.8738519
| 36>     H   -12.5146203   14.8733684   -8.8936133
| 37>     H   -13.7384584   12.9613823   -8.1462096
| 38>     H   -13.5753908   10.6297943   -7.2088324
| 39>     H   -11.6277210    9.1494984   -7.8875734
| 40>     H    -9.1596768   10.3122222   -9.9638891
| 41>     H   -10.0340457   12.3602013  -10.2847681
| 42> *
| 43>
| 44>                          ****END OF INPUT****

CARTESIAN COORDINATES (ANGSTROEM)
---------------------------------
  C     -7.297106   17.221927   -7.444822
  C     -7.599833   15.690316   -7.545147
  O     -8.426239   15.436484   -8.715751
  C     -9.760658   15.005312   -8.549505
  O    -10.322091   14.723977   -7.537375
  C    -10.562410   14.950796   -9.775558
  C    -10.117156   15.459882  -10.942811
  C     -8.910271   16.275649  -11.247068
  N    -10.954786   15.445870  -12.006390
  C    -12.172717   14.943997  -12.024183
  S    -13.095634   14.845525  -13.377253
  N    -12.611028   14.363572  -10.820209
  C    -11.887380   14.312680   -9.597452
  C    -11.839703   12.834267   -9.201493
  C    -12.873123   12.346981   -8.376650
  C    -12.781527   11.040224   -7.825860
  C    -11.718417   10.187057   -8.195222
  C    -10.706425   10.689321   -9.033962
  O     -9.712148    9.818580   -9.333158
  C    -10.766196   12.006279   -9.564982
  H     -6.934900   17.490291   -6.444833
  H     -8.202222   17.802347   -7.661773
  H     -6.437224   17.486807   -8.072226
  H     -6.597113   15.307865   -7.772033
  H     -7.961022   15.259003   -6.603499
  H     -8.945396   16.992573  -10.417627
  H     -8.954659   16.749497  -12.235343
  H     -7.932915   15.784831  -11.331173
  H    -10.614208   15.908117  -12.840837
  H    -13.492277   13.867096  -10.873852
  H    -12.514620   14.873368   -8.893613
  H    -13.738458   12.961382   -8.146210
  H    -13.575391   10.629794   -7.208832
  H    -11.627721    9.149498   -7.887573
  H     -9.159677   10.312222   -9.963889
  H    -10.034046   12.360201  -10.284768

 Total Charge           Charge          ....    0
 Multiplicity           Mult            ....    1
 Number of Electrons    NEL             ....  154
 Basis Dimension        Dim             ....  828

ORBITAL ENERGIES
----------------

  NO   OCC          E(Eh)            E(eV)
   0   2.0000     -90.062375     -2450.7218
   1   2.0000     -18.743327      -510.0319
   2   2.0000     -18.734927      -509.8033
   3   2.0000     -18.707083      -509.0456
   4   2.0000     -13.771243      -374.7346
   5   2.0000     -13.746223      -374.0537
   6   2.0000      -9.543751      -259.6987
   7   2.0000      -9.543529      -259.6926
   8   2.0000      -9.469360      -257.6744
   9   2.0000      -9.453931      -257.2545
  10   2.0000      -9.435774      -256.7605
  11   2.0000      -9.425157      -256.4716
  12   2.0000      -9.398744      -255.7528
  13   2.0000      -9.392159      -255.5736
  14   2.0000      -9.385404      -255.3898
  15   2.0000      -9.380370      -255.2528
  16   2.0000      -9.376904      -255.1585
  17   2.0000      -9.375081      -255.1089
  18   2.0000      -9.374726      -255.0993
  19   2.0000      -9.351979      -254.4803
  20   2.0000      -7.069691      -192.3761
  21   2.0000      -4.751792      -129.3028
  22   2.0000      -4.749689      -129.2456
  23   2.0000      -4.749269      -129.2342
  24   2.0000       0.399402        10.8683
  25   2.0000       0.443644        12.0722
  26   2.0000       0.485453        13.2099
  27   2.0000       0.491060        13.3624
  28   2.0000       0.606858        16.5134
  29   2.0000       0.704321        19.1655
  30   2.0000       0.729681        19.8556
  31   2.0000       0.819410        22.2973
  32   2.0000       0.829548        22.5731
  33   2.0000       0.854172        23.2432
  34   2.0000       0.858789        23.3688
  35   2.0000       0.860448        23.4140
  36   2.0000       0.931854        25.3570
  37   2.0000       0.975752        26.5516
  38   2.0000       0.995725        27.0950
  39   2.0000       1.014368        27.6023
  40   2.0000       1.038756        28.2660
  41   2.0000       1.050784        28.5933
  42   2.0000       1.103085        30.0165
  43   2.0000       1.108191        30.1554
  44   2.0000       1.128219        30.7004
  45   2.0000       1.159212        31.5438
  46   2.0000       1.163458        31.6593
  47   2.0000       1.183615        32.2078
  48   2.0000       1.184702        32.2374
  49   2.0000       1.198100        32.6020
  50   2.0000       1.206350        32.8265
  51   2.0000       1.215869        33.0855
  52   2.0000       1.229814        33.4649
  53   2.0000       1.249619        34.0039
  54   2.0000       1.254611        34.1397
  55   2.0000       1.260378        34.2966
  56   2.0000       1.262569        34.3562
  57   2.0000       1.283555        34.9273
  58   2.0000       1.285325        34.9755
  59   2.0000       1.290435        35.1145
  60   2.0000       1.301090        35.4045
  61   2.0000       1.306214        35.5439
  62   2.0000       1.321323        35.9550
  63   2.0000       1.334646        36.3176
  64   2.0000       1.338102        36.4116
  65   2.0000       1.339563        36.4514
  66   2.0000       1.360755        37.0280
  67   2.0000       1.373331        37.3702
  68   2.0000       1.376367        37.4528
  69   2.0000       1.386960        37.7411
  70   2.0000       1.403358        38.1873
  71   2.0000       1.413782        38.4710
  72   2.0000       1.488357        40.5003
  73   2.0000       1.491832        40.5948
  74   2.0000       1.515059        41.2269
  75   2.0000       1.521990        41.4154
  76   2.0000       1.543478        42.0002
  77   0.0000       1.925751        52.4024
  78   0.0000       1.969238        53.5857
  79   0.0000       1.994687        54.2782
  80   0.0000       2.008397        54.6513
  81   0.0000       2.018992        54.9396

MULLIKEN ATOMIC CHARGES
-----------------------
   0 C :   -0.282849
   1 C :    0.008577
   2 O :   -0.355101
   3 C :    0.530039
   4 O :   -0.540256
   5 C :   -0.280546
   6 C :    0.191889
   7 C :   -0.294975
   8 N :   -0.071995
   9 C :    0.342040
  10 S :   -0.712863
  11 N :   -0.252214
  12 C :    0.129408
  13 C :    0.005626
  14 C :   -0.256277
  15 C :   -0.137525
  16 C :   -0.265722
  17 C :    0.320328
  18 O :   -0.442099
  19 C :   -0.346605
  20 H :    0.113435
  21 H :    0.096434
  22 H :    0.102365
  23 H :    0.118539
  24 H :    0.124221
  25 H :    0.131318
  26 H :    0.121346
  27 H :    0.145292
  28 H :    0.248995
  29 H :    0.251111
  30 H :    0.164407
  31 H :    0.189598
  32 H :    0.196826
  33 H :    0.189779
  34 H :    0.321510
  35 H :    0.195943
Sum of atomic charges:    0.0000000

LOEWDIN ATOMIC CHARGES
----------------------
   0 C :    0.111768
   1 C :    0.001918
   2 O :    0.279561
   3 C :   -0.399525
   4 O :    0.069158
   5 C :   -0.106163
   6 C :   -0.056220
   7 C :    0.140965
   8 N :    0.450626
   9 C :   -0.427248
  10 S :   -0.197547
  11 N :    0.417468
  12 C :   -0.087358
  13 C :   -0.043159
  14 C :    0.008063
  15 C :    0.043845
  16 C :    0.001450
  17 C :   -0.195374
  18 O :    0.357758
  19 C :    0.012533
  20 H :   -0.021011
  21 H :   -0.032354
  22 H :   -0.025334
  23 H :   -0.021530
  24 H :   -0.031449
  25 H :   -0.002672
  26 H :   -0.006764
  27 H :   -0.001377
  28 H :   -0.010095
  29 H :   -0.038256
  30 H :   -0.000455
  31 H :   -0.020265
  32 H :   -0.014309
  33 H :   -0.022879
  34 H :   -0.111449
  35 H :   -0.022318

  Mayer bond orders larger than 0.100000
B(  0-C ,  1-C ) :   0.9504 B(  0-C , 20-H ) :   0.9757 B(  0-C , 21-H ) :   0.9781
B(  0-C , 22-H ) :   0.9812 B(  1-C ,  2-O ) :   0.8845 B(  1-C , 23-H ) :   0.9863
B(  1-C , 24-H ) :   0.9724 B(  2-O ,  3-C ) :   1.1951 B(  3-C ,  4-O ) :   1.9524
B(  3-C ,  5-C ) :   1.0763 B(  5-C ,  6-C ) :   1.6025 B(  5-C , 12-C ) :   0.9890
B(  6-C ,  7-C ) :   0.9502 B(  6-C ,  8-N ) :   1.1631 B(  7-C , 25-H ) :   0.9601
B(  7-C , 26-H ) :   0.9878 B(  7-C , 27-H ) :   0.9592 B(  8-N ,  9-C ) :   1.3220
B(  8-N , 28-H ) :   0.9232 B(  9-C , 10-S ) :   1.2917 B(  9-C , 11-N ) :   1.3637
B( 11-N , 12-C ) :   0.9458 B( 11-N , 29-H ) :   0.9291 B( 12-C , 13-C ) :   0.9445
B( 12-C , 30-H ) :   0.9949 B( 13-C , 14-C ) :   1.3677 B( 13-C , 19-C ) :   1.3014
B( 14-C , 15-C ) :   1.3847 B( 14-C , 31-H ) :   0.9595 B( 15-C , 16-C ) :   1.3917
B( 15-C , 32-H ) :   0.9591 B( 16-C , 17-C ) :   1.3241 B( 16-C , 33-H ) :   0.9562
B( 17-C , 18-O ) :   1.1056 B( 17-C , 19-C ) :   1.3787 B( 18-O , 34-H ) :   0.9207
B( 19-C , 35-H ) :   0.9594

MP2 TOTAL ENERGY:    -1274.434029828 Eh
FINAL SINGLE POINT ENERGY     -1274.434029827658

DIPOLE MOMENT
-------------
                                X             Y             Z
Electronic contribution:    -11.75066      -7.04936      -8.66927
Nuclear contribution   :     14.96086       8.71521       9.36894
                        -----------------------------------------
Total Dipole Moment    :      3.21020       1.66585       0.69967
                        -----------------------------------------
Magnitude (a.u.)       :      3.68375
Magnitude (Debye)      :      9.36334

Rotational constants in cm-1:     0.010002     0.009218     0.005676
Rotational constants in MHz :   299.838023   276.358807   170.171391

                             ****ORCA TERMINATED NORMALLY****
TOTAL RUN TIME: 0 days 2 hours 10 minutes 30 seconds 94 msec
