                         Program Version 5.0.0 -  RELEASE  -
|  1> ! RI-MP2 cc-pVTZ cc-pVTZ/c TightSCF KeepDens NoKeepInts
|  2>
|  3> %pointcharges "srfp_output"
|  4>
|  5> *xyz  0  1
|  6>     C    -4.6046447    0.4853632   -4.2787155
|  7>     C    -3.2326595    1.1615521   -4.2945117
|  8>     O    -2.1820369    0.1915645   -4.0752109
|  9>     C    -0.9047454    0.6980003   -4.2085889
| 10>     O    -0.6283951    1.8212002   -4.6715612
| 11>     C     0.1305035   -0.3463538   -3.8615553
| 12>     C     1.4385934   -0.2021663   -4.1219636
| 13>     C     2.1990454    1.0105533   -4.8227353
| 14>     N     2.2987040   -1.2169823   -3.7965952
| 15>     C     1.9593582   -2.4772724   -3.4232591
| 16>     S     3.1183870   -3.6391362   -2.9920809
| 17>     N     0.5916197   -2.7329236   -3.1720403
| 18>     C    -0.4107946   -1.6346771   -3.2051528
| 19>     C    -1.0557141   -1.2698352   -1.8076729
| 20>     C    -2.3220966   -1.7964807   -1.4694977
| 21>     C    -2.9236963   -1.5432762   -0.2090221
| 22>     C    -2.1862199   -0.8372595    0.7627666
| 23>     C    -0.9697180   -0.2546577    0.4072095
| 24>     O    -0.3217830    0.3715511    1.3420758
| 25>     C    -0.3863665   -0.4660510   -0.8637638
| 26>     H    -4.6206000   -0.2249388   -3.4430090
| 27>     H    -4.8427888   -0.1031580   -5.1732097
| 28>     H    -5.4109927    1.2253039   -4.2047041
| 29>     H    -3.1441345    1.7409642   -5.2216767
| 30>     H    -3.1733272    1.8237608   -3.4220732
| 31>     H     1.8524893    2.0239540   -4.5858830
| 32>     H     2.1385266    0.9036440   -5.9127346
| 33>     H     3.2600264    0.9611182   -4.5487549
| 34>     H     3.3071186   -1.1236332   -3.7777953
| 35>     H     0.3256471   -3.6976075   -3.0151648
| 36>     H    -1.1210786   -2.0185760   -3.9476540
| 37>     H    -2.8378812   -2.4186449   -2.1949451
| 38>     H    -3.9055706   -1.9313951    0.0453057
| 39>     H    -2.6279653   -0.6924622    1.7442416
| 40>     H     0.5742583    0.5949888    1.0356209
| 41>     H     0.6376957   -0.1351503   -1.0093903
| 42> *
| 43>
| 44>                          ****END OF INPUT****

CARTESIAN COORDINATES (ANGSTROEM)
---------------------------------
  C     -4.604645    0.485363   -4.278715
  C     -3.232659    1.161552   -4.294512
  O     -2.182037    0.191564   -4.075211
  C     -0.904745    0.698000   -4.208589
  O     -0.628395    1.821200   -4.671561
  C      0.130503   -0.346354   -3.861555
  C      1.438593   -0.202166   -4.121964
  C      2.199045    1.010553   -4.822735
  N      2.298704   -1.216982   -3.796595
  C      1.959358   -2.477272   -3.423259
  S      3.118387   -3.639136   -2.992081
  N      0.591620   -2.732924   -3.172040
  C     -0.410795   -1.634677   -3.205153
  C     -1.055714   -1.269835   -1.807673
  C     -2.322097   -1.796481   -1.469498
  C     -2.923696   -1.543276   -0.209022
  C     -2.186220   -0.837260    0.762767
  C     -0.969718   -0.254658    0.407210
  O     -0.321783    0.371551    1.342076
  C     -0.386367   -0.466051   -0.863764
  H     -4.620600   -0.224939   -3.443009
  H     -4.842789   -0.103158   -5.173210
  H     -5.410993    1.225304   -4.204704
  H     -3.144134    1.740964   -5.221677
  H     -3.173327    1.823761   -3.422073
  H      1.852489    2.023954   -4.585883
  H      2.138527    0.903644   -5.912735
  H      3.260026    0.961118   -4.548755
  H      3.307119   -1.123633   -3.777795
  H      0.325647   -3.697608   -3.015165
  H     -1.121079   -2.018576   -3.947654
  H     -2.837881   -2.418645   -2.194945
  H     -3.905571   -1.931395    0.045306
  H     -2.627965   -0.692462    1.744242
  H      0.574258    0.594989    1.035621
  H      0.637696   -0.135150   -1.009390

 Total Charge           Charge          ....    0
 Multiplicity           Mult            ....    1
 Number of Electrons    NEL             ....  154
 Basis Dimension        Dim             ....  828

ORBITAL ENERGIES
----------------

  NO   OCC          E(Eh)            E(eV)
   0   2.0000     -91.289724     -2484.1197
   1   2.0000     -20.006706      -544.4102
   2   2.0000     -19.983678      -543.7835
   3   2.0000     -19.953739      -542.9689
   4   2.0000     -15.013182      -408.5295
   5   2.0000     -14.991973      -407.9523
   6   2.0000     -10.807969      -294.0998
   7   2.0000     -10.785084      -293.4771
   8   2.0000     -10.720518      -291.7201
   9   2.0000     -10.700433      -291.1736
  10   2.0000     -10.696266      -291.0602
  11   2.0000     -10.676499      -290.5223
  12   2.0000     -10.654166      -289.9146
  13   2.0000     -10.645422      -289.6766
  14   2.0000     -10.640383      -289.5395
  15   2.0000     -10.631308      -289.2926
  16   2.0000     -10.628771      -289.2236
  17   2.0000     -10.623067      -289.0684
  18   2.0000     -10.621618      -289.0289
  19   2.0000     -10.603519      -288.5364
  20   2.0000      -8.294415      -225.7025
  21   2.0000      -5.976127      -162.6187
  22   2.0000      -5.974293      -162.5688
  23   2.0000      -5.973822      -162.5560
  24   2.0000      -0.844773       -22.9874
  25   2.0000      -0.830074       -22.5875
  26   2.0000      -0.754173       -20.5221
  27   2.0000      -0.724898       -19.7255
  28   2.0000      -0.611074       -16.6282
  29   2.0000      -0.538041       -14.6408
  30   2.0000      -0.503034       -13.6883
  31   2.0000      -0.422559       -11.4984
  32   2.0000      -0.421148       -11.4600
  33   2.0000      -0.392417       -10.6782
  34   2.0000      -0.372457       -10.1351
  35   2.0000      -0.363691        -9.8965
  36   2.0000      -0.304200        -8.2777
  37   2.0000      -0.272641        -7.4189
  38   2.0000      -0.241878        -6.5818
  39   2.0000      -0.229797        -6.2531
  40   2.0000      -0.206569        -5.6210
  41   2.0000      -0.200785        -5.4636
  42   2.0000      -0.156592        -4.2611
  43   2.0000      -0.132450        -3.6041
  44   2.0000      -0.102818        -2.7978
  45   2.0000      -0.085407        -2.3240
  46   2.0000      -0.078741        -2.1427
  47   2.0000      -0.068197        -1.8557
  48   2.0000      -0.060657        -1.6506
  49   2.0000      -0.050152        -1.3647
  50   2.0000      -0.031317        -0.8522
  51   2.0000      -0.024257        -0.6601
  52   2.0000      -0.008760        -0.2384
  53   2.0000      -0.006250        -0.1701
  54   2.0000       0.010450         0.2844
  55   2.0000       0.019187         0.5221
  56   2.0000       0.024433         0.6648
  57   2.0000       0.036495         0.9931
  58   2.0000       0.044287         1.2051
  59   2.0000       0.053003         1.4423
  60   2.0000       0.059870         1.6291
  61   2.0000       0.066125         1.7993
  62   2.0000       0.086251         2.3470
  63   2.0000       0.091351         2.4858
  64   2.0000       0.096418         2.6237
  65   2.0000       0.097515         2.6535
  66   2.0000       0.114409         3.1132
  67   2.0000       0.119354         3.2478
  68   2.0000       0.129750         3.5307
  69   2.0000       0.143165         3.8957
  70   2.0000       0.147159         4.0044
  71   2.0000       0.159063         4.3283
  72   2.0000       0.256947         6.9919
  73   2.0000       0.259379         7.0581
  74   2.0000       0.273544         7.4435
  75   2.0000       0.284594         7.7442
  76   2.0000       0.297577         8.0975
  77   0.0000       0.680204        18.5093
  78   0.0000       0.716407        19.4944
  79   0.0000       0.748559        20.3693
  80   0.0000       0.757912        20.6238
  81   0.0000       0.765881        20.8407

MULLIKEN ATOMIC CHARGES
-----------------------
   0 C :   -0.278789
   1 C :    0.035935
   2 O :   -0.341773
   3 C :    0.514200
   4 O :   -0.568822
   5 C :   -0.219436
   6 C :    0.124560
   7 C :   -0.251089
   8 N :   -0.114460
   9 C :    0.304437
  10 S :   -0.610043
  11 N :   -0.265322
  12 C :    0.076131
  13 C :    0.020951
  14 C :   -0.211317
  15 C :   -0.146002
  16 C :   -0.290955
  17 C :    0.268004
  18 O :   -0.397035
  19 C :   -0.321558
  20 H :    0.101430
  21 H :    0.101173
  22 H :    0.113342
  23 H :    0.111701
  24 H :    0.098236
  25 H :    0.134154
  26 H :    0.131287
  27 H :    0.117519
  28 H :    0.260578
  29 H :    0.259462
  30 H :    0.169736
  31 H :    0.185468
  32 H :    0.199707
  33 H :    0.181264
  34 H :    0.323244
  35 H :    0.184079
Sum of atomic charges:   -0.0000000

LOEWDIN ATOMIC CHARGES
----------------------
   0 C :    0.111369
   1 C :   -0.015228
   2 O :    0.303151
   3 C :   -0.345006
   4 O :   -0.021040
   5 C :   -0.106855
   6 C :   -0.053337
   7 C :    0.156763
   8 N :    0.426611
   9 C :   -0.367578
  10 S :   -0.190535
  11 N :    0.385978
  12 C :   -0.028382
  13 C :   -0.036013
  14 C :    0.009538
  15 C :    0.044709
  16 C :   -0.012006
  17 C :   -0.270526
  18 O :    0.418420
  19 C :    0.006682
  20 H :   -0.025189
  21 H :   -0.025962
  22 H :   -0.014498
  23 H :   -0.026573
  24 H :   -0.025042
  25 H :   -0.017882
  26 H :   -0.010204
  27 H :   -0.014361
  28 H :   -0.019330
  29 H :   -0.048079
  30 H :   -0.014002
  31 H :   -0.023012
  32 H :   -0.012743
  33 H :   -0.023308
  34 H :   -0.094813
  35 H :   -0.021717

  Mayer bond orders larger than 0.100000
B(  0-C ,  1-C ) :   0.9717 B(  0-C , 20-H ) :   0.9745 B(  0-C , 21-H ) :   0.9774
B(  0-C , 22-H ) :   0.9755 B(  1-C ,  2-O ) :   0.8843 B(  1-C , 23-H ) :   0.9748
B(  1-C , 24-H ) :   0.9769 B(  2-O ,  3-C ) :   1.2098 B(  3-C ,  4-O ) :   1.8693
B(  3-C ,  5-C ) :   1.0960 B(  5-C ,  6-C ) :   1.6091 B(  5-C , 12-C ) :   0.9632
B(  6-C ,  7-C ) :   0.9579 B(  6-C ,  8-N ) :   1.1735 B(  7-C , 25-H ) :   0.9665
B(  7-C , 26-H ) :   0.9610 B(  7-C , 27-H ) :   0.9789 B(  8-N ,  9-C ) :   1.2789
B(  8-N , 28-H ) :   0.9156 B(  9-C , 10-S ) :   1.4071 B(  9-C , 11-N ) :   1.3256
B( 11-N , 12-C ) :   0.9672 B( 11-N , 29-H ) :   0.9202 B( 12-C , 13-C ) :   0.9548
B( 12-C , 30-H ) :   0.9925 B( 13-C , 14-C ) :   1.3512 B( 13-C , 19-C ) :   1.3101
B( 14-C , 15-C ) :   1.3781 B( 14-C , 31-H ) :   0.9632 B( 15-C , 16-C ) :   1.3691
B( 15-C , 32-H ) :   0.9581 B( 16-C , 17-C ) :   1.3360 B( 16-C , 33-H ) :   0.9580
B( 17-C , 18-O ) :   1.1545 B( 17-C , 19-C ) :   1.3708 B( 18-O , 34-H ) :   0.9126
B( 19-C , 35-H ) :   0.9604

MP2 TOTAL ENERGY:    -1274.416953912 Eh
FINAL SINGLE POINT ENERGY     -1274.416953912488

DIPOLE MOMENT
-------------
                                X             Y             Z
Electronic contribution:     12.81200      -7.90545       3.59396
Nuclear contribution   :    -13.93215       8.89730      -4.36324
                        -----------------------------------------
Total Dipole Moment    :     -1.12015       0.99186      -0.76928
                        -----------------------------------------
Magnitude (a.u.)       :      1.68235
Magnitude (Debye)      :      4.27620

Rotational constants in cm-1:     0.011307     0.008276     0.006096
Rotational constants in MHz :   338.979494   248.110187   182.753329

                             ****ORCA TERMINATED NORMALLY****
TOTAL RUN TIME: 0 days 2 hours 39 minutes 3 seconds 560 msec
