                         Program Version 5.0.0 -  RELEASE  -
|  1> ! RI-MP2 cc-pVTZ cc-pVTZ/c TightSCF KeepDens NoKeepInts
|  2>
|  3> *xyz  0  1
|  4>     C    -4.6046447    0.4853632   -4.2787155
|  5>     C    -3.2326595    1.1615521   -4.2945117
|  6>     O    -2.1820369    0.1915645   -4.0752109
|  7>     C    -0.9047454    0.6980003   -4.2085889
|  8>     O    -0.6283951    1.8212002   -4.6715612
|  9>     C     0.1305035   -0.3463538   -3.8615553
| 10>     C     1.4385934   -0.2021663   -4.1219636
| 11>     C     2.1990454    1.0105533   -4.8227353
| 12>     N     2.2987040   -1.2169823   -3.7965952
| 13>     C     1.9593582   -2.4772724   -3.4232591
| 14>     S     3.1183870   -3.6391362   -2.9920809
| 15>     N     0.5916197   -2.7329236   -3.1720403
| 16>     C    -0.4107946   -1.6346771   -3.2051528
| 17>     C    -1.0557141   -1.2698352   -1.8076729
| 18>     C    -2.3220966   -1.7964807   -1.4694977
| 19>     C    -2.9236963   -1.5432762   -0.2090221
| 20>     C    -2.1862199   -0.8372595    0.7627666
| 21>     C    -0.9697180   -0.2546577    0.4072095
| 22>     O    -0.3217830    0.3715511    1.3420758
| 23>     C    -0.3863665   -0.4660510   -0.8637638
| 24>     H    -4.6206000   -0.2249388   -3.4430090
| 25>     H    -4.8427888   -0.1031580   -5.1732097
| 26>     H    -5.4109927    1.2253039   -4.2047041
| 27>     H    -3.1441345    1.7409642   -5.2216767
| 28>     H    -3.1733272    1.8237608   -3.4220732
| 29>     H     1.8524893    2.0239540   -4.5858830
| 30>     H     2.1385266    0.9036440   -5.9127346
| 31>     H     3.2600264    0.9611182   -4.5487549
| 32>     H     3.3071186   -1.1236332   -3.7777953
| 33>     H     0.3256471   -3.6976075   -3.0151648
| 34>     H    -1.1210786   -2.0185760   -3.9476540
| 35>     H    -2.8378812   -2.4186449   -2.1949451
| 36>     H    -3.9055706   -1.9313951    0.0453057
| 37>     H    -2.6279653   -0.6924622    1.7442416
| 38>     H     0.5742583    0.5949888    1.0356209
| 39>     H     0.6376957   -0.1351503   -1.0093903
| 40> *
| 41>
| 42>                          ****END OF INPUT****

CARTESIAN COORDINATES (ANGSTROEM)
---------------------------------
  C     -4.604645    0.485363   -4.278715
  C     -3.232659    1.161552   -4.294512
  O     -2.182037    0.191564   -4.075211
  C     -0.904745    0.698000   -4.208589
  O     -0.628395    1.821200   -4.671561
  C      0.130503   -0.346354   -3.861555
  C      1.438593   -0.202166   -4.121964
  C      2.199045    1.010553   -4.822735
  N      2.298704   -1.216982   -3.796595
  C      1.959358   -2.477272   -3.423259
  S      3.118387   -3.639136   -2.992081
  N      0.591620   -2.732924   -3.172040
  C     -0.410795   -1.634677   -3.205153
  C     -1.055714   -1.269835   -1.807673
  C     -2.322097   -1.796481   -1.469498
  C     -2.923696   -1.543276   -0.209022
  C     -2.186220   -0.837260    0.762767
  C     -0.969718   -0.254658    0.407210
  O     -0.321783    0.371551    1.342076
  C     -0.386367   -0.466051   -0.863764
  H     -4.620600   -0.224939   -3.443009
  H     -4.842789   -0.103158   -5.173210
  H     -5.410993    1.225304   -4.204704
  H     -3.144134    1.740964   -5.221677
  H     -3.173327    1.823761   -3.422073
  H      1.852489    2.023954   -4.585883
  H      2.138527    0.903644   -5.912735
  H      3.260026    0.961118   -4.548755
  H      3.307119   -1.123633   -3.777795
  H      0.325647   -3.697608   -3.015165
  H     -1.121079   -2.018576   -3.947654
  H     -2.837881   -2.418645   -2.194945
  H     -3.905571   -1.931395    0.045306
  H     -2.627965   -0.692462    1.744242
  H      0.574258    0.594989    1.035621
  H      0.637696   -0.135150   -1.009390

 Total Charge           Charge          ....    0
 Multiplicity           Mult            ....    1
 Number of Electrons    NEL             ....  154
 Basis Dimension        Dim             ....  828

ORBITAL ENERGIES
----------------

  NO   OCC          E(Eh)            E(eV)
   0   2.0000     -91.894582     -2500.5787
   1   2.0000     -20.612695      -560.9000
   2   2.0000     -20.599856      -560.5506
   3   2.0000     -20.548565      -559.1549
   4   2.0000     -15.635184      -425.4550
   5   2.0000     -15.610242      -424.7763
   6   2.0000     -11.404225      -310.3247
   7   2.0000     -11.393362      -310.0291
   8   2.0000     -11.337370      -308.5055
   9   2.0000     -11.314399      -307.8805
  10   2.0000     -11.311606      -307.8044
  11   2.0000     -11.295971      -307.3790
  12   2.0000     -11.267661      -306.6087
  13   2.0000     -11.263061      -306.4835
  14   2.0000     -11.261632      -306.4446
  15   2.0000     -11.253855      -306.2330
  16   2.0000     -11.242335      -305.9195
  17   2.0000     -11.235767      -305.7408
  18   2.0000     -11.232892      -305.6625
  19   2.0000     -11.230875      -305.6077
  20   2.0000      -8.898030      -242.1277
  21   2.0000      -6.579411      -179.0349
  22   2.0000      -6.577578      -178.9850
  23   2.0000      -6.577000      -178.9693
  24   2.0000      -1.447320       -39.3836
  25   2.0000      -1.443956       -39.2920
  26   2.0000      -1.349726       -36.7279
  27   2.0000      -1.344291       -36.5800
  28   2.0000      -1.231310       -33.5056
  29   2.0000      -1.149419       -31.2773
  30   2.0000      -1.117728       -30.4149
  31   2.0000      -1.042124       -28.3576
  32   2.0000      -1.034540       -28.1513
  33   2.0000      -1.005441       -27.3594
  34   2.0000      -0.993441       -27.0329
  35   2.0000      -0.975972       -26.5575
  36   2.0000      -0.923386       -25.1266
  37   2.0000      -0.887894       -24.1608
  38   2.0000      -0.857641       -23.3376
  39   2.0000      -0.846231       -23.0271
  40   2.0000      -0.824096       -22.4248
  41   2.0000      -0.814112       -22.1531
  42   2.0000      -0.769937       -20.9511
  43   2.0000      -0.747696       -20.3458
  44   2.0000      -0.714934       -19.4543
  45   2.0000      -0.695134       -18.9156
  46   2.0000      -0.683846       -18.6084
  47   2.0000      -0.679978       -18.5031
  48   2.0000      -0.677494       -18.4355
  49   2.0000      -0.663896       -18.0655
  50   2.0000      -0.645147       -17.5553
  51   2.0000      -0.643745       -17.5172
  52   2.0000      -0.623061       -16.9544
  53   2.0000      -0.616552       -16.7772
  54   2.0000      -0.606615       -16.5068
  55   2.0000      -0.600505       -16.3406
  56   2.0000      -0.587542       -15.9878
  57   2.0000      -0.576396       -15.6845
  58   2.0000      -0.575425       -15.6581
  59   2.0000      -0.569308       -15.4917
  60   2.0000      -0.561465       -15.2782
  61   2.0000      -0.555756       -15.1229
  62   2.0000      -0.530259       -14.4291
  63   2.0000      -0.520112       -14.1530
  64   2.0000      -0.516188       -14.0462
  65   2.0000      -0.512070       -13.9341
  66   2.0000      -0.504074       -13.7165
  67   2.0000      -0.492903       -13.4126
  68   2.0000      -0.479383       -13.0447
  69   2.0000      -0.464671       -12.6443
  70   2.0000      -0.459711       -12.5094
  71   2.0000      -0.450230       -12.2514
  72   2.0000      -0.358516        -9.7557
  73   2.0000      -0.347671        -9.4606
  74   2.0000      -0.328211        -8.9311
  75   2.0000      -0.317880        -8.6500
  76   2.0000      -0.311426        -8.4743
  77   0.0000       0.070370         1.9149
  78   0.0000       0.103248         2.8095
  79   0.0000       0.118060         3.2126
  80   0.0000       0.130505         3.5512
  81   0.0000       0.137136         3.7316

MULLIKEN ATOMIC CHARGES
-----------------------
   0 C :   -0.274818
   1 C :    0.048293
   2 O :   -0.344299
   3 C :    0.467485
   4 O :   -0.442796
   5 C :   -0.211899
   6 C :    0.109203
   7 C :   -0.259168
   8 N :   -0.107344
   9 C :    0.223142
  10 S :   -0.444991
  11 N :   -0.247296
  12 C :    0.047781
  13 C :    0.064253
  14 C :   -0.212612
  15 C :   -0.120510
  16 C :   -0.228968
  17 C :    0.317800
  18 O :   -0.327397
  19 C :   -0.312590
  20 H :    0.096368
  21 H :    0.092546
  22 H :    0.099179
  23 H :    0.109282
  24 H :    0.085461
  25 H :    0.148151
  26 H :    0.125077
  27 H :    0.088303
  28 H :    0.200617
  29 H :    0.207704
  30 H :    0.156893
  31 H :    0.149486
  32 H :    0.164370
  33 H :    0.159673
  34 H :    0.243175
  35 H :    0.130447
Sum of atomic charges:   -0.0000000

LOEWDIN ATOMIC CHARGES
----------------------
   0 C :    0.106408
   1 C :   -0.014437
   2 O :    0.298882
   3 C :   -0.363214
   4 O :    0.063503
   5 C :   -0.103030
   6 C :   -0.073064
   7 C :    0.148706
   8 N :    0.408340
   9 C :   -0.395162
  10 S :   -0.080584
  11 N :    0.371390
  12 C :   -0.034349
  13 C :   -0.027384
  14 C :    0.003800
  15 C :    0.049924
  16 C :    0.015187
  17 C :   -0.241455
  18 O :    0.448421
  19 C :    0.004152
  20 H :   -0.026668
  21 H :   -0.028936
  22 H :   -0.021197
  23 H :   -0.026894
  24 H :   -0.027895
  25 H :   -0.013567
  26 H :   -0.013202
  27 H :   -0.028673
  28 H :   -0.049375
  29 H :   -0.072559
  30 H :   -0.019582
  31 H :   -0.035839
  32 H :   -0.023243
  33 H :   -0.026333
  34 H :   -0.134999
  35 H :   -0.037071

  Mayer bond orders larger than 0.100000
B(  0-C ,  1-C ) :   0.9671 B(  0-C , 20-H ) :   0.9760 B(  0-C , 21-H ) :   0.9793
B(  0-C , 22-H ) :   0.9782 B(  1-C ,  2-O ) :   0.9036 B(  1-C , 23-H ) :   0.9768
B(  1-C , 24-H ) :   0.9802 B(  2-O ,  3-C ) :   1.1765 B(  3-C ,  4-O ) :   1.9456
B(  3-C ,  5-C ) :   1.0627 B(  5-C ,  6-C ) :   1.6470 B(  5-C , 12-C ) :   0.9681
B(  6-C ,  7-C ) :   0.9621 B(  6-C ,  8-N ) :   1.1544 B(  7-C , 25-H ) :   0.9629
B(  7-C , 26-H ) :   0.9650 B(  7-C , 27-H ) :   0.9832 B(  8-N ,  9-C ) :   1.2211
B(  8-N , 28-H ) :   0.9404 B(  9-C , 10-S ) :   1.5586 B(  9-C , 11-N ) :   1.2694
B( 11-N , 12-C ) :   0.9679 B( 11-N , 29-H ) :   0.9486 B( 12-C , 13-C ) :   0.9590
B( 12-C , 30-H ) :   0.9938 B( 13-C , 14-C ) :   1.3640 B( 13-C , 19-C ) :   1.3492
B( 14-C , 15-C ) :   1.3754 B( 14-C , 31-H ) :   0.9729 B( 15-C , 16-C ) :   1.3827
B( 15-C , 32-H ) :   0.9709 B( 16-C , 17-C ) :   1.3425 B( 16-C , 33-H ) :   0.9675
B( 17-C , 18-O ) :   1.1457 B( 17-C , 19-C ) :   1.3553 B( 18-O , 34-H ) :   0.9744
B( 19-C , 35-H ) :   0.9699

MP2 TOTAL ENERGY:    -1274.314201304 Eh
FINAL SINGLE POINT ENERGY     -1274.314201303687

DIPOLE MOMENT
-------------
                                X             Y             Z
Electronic contribution:     12.91079      -7.90900       4.00598
Nuclear contribution   :    -13.93215       8.89730      -4.36324
                        -----------------------------------------
Total Dipole Moment    :     -1.02137       0.98830      -0.35726
                        -----------------------------------------
Magnitude (a.u.)       :      1.46545
Magnitude (Debye)      :      3.72489

Rotational constants in cm-1:     0.011307     0.008276     0.006096
Rotational constants in MHz :   338.979494   248.110187   182.753329

                             ****ORCA TERMINATED NORMALLY****
TOTAL RUN TIME: 0 days 2 hours 20 minutes 21 seconds 128 msec
