                         Program Version 5.0.0 -  RELEASE  -
|  1> ! RI-MP2 cc-pVTZ cc-pVTZ/c TightSCF KeepDens NoKeepInts
|  2>
|  3> %pointcharges "srfp_output"
|  4>
|  5> *xyz  0  1
|  6>     C    12.1472730    6.8738066    5.3621989
|  7>     C    11.7865898    8.2662458    4.7983190
|  8>     O    11.0971528    8.1513518    3.5489080
|  9>     C    10.6181436    9.2703305    2.9514667
| 10>     O    10.6920929   10.3767966    3.4658855
| 11>     C     9.8955081    9.1045663    1.6605375
| 12>     C     9.3575448    7.9908688    1.1573053
| 13>     C     9.4645804    6.5602418    1.6959428
| 14>     N     8.8015595    8.0245658   -0.1137895
| 15>     C     9.0299123    9.0464634   -1.0436739
| 16>     S     8.5002551    8.8615145   -2.6268666
| 17>     N     9.7131264   10.1120796   -0.5927499
| 18>     C     9.8758450   10.3404907    0.8744803
| 19>     C     8.7765943   11.3287463    1.2104619
| 20>     C     7.6094401   10.8912837    1.9697787
| 21>     C     6.5325015   11.8293835    2.1519650
| 22>     C     6.5849024   13.0957736    1.5722225
| 23>     C     7.6704791   13.5271411    0.8567214
| 24>     O     7.6601539   14.7254448    0.1496063
| 25>     C     8.7178823   12.6314862    0.6308742
| 26>     H    11.3474412    6.1234251    5.3426040
| 27>     H    12.5187141    6.9049546    6.3938243
| 28>     H    13.0197387    6.5027236    4.8105766
| 29>     H    11.1121241    8.7111685    5.5401613
| 30>     H    12.6968824    8.8750131    4.7353952
| 31>     H     8.6417178    5.9249594    1.3459375
| 32>     H     9.3486305    6.6099931    2.7855620
| 33>     H    10.4641407    6.1487883    1.5094930
| 34>     H     8.2252872    7.2641330   -0.4538200
| 35>     H    10.0189532   10.8109006   -1.2591473
| 36>     H    10.8179254   10.8860892    1.0086316
| 37>     H     7.6168910    9.8916903    2.3942237
| 38>     H     5.7268437   11.4787544    2.7902213
| 39>     H     5.6958276   13.7046039    1.7073801
| 40>     H     6.7838789   15.0667968    0.3993074
| 41>     H     9.5926039   12.9976251    0.1015346
| 42> *
| 43>
| 44>                          ****END OF INPUT****

CARTESIAN COORDINATES (ANGSTROEM)
---------------------------------
  C     12.147273    6.873807    5.362199
  C     11.786590    8.266246    4.798319
  O     11.097153    8.151352    3.548908
  C     10.618144    9.270331    2.951467
  O     10.692093   10.376797    3.465885
  C      9.895508    9.104566    1.660537
  C      9.357545    7.990869    1.157305
  C      9.464580    6.560242    1.695943
  N      8.801559    8.024566   -0.113790
  C      9.029912    9.046463   -1.043674
  S      8.500255    8.861514   -2.626867
  N      9.713126   10.112080   -0.592750
  C      9.875845   10.340491    0.874480
  C      8.776594   11.328746    1.210462
  C      7.609440   10.891284    1.969779
  C      6.532501   11.829383    2.151965
  C      6.584902   13.095774    1.572223
  C      7.670479   13.527141    0.856721
  O      7.660154   14.725445    0.149606
  C      8.717882   12.631486    0.630874
  H     11.347441    6.123425    5.342604
  H     12.518714    6.904955    6.393824
  H     13.019739    6.502724    4.810577
  H     11.112124    8.711168    5.540161
  H     12.696882    8.875013    4.735395
  H      8.641718    5.924959    1.345937
  H      9.348631    6.609993    2.785562
  H     10.464141    6.148788    1.509493
  H      8.225287    7.264133   -0.453820
  H     10.018953   10.810901   -1.259147
  H     10.817925   10.886089    1.008632
  H      7.616891    9.891690    2.394224
  H      5.726844   11.478754    2.790221
  H      5.695828   13.704604    1.707380
  H      6.783879   15.066797    0.399307
  H      9.592604   12.997625    0.101535

 Total Charge           Charge          ....    0
 Multiplicity           Mult            ....    1
 Number of Electrons    NEL             ....  154
 Basis Dimension        Dim             ....  828

ORBITAL ENERGIES
----------------

  NO   OCC          E(Eh)            E(eV)
   0   2.0000     -91.644961     -2493.7862
   1   2.0000     -20.326785      -553.1200
   2   2.0000     -20.305984      -552.5539
   3   2.0000     -20.280671      -551.8651
   4   2.0000     -15.343890      -417.5285
   5   2.0000     -15.341032      -417.4507
   6   2.0000     -11.128725      -302.8280
   7   2.0000     -11.125776      -302.7477
   8   2.0000     -11.046172      -300.5816
   9   2.0000     -11.023609      -299.9676
  10   2.0000     -11.022409      -299.9350
  11   2.0000     -11.001293      -299.3604
  12   2.0000     -10.980220      -298.7870
  13   2.0000     -10.967878      -298.4511
  14   2.0000     -10.965652      -298.3906
  15   2.0000     -10.957593      -298.1713
  16   2.0000     -10.954400      -298.0844
  17   2.0000     -10.953474      -298.0592
  18   2.0000     -10.948971      -297.9366
  19   2.0000     -10.926814      -297.3337
  20   2.0000      -8.650869      -235.4021
  21   2.0000      -6.332829      -172.3250
  22   2.0000      -6.330892      -172.2723
  23   2.0000      -6.330537      -172.2627
  24   2.0000      -1.183818       -32.2133
  25   2.0000      -1.114373       -30.3236
  26   2.0000      -1.090516       -29.6745
  27   2.0000      -1.063654       -28.9435
  28   2.0000      -0.960408       -26.1340
  29   2.0000      -0.871725       -23.7208
  30   2.0000      -0.843610       -22.9558
  31   2.0000      -0.757857       -20.6223
  32   2.0000      -0.743946       -20.2438
  33   2.0000      -0.725194       -19.7335
  34   2.0000      -0.714832       -19.4516
  35   2.0000      -0.705544       -19.1988
  36   2.0000      -0.642063       -17.4714
  37   2.0000      -0.604401       -16.4466
  38   2.0000      -0.570922       -15.5356
  39   2.0000      -0.551225       -14.9996
  40   2.0000      -0.538561       -14.6550
  41   2.0000      -0.527457       -14.3528
  42   2.0000      -0.484196       -13.1756
  43   2.0000      -0.462529       -12.5860
  44   2.0000      -0.434760       -11.8304
  45   2.0000      -0.413387       -11.2488
  46   2.0000      -0.408148       -11.1063
  47   2.0000      -0.399063       -10.8591
  48   2.0000      -0.391979       -10.6663
  49   2.0000      -0.383255       -10.4289
  50   2.0000      -0.377595       -10.2749
  51   2.0000      -0.357377        -9.7247
  52   2.0000      -0.347868        -9.4660
  53   2.0000      -0.318402        -8.6642
  54   2.0000      -0.307755        -8.3744
  55   2.0000      -0.303465        -8.2577
  56   2.0000      -0.301817        -8.2129
  57   2.0000      -0.297256        -8.0888
  58   2.0000      -0.292819        -7.9680
  59   2.0000      -0.280075        -7.6212
  60   2.0000      -0.275960        -7.5093
  61   2.0000      -0.257138        -6.9971
  62   2.0000      -0.250603        -6.8192
  63   2.0000      -0.241837        -6.5807
  64   2.0000      -0.233715        -6.3597
  65   2.0000      -0.230019        -6.2591
  66   2.0000      -0.213938        -5.8216
  67   2.0000      -0.202582        -5.5125
  68   2.0000      -0.196952        -5.3593
  69   2.0000      -0.188332        -5.1248
  70   2.0000      -0.179069        -4.8727
  71   2.0000      -0.174803        -4.7566
  72   2.0000      -0.093910        -2.5554
  73   2.0000      -0.089917        -2.4468
  74   2.0000      -0.065422        -1.7802
  75   2.0000      -0.052987        -1.4418
  76   2.0000      -0.036616        -0.9964
  77   0.0000       0.354713         9.6522
  78   0.0000       0.395494        10.7620
  79   0.0000       0.410486        11.1699
  80   0.0000       0.427817        11.6415
  81   0.0000       0.435525        11.8512

MULLIKEN ATOMIC CHARGES
-----------------------
   0 C :   -0.280942
   1 C :    0.041589
   2 O :   -0.305567
   3 C :    0.499880
   4 O :   -0.587758
   5 C :   -0.187867
   6 C :    0.169399
   7 C :   -0.265449
   8 N :   -0.170684
   9 C :    0.381352
  10 S :   -0.767079
  11 N :   -0.203820
  12 C :    0.084737
  13 C :    0.032111
  14 C :   -0.283168
  15 C :   -0.159796
  16 C :   -0.283544
  17 C :    0.353261
  18 O :   -0.466781
  19 C :   -0.279349
  20 H :    0.109002
  21 H :    0.112721
  22 H :    0.096987
  23 H :    0.091954
  24 H :    0.108624
  25 H :    0.128886
  26 H :    0.122326
  27 H :    0.142352
  28 H :    0.262542
  29 H :    0.262894
  30 H :    0.172434
  31 H :    0.205450
  32 H :    0.198952
  33 H :    0.172704
  34 H :    0.327547
  35 H :    0.164103
Sum of atomic charges:   -0.0000000

LOEWDIN ATOMIC CHARGES
----------------------
   0 C :    0.114500
   1 C :   -0.016805
   2 O :    0.332023
   3 C :   -0.383990
   4 O :    0.007977
   5 C :   -0.105493
   6 C :   -0.049106
   7 C :    0.147111
   8 N :    0.420947
   9 C :   -0.392384
  10 S :   -0.268415
  11 N :    0.441995
  12 C :   -0.050703
  13 C :   -0.030959
  14 C :    0.024258
  15 C :    0.039370
  16 C :   -0.005694
  17 C :   -0.181941
  18 O :    0.326230
  19 C :    0.018423
  20 H :   -0.025036
  21 H :   -0.015307
  22 H :   -0.026869
  23 H :   -0.029564
  24 H :   -0.022911
  25 H :   -0.010145
  26 H :   -0.010382
  27 H :   -0.003465
  28 H :   -0.024848
  29 H :   -0.028789
  30 H :    0.009252
  31 H :   -0.033201
  32 H :   -0.013250
  33 H :   -0.012104
  34 H :   -0.117304
  35 H :   -0.023422

  Mayer bond orders larger than 0.100000
B(  0-C ,  1-C ) :   0.9711 B(  0-C , 20-H ) :   0.9750 B(  0-C , 21-H ) :   0.9744
B(  0-C , 22-H ) :   0.9798 B(  1-C ,  2-O ) :   0.8877 B(  1-C , 23-H ) :   0.9775
B(  1-C , 24-H ) :   0.9759 B(  2-O ,  3-C ) :   1.2492 B(  3-C ,  4-O ) :   1.8711
B(  3-C ,  5-C ) :   1.0617 B(  5-C ,  6-C ) :   1.6220 B(  5-C , 12-C ) :   0.9882
B(  6-C ,  7-C ) :   0.9642 B(  6-C ,  8-N ) :   1.1522 B(  7-C , 25-H ) :   0.9774
B(  7-C , 26-H ) :   0.9693 B(  7-C , 27-H ) :   0.9559 B(  8-N ,  9-C ) :   1.2486
B(  8-N , 28-H ) :   0.9210 B(  9-C , 10-S ) :   1.1799 B(  9-C , 11-N ) :   1.4718
B( 11-N , 12-C ) :   0.9104 B( 11-N , 29-H ) :   0.9160 B( 12-C , 13-C ) :   0.9601
B( 12-C , 30-H ) :   0.9900 B( 13-C , 14-C ) :   1.3290 B( 13-C , 19-C ) :   1.3782
B( 14-C , 15-C ) :   1.3949 B( 14-C , 31-H ) :   0.9507 B( 15-C , 16-C ) :   1.3364
B( 15-C , 32-H ) :   0.9591 B( 16-C , 17-C ) :   1.3409 B( 16-C , 33-H ) :   0.9733
B( 17-C , 18-O ) :   1.0748 B( 17-C , 19-C ) :   1.3599 B( 18-O , 34-H ) :   0.9210
B( 19-C , 35-H ) :   0.9592

MP2 TOTAL ENERGY:    -1274.464053600 Eh
FINAL SINGLE POINT ENERGY     -1274.464053599893

DIPOLE MOMENT
-------------
                                X             Y             Z
Electronic contribution:     -5.45292       8.91523     -14.44114
Nuclear contribution   :      5.74730     -10.57748      17.85570
                        -----------------------------------------
Total Dipole Moment    :      0.29438      -1.66225       3.41456
                        -----------------------------------------
Magnitude (a.u.)       :      3.80907
Magnitude (Debye)      :      9.68188

Rotational constants in cm-1:     0.012736     0.007197     0.005179
Rotational constants in MHz :   381.812124   215.757809   155.267292

                             ****ORCA TERMINATED NORMALLY****
TOTAL RUN TIME: 0 days 1 hours 56 minutes 58 seconds 718 msec
