                         Program Version 5.0.0 -  RELEASE  -
|  1> ! RI-MP2 cc-pVTZ cc-pVTZ/c TightSCF KeepDens NoKeepInts
|  2>
|  3> *xyz  0  1
|  4>     C    12.1472730    6.8738066    5.3621989
|  5>     C    11.7865898    8.2662458    4.7983190
|  6>     O    11.0971528    8.1513518    3.5489080
|  7>     C    10.6181436    9.2703305    2.9514667
|  8>     O    10.6920929   10.3767966    3.4658855
|  9>     C     9.8955081    9.1045663    1.6605375
| 10>     C     9.3575448    7.9908688    1.1573053
| 11>     C     9.4645804    6.5602418    1.6959428
| 12>     N     8.8015595    8.0245658   -0.1137895
| 13>     C     9.0299123    9.0464634   -1.0436739
| 14>     S     8.5002551    8.8615145   -2.6268666
| 15>     N     9.7131264   10.1120796   -0.5927499
| 16>     C     9.8758450   10.3404907    0.8744803
| 17>     C     8.7765943   11.3287463    1.2104619
| 18>     C     7.6094401   10.8912837    1.9697787
| 19>     C     6.5325015   11.8293835    2.1519650
| 20>     C     6.5849024   13.0957736    1.5722225
| 21>     C     7.6704791   13.5271411    0.8567214
| 22>     O     7.6601539   14.7254448    0.1496063
| 23>     C     8.7178823   12.6314862    0.6308742
| 24>     H    11.3474412    6.1234251    5.3426040
| 25>     H    12.5187141    6.9049546    6.3938243
| 26>     H    13.0197387    6.5027236    4.8105766
| 27>     H    11.1121241    8.7111685    5.5401613
| 28>     H    12.6968824    8.8750131    4.7353952
| 29>     H     8.6417178    5.9249594    1.3459375
| 30>     H     9.3486305    6.6099931    2.7855620
| 31>     H    10.4641407    6.1487883    1.5094930
| 32>     H     8.2252872    7.2641330   -0.4538200
| 33>     H    10.0189532   10.8109006   -1.2591473
| 34>     H    10.8179254   10.8860892    1.0086316
| 35>     H     7.6168910    9.8916903    2.3942237
| 36>     H     5.7268437   11.4787544    2.7902213
| 37>     H     5.6958276   13.7046039    1.7073801
| 38>     H     6.7838789   15.0667968    0.3993074
| 39>     H     9.5926039   12.9976251    0.1015346
| 40> *
| 41>
| 42>                          ****END OF INPUT****

CARTESIAN COORDINATES (ANGSTROEM)
---------------------------------
  C     12.147273    6.873807    5.362199
  C     11.786590    8.266246    4.798319
  O     11.097153    8.151352    3.548908
  C     10.618144    9.270331    2.951467
  O     10.692093   10.376797    3.465885
  C      9.895508    9.104566    1.660537
  C      9.357545    7.990869    1.157305
  C      9.464580    6.560242    1.695943
  N      8.801559    8.024566   -0.113790
  C      9.029912    9.046463   -1.043674
  S      8.500255    8.861514   -2.626867
  N      9.713126   10.112080   -0.592750
  C      9.875845   10.340491    0.874480
  C      8.776594   11.328746    1.210462
  C      7.609440   10.891284    1.969779
  C      6.532501   11.829383    2.151965
  C      6.584902   13.095774    1.572223
  C      7.670479   13.527141    0.856721
  O      7.660154   14.725445    0.149606
  C      8.717882   12.631486    0.630874
  H     11.347441    6.123425    5.342604
  H     12.518714    6.904955    6.393824
  H     13.019739    6.502724    4.810577
  H     11.112124    8.711168    5.540161
  H     12.696882    8.875013    4.735395
  H      8.641718    5.924959    1.345937
  H      9.348631    6.609993    2.785562
  H     10.464141    6.148788    1.509493
  H      8.225287    7.264133   -0.453820
  H     10.018953   10.810901   -1.259147
  H     10.817925   10.886089    1.008632
  H      7.616891    9.891690    2.394224
  H      5.726844   11.478754    2.790221
  H      5.695828   13.704604    1.707380
  H      6.783879   15.066797    0.399307
  H      9.592604   12.997625    0.101535

 Total Charge           Charge          ....    0
 Multiplicity           Mult            ....    1
 Number of Electrons    NEL             ....  154
 Basis Dimension        Dim             ....  828

ORBITAL ENERGIES
----------------

  NO   OCC          E(Eh)            E(eV)
   0   2.0000     -91.885903     -2500.3425
   1   2.0000     -20.615131      -560.9662
   2   2.0000     -20.591889      -560.3338
   3   2.0000     -20.548126      -559.1429
   4   2.0000     -15.625707      -425.1971
   5   2.0000     -15.611980      -424.8236
   6   2.0000     -11.398317      -310.1640
   7   2.0000     -11.383519      -309.7613
   8   2.0000     -11.333988      -308.4135
   9   2.0000     -11.305729      -307.6445
  10   2.0000     -11.305142      -307.6285
  11   2.0000     -11.304927      -307.6227
  12   2.0000     -11.262395      -306.4653
  13   2.0000     -11.261788      -306.4488
  14   2.0000     -11.255246      -306.2708
  15   2.0000     -11.250941      -306.1537
  16   2.0000     -11.239752      -305.8492
  17   2.0000     -11.239178      -305.8336
  18   2.0000     -11.235613      -305.7366
  19   2.0000     -11.234368      -305.7027
  20   2.0000      -8.890000      -241.9092
  21   2.0000      -6.571478      -178.8190
  22   2.0000      -6.569566      -178.7670
  23   2.0000      -6.568999      -178.7515
  24   2.0000      -1.464731       -39.8574
  25   2.0000      -1.398917       -38.0665
  26   2.0000      -1.363441       -37.1011
  27   2.0000      -1.340526       -36.4776
  28   2.0000      -1.240674       -33.7604
  29   2.0000      -1.151370       -31.3304
  30   2.0000      -1.125375       -30.6230
  31   2.0000      -1.048858       -28.5409
  32   2.0000      -1.038090       -28.2479
  33   2.0000      -1.010831       -27.5061
  34   2.0000      -0.996497       -27.1161
  35   2.0000      -0.977265       -26.5927
  36   2.0000      -0.925251       -25.1774
  37   2.0000      -0.898146       -24.4398
  38   2.0000      -0.846959       -23.0469
  39   2.0000      -0.838192       -22.8084
  40   2.0000      -0.823866       -22.4185
  41   2.0000      -0.813656       -22.1407
  42   2.0000      -0.768949       -20.9242
  43   2.0000      -0.741630       -20.1808
  44   2.0000      -0.718727       -19.5576
  45   2.0000      -0.694069       -18.8866
  46   2.0000      -0.690217       -18.7818
  47   2.0000      -0.682349       -18.5676
  48   2.0000      -0.678806       -18.4713
  49   2.0000      -0.666848       -18.1459
  50   2.0000      -0.654657       -17.8141
  51   2.0000      -0.645694       -17.5702
  52   2.0000      -0.631695       -17.1893
  53   2.0000      -0.612573       -16.6690
  54   2.0000      -0.595538       -16.2054
  55   2.0000      -0.594300       -16.1717
  56   2.0000      -0.586969       -15.9722
  57   2.0000      -0.586182       -15.9508
  58   2.0000      -0.576115       -15.6769
  59   2.0000      -0.568977       -15.4827
  60   2.0000      -0.560437       -15.2503
  61   2.0000      -0.555344       -15.1117
  62   2.0000      -0.545799       -14.8520
  63   2.0000      -0.527502       -14.3540
  64   2.0000      -0.517503       -14.0820
  65   2.0000      -0.507894       -13.8205
  66   2.0000      -0.500774       -13.6268
  67   2.0000      -0.491403       -13.3718
  68   2.0000      -0.475468       -12.9381
  69   2.0000      -0.466231       -12.6868
  70   2.0000      -0.464237       -12.6325
  71   2.0000      -0.454852       -12.3771
  72   2.0000      -0.361010        -9.8236
  73   2.0000      -0.338546        -9.2123
  74   2.0000      -0.321890        -8.7591
  75   2.0000      -0.317046        -8.6273
  76   2.0000      -0.311603        -8.4791
  77   0.0000       0.080349         2.1864
  78   0.0000       0.111923         3.0456
  79   0.0000       0.115835         3.1520
  80   0.0000       0.129960         3.5364
  81   0.0000       0.134585         3.6623

MULLIKEN ATOMIC CHARGES
-----------------------
   0 C :   -0.277622
   1 C :    0.048774
   2 O :   -0.323947
   3 C :    0.423911
   4 O :   -0.425333
   5 C :   -0.197333
   6 C :    0.141894
   7 C :   -0.262853
   8 N :   -0.148640
   9 C :    0.224497
  10 S :   -0.457267
  11 N :   -0.192586
  12 C :    0.046887
  13 C :    0.116706
  14 C :   -0.207885
  15 C :   -0.142170
  16 C :   -0.261743
  17 C :    0.319228
  18 O :   -0.368637
  19 C :   -0.256433
  20 H :    0.100223
  21 H :    0.102560
  22 H :    0.091043
  23 H :    0.087757
  24 H :    0.097546
  25 H :    0.105646
  26 H :    0.111405
  27 H :    0.134831
  28 H :    0.196921
  29 H :    0.203270
  30 H :    0.150946
  31 H :    0.152796
  32 H :    0.159803
  33 H :    0.123355
  34 H :    0.241766
  35 H :    0.140686
Sum of atomic charges:   -0.0000000

LOEWDIN ATOMIC CHARGES
----------------------
   0 C :    0.108729
   1 C :   -0.019365
   2 O :    0.315768
   3 C :   -0.417168
   4 O :    0.109155
   5 C :   -0.110821
   6 C :   -0.073716
   7 C :    0.135170
   8 N :    0.400985
   9 C :   -0.430699
  10 S :   -0.071008
  11 N :    0.415178
  12 C :   -0.057228
  13 C :   -0.006580
  14 C :    0.039110
  15 C :    0.045586
  16 C :   -0.015031
  17 C :   -0.173950
  18 O :    0.363074
  19 C :    0.026473
  20 H :   -0.028488
  21 H :   -0.020618
  22 H :   -0.029351
  23 H :   -0.030983
  24 H :   -0.025589
  25 H :   -0.021478
  26 H :   -0.016633
  27 H :   -0.007609
  28 H :   -0.057304
  29 H :   -0.059162
  30 H :    0.001669
  31 H :   -0.043827
  32 H :   -0.025177
  33 H :   -0.030372
  34 H :   -0.157196
  35 H :   -0.031543

  Mayer bond orders larger than 0.100000
B(  0-C ,  1-C ) :   0.9648 B(  0-C , 20-H ) :   0.9761 B(  0-C , 21-H ) :   0.9770
B(  0-C , 22-H ) :   0.9808 B(  1-C ,  2-O ) :   0.9075 B(  1-C , 23-H ) :   0.9798
B(  1-C , 24-H ) :   0.9781 B(  2-O ,  3-C ) :   1.1931 B(  3-C ,  4-O ) :   1.9670
B(  3-C ,  5-C ) :   1.0386 B(  5-C ,  6-C ) :   1.6374 B(  5-C , 12-C ) :   1.0066
B(  6-C ,  7-C ) :   0.9626 B(  6-C ,  8-N ) :   1.1636 B(  7-C , 25-H ) :   0.9819
B(  7-C , 26-H ) :   0.9739 B(  7-C , 27-H ) :   0.9603 B(  8-N ,  9-C ) :   1.1504
B(  8-N , 28-H ) :   0.9484 B(  9-C , 10-S ) :   1.5629 B(  9-C , 11-N ) :   1.3587
B( 11-N , 12-C ) :   0.9265 B( 11-N , 29-H ) :   0.9469 B( 12-C , 13-C ) :   0.9685
B( 12-C , 30-H ) :   0.9936 B( 13-C , 14-C ) :   1.3442 B( 13-C , 19-C ) :   1.3618
B( 14-C , 15-C ) :   1.4164 B( 14-C , 31-H ) :   0.9639 B( 15-C , 16-C ) :   1.3518
B( 15-C , 32-H ) :   0.9710 B( 16-C , 17-C ) :   1.3394 B( 16-C , 33-H ) :   0.9887
B( 17-C , 18-O ) :   1.0829 B( 17-C , 19-C ) :   1.3846 B( 18-O , 34-H ) :   0.9812
B( 19-C , 35-H ) :   0.9691

MP2 TOTAL ENERGY:    -1274.320635050 Eh
FINAL SINGLE POINT ENERGY     -1274.320635050424

DIPOLE MOMENT
-------------
                                X             Y             Z
Electronic contribution:     -5.53732       9.46237     -15.72615
Nuclear contribution   :      5.74730     -10.57748      17.85570
                        -----------------------------------------
Total Dipole Moment    :      0.20998      -1.11511       2.12955
                        -----------------------------------------
Magnitude (a.u.)       :      2.41300
Magnitude (Debye)      :      6.13335

Rotational constants in cm-1:     0.012736     0.007197     0.005179
Rotational constants in MHz :   381.812124   215.757809   155.267292

                             ****ORCA TERMINATED NORMALLY****
TOTAL RUN TIME: 0 days 1 hours 50 minutes 37 seconds 845 msec
