                         Program Version 5.0.0 -  RELEASE  -
|  1> ! RI-MP2 cc-pVTZ cc-pVTZ/c TightSCF KeepDens NoKeepInts
|  2>
|  3> %pointcharges "srfp_output"
|  4>
|  5> *xyz  0  1
|  6>     C     8.2215875   -1.8927531  -14.6178464
|  7>     C     8.3258269   -1.3669137  -13.1936774
|  8>     O     9.7018302   -1.6531120  -12.8330609
|  9>     C    10.0681028   -1.2638979  -11.5599030
| 10>     O     9.2271001   -0.9385842  -10.7694767
| 11>     C    11.4199865   -1.6161825  -11.2308752
| 12>     C    12.4622109   -1.6151692  -12.0729301
| 13>     C    12.4868947   -0.9819704  -13.4684336
| 14>     N    13.6479881   -2.0949831  -11.6833911
| 15>     C    13.8579019   -2.8029138  -10.5237982
| 16>     S    15.4532958   -3.2065602  -10.0423588
| 17>     N    12.7467970   -2.9535315   -9.7604447
| 18>     C    11.5535579   -2.0917901   -9.8109585
| 19>     C    11.4401922   -1.0696324   -8.6556511
| 20>     C    12.0916993    0.1460812   -8.6343004
| 21>     C    11.9775528    0.9724467   -7.5368754
| 22>     C    11.2431416    0.6257601   -6.3992821
| 23>     C    10.4635026   -0.4823535   -6.4406595
| 24>     O     9.7642402   -0.8064755   -5.3357129
| 25>     C    10.6442132   -1.3799930   -7.5104497
| 26>     H     9.1600901   -1.8420846  -15.1833834
| 27>     H     7.4837334   -1.3426848  -15.2146593
| 28>     H     7.9527335   -2.9559945  -14.6385397
| 29>     H     8.2033764   -0.2783853  -13.1362129
| 30>     H     7.6225329   -1.9063099  -12.5474430
| 31>     H    11.5440472   -1.0588198  -14.0237046
| 32>     H    13.2139575   -1.4866693  -14.1163910
| 33>     H    12.7372384    0.0857857  -13.4480698
| 34>     H    14.4117467   -1.9086540  -12.3220777
| 35>     H    12.9929137   -3.2973464   -8.8400186
| 36>     H    10.7262355   -2.7981500   -9.6702838
| 37>     H    12.8162006    0.4588118   -9.3804227
| 38>     H    12.5354728    1.9016935   -7.4688654
| 39>     H    11.1837278    1.3273904   -5.5724923
| 40>     H     9.9721066   -0.0940654   -4.7064337
| 41>     H    10.0604574   -2.2942833   -7.5624937
| 42> *
| 43>
| 44>                          ****END OF INPUT****

CARTESIAN COORDINATES (ANGSTROEM)
---------------------------------
  C      8.221588   -1.892753  -14.617846
  C      8.325827   -1.366914  -13.193677
  O      9.701830   -1.653112  -12.833061
  C     10.068103   -1.263898  -11.559903
  O      9.227100   -0.938584  -10.769477
  C     11.419987   -1.616182  -11.230875
  C     12.462211   -1.615169  -12.072930
  C     12.486895   -0.981970  -13.468434
  N     13.647988   -2.094983  -11.683391
  C     13.857902   -2.802914  -10.523798
  S     15.453296   -3.206560  -10.042359
  N     12.746797   -2.953531   -9.760445
  C     11.553558   -2.091790   -9.810958
  C     11.440192   -1.069632   -8.655651
  C     12.091699    0.146081   -8.634300
  C     11.977553    0.972447   -7.536875
  C     11.243142    0.625760   -6.399282
  C     10.463503   -0.482353   -6.440659
  O      9.764240   -0.806475   -5.335713
  C     10.644213   -1.379993   -7.510450
  H      9.160090   -1.842085  -15.183383
  H      7.483733   -1.342685  -15.214659
  H      7.952733   -2.955995  -14.638540
  H      8.203376   -0.278385  -13.136213
  H      7.622533   -1.906310  -12.547443
  H     11.544047   -1.058820  -14.023705
  H     13.213957   -1.486669  -14.116391
  H     12.737238    0.085786  -13.448070
  H     14.411747   -1.908654  -12.322078
  H     12.992914   -3.297346   -8.840019
  H     10.726235   -2.798150   -9.670284
  H     12.816201    0.458812   -9.380423
  H     12.535473    1.901693   -7.468865
  H     11.183728    1.327390   -5.572492
  H      9.972107   -0.094065   -4.706434
  H     10.060457   -2.294283   -7.562494

 Total Charge           Charge          ....    0
 Multiplicity           Mult            ....    1
 Number of Electrons    NEL             ....  154
 Basis Dimension        Dim             ....  828

ORBITAL ENERGIES
----------------

  NO   OCC          E(Eh)            E(eV)
   0   2.0000     -90.670443     -2467.2682
   1   2.0000     -19.338299      -526.2219
   2   2.0000     -19.333817      -526.0999
   3   2.0000     -19.304733      -525.3085
   4   2.0000     -14.373067      -391.1110
   5   2.0000     -14.362603      -390.8263
   6   2.0000     -10.155818      -276.3539
   7   2.0000     -10.138959      -275.8951
   8   2.0000     -10.069031      -273.9922
   9   2.0000     -10.052231      -273.5351
  10   2.0000     -10.046360      -273.3754
  11   2.0000     -10.022141      -272.7163
  12   2.0000     -10.003764      -272.2162
  13   2.0000      -9.985230      -271.7119
  14   2.0000      -9.982665      -271.6421
  15   2.0000      -9.981401      -271.6077
  16   2.0000      -9.976632      -271.4780
  17   2.0000      -9.971601      -271.3411
  18   2.0000      -9.970049      -271.2988
  19   2.0000      -9.947909      -270.6964
  20   2.0000      -7.674849      -208.8433
  21   2.0000      -5.356625      -145.7612
  22   2.0000      -5.354790      -145.7112
  23   2.0000      -5.354385      -145.7002
  24   2.0000      -0.209509        -5.7010
  25   2.0000      -0.160408        -4.3649
  26   2.0000      -0.111268        -3.0278
  27   2.0000      -0.104224        -2.8361
  28   2.0000       0.004318         0.1175
  29   2.0000       0.094750         2.5783
  30   2.0000       0.127117         3.4590
  31   2.0000       0.214200         5.8287
  32   2.0000       0.229381         6.2418
  33   2.0000       0.245458         6.6793
  34   2.0000       0.259836         7.0705
  35   2.0000       0.267701         7.2845
  36   2.0000       0.328793         8.9469
  37   2.0000       0.375328        10.2132
  38   2.0000       0.397723        10.8226
  39   2.0000       0.415200        11.2982
  40   2.0000       0.430511        11.7148
  41   2.0000       0.440113        11.9761
  42   2.0000       0.496553        13.5119
  43   2.0000       0.509208        13.8563
  44   2.0000       0.525085        14.2883
  45   2.0000       0.556369        15.1396
  46   2.0000       0.560196        15.2437
  47   2.0000       0.574032        15.6202
  48   2.0000       0.582557        15.8522
  49   2.0000       0.593971        16.1628
  50   2.0000       0.603483        16.4216
  51   2.0000       0.614075        16.7098
  52   2.0000       0.625365        17.0171
  53   2.0000       0.646651        17.5963
  54   2.0000       0.656377        17.8609
  55   2.0000       0.668559        18.1924
  56   2.0000       0.670462        18.2442
  57   2.0000       0.680989        18.5307
  58   2.0000       0.684385        18.6231
  59   2.0000       0.693344        18.8669
  60   2.0000       0.707866        19.2620
  61   2.0000       0.722621        19.6635
  62   2.0000       0.724690        19.7198
  63   2.0000       0.734966        19.9994
  64   2.0000       0.744776        20.2664
  65   2.0000       0.749398        20.3922
  66   2.0000       0.753944        20.5159
  67   2.0000       0.756793        20.5934
  68   2.0000       0.767021        20.8717
  69   2.0000       0.787322        21.4241
  70   2.0000       0.792298        21.5595
  71   2.0000       0.797542        21.7022
  72   2.0000       0.881971        23.9997
  73   2.0000       0.891675        24.2637
  74   2.0000       0.910157        24.7666
  75   2.0000       0.920479        25.0475
  76   2.0000       0.932384        25.3714
  77   0.0000       1.318808        35.8866
  78   0.0000       1.372948        37.3598
  79   0.0000       1.393090        37.9079
  80   0.0000       1.402351        38.1599
  81   0.0000       1.411911        38.4200

MULLIKEN ATOMIC CHARGES
-----------------------
   0 C :   -0.307784
   1 C :    0.070729
   2 O :   -0.366433
   3 C :    0.443982
   4 O :   -0.554282
   5 C :   -0.133676
   6 C :    0.159256
   7 C :   -0.290088
   8 N :   -0.110023
   9 C :    0.350123
  10 S :   -0.707289
  11 N :   -0.206169
  12 C :    0.039308
  13 C :    0.022701
  14 C :   -0.258050
  15 C :   -0.152146
  16 C :   -0.289248
  17 C :    0.348067
  18 O :   -0.447972
  19 C :   -0.251448
  20 H :    0.109896
  21 H :    0.107425
  22 H :    0.108964
  23 H :    0.102408
  24 H :    0.105942
  25 H :    0.142420
  26 H :    0.116393
  27 H :    0.142828
  28 H :    0.260484
  29 H :    0.238460
  30 H :    0.161144
  31 H :    0.187954
  32 H :    0.186131
  33 H :    0.176062
  34 H :    0.328462
  35 H :    0.165469
Sum of atomic charges:    0.0000000

LOEWDIN ATOMIC CHARGES
----------------------
   0 C :    0.098924
   1 C :   -0.005850
   2 O :    0.288468
   3 C :   -0.424076
   4 O :    0.056959
   5 C :   -0.113712
   6 C :   -0.072444
   7 C :    0.149583
   8 N :    0.438959
   9 C :   -0.355356
  10 S :   -0.265670
  11 N :    0.418699
  12 C :   -0.039856
  13 C :   -0.036534
  14 C :   -0.003835
  15 C :    0.036447
  16 C :    0.003880
  17 C :   -0.222308
  18 O :    0.361701
  19 C :    0.036958
  20 H :   -0.023324
  21 H :   -0.019844
  22 H :   -0.022948
  23 H :   -0.025654
  24 H :   -0.025303
  25 H :   -0.014441
  26 H :   -0.008836
  27 H :   -0.003957
  28 H :   -0.008579
  29 H :   -0.033111
  30 H :    0.001117
  31 H :   -0.015882
  32 H :   -0.008587
  33 H :   -0.009522
  34 H :   -0.107442
  35 H :   -0.024620

  Mayer bond orders larger than 0.100000
B(  0-C ,  1-C ) :   0.9493 B(  0-C , 20-H ) :   0.9755 B(  0-C , 21-H ) :   0.9819
B(  0-C , 22-H ) :   0.9818 B(  1-C ,  2-O ) :   0.8705 B(  1-C , 23-H ) :   0.9788
B(  1-C , 24-H ) :   0.9806 B(  2-O ,  3-C ) :   1.1950 B(  3-C ,  4-O ) :   1.9451
B(  3-C ,  5-C ) :   1.0746 B(  5-C ,  6-C ) :   1.5706 B(  5-C , 12-C ) :   0.9549
B(  6-C ,  7-C ) :   0.9563 B(  6-C ,  8-N ) :   1.2064 B(  7-C , 25-H ) :   0.9646
B(  7-C , 26-H ) :   0.9800 B(  7-C , 27-H ) :   0.9578 B(  8-N ,  9-C ) :   1.2578
B(  8-N , 28-H ) :   0.9200 B(  9-C , 10-S ) :   1.2389 B(  9-C , 11-N ) :   1.4188
B( 11-N , 12-C ) :   0.9356 B( 11-N , 29-H ) :   0.9330 B( 12-C , 13-C ) :   0.9696
B( 12-C , 30-H ) :   1.0035 B( 13-C , 14-C ) :   1.3519 B( 13-C , 19-C ) :   1.3552
B( 14-C , 15-C ) :   1.4025 B( 14-C , 31-H ) :   0.9599 B( 15-C , 16-C ) :   1.3259
B( 15-C , 32-H ) :   0.9692 B( 16-C , 17-C ) :   1.3349 B( 16-C , 33-H ) :   0.9722
B( 17-C , 18-O ) :   1.1026 B( 17-C , 19-C ) :   1.3451 B( 18-O , 34-H ) :   0.9159
B( 19-C , 35-H ) :   0.9621

MP2 TOTAL ENERGY:    -1274.444377055 Eh
FINAL SINGLE POINT ENERGY     -1274.444377054892

DIPOLE MOMENT
-------------
                                X             Y             Z
Electronic contribution:     10.18902      -3.51359      12.64666
Nuclear contribution   :    -11.52685       5.38955     -14.53643
                        -----------------------------------------
Total Dipole Moment    :     -1.33784       1.87596      -1.88976
                        -----------------------------------------
Magnitude (a.u.)       :      2.97997
Magnitude (Debye)      :      7.57448

Rotational constants in cm-1:     0.010930     0.007876     0.005135
Rotational constants in MHz :   327.680064   236.103274   153.949537

                             ****ORCA TERMINATED NORMALLY****
TOTAL RUN TIME: 0 days 1 hours 51 minutes 33 seconds 281 msec
