                         Program Version 5.0.0 -  RELEASE  -
|  1> ! RI-MP2 cc-pVTZ cc-pVTZ/c TightSCF KeepDens NoKeepInts
|  2>
|  3> *xyz  0  1
|  4>     C     8.2215875   -1.8927531  -14.6178464
|  5>     C     8.3258269   -1.3669137  -13.1936774
|  6>     O     9.7018302   -1.6531120  -12.8330609
|  7>     C    10.0681028   -1.2638979  -11.5599030
|  8>     O     9.2271001   -0.9385842  -10.7694767
|  9>     C    11.4199865   -1.6161825  -11.2308752
| 10>     C    12.4622109   -1.6151692  -12.0729301
| 11>     C    12.4868947   -0.9819704  -13.4684336
| 12>     N    13.6479881   -2.0949831  -11.6833911
| 13>     C    13.8579019   -2.8029138  -10.5237982
| 14>     S    15.4532958   -3.2065602  -10.0423588
| 15>     N    12.7467970   -2.9535315   -9.7604447
| 16>     C    11.5535579   -2.0917901   -9.8109585
| 17>     C    11.4401922   -1.0696324   -8.6556511
| 18>     C    12.0916993    0.1460812   -8.6343004
| 19>     C    11.9775528    0.9724467   -7.5368754
| 20>     C    11.2431416    0.6257601   -6.3992821
| 21>     C    10.4635026   -0.4823535   -6.4406595
| 22>     O     9.7642402   -0.8064755   -5.3357129
| 23>     C    10.6442132   -1.3799930   -7.5104497
| 24>     H     9.1600901   -1.8420846  -15.1833834
| 25>     H     7.4837334   -1.3426848  -15.2146593
| 26>     H     7.9527335   -2.9559945  -14.6385397
| 27>     H     8.2033764   -0.2783853  -13.1362129
| 28>     H     7.6225329   -1.9063099  -12.5474430
| 29>     H    11.5440472   -1.0588198  -14.0237046
| 30>     H    13.2139575   -1.4866693  -14.1163910
| 31>     H    12.7372384    0.0857857  -13.4480698
| 32>     H    14.4117467   -1.9086540  -12.3220777
| 33>     H    12.9929137   -3.2973464   -8.8400186
| 34>     H    10.7262355   -2.7981500   -9.6702838
| 35>     H    12.8162006    0.4588118   -9.3804227
| 36>     H    12.5354728    1.9016935   -7.4688654
| 37>     H    11.1837278    1.3273904   -5.5724923
| 38>     H     9.9721066   -0.0940654   -4.7064337
| 39>     H    10.0604574   -2.2942833   -7.5624937
| 40> *
| 41>
| 42>                          ****END OF INPUT****

CARTESIAN COORDINATES (ANGSTROEM)
---------------------------------
  C      8.221588   -1.892753  -14.617846
  C      8.325827   -1.366914  -13.193677
  O      9.701830   -1.653112  -12.833061
  C     10.068103   -1.263898  -11.559903
  O      9.227100   -0.938584  -10.769477
  C     11.419987   -1.616182  -11.230875
  C     12.462211   -1.615169  -12.072930
  C     12.486895   -0.981970  -13.468434
  N     13.647988   -2.094983  -11.683391
  C     13.857902   -2.802914  -10.523798
  S     15.453296   -3.206560  -10.042359
  N     12.746797   -2.953531   -9.760445
  C     11.553558   -2.091790   -9.810958
  C     11.440192   -1.069632   -8.655651
  C     12.091699    0.146081   -8.634300
  C     11.977553    0.972447   -7.536875
  C     11.243142    0.625760   -6.399282
  C     10.463503   -0.482353   -6.440659
  O      9.764240   -0.806475   -5.335713
  C     10.644213   -1.379993   -7.510450
  H      9.160090   -1.842085  -15.183383
  H      7.483733   -1.342685  -15.214659
  H      7.952733   -2.955995  -14.638540
  H      8.203376   -0.278385  -13.136213
  H      7.622533   -1.906310  -12.547443
  H     11.544047   -1.058820  -14.023705
  H     13.213957   -1.486669  -14.116391
  H     12.737238    0.085786  -13.448070
  H     14.411747   -1.908654  -12.322078
  H     12.992914   -3.297346   -8.840019
  H     10.726235   -2.798150   -9.670284
  H     12.816201    0.458812   -9.380423
  H     12.535473    1.901693   -7.468865
  H     11.183728    1.327390   -5.572492
  H      9.972107   -0.094065   -4.706434
  H     10.060457   -2.294283   -7.562494

 Total Charge           Charge          ....    0
 Multiplicity           Mult            ....    1
 Number of Electrons    NEL             ....  154
 Basis Dimension        Dim             ....  828

ORBITAL ENERGIES
----------------

  NO   OCC          E(Eh)            E(eV)
   0   2.0000     -91.896323     -2500.6261
   1   2.0000     -20.593008      -560.3642
   2   2.0000     -20.592581      -560.3526
   3   2.0000     -20.542322      -558.9850
   4   2.0000     -15.632696      -425.3873
   5   2.0000     -15.612978      -424.8507
   6   2.0000     -11.393097      -310.0219
   7   2.0000     -11.378912      -309.6359
   8   2.0000     -11.330293      -308.3129
   9   2.0000     -11.308987      -307.7332
  10   2.0000     -11.303850      -307.5934
  11   2.0000     -11.293280      -307.3058
  12   2.0000     -11.260765      -306.4210
  13   2.0000     -11.260463      -306.4128
  14   2.0000     -11.245244      -305.9986
  15   2.0000     -11.242447      -305.9225
  16   2.0000     -11.238833      -305.8242
  17   2.0000     -11.231149      -305.6151
  18   2.0000     -11.229193      -305.5619
  19   2.0000     -11.227751      -305.5226
  20   2.0000      -8.899032      -242.1550
  21   2.0000      -6.580354      -179.0605
  22   2.0000      -6.578529      -179.0109
  23   2.0000      -6.577949      -178.9951
  24   2.0000      -1.454616       -39.5821
  25   2.0000      -1.418246       -38.5924
  26   2.0000      -1.360188       -37.0126
  27   2.0000      -1.356577       -36.9143
  28   2.0000      -1.252467       -34.0814
  29   2.0000      -1.160707       -31.5844
  30   2.0000      -1.129274       -30.7291
  31   2.0000      -1.046251       -28.4699
  32   2.0000      -1.036477       -28.2040
  33   2.0000      -1.011386       -27.5212
  34   2.0000      -1.007715       -27.4213
  35   2.0000      -0.980716       -26.6867
  36   2.0000      -0.929178       -25.2842
  37   2.0000      -0.884378       -24.0651
  38   2.0000      -0.857881       -23.3441
  39   2.0000      -0.844309       -22.9748
  40   2.0000      -0.829683       -22.5768
  41   2.0000      -0.821341       -22.3498
  42   2.0000      -0.756181       -20.5767
  43   2.0000      -0.745351       -20.2820
  44   2.0000      -0.733409       -19.9571
  45   2.0000      -0.700936       -19.0734
  46   2.0000      -0.686414       -18.6783
  47   2.0000      -0.685012       -18.6401
  48   2.0000      -0.675745       -18.3879
  49   2.0000      -0.660430       -17.9712
  50   2.0000      -0.654438       -17.8082
  51   2.0000      -0.642068       -17.4716
  52   2.0000      -0.636395       -17.3172
  53   2.0000      -0.619078       -16.8460
  54   2.0000      -0.599729       -16.3195
  55   2.0000      -0.594346       -16.1730
  56   2.0000      -0.588725       -16.0200
  57   2.0000      -0.585771       -15.9396
  58   2.0000      -0.571640       -15.5551
  59   2.0000      -0.566795       -15.4233
  60   2.0000      -0.560553       -15.2534
  61   2.0000      -0.546183       -14.8624
  62   2.0000      -0.536856       -14.6086
  63   2.0000      -0.518400       -14.1064
  64   2.0000      -0.515445       -14.0260
  65   2.0000      -0.512945       -13.9579
  66   2.0000      -0.509624       -13.8676
  67   2.0000      -0.500560       -13.6209
  68   2.0000      -0.485862       -13.2210
  69   2.0000      -0.467840       -12.7306
  70   2.0000      -0.459725       -12.5098
  71   2.0000      -0.451919       -12.2973
  72   2.0000      -0.357768        -9.7354
  73   2.0000      -0.343928        -9.3588
  74   2.0000      -0.327552        -8.9132
  75   2.0000      -0.323121        -8.7926
  76   2.0000      -0.316168        -8.6034
  77   0.0000       0.071258         1.9390
  78   0.0000       0.113427         3.0865
  79   0.0000       0.119663         3.2562
  80   0.0000       0.132961         3.6180
  81   0.0000       0.137894         3.7523

MULLIKEN ATOMIC CHARGES
-----------------------
   0 C :   -0.278633
   1 C :    0.051575
   2 O :   -0.359789
   3 C :    0.381758
   4 O :   -0.413385
   5 C :   -0.124759
   6 C :    0.148392
   7 C :   -0.312007
   8 N :   -0.096511
   9 C :    0.210185
  10 S :   -0.439980
  11 N :   -0.192659
  12 C :    0.020403
  13 C :    0.075685
  14 C :   -0.213258
  15 C :   -0.127162
  16 C :   -0.257914
  17 C :    0.320762
  18 O :   -0.354040
  19 C :   -0.210328
  20 H :    0.094806
  21 H :    0.092484
  22 H :    0.096928
  23 H :    0.090268
  24 H :    0.107928
  25 H :    0.146162
  26 H :    0.094094
  27 H :    0.126416
  28 H :    0.195536
  29 H :    0.181412
  30 H :    0.143143
  31 H :    0.149185
  32 H :    0.145112
  33 H :    0.118926
  34 H :    0.244532
  35 H :    0.144733
Sum of atomic charges:    0.0000000

LOEWDIN ATOMIC CHARGES
----------------------
   0 C :    0.095391
   1 C :   -0.010194
   2 O :    0.285950
   3 C :   -0.448878
   4 O :    0.146313
   5 C :   -0.111786
   6 C :   -0.094789
   7 C :    0.136651
   8 N :    0.418816
   9 C :   -0.395464
  10 S :   -0.092393
  11 N :    0.396601
  12 C :   -0.043937
  13 C :   -0.019536
  14 C :    0.005901
  15 C :    0.043189
  16 C :   -0.003410
  17 C :   -0.209634
  18 O :    0.397500
  19 C :    0.045716
  20 H :   -0.026900
  21 H :   -0.026667
  22 H :   -0.025320
  23 H :   -0.031180
  24 H :   -0.025107
  25 H :   -0.015586
  26 H :   -0.021128
  27 H :   -0.014038
  28 H :   -0.041929
  29 H :   -0.061121
  30 H :   -0.004233
  31 H :   -0.024928
  32 H :   -0.019808
  33 H :   -0.028194
  34 H :   -0.146169
  35 H :   -0.029698

  Mayer bond orders larger than 0.100000
B(  0-C ,  1-C ) :   0.9492 B(  0-C , 20-H ) :   0.9779 B(  0-C , 21-H ) :   0.9831
B(  0-C , 22-H ) :   0.9853 B(  1-C ,  2-O ) :   0.8973 B(  1-C , 23-H ) :   0.9837
B(  1-C , 24-H ) :   0.9807 B(  2-O ,  3-C ) :   1.1541 B(  3-C ,  4-O ) :   2.0122
B(  3-C ,  5-C ) :   1.0448 B(  5-C ,  6-C ) :   1.5936 B(  5-C , 12-C ) :   0.9715
B(  6-C ,  7-C ) :   0.9456 B(  6-C ,  8-N ) :   1.2059 B(  7-C , 25-H ) :   0.9669
B(  7-C , 26-H ) :   0.9869 B(  7-C , 27-H ) :   0.9643 B(  8-N ,  9-C ) :   1.1745
B(  8-N , 28-H ) :   0.9531 B(  9-C , 10-S ) :   1.5472 B(  9-C , 11-N ) :   1.3323
B( 11-N , 12-C ) :   0.9417 B( 11-N , 29-H ) :   0.9578 B( 12-C , 13-C ) :   0.9776
B( 12-C , 30-H ) :   1.0053 B( 13-C , 14-C ) :   1.3695 B( 13-C , 19-C ) :   1.3420
B( 14-C , 15-C ) :   1.4188 B( 14-C , 31-H ) :   0.9689 B( 15-C , 16-C ) :   1.3451
B( 15-C , 32-H ) :   0.9813 B( 16-C , 17-C ) :   1.3544 B( 16-C , 33-H ) :   0.9911
B( 17-C , 18-O ) :   1.1085 B( 17-C , 19-C ) :   1.3561 B( 18-O , 34-H ) :   0.9740
B( 19-C , 35-H ) :   0.9676

MP2 TOTAL ENERGY:    -1274.314587915 Eh
FINAL SINGLE POINT ENERGY     -1274.314587914892

DIPOLE MOMENT
-------------
                                X             Y             Z
Electronic contribution:     10.64886      -4.11147      13.40285
Nuclear contribution   :    -11.52685       5.38955     -14.53643
                        -----------------------------------------
Total Dipole Moment    :     -0.87800       1.27808      -1.13358
                        -----------------------------------------
Magnitude (a.u.)       :      1.92077
Magnitude (Debye)      :      4.88221

Rotational constants in cm-1:     0.010930     0.007876     0.005135
Rotational constants in MHz :   327.680064   236.103274   153.949537

                             ****ORCA TERMINATED NORMALLY****
TOTAL RUN TIME: 0 days 1 hours 46 minutes 55 seconds 861 msec
