                         Program Version 5.0.0 -  RELEASE  -
|  1> ! RI-MP2 cc-pVTZ cc-pVTZ/c TightSCF KeepDens NoKeepInts
|  2>
|  3> *xyz  0  1
|  4>     C     5.4801521    7.5816505   -6.9554568
|  5>     C     6.7505462    7.6686612   -7.8478409
|  6>     O     6.7763726    8.9916388   -8.4860687
|  7>     C     6.4302429    9.1972615   -9.7231322
|  8>     O     5.9487432    8.2960278  -10.3704871
|  9>     C     6.7441832   10.5271375  -10.2749130
| 10>     C     6.8764608   11.6148683   -9.5498475
| 11>     C     6.8246299   11.8217103   -8.0009478
| 12>     N     7.2715017   12.8255186  -10.1349761
| 13>     C     7.3577377   12.9807073  -11.4911903
| 14>     S     7.7718006   14.3931057  -12.2153724
| 15>     N     7.2214202   11.8762129  -12.2509035
| 16>     C     6.9285418   10.5290131  -11.7904385
| 17>     C     7.9189496    9.5126061  -12.3297991
| 18>     C     9.3344129    9.6121056  -12.1535114
| 19>     C    10.2362790    8.6866897  -12.6402658
| 20>     C     9.7078475    7.5889667  -13.3778524
| 21>     C     8.3024766    7.3636930  -13.4444684
| 22>     O     7.7594877    6.2039442  -14.0285588
| 23>     C     7.4495670    8.3165147  -12.9394061
| 24>     H     4.6760418    7.0989854   -7.5243510
| 25>     H     5.1686034    8.6253652   -6.8258865
| 26>     H     5.6597100    7.0142231   -6.0340585
| 27>     H     7.6327173    7.6572802   -7.1960467
| 28>     H     6.7589215    6.8159897   -8.5378197
| 29>     H     7.4825940   11.0847397   -7.5243430
| 30>     H     5.8016541   11.5228292   -7.7413697
| 31>     H     6.8839594   12.8411767   -7.6005008
| 32>     H     7.4634508   13.5571107   -9.4612583
| 33>     H     7.3299391   12.1338248  -13.2244671
| 34>     H     5.9560952   10.2631615  -12.2227116
| 35>     H     9.6690334   10.5505295  -11.7213244
| 36>     H    11.3063176    8.7874163  -12.4844854
| 37>     H    10.4058062    6.9041689  -13.8504093
| 38>     H     6.7882984    6.1454339  -14.0186105
| 39>     H     6.3950425    8.2732063  -13.1953329
| 40> *
| 41>
| 42>                          ****END OF INPUT****

CARTESIAN COORDINATES (ANGSTROEM)
---------------------------------
  C      5.480152    7.581650   -6.955457
  C      6.750546    7.668661   -7.847841
  O      6.776373    8.991639   -8.486069
  C      6.430243    9.197261   -9.723132
  O      5.948743    8.296028  -10.370487
  C      6.744183   10.527138  -10.274913
  C      6.876461   11.614868   -9.549848
  C      6.824630   11.821710   -8.000948
  N      7.271502   12.825519  -10.134976
  C      7.357738   12.980707  -11.491190
  S      7.771801   14.393106  -12.215372
  N      7.221420   11.876213  -12.250903
  C      6.928542   10.529013  -11.790439
  C      7.918950    9.512606  -12.329799
  C      9.334413    9.612106  -12.153511
  C     10.236279    8.686690  -12.640266
  C      9.707847    7.588967  -13.377852
  C      8.302477    7.363693  -13.444468
  O      7.759488    6.203944  -14.028559
  C      7.449567    8.316515  -12.939406
  H      4.676042    7.098985   -7.524351
  H      5.168603    8.625365   -6.825886
  H      5.659710    7.014223   -6.034059
  H      7.632717    7.657280   -7.196047
  H      6.758921    6.815990   -8.537820
  H      7.482594   11.084740   -7.524343
  H      5.801654   11.522829   -7.741370
  H      6.883959   12.841177   -7.600501
  H      7.463451   13.557111   -9.461258
  H      7.329939   12.133825  -13.224467
  H      5.956095   10.263162  -12.222712
  H      9.669033   10.550529  -11.721324
  H     11.306318    8.787416  -12.484485
  H     10.405806    6.904169  -13.850409
  H      6.788298    6.145434  -14.018610
  H      6.395042    8.273206  -13.195333

 Total Charge           Charge          ....    0
 Multiplicity           Mult            ....    1
 Number of Electrons    NEL             ....  154
 Basis Dimension        Dim             ....  828

ORBITAL ENERGIES
----------------

  NO   OCC          E(Eh)            E(eV)
   0   2.0000     -91.883285     -2500.2713
   1   2.0000     -20.605830      -560.7131
   2   2.0000     -20.580953      -560.0362
   3   2.0000     -20.532505      -558.7179
   4   2.0000     -15.624812      -425.1728
   5   2.0000     -15.605397      -424.6444
   6   2.0000     -11.383312      -309.7557
   7   2.0000     -11.377918      -309.6089
   8   2.0000     -11.329962      -308.3039
   9   2.0000     -11.309048      -307.7348
  10   2.0000     -11.308519      -307.7204
  11   2.0000     -11.308365      -307.7162
  12   2.0000     -11.265470      -306.5490
  13   2.0000     -11.255707      -306.2834
  14   2.0000     -11.254099      -306.2396
  15   2.0000     -11.246752      -306.0397
  16   2.0000     -11.243605      -305.9540
  17   2.0000     -11.235957      -305.7459
  18   2.0000     -11.235488      -305.7332
  19   2.0000     -11.234835      -305.7154
  20   2.0000      -8.889241      -241.8886
  21   2.0000      -6.570916      -178.8037
  22   2.0000      -6.568800      -178.7461
  23   2.0000      -6.568239      -178.7309
  24   2.0000      -1.476823       -40.1864
  25   2.0000      -1.377873       -37.4938
  26   2.0000      -1.355677       -36.8899
  27   2.0000      -1.345117       -36.6025
  28   2.0000      -1.244315       -33.8595
  29   2.0000      -1.153480       -31.3878
  30   2.0000      -1.125715       -30.6323
  31   2.0000      -1.050959       -28.5980
  32   2.0000      -1.035748       -28.1841
  33   2.0000      -1.012635       -27.5552
  34   2.0000      -1.000865       -27.2349
  35   2.0000      -0.986335       -26.8395
  36   2.0000      -0.924628       -25.1604
  37   2.0000      -0.899820       -24.4853
  38   2.0000      -0.851795       -23.1785
  39   2.0000      -0.836687       -22.7674
  40   2.0000      -0.826032       -22.4775
  41   2.0000      -0.811688       -22.0871
  42   2.0000      -0.766090       -20.8464
  43   2.0000      -0.738951       -20.1079
  44   2.0000      -0.728000       -19.8099
  45   2.0000      -0.694448       -18.8969
  46   2.0000      -0.686077       -18.6691
  47   2.0000      -0.682296       -18.5662
  48   2.0000      -0.670040       -18.2327
  49   2.0000      -0.661782       -18.0080
  50   2.0000      -0.649140       -17.6640
  51   2.0000      -0.638072       -17.3628
  52   2.0000      -0.630114       -17.1463
  53   2.0000      -0.620486       -16.8843
  54   2.0000      -0.609019       -16.5723
  55   2.0000      -0.599816       -16.3218
  56   2.0000      -0.579288       -15.7632
  57   2.0000      -0.577829       -15.7235
  58   2.0000      -0.573336       -15.6013
  59   2.0000      -0.562746       -15.3131
  60   2.0000      -0.558442       -15.1960
  61   2.0000      -0.551305       -15.0018
  62   2.0000      -0.537386       -14.6230
  63   2.0000      -0.528398       -14.3784
  64   2.0000      -0.507405       -13.8072
  65   2.0000      -0.504210       -13.7203
  66   2.0000      -0.499737       -13.5985
  67   2.0000      -0.496102       -13.4996
  68   2.0000      -0.480600       -13.0778
  69   2.0000      -0.471187       -12.8216
  70   2.0000      -0.454099       -12.3567
  71   2.0000      -0.453536       -12.3413
  72   2.0000      -0.358421        -9.7531
  73   2.0000      -0.335879        -9.1397
  74   2.0000      -0.326674        -8.8893
  75   2.0000      -0.323443        -8.8013
  76   2.0000      -0.310513        -8.4495
  77   0.0000       0.083611         2.2752
  78   0.0000       0.115431         3.1410
  79   0.0000       0.118077         3.2130
  80   0.0000       0.134889         3.6705
  81   0.0000       0.139273         3.7898

MULLIKEN ATOMIC CHARGES
-----------------------
   0 C :   -0.292413
   1 C :    0.032158
   2 O :   -0.323791
   3 C :    0.412861
   4 O :   -0.456013
   5 C :   -0.146904
   6 C :    0.140673
   7 C :   -0.299975
   8 N :   -0.136863
   9 C :    0.205819
  10 S :   -0.456574
  11 N :   -0.178343
  12 C :    0.062361
  13 C :   -0.073056
  14 C :   -0.176124
  15 C :   -0.145657
  16 C :   -0.200971
  17 C :    0.266894
  18 O :   -0.386519
  19 C :   -0.159247
  20 H :    0.106876
  21 H :    0.096559
  22 H :    0.105702
  23 H :    0.109542
  24 H :    0.130367
  25 H :    0.136572
  26 H :    0.116089
  27 H :    0.118102
  28 H :    0.199747
  29 H :    0.196632
  30 H :    0.140156
  31 H :    0.153254
  32 H :    0.168909
  33 H :    0.160582
  34 H :    0.247517
  35 H :    0.125078
Sum of atomic charges:    0.0000000

LOEWDIN ATOMIC CHARGES
----------------------
   0 C :    0.113237
   1 C :    0.031693
   2 O :    0.352146
   3 C :   -0.503536
   4 O :    0.108170
   5 C :   -0.096655
   6 C :   -0.067786
   7 C :    0.139256
   8 N :    0.400957
   9 C :   -0.482546
  10 S :   -0.031507
  11 N :    0.411485
  12 C :   -0.056662
  13 C :   -0.028994
  14 C :    0.013791
  15 C :    0.032233
  16 C :    0.040122
  17 C :   -0.154737
  18 O :    0.343132
  19 C :    0.023047
  20 H :   -0.025111
  21 H :   -0.030034
  22 H :   -0.027936
  23 H :   -0.029430
  24 H :   -0.025565
  25 H :   -0.017583
  26 H :   -0.014417
  27 H :   -0.022604
  28 H :   -0.054106
  29 H :   -0.063799
  30 H :   -0.008002
  31 H :   -0.030153
  32 H :   -0.020404
  33 H :   -0.029765
  34 H :   -0.159650
  35 H :   -0.028289

  Mayer bond orders larger than 0.100000
B(  0-C ,  1-C ) :   0.9479 B(  0-C , 20-H ) :   0.9799 B(  0-C , 21-H ) :   0.9781
B(  0-C , 22-H ) :   0.9795 B(  1-C ,  2-O ) :   0.8565 B(  1-C , 23-H ) :   0.9885
B(  1-C , 24-H ) :   0.9755 B(  2-O ,  3-C ) :   1.2388 B(  3-C ,  4-O ) :   1.9721
B(  3-C ,  5-C ) :   1.0130 B(  5-C ,  6-C ) :   1.6738 B(  5-C , 12-C ) :   0.9522
B(  6-C ,  7-C ) :   0.9540 B(  6-C ,  8-N ) :   1.1169 B(  7-C , 25-H ) :   0.9621
B(  7-C , 26-H ) :   0.9678 B(  7-C , 27-H ) :   0.9888 B(  8-N ,  9-C ) :   1.1932
B(  8-N , 28-H ) :   0.9508 B(  9-C , 10-S ) :   1.6030 B(  9-C , 11-N ) :   1.3130
B( 11-N , 12-C ) :   1.0241 B( 11-N , 29-H ) :   0.9373 B( 12-C , 13-C ) :   0.9528
B( 12-C , 30-H ) :   1.0010 B( 13-C , 14-C ) :   1.3715 B( 13-C , 19-C ) :   1.3464
B( 14-C , 15-C ) :   1.4048 B( 14-C , 31-H ) :   0.9671 B( 15-C , 16-C ) :   1.3733
B( 15-C , 32-H ) :   0.9688 B( 16-C , 17-C ) :   1.3621 B( 16-C , 33-H ) :   0.9674
B( 17-C , 18-O ) :   1.0802 B( 17-C , 19-C ) :   1.3728 B( 18-O , 34-H ) :   0.9731
B( 19-C , 35-H ) :   0.9741

MP2 TOTAL ENERGY:    -1274.305398425 Eh
FINAL SINGLE POINT ENERGY     -1274.305398425404

DIPOLE MOMENT
-------------
                                X             Y             Z
Electronic contribution:      2.90209       9.61985     -14.15845
Nuclear contribution   :     -3.39039     -10.65533      16.23065
                        -----------------------------------------
Total Dipole Moment    :     -0.48830      -1.03548       2.07219
                        -----------------------------------------
Magnitude (a.u.)       :      2.36741
Magnitude (Debye)      :      6.01748

Rotational constants in cm-1:     0.010511     0.008877     0.005382
Rotational constants in MHz :   315.115479   266.112479   161.352609

                             ****ORCA TERMINATED NORMALLY****
TOTAL RUN TIME: 0 days 2 hours 44 minutes 50 seconds 677 msec
