                         Program Version 5.0.0 -  RELEASE  -
|  1> ! RI-MP2 cc-pVTZ cc-pVTZ/c TightSCF KeepDens NoKeepInts
|  2>
|  3> %pointcharges "srfp_output"
|  4>
|  5> *xyz  0  1
|  6>     C     5.4801521    7.5816505   -6.9554568
|  7>     C     6.7505462    7.6686612   -7.8478409
|  8>     O     6.7763726    8.9916388   -8.4860687
|  9>     C     6.4302429    9.1972615   -9.7231322
| 10>     O     5.9487432    8.2960278  -10.3704871
| 11>     C     6.7441832   10.5271375  -10.2749130
| 12>     C     6.8764608   11.6148683   -9.5498475
| 13>     C     6.8246299   11.8217103   -8.0009478
| 14>     N     7.2715017   12.8255186  -10.1349761
| 15>     C     7.3577377   12.9807073  -11.4911903
| 16>     S     7.7718006   14.3931057  -12.2153724
| 17>     N     7.2214202   11.8762129  -12.2509035
| 18>     C     6.9285418   10.5290131  -11.7904385
| 19>     C     7.9189496    9.5126061  -12.3297991
| 20>     C     9.3344129    9.6121056  -12.1535114
| 21>     C    10.2362790    8.6866897  -12.6402658
| 22>     C     9.7078475    7.5889667  -13.3778524
| 23>     C     8.3024766    7.3636930  -13.4444684
| 24>     O     7.7594877    6.2039442  -14.0285588
| 25>     C     7.4495670    8.3165147  -12.9394061
| 26>     H     4.6760418    7.0989854   -7.5243510
| 27>     H     5.1686034    8.6253652   -6.8258865
| 28>     H     5.6597100    7.0142231   -6.0340585
| 29>     H     7.6327173    7.6572802   -7.1960467
| 30>     H     6.7589215    6.8159897   -8.5378197
| 31>     H     7.4825940   11.0847397   -7.5243430
| 32>     H     5.8016541   11.5228292   -7.7413697
| 33>     H     6.8839594   12.8411767   -7.6005008
| 34>     H     7.4634508   13.5571107   -9.4612583
| 35>     H     7.3299391   12.1338248  -13.2244671
| 36>     H     5.9560952   10.2631615  -12.2227116
| 37>     H     9.6690334   10.5505295  -11.7213244
| 38>     H    11.3063176    8.7874163  -12.4844854
| 39>     H    10.4058062    6.9041689  -13.8504093
| 40>     H     6.7882984    6.1454339  -14.0186105
| 41>     H     6.3950425    8.2732063  -13.1953329
| 42> *
| 43>
| 44>                          ****END OF INPUT****

CARTESIAN COORDINATES (ANGSTROEM)
---------------------------------
  C      5.480152    7.581650   -6.955457
  C      6.750546    7.668661   -7.847841
  O      6.776373    8.991639   -8.486069
  C      6.430243    9.197261   -9.723132
  O      5.948743    8.296028  -10.370487
  C      6.744183   10.527138  -10.274913
  C      6.876461   11.614868   -9.549848
  C      6.824630   11.821710   -8.000948
  N      7.271502   12.825519  -10.134976
  C      7.357738   12.980707  -11.491190
  S      7.771801   14.393106  -12.215372
  N      7.221420   11.876213  -12.250903
  C      6.928542   10.529013  -11.790439
  C      7.918950    9.512606  -12.329799
  C      9.334413    9.612106  -12.153511
  C     10.236279    8.686690  -12.640266
  C      9.707847    7.588967  -13.377852
  C      8.302477    7.363693  -13.444468
  O      7.759488    6.203944  -14.028559
  C      7.449567    8.316515  -12.939406
  H      4.676042    7.098985   -7.524351
  H      5.168603    8.625365   -6.825886
  H      5.659710    7.014223   -6.034059
  H      7.632717    7.657280   -7.196047
  H      6.758921    6.815990   -8.537820
  H      7.482594   11.084740   -7.524343
  H      5.801654   11.522829   -7.741370
  H      6.883959   12.841177   -7.600501
  H      7.463451   13.557111   -9.461258
  H      7.329939   12.133825  -13.224467
  H      5.956095   10.263162  -12.222712
  H      9.669033   10.550529  -11.721324
  H     11.306318    8.787416  -12.484485
  H     10.405806    6.904169  -13.850409
  H      6.788298    6.145434  -14.018610
  H      6.395042    8.273206  -13.195333

 Total Charge           Charge          ....    0
 Multiplicity           Mult            ....    1
 Number of Electrons    NEL             ....  154
 Basis Dimension        Dim             ....  828

ORBITAL ENERGIES
----------------

  NO   OCC          E(Eh)            E(eV)
   0   2.0000     -93.263535     -2537.8298
   1   2.0000     -21.949720      -597.2822
   2   2.0000     -21.929292      -596.7264
   3   2.0000     -21.897247      -595.8544
   4   2.0000     -16.970149      -461.7812
   5   2.0000     -16.962282      -461.5672
   6   2.0000     -12.746058      -346.8379
   7   2.0000     -12.743140      -346.7585
   8   2.0000     -12.671296      -344.8035
   9   2.0000     -12.663295      -344.5858
  10   2.0000     -12.657047      -344.4158
  11   2.0000     -12.639511      -343.9386
  12   2.0000     -12.610554      -343.1506
  13   2.0000     -12.600475      -342.8764
  14   2.0000     -12.597173      -342.7865
  15   2.0000     -12.596928      -342.7798
  16   2.0000     -12.588203      -342.5424
  17   2.0000     -12.587221      -342.5157
  18   2.0000     -12.586352      -342.4920
  19   2.0000     -12.560781      -341.7962
  20   2.0000     -10.271184      -279.4931
  21   2.0000      -7.953296      -216.4202
  22   2.0000      -7.951146      -216.3617
  23   2.0000      -7.950751      -216.3509
  24   2.0000      -2.827601       -76.9429
  25   2.0000      -2.727470       -74.2182
  26   2.0000      -2.714781       -73.8730
  27   2.0000      -2.696189       -73.3670
  28   2.0000      -2.592466       -70.5446
  29   2.0000      -2.507840       -68.2418
  30   2.0000      -2.475846       -67.3712
  31   2.0000      -2.393472       -65.1297
  32   2.0000      -2.378752       -64.7291
  33   2.0000      -2.364977       -64.3543
  34   2.0000      -2.350474       -63.9597
  35   2.0000      -2.334953       -63.5373
  36   2.0000      -2.275229       -61.9121
  37   2.0000      -2.236562       -60.8599
  38   2.0000      -2.200754       -59.8856
  39   2.0000      -2.188605       -59.5550
  40   2.0000      -2.170030       -59.0495
  41   2.0000      -2.163409       -58.8693
  42   2.0000      -2.110469       -57.4288
  43   2.0000      -2.089067       -56.8464
  44   2.0000      -2.077783       -56.5393
  45   2.0000      -2.047423       -55.7132
  46   2.0000      -2.040559       -55.5264
  47   2.0000      -2.028370       -55.1948
  48   2.0000      -2.020706       -54.9862
  49   2.0000      -2.009578       -54.6834
  50   2.0000      -1.999631       -54.4127
  51   2.0000      -1.983031       -53.9610
  52   2.0000      -1.977643       -53.8144
  53   2.0000      -1.957360       -53.2625
  54   2.0000      -1.955620       -53.2151
  55   2.0000      -1.937077       -52.7105
  56   2.0000      -1.928607       -52.4801
  57   2.0000      -1.914225       -52.0887
  58   2.0000      -1.912699       -52.0472
  59   2.0000      -1.912360       -52.0380
  60   2.0000      -1.900472       -51.7145
  61   2.0000      -1.898606       -51.6637
  62   2.0000      -1.886741       -51.3408
  63   2.0000      -1.871251       -50.9193
  64   2.0000      -1.860685       -50.6318
  65   2.0000      -1.854800       -50.4717
  66   2.0000      -1.849019       -50.3144
  67   2.0000      -1.836221       -49.9661
  68   2.0000      -1.832003       -49.8513
  69   2.0000      -1.821714       -49.5713
  70   2.0000      -1.812847       -49.3301
  71   2.0000      -1.802817       -49.0571
  72   2.0000      -1.716241       -46.7013
  73   2.0000      -1.711092       -46.5612
  74   2.0000      -1.695078       -46.1254
  75   2.0000      -1.691232       -46.0208
  76   2.0000      -1.671405       -45.4812
  77   0.0000      -1.271693       -34.6045
  78   0.0000      -1.237923       -33.6856
  79   0.0000      -1.217553       -33.1313
  80   0.0000      -1.199974       -32.6530
  81   0.0000      -1.185700       -32.2645

MULLIKEN ATOMIC CHARGES
-----------------------
   0 C :   -0.286034
   1 C :    0.018696
   2 O :   -0.305928
   3 C :    0.462618
   4 O :   -0.590925
   5 C :   -0.144435
   6 C :    0.166403
   7 C :   -0.290336
   8 N :   -0.146547
   9 C :    0.341600
  10 S :   -0.723202
  11 N :   -0.198891
  12 C :    0.073155
  13 C :   -0.063413
  14 C :   -0.239707
  15 C :   -0.189934
  16 C :   -0.239502
  17 C :    0.298595
  18 O :   -0.468923
  19 C :   -0.229934
  20 H :    0.099786
  21 H :    0.105425
  22 H :    0.117935
  23 H :    0.126657
  24 H :    0.127342
  25 H :    0.137999
  26 H :    0.126477
  27 H :    0.139666
  28 H :    0.256457
  29 H :    0.256906
  30 H :    0.163260
  31 H :    0.186799
  32 H :    0.212530
  33 H :    0.180723
  34 H :    0.328375
  35 H :    0.190308
Sum of atomic charges:   -0.0000000

LOEWDIN ATOMIC CHARGES
----------------------
   0 C :    0.117875
   1 C :    0.034371
   2 O :    0.366100
   3 C :   -0.482688
   4 O :    0.026193
   5 C :   -0.095675
   6 C :   -0.043924
   7 C :    0.151996
   8 N :    0.420964
   9 C :   -0.445942
  10 S :   -0.203097
  11 N :    0.433597
  12 C :   -0.048351
  13 C :   -0.030613
  14 C :   -0.002100
  15 C :    0.020234
  16 C :    0.023482
  17 C :   -0.165375
  18 O :    0.313919
  19 C :    0.019239
  20 H :   -0.026815
  21 H :   -0.026434
  22 H :   -0.022003
  23 H :   -0.021597
  24 H :   -0.029170
  25 H :   -0.014346
  26 H :   -0.008509
  27 H :   -0.010759
  28 H :   -0.024728
  29 H :   -0.036671
  30 H :    0.000211
  31 H :   -0.022906
  32 H :   -0.008084
  33 H :   -0.023799
  34 H :   -0.118477
  35 H :   -0.016118

  Mayer bond orders larger than 0.100000
B(  0-C ,  1-C ) :   0.9456 B(  0-C , 20-H ) :   0.9801 B(  0-C , 21-H ) :   0.9754
B(  0-C , 22-H ) :   0.9766 B(  1-C ,  2-O ) :   0.8388 B(  1-C , 23-H ) :   0.9857
B(  1-C , 24-H ) :   0.9778 B(  2-O ,  3-C ) :   1.2892 B(  3-C ,  4-O ) :   1.8933
B(  3-C ,  5-C ) :   1.0521 B(  5-C ,  6-C ) :   1.6634 B(  5-C , 12-C ) :   0.9587
B(  6-C ,  7-C ) :   0.9573 B(  6-C ,  8-N ) :   1.1152 B(  7-C , 25-H ) :   0.9601
B(  7-C , 26-H ) :   0.9630 B(  7-C , 27-H ) :   0.9817 B(  8-N ,  9-C ) :   1.2782
B(  8-N , 28-H ) :   0.9206 B(  9-C , 10-S ) :   1.2899 B(  9-C , 11-N ) :   1.4089
B( 11-N , 12-C ) :   1.0033 B( 11-N , 29-H ) :   0.9157 B( 12-C , 13-C ) :   0.9461
B( 12-C , 30-H ) :   0.9973 B( 13-C , 14-C ) :   1.3332 B( 13-C , 19-C ) :   1.3312
B( 14-C , 15-C ) :   1.4009 B( 14-C , 31-H ) :   0.9634 B( 15-C , 16-C ) :   1.3631
B( 15-C , 32-H ) :   0.9520 B( 16-C , 17-C ) :   1.3494 B( 16-C , 33-H ) :   0.9607
B( 17-C , 18-O ) :   1.0841 B( 17-C , 19-C ) :   1.3725 B( 18-O , 34-H ) :   0.9104
B( 19-C , 35-H ) :   0.9550

MP2 TOTAL ENERGY:    -1274.431449688 Eh
FINAL SINGLE POINT ENERGY     -1274.431449688499

DIPOLE MOMENT
-------------
                                X             Y             Z
Electronic contribution:      2.53022       9.23758     -13.15243
Nuclear contribution   :     -3.39039     -10.65533      16.23065
                        -----------------------------------------
Total Dipole Moment    :     -0.86017      -1.41775       3.07821
                        -----------------------------------------
Magnitude (a.u.)       :      3.49647
Magnitude (Debye)      :      8.88732

Rotational constants in cm-1:     0.010511     0.008877     0.005382
Rotational constants in MHz :   315.115479   266.112479   161.352609

                             ****ORCA TERMINATED NORMALLY****
TOTAL RUN TIME: 0 days 3 hours 2 minutes 17 seconds 490 msec
