                         Program Version 4.2.0 -  RELEASE  -
|  1> ! ri-mp2 cc-pvtz cc-pvtz/c TightSCF  NoKeepInts
|  2>
|  3> %scf
|  4>   MaxCore 4096
|  5> end
|  6> *xyz  0  1
|  7>     C       15.1081443   14.4671403   16.9649362
|  8>     C       16.4794480   13.9485000   16.4733419
|  9>     O       17.5063888   14.9684189   16.4540377
| 10>     C       17.2240998   16.2888745   16.2426092
| 11>     O       16.4971298   16.6480345   15.3326813
| 12>     C       17.7360132   17.1857696   17.3370026
| 13>     C       17.5158560   18.5253758   17.3406849
| 14>     C       16.7303586   19.3293216   16.3267452
| 15>     N       18.0799347   19.3252945   18.3393144
| 16>     C       18.9865218   18.8908682   19.2693277
| 17>     S       19.7107674   19.9261412   20.3367215
| 18>     N       19.2690412   17.5486532   19.2662411
| 19>     C       18.5557597   16.5369681   18.4652177
| 20>     C       17.6945144   15.6753898   19.3837653
| 21>     C       17.9968948   14.3139175   19.5742877
| 22>     C       17.2043127   13.5163593   20.4167646
| 23>     C       16.1039934   14.0859246   21.0798580
| 24>     C       15.8063548   15.4438419   20.9012499
| 25>     O       14.7449777   15.9968653   21.5400710
| 26>     C       16.5959119   16.2345900   20.0607984
| 27>     H       15.2030711   14.9911372   17.9225827
| 28>     H       14.4194993   13.6264469   17.1109064
| 29>     H       14.6467998   15.1447739   16.2362887
| 30>     H       16.8090116   13.1201140   17.1133061
| 31>     H       16.3521278   13.5516216   15.4576317
| 32>     H       17.1635838   19.2154953   15.3247996
| 33>     H       16.7038022   20.4010408   16.5557993
| 34>     H       15.6924988   18.9759883   16.2758441
| 35>     H       17.8884120   20.3143856   18.3512819
| 36>     H       19.9173122   17.2527645   19.9846012
| 37>     H       19.3155072   15.8945672   17.9980962
| 38>     H       18.8459349   13.8706752   19.0605946
| 39>     H       17.4448677   12.4637154   20.5557993
| 40>     H       15.4893437   13.4744394   21.7323607
| 41>     H       14.3566707   15.3138731   22.1072998
| 42>     H       16.3521342   17.2847129   19.9411516
| 43> *
| 44>
| 45>                          ****END OF INPUT****

CARTESIAN COORDINATES (ANGSTROEM)
---------------------------------
  C     15.108144   14.467140   16.964936
  C     16.479448   13.948500   16.473342
  O     17.506389   14.968419   16.454038
  C     17.224100   16.288874   16.242609
  O     16.497130   16.648035   15.332681
  C     17.736013   17.185770   17.337003
  C     17.515856   18.525376   17.340685
  C     16.730359   19.329322   16.326745
  N     18.079935   19.325294   18.339314
  C     18.986522   18.890868   19.269328
  S     19.710767   19.926141   20.336721
  N     19.269041   17.548653   19.266241
  C     18.555760   16.536968   18.465218
  C     17.694514   15.675390   19.383765
  C     17.996895   14.313918   19.574288
  C     17.204313   13.516359   20.416765
  C     16.103993   14.085925   21.079858
  C     15.806355   15.443842   20.901250
  O     14.744978   15.996865   21.540071
  C     16.595912   16.234590   20.060798
  H     15.203071   14.991137   17.922583
  H     14.419499   13.626447   17.110906
  H     14.646800   15.144774   16.236289
  H     16.809012   13.120114   17.113306
  H     16.352128   13.551622   15.457632
  H     17.163584   19.215495   15.324800
  H     16.703802   20.401041   16.555799
  H     15.692499   18.975988   16.275844
  H     17.888412   20.314386   18.351282
  H     19.917312   17.252765   19.984601
  H     19.315507   15.894567   17.998096
  H     18.845935   13.870675   19.060595
  H     17.444868   12.463715   20.555799
  H     15.489344   13.474439   21.732361
  H     14.356671   15.313873   22.107300
  H     16.352134   17.284713   19.941152

 Total Charge           Charge          ....    0
 Multiplicity           Mult            ....    1
 Number of Electrons    NEL             ....  154
 Basis Dimension        Dim             ....  828

ORBITAL ENERGIES
----------------

  NO   OCC          E(Eh)            E(eV)
   0   2.0000     -91.890030     -2500.4548
   1   2.0000     -20.599690      -560.5461
   2   2.0000     -20.587913      -560.2256
   3   2.0000     -20.543160      -559.0078
   4   2.0000     -15.630344      -425.3233
   5   2.0000     -15.609113      -424.7455
   6   2.0000     -11.394121      -310.0498
   7   2.0000     -11.384898      -309.7988
   8   2.0000     -11.336856      -308.4915
   9   2.0000     -11.317196      -307.9566
  10   2.0000     -11.310290      -307.7686
  11   2.0000     -11.299329      -307.4704
  12   2.0000     -11.262580      -306.4704
  13   2.0000     -11.259050      -306.3743
  14   2.0000     -11.259043      -306.3741
  15   2.0000     -11.252700      -306.2015
  16   2.0000     -11.246704      -306.0384
  17   2.0000     -11.241533      -305.8977
  18   2.0000     -11.241408      -305.8943
  19   2.0000     -11.222253      -305.3730
  20   2.0000      -8.895074      -242.0473
  21   2.0000      -6.576643      -178.9596
  22   2.0000      -6.574644      -178.9052
  23   2.0000      -6.574053      -178.8891
  24   2.0000      -1.444583       -39.3091
  25   2.0000      -1.419415       -38.6243
  26   2.0000      -1.351055       -36.7641
  27   2.0000      -1.341281       -36.4981
  28   2.0000      -1.239682       -33.7334
  29   2.0000      -1.160623       -31.5821
  30   2.0000      -1.121108       -30.5069
  31   2.0000      -1.044775       -28.4298
  32   2.0000      -1.032055       -28.0836
  33   2.0000      -1.018730       -27.7211
  34   2.0000      -0.997113       -27.1328
  35   2.0000      -0.985689       -26.8219
  36   2.0000      -0.924218       -25.1492
  37   2.0000      -0.896880       -24.4053
  38   2.0000      -0.848207       -23.0809
  39   2.0000      -0.841311       -22.8932
  40   2.0000      -0.837418       -22.7873
  41   2.0000      -0.817284       -22.2394
  42   2.0000      -0.745696       -20.2914
  43   2.0000      -0.733962       -19.9721
  44   2.0000      -0.722007       -19.6468
  45   2.0000      -0.698825       -19.0160
  46   2.0000      -0.690654       -18.7936
  47   2.0000      -0.674030       -18.3413
  48   2.0000      -0.670579       -18.2474
  49   2.0000      -0.661390       -17.9973
  50   2.0000      -0.651556       -17.7298
  51   2.0000      -0.642522       -17.4839
  52   2.0000      -0.635530       -17.2937
  53   2.0000      -0.622722       -16.9451
  54   2.0000      -0.610040       -16.6000
  55   2.0000      -0.602807       -16.4032
  56   2.0000      -0.600300       -16.3350
  57   2.0000      -0.580186       -15.7877
  58   2.0000      -0.571381       -15.5481
  59   2.0000      -0.566213       -15.4074
  60   2.0000      -0.549677       -14.9575
  61   2.0000      -0.544173       -14.8077
  62   2.0000      -0.534341       -14.5401
  63   2.0000      -0.527448       -14.3526
  64   2.0000      -0.525620       -14.3028
  65   2.0000      -0.514855       -14.0099
  66   2.0000      -0.502979       -13.6868
  67   2.0000      -0.499045       -13.5797
  68   2.0000      -0.483399       -13.1540
  69   2.0000      -0.464117       -12.6293
  70   2.0000      -0.454401       -12.3649
  71   2.0000      -0.442882       -12.0514
  72   2.0000      -0.355582        -9.6759
  73   2.0000      -0.352263        -9.5856
  74   2.0000      -0.329584        -8.9684
  75   2.0000      -0.325211        -8.8494
  76   2.0000      -0.317148        -8.6300
  77   0.0000       0.071927         1.9572
  78   0.0000       0.102821         2.7979
  79   0.0000       0.123330         3.3560
  80   0.0000       0.130278         3.5451
  81   0.0000       0.135694         3.6924

MULLIKEN ATOMIC CHARGES
-----------------------
   0 C :   -0.330293
   1 C :    0.034299
   2 O :   -0.389569
   3 C :    0.498659
   4 O :   -0.426123
   5 C :   -0.246842
   6 C :    0.153502
   7 C :   -0.271980
   8 N :   -0.122665
   9 C :    0.208416
  10 S :   -0.437353
  11 N :   -0.201514
  12 C :    0.053063
  13 C :    0.045169
  14 C :   -0.186584
  15 C :   -0.130334
  16 C :   -0.272550
  17 C :    0.312972
  18 O :   -0.359288
  19 C :   -0.268619
  20 H :    0.109323
  21 H :    0.103178
  22 H :    0.126313
  23 H :    0.109698
  24 H :    0.120780
  25 H :    0.133257
  26 H :    0.095225
  27 H :    0.130908
  28 H :    0.198197
  29 H :    0.193513
  30 H :    0.152585
  31 H :    0.159115
  32 H :    0.163809
  33 H :    0.132673
  34 H :    0.241035
  35 H :    0.168028
Sum of atomic charges:   -0.0000000

LOEWDIN ATOMIC CHARGES
----------------------
   0 C :    0.106093
   1 C :   -0.012580
   2 O :    0.288681
   3 C :   -0.417819
   4 O :    0.107006
   5 C :   -0.097005
   6 C :   -0.057866
   7 C :    0.131663
   8 N :    0.406768
   9 C :   -0.457213
  10 S :   -0.033705
  11 N :    0.396657
  12 C :   -0.052287
  13 C :   -0.039672
  14 C :    0.016926
  15 C :    0.039790
  16 C :   -0.001312
  17 C :   -0.190854
  18 O :    0.396488
  19 C :    0.031305
  20 H :   -0.029253
  21 H :   -0.024834
  22 H :   -0.026429
  23 H :   -0.027742
  24 H :   -0.028561
  25 H :   -0.003234
  26 H :   -0.023359
  27 H :   -0.005071
  28 H :   -0.057451
  29 H :   -0.064754
  30 H :   -0.008763
  31 H :   -0.028901
  32 H :   -0.020762
  33 H :   -0.034896
  34 H :   -0.153214
  35 H :   -0.023838

  Mayer bond orders larger than 0.100000
B(  0-C ,  1-C ) :   0.9557 B(  0-C , 20-H ) :   0.9693 B(  0-C , 21-H ) :   0.9775
B(  0-C , 22-H ) :   0.9732 B(  1-C ,  2-O ) :   0.8830 B(  1-C , 23-H ) :   0.9791
B(  1-C , 24-H ) :   0.9866 B(  2-O ,  3-C ) :   1.1220 B(  3-C ,  4-O ) :   1.9898
B(  3-C ,  5-C ) :   1.0626 B(  5-C ,  6-C ) :   1.6523 B(  5-C , 12-C ) :   0.9695
B(  6-C ,  7-C ) :   0.9670 B(  6-C ,  8-N ) :   1.1599 B(  7-C , 25-H ) :   0.9591
B(  7-C , 26-H ) :   0.9900 B(  7-C , 27-H ) :   0.9615 B(  8-N ,  9-C ) :   1.1806
B(  8-N , 28-H ) :   0.9479 B(  9-C , 10-S ) :   1.6118 B(  9-C , 11-N ) :   1.3035
B( 11-N , 12-C ) :   0.9847 B( 11-N , 29-H ) :   0.9528 B( 12-C , 13-C ) :   0.9367
B( 12-C , 30-H ) :   1.0019 B( 13-C , 14-C ) :   1.3539 B( 13-C , 19-C ) :   1.3790
B( 14-C , 15-C ) :   1.3812 B( 14-C , 31-H ) :   0.9702 B( 15-C , 16-C ) :   1.3670
B( 15-C , 32-H ) :   0.9698 B( 16-C , 17-C ) :   1.3302 B( 16-C , 33-H ) :   0.9838
B( 17-C , 18-O ) :   1.1107 B( 17-C , 19-C ) :   1.3704 B( 18-O , 34-H ) :   0.9795
B( 19-C , 35-H ) :   0.9591

MP2 TOTAL ENERGY:    -1274.339841343 Eh
FINAL SINGLE POINT ENERGY     -1274.339841343242

DIPOLE MOMENT
-------------
                                X             Y             Z
Electronic contribution:      9.95285       9.32683       6.01460
Nuclear contribution   :    -10.98292     -11.01236      -6.06160
                        -----------------------------------------
Total Dipole Moment    :     -1.03007      -1.68554      -0.04700
                        -----------------------------------------
Magnitude (a.u.)       :      1.97593
Magnitude (Debye)      :      5.02241

Rotational constants in cm-1:     0.012426     0.009125     0.006544
Rotational constants in MHz :   372.534293   273.547017   196.188007

                             ****ORCA TERMINATED NORMALLY****
TOTAL RUN TIME: 0 days 2 hours 31 minutes 13 seconds 10 msec
