                         Program Version 4.2.0 -  RELEASE  -
|  1> ! ri-mp2 cc-pvtz cc-pvtz/c TightSCF  NoKeepInts
|  2>
|  3> %scf
|  4>   MaxCore 4096
|  5> end
|  6> *xyz  0  1
|  7>     C       15.1570667   13.7612403   16.0293899
|  8>     C       15.2836368   15.1288665   16.7269011
|  9>     O       16.3033910   15.8996804   16.0649682
| 10>     C       17.5803713   15.8141435   16.5379451
| 11>     O       18.1222941   14.7329994   16.6929870
| 12>     C       17.9163759   16.9779027   17.4195939
| 13>     C       17.5235363   18.2506580   17.1646062
| 14>     C       16.7380463   18.7452900   15.9681084
| 15>     N       17.9127188   19.2834635   18.0227626
| 16>     C       18.7910073   19.1437088   19.0655180
| 17>     S       19.2840249   20.4389786   19.9679387
| 18>     N       19.2396230   17.8723501   19.3239365
| 19>     C       18.7417675   16.6487883   18.6663728
| 20>     C       17.9217835   15.8088154   19.6421892
| 21>     C       18.2362939   14.4542605   19.8561926
| 22>     C       17.4715681   13.6715667   20.7372604
| 23>     C       16.3809146   14.2471479   21.4108481
| 24>     C       16.0614693   15.5947774   21.1974690
| 25>     O       15.0023528   16.1510184   21.8375337
| 26>     C       16.8237002   16.3709409   20.3188927
| 27>     H       16.0761115   13.1735556   16.1461467
| 28>     H       14.9631904   13.8893976   14.9573701
| 29>     H       14.3305286   13.1850847   16.4621451
| 30>     H       14.3241287   15.6554894   16.6471092
| 31>     H       15.5148787   14.9984998   17.7937087
| 32>     H       17.0670822   18.2466055   15.0477384
| 33>     H       16.8565178   19.8237344   15.8067106
| 34>     H       15.6679628   18.5398261   16.0955878
| 35>     H       17.5952823   20.2238699   17.8488923
| 36>     H       19.8635702   17.7938984   20.1168040
| 37>     H       19.6139949   16.0596090   18.3478491
| 38>     H       19.0668928   14.0012873   19.3200030
| 39>     H       17.7223893   12.6231547   20.8889702
| 40>     H       15.7864672   13.6453794   22.0903086
| 41>     H       14.6462195   15.4836379   22.4433587
| 42>     H       16.5598410   17.4123730   20.1698833
| 43> *
| 44>
| 45>                          ****END OF INPUT****

CARTESIAN COORDINATES (ANGSTROEM)
---------------------------------
  C     15.157067   13.761240   16.029390
  C     15.283637   15.128867   16.726901
  O     16.303391   15.899680   16.064968
  C     17.580371   15.814144   16.537945
  O     18.122294   14.732999   16.692987
  C     17.916376   16.977903   17.419594
  C     17.523536   18.250658   17.164606
  C     16.738046   18.745290   15.968108
  N     17.912719   19.283463   18.022763
  C     18.791007   19.143709   19.065518
  S     19.284025   20.438979   19.967939
  N     19.239623   17.872350   19.323936
  C     18.741768   16.648788   18.666373
  C     17.921784   15.808815   19.642189
  C     18.236294   14.454260   19.856193
  C     17.471568   13.671567   20.737260
  C     16.380915   14.247148   21.410848
  C     16.061469   15.594777   21.197469
  O     15.002353   16.151018   21.837534
  C     16.823700   16.370941   20.318893
  H     16.076111   13.173556   16.146147
  H     14.963190   13.889398   14.957370
  H     14.330529   13.185085   16.462145
  H     14.324129   15.655489   16.647109
  H     15.514879   14.998500   17.793709
  H     17.067082   18.246606   15.047738
  H     16.856518   19.823734   15.806711
  H     15.667963   18.539826   16.095588
  H     17.595282   20.223870   17.848892
  H     19.863570   17.793898   20.116804
  H     19.613995   16.059609   18.347849
  H     19.066893   14.001287   19.320003
  H     17.722389   12.623155   20.888970
  H     15.786467   13.645379   22.090309
  H     14.646219   15.483638   22.443359
  H     16.559841   17.412373   20.169883

 Total Charge           Charge          ....    0
 Multiplicity           Mult            ....    1
 Number of Electrons    NEL             ....  154
 Basis Dimension        Dim             ....  828

ORBITAL ENERGIES
----------------

  NO   OCC          E(Eh)            E(eV)
   0   2.0000     -91.889054     -2500.4283
   1   2.0000     -20.596571      -560.4612
   2   2.0000     -20.583296      -560.1000
   3   2.0000     -20.557179      -559.3893
   4   2.0000     -15.628513      -425.2734
   5   2.0000     -15.608669      -424.7335
   6   2.0000     -11.395860      -310.0971
   7   2.0000     -11.384574      -309.7900
   8   2.0000     -11.333075      -308.3887
   9   2.0000     -11.312999      -307.8424
  10   2.0000     -11.309139      -307.7373
  11   2.0000     -11.299823      -307.4838
  12   2.0000     -11.260261      -306.4073
  13   2.0000     -11.259452      -306.3853
  14   2.0000     -11.258455      -306.3581
  15   2.0000     -11.253140      -306.2135
  16   2.0000     -11.242798      -305.9321
  17   2.0000     -11.238560      -305.8168
  18   2.0000     -11.235836      -305.7426
  19   2.0000     -11.219034      -305.2854
  20   2.0000      -8.894129      -242.0216
  21   2.0000      -6.575707      -178.9341
  22   2.0000      -6.573698      -178.8794
  23   2.0000      -6.573113      -178.8635
  24   2.0000      -1.452401       -39.5219
  25   2.0000      -1.416378       -38.5416
  26   2.0000      -1.357698       -36.9448
  27   2.0000      -1.339696       -36.4550
  28   2.0000      -1.238066       -33.6895
  29   2.0000      -1.157083       -31.4858
  30   2.0000      -1.121603       -30.5204
  31   2.0000      -1.044817       -28.4309
  32   2.0000      -1.030163       -28.0322
  33   2.0000      -1.014542       -27.6071
  34   2.0000      -0.999103       -27.1870
  35   2.0000      -0.984385       -26.7865
  36   2.0000      -0.923788       -25.1375
  37   2.0000      -0.882852       -24.0236
  38   2.0000      -0.849277       -23.1100
  39   2.0000      -0.839476       -22.8433
  40   2.0000      -0.833126       -22.6705
  41   2.0000      -0.826620       -22.4935
  42   2.0000      -0.750971       -20.4350
  43   2.0000      -0.732545       -19.9336
  44   2.0000      -0.728852       -19.8331
  45   2.0000      -0.694926       -18.9099
  46   2.0000      -0.686782       -18.6883
  47   2.0000      -0.681211       -18.5367
  48   2.0000      -0.672896       -18.3104
  49   2.0000      -0.664797       -18.0900
  50   2.0000      -0.647422       -17.6172
  51   2.0000      -0.643524       -17.5112
  52   2.0000      -0.635964       -17.3055
  53   2.0000      -0.605774       -16.4839
  54   2.0000      -0.603981       -16.4352
  55   2.0000      -0.600410       -16.3380
  56   2.0000      -0.590516       -16.0688
  57   2.0000      -0.586141       -15.9497
  58   2.0000      -0.576892       -15.6980
  59   2.0000      -0.570307       -15.5188
  60   2.0000      -0.562550       -15.3078
  61   2.0000      -0.549712       -14.9584
  62   2.0000      -0.534850       -14.5540
  63   2.0000      -0.522081       -14.2066
  64   2.0000      -0.514323       -13.9954
  65   2.0000      -0.511267       -13.9123
  66   2.0000      -0.503201       -13.6928
  67   2.0000      -0.497971       -13.5505
  68   2.0000      -0.481221       -13.0947
  69   2.0000      -0.465947       -12.6791
  70   2.0000      -0.452919       -12.3246
  71   2.0000      -0.451171       -12.2770
  72   2.0000      -0.354436        -9.6447
  73   2.0000      -0.348704        -9.4887
  74   2.0000      -0.328391        -8.9360
  75   2.0000      -0.320263        -8.7148
  76   2.0000      -0.315972        -8.5980
  77   0.0000       0.070707         1.9240
  78   0.0000       0.104657         2.8479
  79   0.0000       0.119560         3.2534
  80   0.0000       0.131638         3.5820
  81   0.0000       0.135590         3.6896

MULLIKEN ATOMIC CHARGES
-----------------------
   0 C :   -0.269995
   1 C :    0.040537
   2 O :   -0.376568
   3 C :    0.444263
   4 O :   -0.400922
   5 C :   -0.177212
   6 C :    0.132302
   7 C :   -0.279167
   8 N :   -0.123677
   9 C :    0.202207
  10 S :   -0.439368
  11 N :   -0.201424
  12 C :    0.056538
  13 C :    0.029415
  14 C :   -0.157057
  15 C :   -0.135373
  16 C :   -0.278928
  17 C :    0.312810
  18 O :   -0.359043
  19 C :   -0.274947
  20 H :    0.116892
  21 H :    0.091848
  22 H :    0.086422
  23 H :    0.098625
  24 H :    0.101335
  25 H :    0.123336
  26 H :    0.103817
  27 H :    0.125507
  28 H :    0.197199
  29 H :    0.194252
  30 H :    0.155607
  31 H :    0.157977
  32 H :    0.161341
  33 H :    0.131426
  34 H :    0.240905
  35 H :    0.169120
Sum of atomic charges:    0.0000000

LOEWDIN ATOMIC CHARGES
----------------------
   0 C :    0.105754
   1 C :   -0.014909
   2 O :    0.286829
   3 C :   -0.415560
   4 O :    0.132738
   5 C :   -0.093908
   6 C :   -0.074395
   7 C :    0.126526
   8 N :    0.404112
   9 C :   -0.457517
  10 S :   -0.036136
  11 N :    0.396995
  12 C :   -0.045385
  13 C :   -0.041917
  14 C :    0.020795
  15 C :    0.041633
  16 C :   -0.002173
  17 C :   -0.194648
  18 O :    0.393883
  19 C :    0.027850
  20 H :   -0.025177
  21 H :   -0.028712
  22 H :   -0.030339
  23 H :   -0.026915
  24 H :   -0.026909
  25 H :   -0.007871
  26 H :   -0.019400
  27 H :   -0.009634
  28 H :   -0.058627
  29 H :   -0.064119
  30 H :   -0.004760
  31 H :   -0.024452
  32 H :   -0.020109
  33 H :   -0.035400
  34 H :   -0.153889
  35 H :   -0.024255

  Mayer bond orders larger than 0.100000
B(  0-C ,  1-C ) :   0.9813 B(  0-C , 20-H ) :   0.9722 B(  0-C , 21-H ) :   0.9774
B(  0-C , 22-H ) :   0.9758 B(  1-C ,  2-O ) :   0.8898 B(  1-C , 23-H ) :   0.9825
B(  1-C , 24-H ) :   0.9675 B(  2-O ,  3-C ) :   1.0781 B(  3-C ,  4-O ) :   2.0083
B(  3-C ,  5-C ) :   1.0317 B(  5-C ,  6-C ) :   1.6717 B(  5-C , 12-C ) :   0.9604
B(  6-C ,  7-C ) :   0.9513 B(  6-C ,  8-N ) :   1.1381 B(  7-C , 25-H ) :   0.9707
B(  7-C , 26-H ) :   0.9881 B(  7-C , 27-H ) :   0.9629 B(  8-N ,  9-C ) :   1.1845
B(  8-N , 28-H ) :   0.9499 B(  9-C , 10-S ) :   1.6114 B(  9-C , 11-N ) :   1.2989
B( 11-N , 12-C ) :   0.9936 B( 11-N , 29-H ) :   0.9516 B( 12-C , 13-C ) :   0.9430
B( 12-C , 30-H ) :   0.9987 B( 13-C , 14-C ) :   1.3795 B( 13-C , 19-C ) :   1.3682
B( 14-C , 15-C ) :   1.3946 B( 14-C , 31-H ) :   0.9630 B( 15-C , 16-C ) :   1.3636
B( 15-C , 32-H ) :   0.9709 B( 16-C , 17-C ) :   1.3300 B( 16-C , 33-H ) :   0.9847
B( 17-C , 18-O ) :   1.1104 B( 17-C , 19-C ) :   1.3733 B( 18-O , 34-H ) :   0.9797
B( 19-C , 35-H ) :   0.9580

MP2 TOTAL ENERGY:    -1274.323613060 Eh
FINAL SINGLE POINT ENERGY     -1274.323613060284

DIPOLE MOMENT
-------------
                                X             Y             Z
Electronic contribution:     10.62814      10.50765       7.71699
Nuclear contribution   :    -12.06290     -11.63664      -8.21196
                        -----------------------------------------
Total Dipole Moment    :     -1.43476      -1.12899      -0.49497
                        -----------------------------------------
Magnitude (a.u.)       :      1.89160
Magnitude (Debye)      :      4.80807

Rotational constants in cm-1:     0.011954     0.009033     0.006400
Rotational constants in MHz :   358.361983   270.792504   191.872375

                             ****ORCA TERMINATED NORMALLY****
TOTAL RUN TIME: 0 days 1 hours 47 minutes 52 seconds 952 msec
