                         Program Version 5.0.0 -  RELEASE  -
|  1> ! ri-mp2 cc-pvtz cc-pvtz/c TightSCF NoKeepInts
|  2>
|  3> %scf
|  4>   MaxCore 4096
|  5> end
|  6> *xyz  0  1
|  7>     C       14.4827087   14.7049807   15.1244262
|  8>     C       15.5979198   14.4119092   16.1419114
|  9>     O       16.5211871   15.5113780   16.0972326
| 10>     C       17.6536261   15.4364307   16.8537022
| 11>     O       18.1315520   14.3637269   17.1853379
| 12>     C       17.9708293   16.7079673   17.5858265
| 13>     C       17.5976939   17.9480345   17.1753982
| 14>     C       16.8291015   18.3212520   15.9242851
| 15>     N       17.9971183   19.0710534   17.9072915
| 16>     C       18.8811422   19.0502295   18.9537217
| 17>     S       19.3999955   20.4404243   19.6842843
| 18>     N       19.3144918   17.8147174   19.3634319
| 19>     C       18.7821698   16.5291376   18.8737917
| 20>     C       17.9467047   15.8506175   19.9564021
| 21>     C       18.2451845   14.5390595   20.3696715
| 22>     C       17.4767553   13.9080209   21.3622648
| 23>     C       16.3990758   14.5936122   21.9480876
| 24>     C       16.0958366   15.8985760   21.5367841
| 25>     O       15.0517112   16.5609048   22.0957591
| 26>     C       16.8621267   16.5237823   20.5481696
| 27>     H       13.9597011   15.6347025   15.3803398
| 28>     H       13.7490025   13.8897702   15.1134144
| 29>     H       14.8983339   14.8064988   14.1141410
| 30>     H       15.1771364   14.3061618   17.1509796
| 31>     H       16.1028967   13.4739183   15.8726067
| 32>     H       17.2319071   17.7989346   15.0474978
| 33>     H       16.8737720   19.3950396   15.7055679
| 34>     H       15.7716718   18.0459527   16.0236140
| 35>     H       17.6902446   19.9871384   17.6215406
| 36>     H       19.9415246   17.8250872   20.1575794
| 37>     H       19.6393856   15.8802983   18.6427297
| 38>     H       19.0674049   14.0001640   19.9051271
| 39>     H       17.7148773   12.8909914   21.6685343
| 40>     H       15.8020429   14.1093595   22.7135871
| 41>     H       14.6780551   15.9867158   22.7809592
| 42>     H       16.6121126   17.5354521   20.2480009
| 43> *
| 44>
| 45>                          ****END OF INPUT****

CARTESIAN COORDINATES (ANGSTROEM)
---------------------------------
  C     14.482709   14.704981   15.124426
  C     15.597920   14.411909   16.141911
  O     16.521187   15.511378   16.097233
  C     17.653626   15.436431   16.853702
  O     18.131552   14.363727   17.185338
  C     17.970829   16.707967   17.585826
  C     17.597694   17.948034   17.175398
  C     16.829102   18.321252   15.924285
  N     17.997118   19.071053   17.907291
  C     18.881142   19.050230   18.953722
  S     19.399995   20.440424   19.684284
  N     19.314492   17.814717   19.363432
  C     18.782170   16.529138   18.873792
  C     17.946705   15.850618   19.956402
  C     18.245185   14.539059   20.369671
  C     17.476755   13.908021   21.362265
  C     16.399076   14.593612   21.948088
  C     16.095837   15.898576   21.536784
  O     15.051711   16.560905   22.095759
  C     16.862127   16.523782   20.548170
  H     13.959701   15.634702   15.380340
  H     13.749002   13.889770   15.113414
  H     14.898334   14.806499   14.114141
  H     15.177136   14.306162   17.150980
  H     16.102897   13.473918   15.872607
  H     17.231907   17.798935   15.047498
  H     16.873772   19.395040   15.705568
  H     15.771672   18.045953   16.023614
  H     17.690245   19.987138   17.621541
  H     19.941525   17.825087   20.157579
  H     19.639386   15.880298   18.642730
  H     19.067405   14.000164   19.905127
  H     17.714877   12.890991   21.668534
  H     15.802043   14.109359   22.713587
  H     14.678055   15.986716   22.780959
  H     16.612113   17.535452   20.248001

 Total Charge           Charge          ....    0
 Multiplicity           Mult            ....    1
 Number of Electrons    NEL             ....  154
 Basis Dimension        Dim             ....  828

ORBITAL ENERGIES
----------------

  NO   OCC          E(Eh)            E(eV)
   0   2.0000     -91.888143     -2500.4035
   1   2.0000     -20.597978      -560.4995
   2   2.0000     -20.592603      -560.3532
   3   2.0000     -20.548785      -559.1609
   4   2.0000     -15.628279      -425.2671
   5   2.0000     -15.606992      -424.6878
   6   2.0000     -11.394831      -310.0691
   7   2.0000     -11.383205      -309.7528
   8   2.0000     -11.335153      -308.4452
   9   2.0000     -11.308466      -307.7190
  10   2.0000     -11.306356      -307.6616
  11   2.0000     -11.298682      -307.4528
  12   2.0000     -11.260229      -306.4064
  13   2.0000     -11.259272      -306.3804
  14   2.0000     -11.254291      -306.2448
  15   2.0000     -11.248549      -306.0886
  16   2.0000     -11.238226      -305.8077
  17   2.0000     -11.234304      -305.7010
  18   2.0000     -11.234300      -305.7009
  19   2.0000     -11.231313      -305.6196
  20   2.0000      -8.893208      -241.9965
  21   2.0000      -6.574786      -178.9090
  22   2.0000      -6.572779      -178.8544
  23   2.0000      -6.572194      -178.8385
  24   2.0000      -1.454899       -39.5898
  25   2.0000      -1.412346       -38.4319
  26   2.0000      -1.357277       -36.9334
  27   2.0000      -1.339245       -36.4427
  28   2.0000      -1.237039       -33.6616
  29   2.0000      -1.152916       -31.3724
  30   2.0000      -1.119947       -30.4753
  31   2.0000      -1.044422       -28.4202
  32   2.0000      -1.036957       -28.2170
  33   2.0000      -1.010305       -27.4918
  34   2.0000      -0.997919       -27.1548
  35   2.0000      -0.983571       -26.7643
  36   2.0000      -0.921473       -25.0746
  37   2.0000      -0.886513       -24.1232
  38   2.0000      -0.847084       -23.0503
  39   2.0000      -0.835666       -22.7396
  40   2.0000      -0.828720       -22.5506
  41   2.0000      -0.819900       -22.3106
  42   2.0000      -0.760567       -20.6961
  43   2.0000      -0.735911       -20.0252
  44   2.0000      -0.725580       -19.7440
  45   2.0000      -0.691058       -18.8046
  46   2.0000      -0.684003       -18.6127
  47   2.0000      -0.681281       -18.5386
  48   2.0000      -0.675984       -18.3945
  49   2.0000      -0.655924       -17.8486
  50   2.0000      -0.651577       -17.7303
  51   2.0000      -0.643291       -17.5048
  52   2.0000      -0.634685       -17.2707
  53   2.0000      -0.606354       -16.4997
  54   2.0000      -0.601250       -16.3609
  55   2.0000      -0.600755       -16.3474
  56   2.0000      -0.595972       -16.2172
  57   2.0000      -0.577108       -15.7039
  58   2.0000      -0.574026       -15.6200
  59   2.0000      -0.563261       -15.3271
  60   2.0000      -0.561150       -15.2697
  61   2.0000      -0.547576       -14.9003
  62   2.0000      -0.542946       -14.7743
  63   2.0000      -0.522306       -14.2127
  64   2.0000      -0.517838       -14.0911
  65   2.0000      -0.509863       -13.8741
  66   2.0000      -0.504804       -13.7364
  67   2.0000      -0.496024       -13.4975
  68   2.0000      -0.481399       -13.0995
  69   2.0000      -0.463410       -12.6100
  70   2.0000      -0.461310       -12.5529
  71   2.0000      -0.452858       -12.3229
  72   2.0000      -0.354008        -9.6330
  73   2.0000      -0.344754        -9.3812
  74   2.0000      -0.327311        -8.9066
  75   2.0000      -0.315944        -8.5973
  76   2.0000      -0.314536        -8.5590
  77   0.0000       0.074576         2.0293
  78   0.0000       0.110902         3.0178
  79   0.0000       0.120126         3.2688
  80   0.0000       0.135150         3.6776
  81   0.0000       0.138375         3.7654

MULLIKEN ATOMIC CHARGES
-----------------------
   0 C :   -0.273263
   1 C :    0.046136
   2 O :   -0.348202
   3 C :    0.439585
   4 O :   -0.415448
   5 C :   -0.177539
   6 C :    0.141954
   7 C :   -0.286941
   8 N :   -0.123757
   9 C :    0.202235
  10 S :   -0.439627
  11 N :   -0.198337
  12 C :    0.041451
  13 C :    0.054030
  14 C :   -0.160943
  15 C :   -0.133619
  16 C :   -0.279904
  17 C :    0.311179
  18 O :   -0.359003
  19 C :   -0.273821
  20 H :    0.091280
  21 H :    0.098140
  22 H :    0.098153
  23 H :    0.090859
  24 H :    0.106814
  25 H :    0.125915
  26 H :    0.103986
  27 H :    0.126543
  28 H :    0.196992
  29 H :    0.193809
  30 H :    0.154020
  31 H :    0.153784
  32 H :    0.159470
  33 H :    0.128539
  34 H :    0.240203
  35 H :    0.165326
Sum of atomic charges:   -0.0000000

LOEWDIN ATOMIC CHARGES
----------------------
   0 C :    0.107454
   1 C :   -0.017356
   2 O :    0.301496
   3 C :   -0.414194
   4 O :    0.111951
   5 C :   -0.092010
   6 C :   -0.068791
   7 C :    0.125340
   8 N :    0.404538
   9 C :   -0.458396
  10 S :   -0.036253
  11 N :    0.397555
  12 C :   -0.046006
  13 C :   -0.039144
  14 C :    0.022004
  15 C :    0.041029
  16 C :   -0.002488
  17 C :   -0.193088
  18 O :    0.392991
  19 C :    0.028092
  20 H :   -0.029813
  21 H :   -0.023286
  22 H :   -0.026072
  23 H :   -0.028896
  24 H :   -0.027496
  25 H :   -0.008328
  26 H :   -0.020465
  27 H :   -0.010487
  28 H :   -0.059009
  29 H :   -0.063822
  30 H :   -0.004800
  31 H :   -0.025175
  32 H :   -0.021054
  33 H :   -0.036298
  34 H :   -0.154787
  35 H :   -0.024935

  Mayer bond orders larger than 0.100000
B(  0-C ,  1-C ) :   0.9716 B(  0-C , 20-H ) :   0.9787 B(  0-C , 21-H ) :   0.9779
B(  0-C , 22-H ) :   0.9771 B(  1-C ,  2-O ) :   0.9026 B(  1-C , 23-H ) :   0.9732
B(  1-C , 24-H ) :   0.9786 B(  2-O ,  3-C ) :   1.1328 B(  3-C ,  4-O ) :   2.0029
B(  3-C ,  5-C ) :   1.0410 B(  5-C ,  6-C ) :   1.6549 B(  5-C , 12-C ) :   0.9660
B(  6-C ,  7-C ) :   0.9533 B(  6-C ,  8-N ) :   1.1412 B(  7-C , 25-H ) :   0.9676
B(  7-C , 26-H ) :   0.9909 B(  7-C , 27-H ) :   0.9627 B(  8-N ,  9-C ) :   1.1809
B(  8-N , 28-H ) :   0.9492 B(  9-C , 10-S ) :   1.6105 B(  9-C , 11-N ) :   1.3028
B( 11-N , 12-C ) :   0.9912 B( 11-N , 29-H ) :   0.9519 B( 12-C , 13-C ) :   0.9469
B( 12-C , 30-H ) :   0.9992 B( 13-C , 14-C ) :   1.3767 B( 13-C , 19-C ) :   1.3689
B( 14-C , 15-C ) :   1.3948 B( 14-C , 31-H ) :   0.9646 B( 15-C , 16-C ) :   1.3628
B( 15-C , 32-H ) :   0.9713 B( 16-C , 17-C ) :   1.3313 B( 16-C , 33-H ) :   0.9858
B( 17-C , 18-O ) :   1.1083 B( 17-C , 19-C ) :   1.3784 B( 18-O , 34-H ) :   0.9804
B( 19-C , 35-H ) :   0.9583

MP2 TOTAL ENERGY:    -1274.340503153 Eh
FINAL SINGLE POINT ENERGY     -1274.340503152774

DIPOLE MOMENT
-------------
                                X             Y             Z
Electronic contribution:     11.84603       9.03710      10.30278
Nuclear contribution   :    -13.37449     -10.32625     -11.11579
                        -----------------------------------------
Total Dipole Moment    :     -1.52845      -1.28915      -0.81301
                        -----------------------------------------
Magnitude (a.u.)       :      2.15848
Magnitude (Debye)      :      5.48643

Rotational constants in cm-1:     0.010420     0.009073     0.006048
Rotational constants in MHz :   312.384758   272.015421   181.303428

                             ****ORCA TERMINATED NORMALLY****
TOTAL RUN TIME: 0 days 1 hours 48 minutes 53 seconds 874 msec
