                         Program Version 4.2.0 -  RELEASE  -
|  1> ! ri-mp2 cc-pvtz cc-pvtz/c TightSCF  NoKeepInts
|  2>
|  3> %scf
|  4>   MaxCore 4096
|  5> end
|  6> *xyz  0  1
|  7>     C       15.2139025   14.7582660   17.2394781
|  8>     C       15.6345776   14.9257993   15.7630436
|  9>     O       16.6667227   15.9242484   15.6252665
| 10>     C       17.7847287   15.8652557   16.4051448
| 11>     O       18.3835460   14.8139881   16.5595486
| 12>     C       17.8946993   16.9932437   17.3907920
| 13>     C       17.3563010   18.2270841   17.2100784
| 14>     C       16.5713833   18.7326796   16.0171855
| 15>     N       17.5740986   19.2263229   18.1642474
| 16>     C       18.4380899   19.1226266   19.2224906
| 17>     S       18.7415068   20.3998900   20.2283823
| 18>     N       19.0388375   17.9025387   19.4034851
| 19>     C       18.6950234   16.6762332   18.6592969
| 20>     C       17.9347758   15.7037931   19.5570778
| 21>     C       18.3852419   14.3802562   19.7160584
| 22>     C       17.6805055   13.4760472   20.5281734
| 23>     C       16.5136956   13.8975935   21.1880037
| 24>     C       16.0603434   15.2142493   21.0309907
| 25>     O       14.9283401   15.6217829   21.6582098
| 26>     C       16.7643065   16.1121963   20.2227883
| 27>     H       16.0095909   14.2852441   17.8283659
| 28>     H       14.3268816   14.1176312   17.3113815
| 29>     H       14.9709245   15.7274716   17.6922718
| 30>     H       15.9976940   13.9621805   15.3807272
| 31>     H       14.7639396   15.2205545   15.1634373
| 32>     H       15.5604510   18.3067591   16.0101299
| 33>     H       17.0628082   18.4503537   15.0776282
| 34>     H       16.4719507   19.8249349   16.0096590
| 35>     H       17.1440864   20.1299061   18.0470241
| 36>     H       19.6491611   17.8432945   20.2084664
| 37>     H       19.6361252   16.1976434   18.3518050
| 38>     H       19.2759426   14.0458092   19.1895148
| 39>     H       18.0361861   12.4529736   20.6366795
| 40>     H       15.9646321   13.2014360   21.8132211
| 41>     H       14.6199463   14.8850409   22.2069499
| 42>     H       16.3960536   17.1266718   20.1169967
| 43> *
| 44>
| 45>                          ****END OF INPUT****

CARTESIAN COORDINATES (ANGSTROEM)
---------------------------------
  C     15.213902   14.758266   17.239478
  C     15.634578   14.925799   15.763044
  O     16.666723   15.924248   15.625266
  C     17.784729   15.865256   16.405145
  O     18.383546   14.813988   16.559549
  C     17.894699   16.993244   17.390792
  C     17.356301   18.227084   17.210078
  C     16.571383   18.732680   16.017186
  N     17.574099   19.226323   18.164247
  C     18.438090   19.122627   19.222491
  S     18.741507   20.399890   20.228382
  N     19.038837   17.902539   19.403485
  C     18.695023   16.676233   18.659297
  C     17.934776   15.703793   19.557078
  C     18.385242   14.380256   19.716058
  C     17.680505   13.476047   20.528173
  C     16.513696   13.897593   21.188004
  C     16.060343   15.214249   21.030991
  O     14.928340   15.621783   21.658210
  C     16.764306   16.112196   20.222788
  H     16.009591   14.285244   17.828366
  H     14.326882   14.117631   17.311381
  H     14.970925   15.727472   17.692272
  H     15.997694   13.962181   15.380727
  H     14.763940   15.220555   15.163437
  H     15.560451   18.306759   16.010130
  H     17.062808   18.450354   15.077628
  H     16.471951   19.824935   16.009659
  H     17.144086   20.129906   18.047024
  H     19.649161   17.843294   20.208466
  H     19.636125   16.197643   18.351805
  H     19.275943   14.045809   19.189515
  H     18.036186   12.452974   20.636679
  H     15.964632   13.201436   21.813221
  H     14.619946   14.885041   22.206950
  H     16.396054   17.126672   20.116997

 Total Charge           Charge          ....    0
 Multiplicity           Mult            ....    1
 Number of Electrons    NEL             ....  154
 Basis Dimension        Dim             ....  828

ORBITAL ENERGIES
----------------

  NO   OCC          E(Eh)            E(eV)
   0   2.0000     -91.889468     -2500.4395
   1   2.0000     -20.595027      -560.4192
   2   2.0000     -20.586839      -560.1964
   3   2.0000     -20.550863      -559.2174
   4   2.0000     -15.629853      -425.3099
   5   2.0000     -15.608239      -424.7218
   6   2.0000     -11.395168      -310.0783
   7   2.0000     -11.384498      -309.7879
   8   2.0000     -11.336627      -308.4853
   9   2.0000     -11.310922      -307.7858
  10   2.0000     -11.307804      -307.7010
  11   2.0000     -11.301357      -307.5256
  12   2.0000     -11.261138      -306.4311
  13   2.0000     -11.260149      -306.4042
  14   2.0000     -11.256366      -306.3013
  15   2.0000     -11.251326      -306.1641
  16   2.0000     -11.241003      -305.8833
  17   2.0000     -11.236361      -305.7569
  18   2.0000     -11.233798      -305.6872
  19   2.0000     -11.224643      -305.4381
  20   2.0000      -8.894525      -242.0323
  21   2.0000      -6.576100      -178.9448
  22   2.0000      -6.574095      -178.8902
  23   2.0000      -6.573506      -178.8742
  24   2.0000      -1.449986       -39.4561
  25   2.0000      -1.414801       -38.4987
  26   2.0000      -1.354532       -36.8587
  27   2.0000      -1.340763       -36.4840
  28   2.0000      -1.238464       -33.7003
  29   2.0000      -1.155354       -31.4388
  30   2.0000      -1.120946       -30.5025
  31   2.0000      -1.043531       -28.3959
  32   2.0000      -1.030789       -28.0492
  33   2.0000      -1.012844       -27.5609
  34   2.0000      -0.999829       -27.2067
  35   2.0000      -0.985593       -26.8194
  36   2.0000      -0.923722       -25.1358
  37   2.0000      -0.894475       -24.3399
  38   2.0000      -0.848925       -23.1004
  39   2.0000      -0.838083       -22.8054
  40   2.0000      -0.831343       -22.6220
  41   2.0000      -0.816071       -22.2064
  42   2.0000      -0.747945       -20.3526
  43   2.0000      -0.733945       -19.9717
  44   2.0000      -0.727465       -19.7953
  45   2.0000      -0.693383       -18.8679
  46   2.0000      -0.686727       -18.6868
  47   2.0000      -0.677030       -18.4229
  48   2.0000      -0.671948       -18.2846
  49   2.0000      -0.659087       -17.9347
  50   2.0000      -0.654149       -17.8003
  51   2.0000      -0.645800       -17.5731
  52   2.0000      -0.635336       -17.2884
  53   2.0000      -0.616024       -16.7629
  54   2.0000      -0.602903       -16.4058
  55   2.0000      -0.602307       -16.3896
  56   2.0000      -0.598884       -16.2965
  57   2.0000      -0.579973       -15.7819
  58   2.0000      -0.575650       -15.6642
  59   2.0000      -0.563125       -15.3234
  60   2.0000      -0.552426       -15.0323
  61   2.0000      -0.547247       -14.8913
  62   2.0000      -0.535785       -14.5794
  63   2.0000      -0.532282       -14.4841
  64   2.0000      -0.520527       -14.1643
  65   2.0000      -0.511390       -13.9156
  66   2.0000      -0.499236       -13.5849
  67   2.0000      -0.492293       -13.3960
  68   2.0000      -0.481110       -13.0917
  69   2.0000      -0.464072       -12.6281
  70   2.0000      -0.457158       -12.4399
  71   2.0000      -0.449071       -12.2198
  72   2.0000      -0.355283        -9.6677
  73   2.0000      -0.346861        -9.4386
  74   2.0000      -0.328605        -8.9418
  75   2.0000      -0.318723        -8.6729
  76   2.0000      -0.316352        -8.6084
  77   0.0000       0.070614         1.9215
  78   0.0000       0.107531         2.9261
  79   0.0000       0.118763         3.2317
  80   0.0000       0.132710         3.6112
  81   0.0000       0.139793         3.8040

MULLIKEN ATOMIC CHARGES
-----------------------
   0 C :   -0.338751
   1 C :    0.045532
   2 O :   -0.381703
   3 C :    0.461039
   4 O :   -0.411693
   5 C :   -0.192240
   6 C :    0.146431
   7 C :   -0.282244
   8 N :   -0.123340
   9 C :    0.198927
  10 S :   -0.437497
  11 N :   -0.198091
  12 C :    0.045295
  13 C :    0.040914
  14 C :   -0.161326
  15 C :   -0.134589
  16 C :   -0.278755
  17 C :    0.316580
  18 O :   -0.361017
  19 C :   -0.276832
  20 H :    0.130781
  21 H :    0.112414
  22 H :    0.102688
  23 H :    0.109344
  24 H :    0.108528
  25 H :    0.121440
  26 H :    0.129436
  27 H :    0.104260
  28 H :    0.197361
  29 H :    0.193479
  30 H :    0.154416
  31 H :    0.157025
  32 H :    0.160932
  33 H :    0.130410
  34 H :    0.240805
  35 H :    0.170040
Sum of atomic charges:   -0.0000000

LOEWDIN ATOMIC CHARGES
----------------------
   0 C :    0.104968
   1 C :   -0.016973
   2 O :    0.288435
   3 C :   -0.417429
   4 O :    0.118288
   5 C :   -0.093464
   6 C :   -0.068516
   7 C :    0.125832
   8 N :    0.405134
   9 C :   -0.458919
  10 S :   -0.034771
  11 N :    0.397714
  12 C :   -0.045707
  13 C :   -0.041063
  14 C :    0.020726
  15 C :    0.040627
  16 C :   -0.002217
  17 C :   -0.193117
  18 O :    0.393939
  19 C :    0.031156
  20 H :   -0.021682
  21 H :   -0.024858
  22 H :   -0.030523
  23 H :   -0.027238
  24 H :   -0.025003
  25 H :   -0.010963
  26 H :   -0.006812
  27 H :   -0.020309
  28 H :   -0.058774
  29 H :   -0.063801
  30 H :   -0.004143
  31 H :   -0.024654
  32 H :   -0.020477
  33 H :   -0.035734
  34 H :   -0.154197
  35 H :   -0.025473

  Mayer bond orders larger than 0.100000
B(  0-C ,  1-C ) :   0.9582 B(  0-C , 20-H ) :   0.9663 B(  0-C , 21-H ) :   0.9766
B(  0-C , 22-H ) :   0.9720 B(  1-C ,  2-O ) :   0.8941 B(  1-C , 23-H ) :   0.9846
B(  1-C , 24-H ) :   0.9834 B(  2-O ,  3-C ) :   1.0914 B(  3-C ,  4-O ) :   2.0129
B(  3-C ,  5-C ) :   1.0408 B(  5-C ,  6-C ) :   1.6554 B(  5-C , 12-C ) :   0.9663
B(  6-C ,  7-C ) :   0.9552 B(  6-C ,  8-N ) :   1.1421 B(  7-C , 25-H ) :   0.9642
B(  7-C , 26-H ) :   0.9665 B(  7-C , 27-H ) :   0.9901 B(  8-N ,  9-C ) :   1.1799
B(  8-N , 28-H ) :   0.9490 B(  9-C , 10-S ) :   1.6133 B(  9-C , 11-N ) :   1.3021
B( 11-N , 12-C ) :   0.9902 B( 11-N , 29-H ) :   0.9523 B( 12-C , 13-C ) :   0.9446
B( 12-C , 30-H ) :   0.9992 B( 13-C , 14-C ) :   1.3809 B( 13-C , 19-C ) :   1.3598
B( 14-C , 15-C ) :   1.3935 B( 14-C , 31-H ) :   0.9636 B( 15-C , 16-C ) :   1.3622
B( 15-C , 32-H ) :   0.9713 B( 16-C , 17-C ) :   1.3320 B( 16-C , 33-H ) :   0.9851
B( 17-C , 18-O ) :   1.1085 B( 17-C , 19-C ) :   1.3718 B( 18-O , 34-H ) :   0.9803
B( 19-C , 35-H ) :   0.9584

MP2 TOTAL ENERGY:    -1274.333585328 Eh
FINAL SINGLE POINT ENERGY     -1274.333585328453

DIPOLE MOMENT
-------------
                                X             Y             Z
Electronic contribution:      9.79915       8.76188       6.31667
Nuclear contribution   :    -11.19220      -9.97398      -7.07027
                        -----------------------------------------
Total Dipole Moment    :     -1.39305      -1.21209      -0.75360
                        -----------------------------------------
Magnitude (a.u.)       :      1.99441
Magnitude (Debye)      :      5.06939

Rotational constants in cm-1:     0.011726     0.009601     0.006708
Rotational constants in MHz :   351.523893   287.817705   201.110579

                             ****ORCA TERMINATED NORMALLY****
TOTAL RUN TIME: 0 days 1 hours 47 minutes 12 seconds 743 msec
