                         Program Version 4.2.0 -  RELEASE  -
|  1> ! ri-mp2 cc-pvtz cc-pvtz/c TightSCF  NoKeepInts
|  2>
|  3> %scf
|  4>   MaxCore 4096
|  5> end
|  6> *xyz  0  1
|  7>     C       15.3289095   13.7985024   15.9952329
|  8>     C       15.4624590   15.1207978   15.2062141
|  9>     O       16.3717375   16.0919864   15.7853301
| 10>     C       17.3592891   15.8294470   16.6961650
| 11>     O       17.9118646   14.7468384   16.7935030
| 12>     C       17.7319519   16.9922741   17.5749277
| 13>     C       17.3185174   18.2774146   17.4079966
| 14>     C       16.4153030   18.8436497   16.3309516
| 15>     N       17.7882044   19.2748740   18.2697111
| 16>     C       18.7667105   19.1026556   19.2123728
| 17>     S       19.3543680   20.3681079   20.1006361
| 18>     N       19.2319945   17.8240510   19.3814690
| 19>     C       18.6512346   16.6263667   18.7469446
| 20>     C       17.9104380   15.7799875   19.7794281
| 21>     C       18.2242265   14.4178178   19.9411893
| 22>     C       17.5420451   13.6321550   20.8852160
| 23>     C       16.5360525   14.2126299   21.6761362
| 24>     C       16.2175786   15.5679628   21.5159013
| 25>     O       15.2420706   16.1299049   22.2735170
| 26>     C       16.8978093   16.3471931   20.5748365
| 27>     H       16.2163703   13.1660308   15.8692403
| 28>     H       14.4676375   13.2264062   15.6300559
| 29>     H       15.1785761   13.9889524   17.0654966
| 30>     H       15.8020986   14.8787268   14.1907616
| 31>     H       14.4715336   15.5835234   15.1140179
| 32>     H       15.4044469   18.4256846   16.4139840
| 33>     H       16.8024980   18.6028073   15.3330031
| 34>     H       16.3224751   19.9351068   16.3848177
| 35>     H       17.4595915   20.2209600   18.1614566
| 36>     H       19.9311129   17.7165055   20.1050158
| 37>     H       19.4834629   16.0295098   18.3462921
| 38>     H       18.9896354   13.9621196   19.3175522
| 39>     H       17.7905175   12.5781586   20.9954533
| 40>     H       16.0054613   13.6090887   22.4049012
| 41>     H       14.9215823   15.4491364   22.8839304
| 42>     H       16.6372356   17.3946664   20.4703422
| 43> *
| 44>
| 45>                          ****END OF INPUT****

CARTESIAN COORDINATES (ANGSTROEM)
---------------------------------
  C     15.328909   13.798502   15.995233
  C     15.462459   15.120798   15.206214
  O     16.371737   16.091986   15.785330
  C     17.359289   15.829447   16.696165
  O     17.911865   14.746838   16.793503
  C     17.731952   16.992274   17.574928
  C     17.318517   18.277415   17.407997
  C     16.415303   18.843650   16.330952
  N     17.788204   19.274874   18.269711
  C     18.766710   19.102656   19.212373
  S     19.354368   20.368108   20.100636
  N     19.231994   17.824051   19.381469
  C     18.651235   16.626367   18.746945
  C     17.910438   15.779988   19.779428
  C     18.224226   14.417818   19.941189
  C     17.542045   13.632155   20.885216
  C     16.536053   14.212630   21.676136
  C     16.217579   15.567963   21.515901
  O     15.242071   16.129905   22.273517
  C     16.897809   16.347193   20.574836
  H     16.216370   13.166031   15.869240
  H     14.467637   13.226406   15.630056
  H     15.178576   13.988952   17.065497
  H     15.802099   14.878727   14.190762
  H     14.471534   15.583523   15.114018
  H     15.404447   18.425685   16.413984
  H     16.802498   18.602807   15.333003
  H     16.322475   19.935107   16.384818
  H     17.459591   20.220960   18.161457
  H     19.931113   17.716506   20.105016
  H     19.483463   16.029510   18.346292
  H     18.989635   13.962120   19.317552
  H     17.790517   12.578159   20.995453
  H     16.005461   13.609089   22.404901
  H     14.921582   15.449136   22.883930
  H     16.637236   17.394666   20.470342

 Total Charge           Charge          ....    0
 Multiplicity           Mult            ....    1
 Number of Electrons    NEL             ....  154
 Basis Dimension        Dim             ....  828

ORBITAL ENERGIES
----------------

  NO   OCC          E(Eh)            E(eV)
   0   2.0000     -91.887643     -2500.3899
   1   2.0000     -20.598975      -560.5266
   2   2.0000     -20.591691      -560.3284
   3   2.0000     -20.543989      -559.0304
   4   2.0000     -15.627929      -425.2576
   5   2.0000     -15.606186      -424.6659
   6   2.0000     -11.397660      -310.1461
   7   2.0000     -11.382330      -309.7289
   8   2.0000     -11.336213      -308.4740
   9   2.0000     -11.307484      -307.6923
  10   2.0000     -11.306761      -307.6726
  11   2.0000     -11.304498      -307.6110
  12   2.0000     -11.260016      -306.4006
  13   2.0000     -11.258191      -306.3509
  14   2.0000     -11.253222      -306.2157
  15   2.0000     -11.247568      -306.0619
  16   2.0000     -11.237277      -305.7819
  17   2.0000     -11.233357      -305.6752
  18   2.0000     -11.230129      -305.5873
  19   2.0000     -11.226269      -305.4823
  20   2.0000      -8.892710      -241.9829
  21   2.0000      -6.574289      -178.8955
  22   2.0000      -6.572282      -178.8409
  23   2.0000      -6.571696      -178.8250
  24   2.0000      -1.446478       -39.3607
  25   2.0000      -1.411438       -38.4072
  26   2.0000      -1.355790       -36.8929
  27   2.0000      -1.338929       -36.4341
  28   2.0000      -1.236498       -33.6468
  29   2.0000      -1.151843       -31.3432
  30   2.0000      -1.118353       -30.4319
  31   2.0000      -1.041647       -28.3447
  32   2.0000      -1.034278       -28.1441
  33   2.0000      -1.009347       -27.4657
  34   2.0000      -0.996993       -27.1296
  35   2.0000      -0.982264       -26.7288
  36   2.0000      -0.921191       -25.0669
  37   2.0000      -0.897751       -24.4290
  38   2.0000      -0.847738       -23.0681
  39   2.0000      -0.835531       -22.7359
  40   2.0000      -0.827762       -22.5246
  41   2.0000      -0.816888       -22.2286
  42   2.0000      -0.743273       -20.2255
  43   2.0000      -0.728595       -19.8261
  44   2.0000      -0.724292       -19.7090
  45   2.0000      -0.689834       -18.7713
  46   2.0000      -0.684362       -18.6224
  47   2.0000      -0.677261       -18.4292
  48   2.0000      -0.672649       -18.3037
  49   2.0000      -0.662371       -18.0240
  50   2.0000      -0.648565       -17.6483
  51   2.0000      -0.643680       -17.5154
  52   2.0000      -0.633165       -17.2293
  53   2.0000      -0.614025       -16.7085
  54   2.0000      -0.600448       -16.3390
  55   2.0000      -0.599293       -16.3076
  56   2.0000      -0.595174       -16.1955
  57   2.0000      -0.577853       -15.7242
  58   2.0000      -0.573283       -15.5998
  59   2.0000      -0.565850       -15.3976
  60   2.0000      -0.556797       -15.1512
  61   2.0000      -0.542153       -14.7527
  62   2.0000      -0.538326       -14.6486
  63   2.0000      -0.524562       -14.2741
  64   2.0000      -0.516348       -14.0505
  65   2.0000      -0.510971       -13.9042
  66   2.0000      -0.501124       -13.6363
  67   2.0000      -0.495026       -13.4703
  68   2.0000      -0.478600       -13.0234
  69   2.0000      -0.462912       -12.5965
  70   2.0000      -0.454698       -12.3730
  71   2.0000      -0.448257       -12.1977
  72   2.0000      -0.353525        -9.6199
  73   2.0000      -0.343905        -9.3581
  74   2.0000      -0.326805        -8.8928
  75   2.0000      -0.315394        -8.5823
  76   2.0000      -0.313457        -8.5296
  77   0.0000       0.075869         2.0645
  78   0.0000       0.112990         3.0746
  79   0.0000       0.121900         3.3171
  80   0.0000       0.135876         3.6974
  81   0.0000       0.139894         3.8067

MULLIKEN ATOMIC CHARGES
-----------------------
   0 C :   -0.303347
   1 C :    0.051114
   2 O :   -0.356216
   3 C :    0.450938
   4 O :   -0.426910
   5 C :   -0.178083
   6 C :    0.143546
   7 C :   -0.281914
   8 N :   -0.121415
   9 C :    0.201075
  10 S :   -0.439796
  11 N :   -0.197825
  12 C :    0.039063
  13 C :    0.056839
  14 C :   -0.164074
  15 C :   -0.134163
  16 C :   -0.279714
  17 C :    0.311890
  18 O :   -0.359079
  19 C :   -0.275367
  20 H :    0.125100
  21 H :    0.097233
  22 H :    0.104311
  23 H :    0.094768
  24 H :    0.094725
  25 H :    0.124249
  26 H :    0.128952
  27 H :    0.102076
  28 H :    0.196573
  29 H :    0.193762
  30 H :    0.154520
  31 H :    0.154568
  32 H :    0.159246
  33 H :    0.128244
  34 H :    0.240046
  35 H :    0.165066
Sum of atomic charges:    0.0000000

LOEWDIN ATOMIC CHARGES
----------------------
   0 C :    0.104495
   1 C :   -0.008750
   2 O :    0.294108
   3 C :   -0.415386
   4 O :    0.111234
   5 C :   -0.091280
   6 C :   -0.064448
   7 C :    0.124597
   8 N :    0.404831
   9 C :   -0.459362
  10 S :   -0.036453
  11 N :    0.398101
  12 C :   -0.046782
  13 C :   -0.039134
  14 C :    0.022061
  15 C :    0.040349
  16 C :   -0.002746
  17 C :   -0.193038
  18 O :    0.392923
  19 C :    0.027913
  20 H :   -0.023884
  21 H :   -0.027136
  22 H :   -0.025205
  23 H :   -0.028602
  24 H :   -0.027516
  25 H :   -0.010236
  26 H :   -0.007812
  27 H :   -0.021534
  28 H :   -0.059424
  29 H :   -0.063635
  30 H :   -0.005440
  31 H :   -0.025125
  32 H :   -0.021263
  33 H :   -0.036442
  34 H :   -0.154918
  35 H :   -0.025062

  Mayer bond orders larger than 0.100000
B(  0-C ,  1-C ) :   0.9684 B(  0-C , 20-H ) :   0.9718 B(  0-C , 21-H ) :   0.9742
B(  0-C , 22-H ) :   0.9741 B(  1-C ,  2-O ) :   0.9015 B(  1-C , 23-H ) :   0.9812
B(  1-C , 24-H ) :   0.9811 B(  2-O ,  3-C ) :   1.1532 B(  3-C ,  4-O ) :   1.9808
B(  3-C ,  5-C ) :   1.0459 B(  5-C ,  6-C ) :   1.6477 B(  5-C , 12-C ) :   0.9652
B(  6-C ,  7-C ) :   0.9552 B(  6-C ,  8-N ) :   1.1493 B(  7-C , 25-H ) :   0.9651
B(  7-C , 26-H ) :   0.9640 B(  7-C , 27-H ) :   0.9922 B(  8-N ,  9-C ) :   1.1784
B(  8-N , 28-H ) :   0.9486 B(  9-C , 10-S ) :   1.6101 B(  9-C , 11-N ) :   1.3051
B( 11-N , 12-C ) :   0.9914 B( 11-N , 29-H ) :   0.9520 B( 12-C , 13-C ) :   0.9454
B( 12-C , 30-H ) :   1.0006 B( 13-C , 14-C ) :   1.3754 B( 13-C , 19-C ) :   1.3688
B( 14-C , 15-C ) :   1.3946 B( 14-C , 31-H ) :   0.9644 B( 15-C , 16-C ) :   1.3619
B( 15-C , 32-H ) :   0.9714 B( 16-C , 17-C ) :   1.3317 B( 16-C , 33-H ) :   0.9859
B( 17-C , 18-O ) :   1.1081 B( 17-C , 19-C ) :   1.3783 B( 18-O , 34-H ) :   0.9806
B( 19-C , 35-H ) :   0.9583

MP2 TOTAL ENERGY:    -1274.338760464 Eh
FINAL SINGLE POINT ENERGY     -1274.338760464474

DIPOLE MOMENT
-------------
                                X             Y             Z
Electronic contribution:     10.16373      10.33992       9.63764
Nuclear contribution   :    -11.79851     -11.57318     -10.68167
                        -----------------------------------------
Total Dipole Moment    :     -1.63478      -1.23325      -1.04403
                        -----------------------------------------
Magnitude (a.u.)       :      2.29857
Magnitude (Debye)      :      5.84251

Rotational constants in cm-1:     0.010777     0.009126     0.005985
Rotational constants in MHz :   323.087881   273.583626   179.440225

                             ****ORCA TERMINATED NORMALLY****
TOTAL RUN TIME: 0 days 1 hours 48 minutes 31 seconds 738 msec
