                         Program Version 4.2.0 -  RELEASE  -
|  1> ! ri-mp2 cc-pvtz cc-pvtz/c TightSCF  NoKeepInts
|  2>
|  3> %scf
|  4>   MaxCore 4096
|  5> end
|  6> *xyz  0  1
|  7>     C       16.1803579   13.0988252   15.8837672
|  8>     C       15.5796776   14.5029508   16.0636440
|  9>     O       16.6000279   15.3351005   16.6377137
| 10>     C       16.4359036   16.6917482   16.6304401
| 11>     O       15.5540693   17.2374705   15.9885953
| 12>     C       17.3974731   17.3984077   17.5455504
| 13>     C       17.4457953   18.7509768   17.6469504
| 14>     C       16.5897148   19.7565836   16.9071845
| 15>     N       18.3881865   19.3582108   18.4823800
| 16>     C       19.3770942   18.6961316   19.1597724
| 17>     S       20.5149942   19.4992759   20.0519895
| 18>     N       19.3783959   17.3283437   19.0583608
| 19>     C       18.3362453   16.5245404   18.3936912
| 20>     C       17.5713027   15.7102103   19.4333346
| 21>     C       17.6667987   14.3059502   19.4507212
| 22>     C       16.9610998   13.5528781   20.4041069
| 23>     C       16.1557672   14.2091236   21.3505399
| 24>     C       16.0619436   15.6076109   21.3389966
| 25>     O       15.2858922   16.2440802   22.2520745
| 26>     C       16.7649269   16.3543014   20.3885211
| 27>     H       16.4846418   12.6828882   16.8522201
| 28>     H       17.0593766   13.1348445   15.2283088
| 29>     H       15.4442836   12.4209316   15.4347983
| 30>     H       15.2721565   14.8888997   15.0818845
| 31>     H       14.6993968   14.4684648   16.7191936
| 32>     H       15.5295525   19.6133819   17.1526632
| 33>     H       16.6941771   19.6290926   15.8222169
| 34>     H       16.8468112   20.7956524   17.1439131
| 35>     H       18.4032868   20.3619698   18.5677780
| 36>     H       20.0966348   16.8657570   19.6005618
| 37>     H       18.8467868   15.8276726   17.7141741
| 38>     H       18.2841797   13.7961312   18.7160367
| 39>     H       17.0392579   12.4671571   20.4075302
| 40>     H       15.6090401   13.6321375   22.0890505
| 41>     H       14.9075183   15.5684191   22.8343609
| 42>     H       16.6842330   17.4358797   20.4009749
| 43> *
| 44>
| 45>                          ****END OF INPUT****

CARTESIAN COORDINATES (ANGSTROEM)
---------------------------------
  C     16.180358   13.098825   15.883767
  C     15.579678   14.502951   16.063644
  O     16.600028   15.335100   16.637714
  C     16.435904   16.691748   16.630440
  O     15.554069   17.237471   15.988595
  C     17.397473   17.398408   17.545550
  C     17.445795   18.750977   17.646950
  C     16.589715   19.756584   16.907184
  N     18.388186   19.358211   18.482380
  C     19.377094   18.696132   19.159772
  S     20.514994   19.499276   20.051990
  N     19.378396   17.328344   19.058361
  C     18.336245   16.524540   18.393691
  C     17.571303   15.710210   19.433335
  C     17.666799   14.305950   19.450721
  C     16.961100   13.552878   20.404107
  C     16.155767   14.209124   21.350540
  C     16.061944   15.607611   21.338997
  O     15.285892   16.244080   22.252074
  C     16.764927   16.354301   20.388521
  H     16.484642   12.682888   16.852220
  H     17.059377   13.134844   15.228309
  H     15.444284   12.420932   15.434798
  H     15.272156   14.888900   15.081884
  H     14.699397   14.468465   16.719194
  H     15.529552   19.613382   17.152663
  H     16.694177   19.629093   15.822217
  H     16.846811   20.795652   17.143913
  H     18.403287   20.361970   18.567778
  H     20.096635   16.865757   19.600562
  H     18.846787   15.827673   17.714174
  H     18.284180   13.796131   18.716037
  H     17.039258   12.467157   20.407530
  H     15.609040   13.632138   22.089050
  H     14.907518   15.568419   22.834361
  H     16.684233   17.435880   20.400975

 Total Charge           Charge          ....    0
 Multiplicity           Mult            ....    1
 Number of Electrons    NEL             ....  154
 Basis Dimension        Dim             ....  828

ORBITAL ENERGIES
----------------

  NO   OCC          E(Eh)            E(eV)
   0   2.0000     -91.888777     -2500.4207
   1   2.0000     -20.602304      -560.6172
   2   2.0000     -20.595933      -560.4438
   3   2.0000     -20.541588      -558.9650
   4   2.0000     -15.628910      -425.2843
   5   2.0000     -15.608158      -424.7196
   6   2.0000     -11.394205      -310.0521
   7   2.0000     -11.383888      -309.7713
   8   2.0000     -11.335759      -308.4617
   9   2.0000     -11.313073      -307.8444
  10   2.0000     -11.308880      -307.7303
  11   2.0000     -11.295904      -307.3772
  12   2.0000     -11.259052      -306.3744
  13   2.0000     -11.258724      -306.3654
  14   2.0000     -11.254619      -306.2537
  15   2.0000     -11.251785      -306.1766
  16   2.0000     -11.242500      -305.9240
  17   2.0000     -11.237977      -305.8009
  18   2.0000     -11.237665      -305.7924
  19   2.0000     -11.231500      -305.6247
  20   2.0000      -8.893837      -242.0136
  21   2.0000      -6.575412      -178.9261
  22   2.0000      -6.573408      -178.8715
  23   2.0000      -6.572821      -178.8555
  24   2.0000      -1.452652       -39.5287
  25   2.0000      -1.415591       -38.5202
  26   2.0000      -1.354870       -36.8679
  27   2.0000      -1.339881       -36.4600
  28   2.0000      -1.238347       -33.6971
  29   2.0000      -1.157130       -31.4871
  30   2.0000      -1.120267       -30.4840
  31   2.0000      -1.043452       -28.3938
  32   2.0000      -1.040061       -28.3015
  33   2.0000      -1.014596       -27.6086
  34   2.0000      -0.995656       -27.0932
  35   2.0000      -0.984301       -26.7842
  36   2.0000      -0.922268       -25.0962
  37   2.0000      -0.888756       -24.1843
  38   2.0000      -0.846519       -23.0349
  39   2.0000      -0.837004       -22.7760
  40   2.0000      -0.833447       -22.6793
  41   2.0000      -0.817588       -22.2477
  42   2.0000      -0.765516       -20.8307
  43   2.0000      -0.731862       -19.9150
  44   2.0000      -0.720966       -19.6185
  45   2.0000      -0.695194       -18.9172
  46   2.0000      -0.685517       -18.6539
  47   2.0000      -0.679575       -18.4922
  48   2.0000      -0.678827       -18.4718
  49   2.0000      -0.663487       -18.0544
  50   2.0000      -0.645949       -17.5772
  51   2.0000      -0.645133       -17.5550
  52   2.0000      -0.635799       -17.3010
  53   2.0000      -0.606289       -16.4980
  54   2.0000      -0.600109       -16.3298
  55   2.0000      -0.598543       -16.2872
  56   2.0000      -0.592658       -16.1270
  57   2.0000      -0.577355       -15.7106
  58   2.0000      -0.570502       -15.5241
  59   2.0000      -0.569549       -15.4982
  60   2.0000      -0.561741       -15.2857
  61   2.0000      -0.550805       -14.9882
  62   2.0000      -0.539873       -14.6907
  63   2.0000      -0.524686       -14.2774
  64   2.0000      -0.520610       -14.1665
  65   2.0000      -0.513141       -13.9633
  66   2.0000      -0.505232       -13.7481
  67   2.0000      -0.499103       -13.5813
  68   2.0000      -0.485023       -13.1981
  69   2.0000      -0.465315       -12.6619
  70   2.0000      -0.458976       -12.4894
  71   2.0000      -0.447205       -12.1691
  72   2.0000      -0.354174        -9.6376
  73   2.0000      -0.348940        -9.4952
  74   2.0000      -0.328091        -8.9278
  75   2.0000      -0.320631        -8.7248
  76   2.0000      -0.315864        -8.5951
  77   0.0000       0.076412         2.0793
  78   0.0000       0.106173         2.8891
  79   0.0000       0.125138         3.4052
  80   0.0000       0.132421         3.6033
  81   0.0000       0.136577         3.7164

MULLIKEN ATOMIC CHARGES
-----------------------
   0 C :   -0.272108
   1 C :    0.036827
   2 O :   -0.342604
   3 C :    0.455259
   4 O :   -0.432531
   5 C :   -0.217469
   6 C :    0.151265
   7 C :   -0.274032
   8 N :   -0.121099
   9 C :    0.210790
  10 S :   -0.439804
  11 N :   -0.203140
  12 C :    0.049641
  13 C :    0.066365
  14 C :   -0.185539
  15 C :   -0.130526
  16 C :   -0.278252
  17 C :    0.315759
  18 O :   -0.356652
  19 C :   -0.270065
  20 H :    0.092713
  21 H :    0.096200
  22 H :    0.097856
  23 H :    0.111229
  24 H :    0.092430
  25 H :    0.132414
  26 H :    0.130659
  27 H :    0.094951
  28 H :    0.197346
  29 H :    0.194456
  30 H :    0.150471
  31 H :    0.152207
  32 H :    0.159918
  33 H :    0.129636
  34 H :    0.240595
  35 H :    0.164836
Sum of atomic charges:   -0.0000000

LOEWDIN ATOMIC CHARGES
----------------------
   0 C :    0.106594
   1 C :   -0.016075
   2 O :    0.309892
   3 C :   -0.413739
   4 O :    0.095917
   5 C :   -0.094765
   6 C :   -0.059055
   7 C :    0.131584
   8 N :    0.406519
   9 C :   -0.456561
  10 S :   -0.035424
  11 N :    0.396505
  12 C :   -0.052581
  13 C :   -0.038731
  14 C :    0.014318
  15 C :    0.038367
  16 C :   -0.001479
  17 C :   -0.189508
  18 O :    0.395131
  19 C :    0.031725
  20 H :   -0.030114
  21 H :   -0.026905
  22 H :   -0.024111
  23 H :   -0.027241
  24 H :   -0.028832
  25 H :   -0.004383
  26 H :   -0.004031
  27 H :   -0.023443
  28 H :   -0.057581
  29 H :   -0.064569
  30 H :   -0.011122
  31 H :   -0.031148
  32 H :   -0.021788
  33 H :   -0.035647
  34 H :   -0.154023
  35 H :   -0.023695

  Mayer bond orders larger than 0.100000
B(  0-C ,  1-C ) :   0.9713 B(  0-C , 20-H ) :   0.9779 B(  0-C , 21-H ) :   0.9766
B(  0-C , 22-H ) :   0.9786 B(  1-C ,  2-O ) :   0.8979 B(  1-C , 23-H ) :   0.9796
B(  1-C , 24-H ) :   0.9748 B(  2-O ,  3-C ) :   1.1787 B(  3-C ,  4-O ) :   1.9718
B(  3-C ,  5-C ) :   1.0580 B(  5-C ,  6-C ) :   1.6589 B(  5-C , 12-C ) :   0.9718
B(  6-C ,  7-C ) :   0.9675 B(  6-C ,  8-N ) :   1.1643 B(  7-C , 25-H ) :   0.9601
B(  7-C , 26-H ) :   0.9605 B(  7-C , 27-H ) :   0.9903 B(  8-N ,  9-C ) :   1.1828
B(  8-N , 28-H ) :   0.9479 B(  9-C , 10-S ) :   1.6078 B(  9-C , 11-N ) :   1.3045
B( 11-N , 12-C ) :   0.9888 B( 11-N , 29-H ) :   0.9516 B( 12-C , 13-C ) :   0.9358
B( 12-C , 30-H ) :   1.0035 B( 13-C , 14-C ) :   1.3606 B( 13-C , 19-C ) :   1.3818
B( 14-C , 15-C ) :   1.3886 B( 14-C , 31-H ) :   0.9698 B( 15-C , 16-C ) :   1.3653
B( 15-C , 32-H ) :   0.9705 B( 16-C , 17-C ) :   1.3320 B( 16-C , 33-H ) :   0.9851
B( 17-C , 18-O ) :   1.1099 B( 17-C , 19-C ) :   1.3730 B( 18-O , 34-H ) :   0.9800
B( 19-C , 35-H ) :   0.9583

MP2 TOTAL ENERGY:    -1274.351620385 Eh
FINAL SINGLE POINT ENERGY     -1274.351620384825

DIPOLE MOMENT
-------------
                                X             Y             Z
Electronic contribution:      8.50210      11.13210       8.56684
Nuclear contribution   :     -9.67057     -12.73573      -9.00086
                        -----------------------------------------
Total Dipole Moment    :     -1.16846      -1.60362      -0.43403
                        -----------------------------------------
Magnitude (a.u.)       :      2.03108
Magnitude (Debye)      :      5.16260

Rotational constants in cm-1:     0.011553     0.008495     0.006157
Rotational constants in MHz :   346.335667   254.666623   184.582778

                             ****ORCA TERMINATED NORMALLY****
TOTAL RUN TIME: 0 days 1 hours 46 minutes 48 seconds 286 msec
