                         Program Version 4.2.0 -  RELEASE  -
|  1> ! ri-mp2 cc-pvtz cc-pvtz/c TightSCF  NoKeepInts
|  2>
|  3> %scf
|  4>   MaxCore 4096
|  5> end
|  6> *xyz  0  1
|  7>     C       14.9797728   14.2190443   17.0288336
|  8>     C       15.4610004   15.6319569   16.6595031
|  9>     O       16.6852957   15.4882384   15.9109906
| 10>     C       17.8953519   15.6746223   16.5208085
| 11>     O       18.7097567   14.7708179   16.5657663
| 12>     C       18.0199923   16.8994982   17.3737042
| 13>     C       17.5418588   18.1160459   17.0164706
| 14>     C       16.8680118   18.4895165   15.7130262
| 15>     N       17.7225539   19.2099906   17.8667326
| 16>     C       18.4574045   19.1873552   19.0235764
| 17>     S       18.6825732   20.5478725   19.9358467
| 18>     N       18.9916312   17.9767469   19.3904624
| 19>     C       18.7424789   16.6935460   18.7048837
| 20>     C       17.9412317   15.7429821   19.5899789
| 21>     C       18.3509855   14.4068418   19.7509619
| 22>     C       17.5970590   13.5153206   20.5321141
| 23>     C       16.4197787   13.9615878   21.1560111
| 24>     C       16.0049751   15.2900918   20.9939004
| 25>     O       14.8607798   15.7210848   21.5816595
| 26>     C       16.7578929   16.1757084   20.2166073
| 27>     H       15.7101739   13.7229339   17.6814257
| 28>     H       14.8487328   13.6054909   16.1286842
| 29>     H       14.0214612   14.2634139   17.5601615
| 30>     H       14.7011038   16.1077395   16.0264956
| 31>     H       15.5803982   16.2365556   17.5671330
| 32>     H       17.1834058   17.8330184   14.8922058
| 33>     H       17.1207088   19.5123665   15.4064221
| 34>     H       15.7770264   18.4249732   15.7987235
| 35>     H       17.3460365   20.1096992   17.6122043
| 36>     H       19.5084565   17.9847044   20.2607984
| 37>     H       19.7174632   16.2309451   18.4914473
| 38>     H       19.2485217   14.0521492   19.2488486
| 39>     H       17.9225438   12.4822867   20.6428361
| 40>     H       15.8323947   13.2745070   21.7561639
| 41>     H       14.5210715   14.9928977   22.1238823
| 42>     H       16.4171166   17.1994498   20.1047297
| 43> *
| 44>
| 45>                          ****END OF INPUT****

CARTESIAN COORDINATES (ANGSTROEM)
---------------------------------
  C     14.979773   14.219044   17.028834
  C     15.461000   15.631957   16.659503
  O     16.685296   15.488238   15.910991
  C     17.895352   15.674622   16.520809
  O     18.709757   14.770818   16.565766
  C     18.019992   16.899498   17.373704
  C     17.541859   18.116046   17.016471
  C     16.868012   18.489517   15.713026
  N     17.722554   19.209991   17.866733
  C     18.457404   19.187355   19.023576
  S     18.682573   20.547873   19.935847
  N     18.991631   17.976747   19.390462
  C     18.742479   16.693546   18.704884
  C     17.941232   15.742982   19.589979
  C     18.350986   14.406842   19.750962
  C     17.597059   13.515321   20.532114
  C     16.419779   13.961588   21.156011
  C     16.004975   15.290092   20.993900
  O     14.860780   15.721085   21.581659
  C     16.757893   16.175708   20.216607
  H     15.710174   13.722934   17.681426
  H     14.848733   13.605491   16.128684
  H     14.021461   14.263414   17.560161
  H     14.701104   16.107740   16.026496
  H     15.580398   16.236556   17.567133
  H     17.183406   17.833018   14.892206
  H     17.120709   19.512366   15.406422
  H     15.777026   18.424973   15.798723
  H     17.346037   20.109699   17.612204
  H     19.508457   17.984704   20.260798
  H     19.717463   16.230945   18.491447
  H     19.248522   14.052149   19.248849
  H     17.922544   12.482287   20.642836
  H     15.832395   13.274507   21.756164
  H     14.521071   14.992898   22.123882
  H     16.417117   17.199450   20.104730

 Total Charge           Charge          ....    0
 Multiplicity           Mult            ....    1
 Number of Electrons    NEL             ....  154
 Basis Dimension        Dim             ....  828

ORBITAL ENERGIES
----------------

  NO   OCC          E(Eh)            E(eV)
   0   2.0000     -91.891255     -2500.4882
   1   2.0000     -20.599679      -560.5458
   2   2.0000     -20.593377      -560.3743
   3   2.0000     -20.551760      -559.2418
   4   2.0000     -15.630300      -425.3221
   5   2.0000     -15.611396      -424.8077
   6   2.0000     -11.395704      -310.0929
   7   2.0000     -11.387369      -309.8661
   8   2.0000     -11.335214      -308.4469
   9   2.0000     -11.316256      -307.9310
  10   2.0000     -11.311997      -307.8151
  11   2.0000     -11.303567      -307.5857
  12   2.0000     -11.265886      -306.5603
  13   2.0000     -11.262939      -306.4802
  14   2.0000     -11.262136      -306.4583
  15   2.0000     -11.255872      -306.2878
  16   2.0000     -11.245512      -306.0059
  17   2.0000     -11.242086      -305.9127
  18   2.0000     -11.238421      -305.8130
  19   2.0000     -11.225609      -305.4644
  20   2.0000      -8.896340      -242.0817
  21   2.0000      -6.577918      -178.9942
  22   2.0000      -6.575904      -178.9394
  23   2.0000      -6.575320      -178.9235
  24   2.0000      -1.448895       -39.4264
  25   2.0000      -1.419480       -38.6260
  26   2.0000      -1.359395       -36.9910
  27   2.0000      -1.342100       -36.5204
  28   2.0000      -1.240730       -33.7620
  29   2.0000      -1.160741       -31.5854
  30   2.0000      -1.124969       -30.6120
  31   2.0000      -1.048005       -28.5177
  32   2.0000      -1.034838       -28.1594
  33   2.0000      -1.018104       -27.7040
  34   2.0000      -1.004336       -27.3294
  35   2.0000      -0.989229       -26.9183
  36   2.0000      -0.927324       -25.2338
  37   2.0000      -0.882970       -24.0268
  38   2.0000      -0.855075       -23.2678
  39   2.0000      -0.842629       -22.9291
  40   2.0000      -0.836409       -22.7599
  41   2.0000      -0.834753       -22.7148
  42   2.0000      -0.751600       -20.4521
  43   2.0000      -0.738644       -20.0995
  44   2.0000      -0.731127       -19.8950
  45   2.0000      -0.697791       -18.9879
  46   2.0000      -0.688044       -18.7226
  47   2.0000      -0.679063       -18.4782
  48   2.0000      -0.677579       -18.4379
  49   2.0000      -0.663256       -18.0481
  50   2.0000      -0.655276       -17.8310
  51   2.0000      -0.649451       -17.6725
  52   2.0000      -0.640833       -17.4380
  53   2.0000      -0.610260       -16.6060
  54   2.0000      -0.608490       -16.5579
  55   2.0000      -0.603913       -16.4333
  56   2.0000      -0.597479       -16.2582
  57   2.0000      -0.581364       -15.8197
  58   2.0000      -0.578091       -15.7306
  59   2.0000      -0.572157       -15.5692
  60   2.0000      -0.562376       -15.3030
  61   2.0000      -0.558130       -15.1875
  62   2.0000      -0.543661       -14.7938
  63   2.0000      -0.526493       -14.3266
  64   2.0000      -0.517832       -14.0909
  65   2.0000      -0.514335       -13.9958
  66   2.0000      -0.502641       -13.6776
  67   2.0000      -0.497661       -13.5420
  68   2.0000      -0.488610       -13.2957
  69   2.0000      -0.470757       -12.8100
  70   2.0000      -0.458020       -12.4634
  71   2.0000      -0.448555       -12.2058
  72   2.0000      -0.357504        -9.7282
  73   2.0000      -0.351867        -9.5748
  74   2.0000      -0.330657        -8.9976
  75   2.0000      -0.323622        -8.8062
  76   2.0000      -0.319209        -8.6861
  77   0.0000       0.074505         2.0274
  78   0.0000       0.103062         2.8045
  79   0.0000       0.117405         3.1948
  80   0.0000       0.128158         3.4874
  81   0.0000       0.135846         3.6966

MULLIKEN ATOMIC CHARGES
-----------------------
   0 C :   -0.260186
   1 C :   -0.006226
   2 O :   -0.343452
   3 C :    0.441845
   4 O :   -0.385537
   5 C :   -0.233877
   6 C :    0.156843
   7 C :   -0.305546
   8 N :   -0.129686
   9 C :    0.199734
  10 S :   -0.437471
  11 N :   -0.206759
  12 C :    0.067072
  13 C :    0.041450
  14 C :   -0.182075
  15 C :   -0.133734
  16 C :   -0.277359
  17 C :    0.320995
  18 O :   -0.359138
  19 C :   -0.303300
  20 H :    0.108388
  21 H :    0.105100
  22 H :    0.089322
  23 H :    0.111738
  24 H :    0.108657
  25 H :    0.138586
  26 H :    0.120560
  27 H :    0.120012
  28 H :    0.197522
  29 H :    0.196236
  30 H :    0.160075
  31 H :    0.164502
  32 H :    0.164041
  33 H :    0.131951
  34 H :    0.241902
  35 H :    0.177815
Sum of atomic charges:    0.0000000

LOEWDIN ATOMIC CHARGES
----------------------
   0 C :    0.109151
   1 C :   -0.023287
   2 O :    0.299214
   3 C :   -0.419032
   4 O :    0.126911
   5 C :   -0.092056
   6 C :   -0.084770
   7 C :    0.128403
   8 N :    0.403362
   9 C :   -0.457372
  10 S :   -0.034704
  11 N :    0.397094
  12 C :   -0.045912
  13 C :   -0.043754
  14 C :    0.022722
  15 C :    0.044030
  16 C :   -0.000266
  17 C :   -0.194199
  18 O :    0.394108
  19 C :    0.026727
  20 H :   -0.022397
  21 H :   -0.024409
  22 H :   -0.027286
  23 H :   -0.030536
  24 H :   -0.037538
  25 H :   -0.005940
  26 H :   -0.014441
  27 H :   -0.015029
  28 H :   -0.057714
  29 H :   -0.063550
  30 H :   -0.003279
  31 H :   -0.022408
  32 H :   -0.019004
  33 H :   -0.034808
  34 H :   -0.152928
  35 H :   -0.025104

  Mayer bond orders larger than 0.100000
B(  0-C ,  1-C ) :   0.9873 B(  0-C , 20-H ) :   0.9720 B(  0-C , 21-H ) :   0.9787
B(  0-C , 22-H ) :   0.9764 B(  1-C ,  2-O ) :   0.8900 B(  1-C , 23-H ) :   0.9794
B(  1-C , 24-H ) :   0.9582 B(  2-O ,  3-C ) :   1.1544 B(  3-C ,  4-O ) :   2.0782
B(  3-C ,  5-C ) :   0.9526 B(  5-C ,  6-C ) :   1.6711 B(  5-C , 12-C ) :   0.9608
B(  6-C ,  7-C ) :   0.9451 B(  6-C ,  8-N ) :   1.1345 B(  7-C , 25-H ) :   0.9720
B(  7-C , 26-H ) :   0.9816 B(  7-C , 27-H ) :   0.9636 B(  8-N ,  9-C ) :   1.1867
B(  8-N , 28-H ) :   0.9504 B(  9-C , 10-S ) :   1.6143 B(  9-C , 11-N ) :   1.2945
B( 11-N , 12-C ) :   0.9969 B( 11-N , 29-H ) :   0.9508 B( 12-C , 13-C ) :   0.9410
B( 12-C , 30-H ) :   0.9982 B( 13-C , 14-C ) :   1.3861 B( 13-C , 19-C ) :   1.3442
B( 14-C , 15-C ) :   1.3948 B( 14-C , 31-H ) :   0.9610 B( 15-C , 16-C ) :   1.3624
B( 15-C , 32-H ) :   0.9702 B( 16-C , 17-C ) :   1.3311 B( 16-C , 33-H ) :   0.9846
B( 17-C , 18-O ) :   1.1103 B( 17-C , 19-C ) :   1.3666 B( 18-O , 34-H ) :   0.9792
B( 19-C , 35-H ) :   0.9566

MP2 TOTAL ENERGY:    -1274.335677759 Eh
FINAL SINGLE POINT ENERGY     -1274.335677759135

DIPOLE MOMENT
-------------
                                X             Y             Z
Electronic contribution:     10.35338       8.76708       6.04095
Nuclear contribution   :    -11.83873      -9.68029      -6.38304
                        -----------------------------------------
Total Dipole Moment    :     -1.48535      -0.91321      -0.34209
                        -----------------------------------------
Magnitude (a.u.)       :      1.77686
Magnitude (Debye)      :      4.51642

Rotational constants in cm-1:     0.012347     0.009193     0.006814
Rotational constants in MHz :   370.146473   275.588767   204.277516

                             ****ORCA TERMINATED NORMALLY****
TOTAL RUN TIME: 0 days 1 hours 42 minutes 26 seconds 545 msec
