                         Program Version 4.2.0 -  RELEASE  -
|  1> ! ri-mp2 cc-pvtz cc-pvtz/c TightSCF  NoKeepInts
|  2>
|  3> %scf
|  4>   MaxCore 4096
|  5> end
|  6> *xyz  0  1
|  7>     C       15.0569859   14.6490028   17.3559350
|  8>     C       15.4846731   15.6054288   16.2293461
|  9>     O       16.8271460   15.2579998   15.8283297
| 10>     C       17.9871063   15.6604776   16.4479285
| 11>     O       18.9514547   14.9177021   16.4494702
| 12>     C       17.9293403   16.8429288   17.3668644
| 13>     C       17.4680006   18.0564631   16.9747571
| 14>     C       16.9623951   18.4522910   15.6016265
| 15>     N       17.5561966   19.1501928   17.8389748
| 16>     C       18.2417251   19.1535651   19.0249283
| 17>     S       18.3828860   20.5212087   19.9433547
| 18>     N       18.8106665   17.9649058   19.4081066
| 19>     C       18.6200803   16.6703191   18.7240851
| 20>     C       17.8722685   15.6822701   19.6137287
| 21>     C       18.2667435   14.3320558   19.6502526
| 22>     C       17.5819137   13.4064657   20.4549422
| 23>     C       16.4916369   13.8330803   21.2318501
| 24>     C       16.0928393   15.1759610   21.1971024
| 25>     O       15.0328739   15.5884220   21.9365455
| 26>     C       16.7749551   16.0954905   20.3936632
| 27>     H       15.7045032   14.7509844   18.2305479
| 28>     H       15.1087234   13.6070341   17.0159512
| 29>     H       14.0266567   14.8563488   17.6691216
| 30>     H       14.8086151   15.4645603   15.3760603
| 31>     H       15.3842409   16.6390489   16.5693383
| 32>     H       17.1243585   17.6681753   14.8522620
| 33>     H       17.4914639   19.3414907   15.2350360
| 34>     H       15.8913232   18.6873099   15.6218544
| 35>     H       17.1669682   20.0383301   17.5636453
| 36>     H       19.2991880   17.9915883   20.2943100
| 37>     H       19.6198388   16.2524295   18.5334345
| 38>     H       19.1020855   13.9957174   19.0392181
| 39>     H       17.8954357   12.3639235   20.4696525
| 40>     H       15.9589626   13.1205193   21.8529638
| 41>     H       14.7296700   14.8299860   22.4582382
| 42>     H       16.4430788   17.1283227   20.3805746
| 43> *
| 44>
| 45>                          ****END OF INPUT****

CARTESIAN COORDINATES (ANGSTROEM)
---------------------------------
  C     15.056986   14.649003   17.355935
  C     15.484673   15.605429   16.229346
  O     16.827146   15.258000   15.828330
  C     17.987106   15.660478   16.447928
  O     18.951455   14.917702   16.449470
  C     17.929340   16.842929   17.366864
  C     17.468001   18.056463   16.974757
  C     16.962395   18.452291   15.601627
  N     17.556197   19.150193   17.838975
  C     18.241725   19.153565   19.024928
  S     18.382886   20.521209   19.943355
  N     18.810666   17.964906   19.408107
  C     18.620080   16.670319   18.724085
  C     17.872268   15.682270   19.613729
  C     18.266743   14.332056   19.650253
  C     17.581914   13.406466   20.454942
  C     16.491637   13.833080   21.231850
  C     16.092839   15.175961   21.197102
  O     15.032874   15.588422   21.936546
  C     16.774955   16.095491   20.393663
  H     15.704503   14.750984   18.230548
  H     15.108723   13.607034   17.015951
  H     14.026657   14.856349   17.669122
  H     14.808615   15.464560   15.376060
  H     15.384241   16.639049   16.569338
  H     17.124358   17.668175   14.852262
  H     17.491464   19.341491   15.235036
  H     15.891323   18.687310   15.621854
  H     17.166968   20.038330   17.563645
  H     19.299188   17.991588   20.294310
  H     19.619839   16.252430   18.533434
  H     19.102086   13.995717   19.039218
  H     17.895436   12.363923   20.469652
  H     15.958963   13.120519   21.852964
  H     14.729670   14.829986   22.458238
  H     16.443079   17.128323   20.380575

 Total Charge           Charge          ....    0
 Multiplicity           Mult            ....    1
 Number of Electrons    NEL             ....  154
 Basis Dimension        Dim             ....  828

ORBITAL ENERGIES
----------------

  NO   OCC          E(Eh)            E(eV)
   0   2.0000     -91.891134     -2500.4849
   1   2.0000     -20.599569      -560.5428
   2   2.0000     -20.598666      -560.5182
   3   2.0000     -20.549190      -559.1719
   4   2.0000     -15.629388      -425.2973
   5   2.0000     -15.611507      -424.8107
   6   2.0000     -11.399891      -310.2068
   7   2.0000     -11.387329      -309.8650
   8   2.0000     -11.335396      -308.4518
   9   2.0000     -11.315751      -307.9173
  10   2.0000     -11.313602      -307.8587
  11   2.0000     -11.306275      -307.6594
  12   2.0000     -11.269602      -306.6615
  13   2.0000     -11.267944      -306.6163
  14   2.0000     -11.262523      -306.4688
  15   2.0000     -11.256028      -306.2921
  16   2.0000     -11.245186      -305.9971
  17   2.0000     -11.240957      -305.8820
  18   2.0000     -11.237687      -305.7930
  19   2.0000     -11.225153      -305.4519
  20   2.0000      -8.896229      -242.0787
  21   2.0000      -6.577813      -178.9914
  22   2.0000      -6.575790      -178.9364
  23   2.0000      -6.575211      -178.9206
  24   2.0000      -1.446542       -39.3624
  25   2.0000      -1.418460       -38.5982
  26   2.0000      -1.358754       -36.9736
  27   2.0000      -1.342538       -36.5323
  28   2.0000      -1.241259       -33.7764
  29   2.0000      -1.160290       -31.5731
  30   2.0000      -1.125717       -30.6323
  31   2.0000      -1.048386       -28.5280
  32   2.0000      -1.036903       -28.2156
  33   2.0000      -1.018208       -27.7069
  34   2.0000      -1.005859       -27.3708
  35   2.0000      -0.990084       -26.9415
  36   2.0000      -0.928132       -25.2558
  37   2.0000      -0.889985       -24.2177
  38   2.0000      -0.855778       -23.2869
  39   2.0000      -0.842063       -22.9137
  40   2.0000      -0.835765       -22.7423
  41   2.0000      -0.832765       -22.6607
  42   2.0000      -0.750265       -20.4158
  43   2.0000      -0.741002       -20.1637
  44   2.0000      -0.730717       -19.8838
  45   2.0000      -0.696655       -18.9570
  46   2.0000      -0.688353       -18.7310
  47   2.0000      -0.681168       -18.5355
  48   2.0000      -0.676560       -18.4101
  49   2.0000      -0.661147       -17.9907
  50   2.0000      -0.655192       -17.8287
  51   2.0000      -0.646165       -17.5830
  52   2.0000      -0.639372       -17.3982
  53   2.0000      -0.619671       -16.8621
  54   2.0000      -0.609744       -16.5920
  55   2.0000      -0.606873       -16.5139
  56   2.0000      -0.602077       -16.3833
  57   2.0000      -0.587003       -15.9732
  58   2.0000      -0.577518       -15.7151
  59   2.0000      -0.567180       -15.4337
  60   2.0000      -0.563813       -15.3421
  61   2.0000      -0.551071       -14.9954
  62   2.0000      -0.545506       -14.8440
  63   2.0000      -0.533249       -14.5105
  64   2.0000      -0.520100       -14.1526
  65   2.0000      -0.513386       -13.9699
  66   2.0000      -0.502769       -13.6810
  67   2.0000      -0.500835       -13.6284
  68   2.0000      -0.483263       -13.1503
  69   2.0000      -0.470308       -12.7977
  70   2.0000      -0.455577       -12.3969
  71   2.0000      -0.448249       -12.1975
  72   2.0000      -0.359419        -9.7803
  73   2.0000      -0.351055        -9.5527
  74   2.0000      -0.330647        -8.9974
  75   2.0000      -0.323954        -8.8152
  76   2.0000      -0.319942        -8.7061
  77   0.0000       0.080027         2.1776
  78   0.0000       0.105562         2.8725
  79   0.0000       0.113914         3.0998
  80   0.0000       0.129698         3.5293
  81   0.0000       0.131996         3.5918

MULLIKEN ATOMIC CHARGES
-----------------------
   0 C :   -0.275412
   1 C :    0.022963
   2 O :   -0.327768
   3 C :    0.417885
   4 O :   -0.384433
   5 C :   -0.209059
   6 C :    0.138602
   7 C :   -0.324218
   8 N :   -0.133848
   9 C :    0.199415
  10 S :   -0.438664
  11 N :   -0.215519
  12 C :    0.069216
  13 C :   -0.003379
  14 C :   -0.187757
  15 C :   -0.139661
  16 C :   -0.266791
  17 C :    0.303218
  18 O :   -0.358357
  19 C :   -0.238863
  20 H :    0.105552
  21 H :    0.108592
  22 H :    0.093536
  23 H :    0.118478
  24 H :    0.087509
  25 H :    0.133267
  26 H :    0.137837
  27 H :    0.121356
  28 H :    0.196750
  29 H :    0.199826
  30 H :    0.165974
  31 H :    0.173377
  32 H :    0.163177
  33 H :    0.132421
  34 H :    0.241126
  35 H :    0.173652
Sum of atomic charges:    0.0000000

LOEWDIN ATOMIC CHARGES
----------------------
   0 C :    0.110232
   1 C :   -0.021932
   2 O :    0.301415
   3 C :   -0.414199
   4 O :    0.121679
   5 C :   -0.083633
   6 C :   -0.094770
   7 C :    0.124066
   8 N :    0.402776
   9 C :   -0.458773
  10 S :   -0.035934
  11 N :    0.397906
  12 C :   -0.043924
  13 C :   -0.046077
  14 C :    0.020042
  15 C :    0.044688
  16 C :   -0.000501
  17 C :   -0.192904
  18 O :    0.395673
  19 C :    0.025989
  20 H :   -0.028353
  21 H :   -0.023483
  22 H :   -0.026405
  23 H :   -0.022823
  24 H :   -0.040585
  25 H :   -0.007615
  26 H :   -0.009711
  27 H :   -0.017865
  28 H :   -0.056905
  29 H :   -0.063077
  30 H :   -0.002275
  31 H :   -0.021806
  32 H :   -0.018538
  33 H :   -0.034716
  34 H :   -0.153244
  35 H :   -0.024419

  Mayer bond orders larger than 0.100000
B(  0-C ,  1-C ) :   0.9777 B(  0-C , 20-H ) :   0.9677 B(  0-C , 21-H ) :   0.9794
B(  0-C , 22-H ) :   0.9762 B(  1-C ,  2-O ) :   0.8973 B(  1-C , 23-H ) :   0.9820
B(  1-C , 24-H ) :   0.9651 B(  2-O ,  3-C ) :   1.1757 B(  3-C ,  4-O ) :   2.0821
B(  3-C ,  5-C ) :   0.9315 B(  5-C ,  6-C ) :   1.6920 B(  5-C , 12-C ) :   0.9521
B(  6-C ,  7-C ) :   0.9411 B(  6-C ,  8-N ) :   1.1162 B(  7-C , 25-H ) :   0.9773
B(  7-C , 26-H ) :   0.9722 B(  7-C , 27-H ) :   0.9657 B(  8-N ,  9-C ) :   1.1907
B(  8-N , 28-H ) :   0.9515 B(  9-C , 10-S ) :   1.6127 B(  9-C , 11-N ) :   1.2918
B( 11-N , 12-C ) :   0.9922 B( 11-N , 29-H ) :   0.9490 B( 12-C , 13-C ) :   0.9479
B( 12-C , 30-H ) :   0.9958 B( 13-C , 14-C ) :   1.3951 B( 13-C , 19-C ) :   1.3546
B( 14-C , 15-C ) :   1.3939 B( 14-C , 31-H ) :   0.9580 B( 15-C , 16-C ) :   1.3611
B( 15-C , 32-H ) :   0.9709 B( 16-C , 17-C ) :   1.3316 B( 16-C , 33-H ) :   0.9845
B( 17-C , 18-O ) :   1.1113 B( 17-C , 19-C ) :   1.3687 B( 18-O , 34-H ) :   0.9794
B( 19-C , 35-H ) :   0.9576

MP2 TOTAL ENERGY:    -1274.335688856 Eh
FINAL SINGLE POINT ENERGY     -1274.335688855934

DIPOLE MOMENT
-------------
                                X             Y             Z
Electronic contribution:      9.59405       7.65244       6.13618
Nuclear contribution   :    -11.14404      -8.54710      -6.63020
                        -----------------------------------------
Total Dipole Moment    :     -1.55000      -0.89466      -0.49403
                        -----------------------------------------
Magnitude (a.u.)       :      1.85660
Magnitude (Debye)      :      4.71911

Rotational constants in cm-1:     0.011741     0.009493     0.006700
Rotational constants in MHz :   351.979552   284.589408   200.847494

                             ****ORCA TERMINATED NORMALLY****
TOTAL RUN TIME: 0 days 1 hours 52 minutes 44 seconds 889 msec
