                         Program Version 5.0.0 -  RELEASE  -
|  1> ! ri-mp2 cc-pvtz cc-pvtz/c TightSCF NoKeepInts
|  2>
|  3> %scf
|  4>   MaxCore 4096
|  5> end
|  6> *xyz  0  1
|  7>     C       15.5283504   13.4315166   15.8220330
|  8>     C       15.6853098   14.5444173   16.8711253
|  9>     O       16.8417794   15.3199443   16.5053462
| 10>     C       16.7089611   16.6753647   16.4217965
| 11>     O       15.7919328   17.1752304   15.7937688
| 12>     C       17.5131904   17.4096318   17.4610425
| 13>     C       17.4326173   18.7554013   17.6240989
| 14>     C       16.5549647   19.7229140   16.8588003
| 15>     N       18.2503577   19.3988892   18.5579056
| 16>     C       19.2624200   18.7977856   19.2572366
| 17>     S       20.2672047   19.6538235   20.2539209
| 18>     N       19.4077458   17.4456850   19.0805519
| 19>     C       18.4720229   16.5835681   18.3365515
| 20>     C       17.7389119   15.6743129   19.3180731
| 21>     C       18.1095923   14.3219645   19.4419762
| 22>     C       17.4376839   13.4758513   20.3401578
| 23>     C       16.3898542   13.9868635   21.1248413
| 24>     C       16.0247777   15.3352812   21.0114023
| 25>     O       15.0151763   15.8323055   21.7690839
| 26>     C       16.6940643   16.1746698   20.1155658
| 27>     H       14.6622901   12.8008576   16.0562277
| 28>     H       16.4216595   12.7954393   15.7954715
| 29>     H       15.3792943   13.8631100   14.8241321
| 30>     H       14.7749372   15.1596709   16.8869906
| 31>     H       15.8186750   14.1058935   17.8679121
| 32>     H       15.4943817   19.4918332   17.0213257
| 33>     H       16.7442308   19.6467070   15.7804471
| 34>     H       16.7144504   20.7683468   17.1477574
| 35>     H       18.1615251   20.3931082   18.6950012
| 36>     H       20.1424988   17.0256459   19.6351032
| 37>     H       19.0697275   15.9522182   17.6638241
| 38>     H       18.9176835   13.9234202   18.8341195
| 39>     H       17.7305589   12.4307843   20.4273404
| 40>     H       15.8689131   13.3376606   21.8211158
| 41>     H       14.7177198   15.1248021   22.3608563
| 42>     H       16.4015368   17.2170817   20.0510967
| 43> *
| 44>
| 45>                          ****END OF INPUT****

CARTESIAN COORDINATES (ANGSTROEM)
---------------------------------
  C     15.528350   13.431517   15.822033
  C     15.685310   14.544417   16.871125
  O     16.841779   15.319944   16.505346
  C     16.708961   16.675365   16.421796
  O     15.791933   17.175230   15.793769
  C     17.513190   17.409632   17.461043
  C     17.432617   18.755401   17.624099
  C     16.554965   19.722914   16.858800
  N     18.250358   19.398889   18.557906
  C     19.262420   18.797786   19.257237
  S     20.267205   19.653824   20.253921
  N     19.407746   17.445685   19.080552
  C     18.472023   16.583568   18.336551
  C     17.738912   15.674313   19.318073
  C     18.109592   14.321964   19.441976
  C     17.437684   13.475851   20.340158
  C     16.389854   13.986864   21.124841
  C     16.024778   15.335281   21.011402
  O     15.015176   15.832306   21.769084
  C     16.694064   16.174670   20.115566
  H     14.662290   12.800858   16.056228
  H     16.421660   12.795439   15.795471
  H     15.379294   13.863110   14.824132
  H     14.774937   15.159671   16.886991
  H     15.818675   14.105893   17.867912
  H     15.494382   19.491833   17.021326
  H     16.744231   19.646707   15.780447
  H     16.714450   20.768347   17.147757
  H     18.161525   20.393108   18.695001
  H     20.142499   17.025646   19.635103
  H     19.069727   15.952218   17.663824
  H     18.917683   13.923420   18.834119
  H     17.730559   12.430784   20.427340
  H     15.868913   13.337661   21.821116
  H     14.717720   15.124802   22.360856
  H     16.401537   17.217082   20.051097

 Total Charge           Charge          ....    0
 Multiplicity           Mult            ....    1
 Number of Electrons    NEL             ....  154
 Basis Dimension        Dim             ....  828

ORBITAL ENERGIES
----------------

  NO   OCC          E(Eh)            E(eV)
   0   2.0000     -91.890054     -2500.4555
   1   2.0000     -20.600760      -560.5752
   2   2.0000     -20.587337      -560.2099
   3   2.0000     -20.545466      -559.0705
   4   2.0000     -15.630468      -425.3267
   5   2.0000     -15.609460      -424.7550
   6   2.0000     -11.393677      -310.0377
   7   2.0000     -11.385047      -309.8029
   8   2.0000     -11.337083      -308.4977
   9   2.0000     -11.318582      -307.9943
  10   2.0000     -11.311054      -307.7894
  11   2.0000     -11.292367      -307.2809
  12   2.0000     -11.263459      -306.4943
  13   2.0000     -11.259879      -306.3969
  14   2.0000     -11.259479      -306.3860
  15   2.0000     -11.253180      -306.2146
  16   2.0000     -11.247307      -306.0548
  17   2.0000     -11.242151      -305.9145
  18   2.0000     -11.241903      -305.9077
  19   2.0000     -11.222562      -305.3814
  20   2.0000      -8.895106      -242.0481
  21   2.0000      -6.576678      -178.9605
  22   2.0000      -6.574675      -178.9060
  23   2.0000      -6.574086      -178.8900
  24   2.0000      -1.449069       -39.4312
  25   2.0000      -1.420406       -38.6512
  26   2.0000      -1.352737       -36.8098
  27   2.0000      -1.341535       -36.5050
  28   2.0000      -1.240148       -33.7461
  29   2.0000      -1.161377       -31.6027
  30   2.0000      -1.121386       -30.5145
  31   2.0000      -1.045405       -28.4469
  32   2.0000      -1.034124       -28.1399
  33   2.0000      -1.019451       -27.7407
  34   2.0000      -0.997001       -27.1298
  35   2.0000      -0.985198       -26.8086
  36   2.0000      -0.924782       -25.1646
  37   2.0000      -0.881573       -23.9888
  38   2.0000      -0.848835       -23.0980
  39   2.0000      -0.841214       -22.8906
  40   2.0000      -0.837576       -22.7916
  41   2.0000      -0.824657       -22.4401
  42   2.0000      -0.760873       -20.7044
  43   2.0000      -0.735436       -20.0122
  44   2.0000      -0.724343       -19.7104
  45   2.0000      -0.699642       -19.0382
  46   2.0000      -0.690140       -18.7797
  47   2.0000      -0.678548       -18.4642
  48   2.0000      -0.672162       -18.2905
  49   2.0000      -0.655340       -17.8327
  50   2.0000      -0.648118       -17.6362
  51   2.0000      -0.643752       -17.5174
  52   2.0000      -0.628195       -17.0940
  53   2.0000      -0.617617       -16.8062
  54   2.0000      -0.611384       -16.6366
  55   2.0000      -0.602933       -16.4066
  56   2.0000      -0.600786       -16.3482
  57   2.0000      -0.581205       -15.8154
  58   2.0000      -0.572369       -15.5750
  59   2.0000      -0.566244       -15.4083
  60   2.0000      -0.563658       -15.3379
  61   2.0000      -0.539480       -14.6800
  62   2.0000      -0.533876       -14.5275
  63   2.0000      -0.528868       -14.3912
  64   2.0000      -0.516457       -14.0535
  65   2.0000      -0.514539       -14.0013
  66   2.0000      -0.503912       -13.7121
  67   2.0000      -0.495862       -13.4931
  68   2.0000      -0.489170       -13.3110
  69   2.0000      -0.464280       -12.6337
  70   2.0000      -0.453717       -12.3463
  71   2.0000      -0.446719       -12.1558
  72   2.0000      -0.355824        -9.6825
  73   2.0000      -0.353653        -9.6234
  74   2.0000      -0.330051        -8.9811
  75   2.0000      -0.325754        -8.8642
  76   2.0000      -0.317538        -8.6406
  77   0.0000       0.071102         1.9348
  78   0.0000       0.102570         2.7911
  79   0.0000       0.123124         3.3504
  80   0.0000       0.129313         3.5188
  81   0.0000       0.133395         3.6299

MULLIKEN ATOMIC CHARGES
-----------------------
   0 C :   -0.261289
   1 C :    0.026192
   2 O :   -0.382042
   3 C :    0.487966
   4 O :   -0.415904
   5 C :   -0.272624
   6 C :    0.162855
   7 C :   -0.268700
   8 N :   -0.124274
   9 C :    0.215142
  10 S :   -0.439406
  11 N :   -0.207527
  12 C :    0.070493
  13 C :    0.029621
  14 C :   -0.180962
  15 C :   -0.134516
  16 C :   -0.276282
  17 C :    0.306761
  18 O :   -0.355593
  19 C :   -0.239846
  20 H :    0.086235
  21 H :    0.090410
  22 H :    0.104228
  23 H :    0.104491
  24 H :    0.117849
  25 H :    0.131273
  26 H :    0.131705
  27 H :    0.095308
  28 H :    0.197875
  29 H :    0.194859
  30 H :    0.149303
  31 H :    0.150913
  32 H :    0.162612
  33 H :    0.132920
  34 H :    0.241648
  35 H :    0.168306
Sum of atomic charges:    0.0000000

LOEWDIN ATOMIC CHARGES
----------------------
   0 C :    0.106158
   1 C :   -0.015166
   2 O :    0.296950
   3 C :   -0.418549
   4 O :    0.109136
   5 C :   -0.097952
   6 C :   -0.058348
   7 C :    0.131459
   8 N :    0.407071
   9 C :   -0.455709
  10 S :   -0.034537
  11 N :    0.396110
  12 C :   -0.052649
  13 C :   -0.036996
  14 C :    0.012424
  15 C :    0.040086
  16 C :   -0.002666
  17 C :   -0.189628
  18 O :    0.396445
  19 C :    0.031093
  20 H :   -0.028050
  21 H :   -0.029438
  22 H :   -0.023672
  23 H :   -0.028882
  24 H :   -0.030200
  25 H :   -0.004918
  26 H :   -0.003595
  27 H :   -0.023208
  28 H :   -0.057355
  29 H :   -0.065073
  30 H :   -0.008958
  31 H :   -0.029557
  32 H :   -0.020080
  33 H :   -0.034758
  34 H :   -0.152859
  35 H :   -0.024131

  Mayer bond orders larger than 0.100000
B(  0-C ,  1-C ) :   0.9848 B(  0-C , 20-H ) :   0.9770 B(  0-C , 21-H ) :   0.9794
B(  0-C , 22-H ) :   0.9791 B(  1-C ,  2-O ) :   0.8689 B(  1-C , 23-H ) :   0.9722
B(  1-C , 24-H ) :   0.9679 B(  2-O ,  3-C ) :   1.1137 B(  3-C ,  4-O ) :   2.0004
B(  3-C ,  5-C ) :   1.0721 B(  5-C ,  6-C ) :   1.6474 B(  5-C , 12-C ) :   0.9699
B(  6-C ,  7-C ) :   0.9669 B(  6-C ,  8-N ) :   1.1604 B(  7-C , 25-H ) :   0.9601
B(  7-C , 26-H ) :   0.9601 B(  7-C , 27-H ) :   0.9903 B(  8-N ,  9-C ) :   1.1826
B(  8-N , 28-H ) :   0.9476 B(  9-C , 10-S ) :   1.6059 B(  9-C , 11-N ) :   1.3071
B( 11-N , 12-C ) :   0.9726 B( 11-N , 29-H ) :   0.9522 B( 12-C , 13-C ) :   0.9407
B( 12-C , 30-H ) :   1.0021 B( 13-C , 14-C ) :   1.3521 B( 13-C , 19-C ) :   1.3794
B( 14-C , 15-C ) :   1.3948 B( 14-C , 31-H ) :   0.9734 B( 15-C , 16-C ) :   1.3606
B( 15-C , 32-H ) :   0.9707 B( 16-C , 17-C ) :   1.3295 B( 16-C , 33-H ) :   0.9843
B( 17-C , 18-O ) :   1.1139 B( 17-C , 19-C ) :   1.3733 B( 18-O , 34-H ) :   0.9790
B( 19-C , 35-H ) :   0.9571

MP2 TOTAL ENERGY:    -1274.336123022 Eh
FINAL SINGLE POINT ENERGY     -1274.336123021761

DIPOLE MOMENT
-------------
                                X             Y             Z
Electronic contribution:      9.73751      10.64042       7.42970
Nuclear contribution   :    -10.76259     -12.14903      -7.41110
                        -----------------------------------------
Total Dipole Moment    :     -1.02509      -1.50861       0.01860
                        -----------------------------------------
Magnitude (a.u.)       :      1.82402
Magnitude (Debye)      :      4.63630

Rotational constants in cm-1:     0.012300     0.008582     0.006267
Rotational constants in MHz :   368.741344   257.270414   187.871057

                             ****ORCA TERMINATED NORMALLY****
TOTAL RUN TIME: 0 days 2 hours 6 minutes 3 seconds 118 msec
