                         Program Version 5.0.0 -  RELEASE  -
|  1> ! ri-mp2 cc-pvtz cc-pvtz/c TightSCF NoKeepInts
|  2>
|  3> %scf
|  4>   MaxCore 4096
|  5> end
|  6> *xyz  0  1
|  7>     C       15.9367369   13.3410532   17.3901010
|  8>     C       16.1422612   14.2241067   16.1493820
|  9>     O       17.2914766   15.0693499   16.3609861
| 10>     C       17.1629069   16.4090347   16.1234231
| 11>     O       16.4652488   16.8186334   15.2112773
| 12>     C       17.6388422   17.2665354   17.2645584
| 13>     C       17.4372027   18.6096397   17.2992691
| 14>     C       16.6787916   19.4543711   16.2975966
| 15>     N       18.0078480   19.3758128   18.3206615
| 16>     C       18.9449837   18.9147962   19.2067207
| 17>     S       19.7148940   19.9195936   20.2715403
| 18>     N       19.2270882   17.5736935   19.1503398
| 19>     C       18.4472197   16.5862086   18.3826996
| 20>     C       17.5860838   15.7846627   19.3534022
| 21>     C       18.0340148   14.5348135   19.8213988
| 22>     C       17.2737041   13.8031408   20.7494281
| 23>     C       16.0575084   14.3277887   21.2188705
| 24>     C       15.6134141   15.5768606   20.7638338
| 25>     O       14.4423426   16.0887119   21.2191200
| 26>     C       16.3720288   16.3029431   19.8404059
| 27>     H       16.8616918   12.8126717   17.6513730
| 28>     H       15.1555860   12.5945165   17.2032331
| 29>     H       15.6233175   13.9475174   18.2467287
| 30>     H       16.3078753   13.5962724   15.2643498
| 31>     H       15.2307397   14.8145827   15.9816356
| 32>     H       15.6419125   19.1064808   16.2063247
| 33>     H       17.1377893   19.3792464   15.3035206
| 34>     H       16.6474724   20.5163175   16.5680046
| 35>     H       17.8200595   20.3646343   18.3653638
| 36>     H       19.9021155   17.2571222   19.8341562
| 37>     H       19.1592065   15.8971097   17.9067238
| 38>     H       18.9766041   14.1288685   19.4641481
| 39>     H       17.6285461   12.8367625   21.1035593
| 40>     H       15.4674429   13.7673070   21.9365502
| 41>     H       14.0954513   15.4756125   21.8846316
| 42>     H       16.0165926   17.2752279   19.5186819
| 43> *
| 44>
| 45>                          ****END OF INPUT****

CARTESIAN COORDINATES (ANGSTROEM)
---------------------------------
  C     15.936737   13.341053   17.390101
  C     16.142261   14.224107   16.149382
  O     17.291477   15.069350   16.360986
  C     17.162907   16.409035   16.123423
  O     16.465249   16.818633   15.211277
  C     17.638842   17.266535   17.264558
  C     17.437203   18.609640   17.299269
  C     16.678792   19.454371   16.297597
  N     18.007848   19.375813   18.320661
  C     18.944984   18.914796   19.206721
  S     19.714894   19.919594   20.271540
  N     19.227088   17.573694   19.150340
  C     18.447220   16.586209   18.382700
  C     17.586084   15.784663   19.353402
  C     18.034015   14.534813   19.821399
  C     17.273704   13.803141   20.749428
  C     16.057508   14.327789   21.218870
  C     15.613414   15.576861   20.763834
  O     14.442343   16.088712   21.219120
  C     16.372029   16.302943   19.840406
  H     16.861692   12.812672   17.651373
  H     15.155586   12.594516   17.203233
  H     15.623318   13.947517   18.246729
  H     16.307875   13.596272   15.264350
  H     15.230740   14.814583   15.981636
  H     15.641913   19.106481   16.206325
  H     17.137789   19.379246   15.303521
  H     16.647472   20.516317   16.568005
  H     17.820059   20.364634   18.365364
  H     19.902115   17.257122   19.834156
  H     19.159206   15.897110   17.906724
  H     18.976604   14.128868   19.464148
  H     17.628546   12.836763   21.103559
  H     15.467443   13.767307   21.936550
  H     14.095451   15.475612   21.884632
  H     16.016593   17.275228   19.518682

 Total Charge           Charge          ....    0
 Multiplicity           Mult            ....    1
 Number of Electrons    NEL             ....  154
 Basis Dimension        Dim             ....  828

ORBITAL ENERGIES
----------------

  NO   OCC          E(Eh)            E(eV)
   0   2.0000     -91.889632     -2500.4440
   1   2.0000     -20.599841      -560.5502
   2   2.0000     -20.593285      -560.3718
   3   2.0000     -20.543287      -559.0112
   4   2.0000     -15.630362      -425.3238
   5   2.0000     -15.608492      -424.7287
   6   2.0000     -11.393725      -310.0390
   7   2.0000     -11.384319      -309.7831
   8   2.0000     -11.337141      -308.4993
   9   2.0000     -11.317182      -307.9562
  10   2.0000     -11.310314      -307.7693
  11   2.0000     -11.294012      -307.3257
  12   2.0000     -11.262344      -306.4640
  13   2.0000     -11.259807      -306.3949
  14   2.0000     -11.258113      -306.3488
  15   2.0000     -11.252722      -306.2021
  16   2.0000     -11.245710      -306.0113
  17   2.0000     -11.240588      -305.8719
  18   2.0000     -11.240126      -305.8594
  19   2.0000     -11.221550      -305.3539
  20   2.0000      -8.894666      -242.0362
  21   2.0000      -6.576234      -178.9484
  22   2.0000      -6.574237      -178.8941
  23   2.0000      -6.573646      -178.8780
  24   2.0000      -1.449419       -39.4407
  25   2.0000      -1.419501       -38.6266
  26   2.0000      -1.352131       -36.7934
  27   2.0000      -1.341347       -36.4999
  28   2.0000      -1.239654       -33.7327
  29   2.0000      -1.159833       -31.5607
  30   2.0000      -1.120870       -30.5004
  31   2.0000      -1.044091       -28.4112
  32   2.0000      -1.035034       -28.1647
  33   2.0000      -1.018111       -27.7042
  34   2.0000      -0.997047       -27.1310
  35   2.0000      -0.984857       -26.7993
  36   2.0000      -0.924042       -25.1445
  37   2.0000      -0.885900       -24.1066
  38   2.0000      -0.847935       -23.0735
  39   2.0000      -0.840487       -22.8708
  40   2.0000      -0.835632       -22.7387
  41   2.0000      -0.817435       -22.2435
  42   2.0000      -0.762372       -20.7452
  43   2.0000      -0.734350       -19.9827
  44   2.0000      -0.720811       -19.6143
  45   2.0000      -0.698456       -19.0059
  46   2.0000      -0.688839       -18.7443
  47   2.0000      -0.678738       -18.4694
  48   2.0000      -0.673299       -18.3214
  49   2.0000      -0.665958       -18.1216
  50   2.0000      -0.647907       -17.6304
  51   2.0000      -0.645527       -17.5657
  52   2.0000      -0.638145       -17.3648
  53   2.0000      -0.610834       -16.6216
  54   2.0000      -0.603329       -16.4174
  55   2.0000      -0.600144       -16.3307
  56   2.0000      -0.586572       -15.9614
  57   2.0000      -0.578625       -15.7452
  58   2.0000      -0.571843       -15.5606
  59   2.0000      -0.566585       -15.4176
  60   2.0000      -0.563215       -15.3259
  61   2.0000      -0.551198       -14.9989
  62   2.0000      -0.537476       -14.6255
  63   2.0000      -0.528066       -14.3694
  64   2.0000      -0.520599       -14.1662
  65   2.0000      -0.513219       -13.9654
  66   2.0000      -0.503559       -13.7025
  67   2.0000      -0.495592       -13.4857
  68   2.0000      -0.484130       -13.1739
  69   2.0000      -0.463087       -12.6012
  70   2.0000      -0.452577       -12.3152
  71   2.0000      -0.446252       -12.1431
  72   2.0000      -0.356751        -9.7077
  73   2.0000      -0.352694        -9.5973
  74   2.0000      -0.329424        -8.9641
  75   2.0000      -0.324316        -8.8251
  76   2.0000      -0.316793        -8.6204
  77   0.0000       0.072999         1.9864
  78   0.0000       0.104531         2.8444
  79   0.0000       0.122187         3.3249
  80   0.0000       0.129692         3.5291
  81   0.0000       0.133342         3.6284

MULLIKEN ATOMIC CHARGES
-----------------------
   0 C :   -0.290585
   1 C :    0.044563
   2 O :   -0.368233
   3 C :    0.469195
   4 O :   -0.421145
   5 C :   -0.249476
   6 C :    0.153425
   7 C :   -0.268658
   8 N :   -0.123272
   9 C :    0.217099
  10 S :   -0.439909
  11 N :   -0.207188
  12 C :    0.052537
  13 C :    0.078898
  14 C :   -0.208248
  15 C :   -0.118937
  16 C :   -0.277331
  17 C :    0.304329
  18 O :   -0.359075
  19 C :   -0.248766
  20 H :    0.095796
  21 H :    0.109065
  22 H :    0.105372
  23 H :    0.103858
  24 H :    0.094721
  25 H :    0.129678
  26 H :    0.133817
  27 H :    0.094850
  28 H :    0.198284
  29 H :    0.193176
  30 H :    0.149345
  31 H :    0.149328
  32 H :    0.161830
  33 H :    0.132061
  34 H :    0.241682
  35 H :    0.167915
Sum of atomic charges:    0.0000000

LOEWDIN ATOMIC CHARGES
----------------------
   0 C :    0.104479
   1 C :   -0.012383
   2 O :    0.293859
   3 C :   -0.417364
   4 O :    0.104871
   5 C :   -0.096615
   6 C :   -0.057748
   7 C :    0.130940
   8 N :    0.407627
   9 C :   -0.454788
  10 S :   -0.034418
  11 N :    0.396197
  12 C :   -0.053322
  13 C :   -0.035158
  14 C :    0.014841
  15 C :    0.044884
  16 C :   -0.002069
  17 C :   -0.190666
  18 O :    0.396165
  19 C :    0.028490
  20 H :   -0.029200
  21 H :   -0.026269
  22 H :   -0.025914
  23 H :   -0.029755
  24 H :   -0.027551
  25 H :   -0.005437
  26 H :   -0.003219
  27 H :   -0.023342
  28 H :   -0.057491
  29 H :   -0.066065
  30 H :   -0.007761
  31 H :   -0.031159
  32 H :   -0.020471
  33 H :   -0.035103
  34 H :   -0.153009
  35 H :   -0.026077

  Mayer bond orders larger than 0.100000
B(  0-C ,  1-C ) :   0.9726 B(  0-C , 20-H ) :   0.9743 B(  0-C , 21-H ) :   0.9791
B(  0-C , 22-H ) :   0.9739 B(  1-C ,  2-O ) :   0.8901 B(  1-C , 23-H ) :   0.9885
B(  1-C , 24-H ) :   0.9712 B(  2-O ,  3-C ) :   1.1368 B(  3-C ,  4-O ) :   1.9899
B(  3-C ,  5-C ) :   1.0684 B(  5-C ,  6-C ) :   1.6486 B(  5-C , 12-C ) :   0.9753
B(  6-C ,  7-C ) :   0.9693 B(  6-C ,  8-N ) :   1.1578 B(  7-C , 25-H ) :   0.9618
B(  7-C , 26-H ) :   0.9582 B(  7-C , 27-H ) :   0.9899 B(  8-N ,  9-C ) :   1.1817
B(  8-N , 28-H ) :   0.9479 B(  9-C , 10-S ) :   1.6053 B(  9-C , 11-N ) :   1.3065
B( 11-N , 12-C ) :   0.9612 B( 11-N , 29-H ) :   0.9531 B( 12-C , 13-C ) :   0.9464
B( 12-C , 30-H ) :   1.0022 B( 13-C , 14-C ) :   1.3484 B( 13-C , 19-C ) :   1.3742
B( 14-C , 15-C ) :   1.3847 B( 14-C , 31-H ) :   0.9751 B( 15-C , 16-C ) :   1.3649
B( 15-C , 32-H ) :   0.9706 B( 16-C , 17-C ) :   1.3301 B( 16-C , 33-H ) :   0.9849
B( 17-C , 18-O ) :   1.1135 B( 17-C , 19-C ) :   1.3731 B( 18-O , 34-H ) :   0.9792
B( 19-C , 35-H ) :   0.9562

MP2 TOTAL ENERGY:    -1274.341217762 Eh
FINAL SINGLE POINT ENERGY     -1274.341217761648

DIPOLE MOMENT
-------------
                                X             Y             Z
Electronic contribution:      8.24923      11.18165       4.81944
Nuclear contribution   :     -9.25948     -12.77481      -4.80863
                        -----------------------------------------
Total Dipole Moment    :     -1.01025      -1.59316       0.01081
                        -----------------------------------------
Magnitude (a.u.)       :      1.88650
Magnitude (Debye)      :      4.79511

Rotational constants in cm-1:     0.012197     0.009015     0.006467
Rotational constants in MHz :   365.666143   270.252402   193.868368

                             ****ORCA TERMINATED NORMALLY****
TOTAL RUN TIME: 0 days 1 hours 33 minutes 51 seconds 868 msec
