                         Program Version 5.0.0 -  RELEASE  -
|  1> ! ri-mp2 cc-pvtz cc-pvtz/c TightSCF NoKeepInts
|  2>
|  3> %scf
|  4>   MaxCore 4096
|  5> end
|  6> *xyz  0  1
|  7>     C       15.5329828   13.4988896   16.9724416
|  8>     C       16.4409155   14.1315891   15.9032310
|  9>     O       17.2193351   15.1565986   16.5472665
| 10>     C       16.8627333   16.4718905   16.4261701
| 11>     O       16.0322426   16.8553946   15.6198066
| 12>     C       17.5571425   17.3554178   17.4257836
| 13>     C       17.3985967   18.7034929   17.4397353
| 14>     C       16.5447079   19.5363333   16.5075902
| 15>     N       18.0913267   19.4818972   18.3717176
| 16>     C       19.0231660   19.0050586   19.2542037
| 17>     S       19.8612478   20.0077159   20.2683230
| 18>     N       19.2306232   17.6495312   19.2524874
| 19>     C       18.4547985   16.6703387   18.4700569
| 20>     C       17.6603758   15.7746123   19.4163605
| 21>     C       18.0642203   14.4453638   19.6425544
| 22>     C       17.3372001   13.6152135   20.5123826
| 23>     C       16.1972460   14.1182062   21.1621696
| 24>     C       15.7957910   15.4432257   20.9437342
| 25>     O       14.6971751   15.9325455   21.5718765
| 26>     C       16.5227899   16.2679023   20.0798182
| 27>     H       16.1306021   13.0789115   17.7905233
| 28>     H       14.9295839   12.6929464   16.5378875
| 29>     H       14.8516614   14.2492421   17.3932155
| 30>     H       17.1140165   13.3595367   15.5092269
| 31>     H       15.8458472   14.5198452   15.0655379
| 32>     H       15.4885211   19.2509435   16.5955531
| 33>     H       16.8412295   19.3741314   15.4635139
| 34>     H       16.6146863   20.6119966   16.7072199
| 35>     H       17.9527301   20.4796758   18.3870243
| 36>     H       19.8945897   17.3239311   19.9430418
| 37>     H       19.1751278   16.0438870   17.9253866
| 38>     H       18.9417465   14.0522522   19.1364273
| 39>     H       17.6565723   12.5880096   20.6793348
| 40>     H       15.6318103   13.4809178   21.8340182
| 41>     H       14.3532817   15.2316624   22.1457206
| 42>     H       16.2003770   17.2928935   19.9326591
| 43> *
| 44>
| 45>                          ****END OF INPUT****

CARTESIAN COORDINATES (ANGSTROEM)
---------------------------------
  C     15.532983   13.498890   16.972442
  C     16.440915   14.131589   15.903231
  O     17.219335   15.156599   16.547266
  C     16.862733   16.471891   16.426170
  O     16.032243   16.855395   15.619807
  C     17.557143   17.355418   17.425784
  C     17.398597   18.703493   17.439735
  C     16.544708   19.536333   16.507590
  N     18.091327   19.481897   18.371718
  C     19.023166   19.005059   19.254204
  S     19.861248   20.007716   20.268323
  N     19.230623   17.649531   19.252487
  C     18.454798   16.670339   18.470057
  C     17.660376   15.774612   19.416360
  C     18.064220   14.445364   19.642554
  C     17.337200   13.615213   20.512383
  C     16.197246   14.118206   21.162170
  C     15.795791   15.443226   20.943734
  O     14.697175   15.932545   21.571876
  C     16.522790   16.267902   20.079818
  H     16.130602   13.078912   17.790523
  H     14.929584   12.692946   16.537888
  H     14.851661   14.249242   17.393216
  H     17.114016   13.359537   15.509227
  H     15.845847   14.519845   15.065538
  H     15.488521   19.250943   16.595553
  H     16.841230   19.374131   15.463514
  H     16.614686   20.611997   16.707220
  H     17.952730   20.479676   18.387024
  H     19.894590   17.323931   19.943042
  H     19.175128   16.043887   17.925387
  H     18.941747   14.052252   19.136427
  H     17.656572   12.588010   20.679335
  H     15.631810   13.480918   21.834018
  H     14.353282   15.231662   22.145721
  H     16.200377   17.292894   19.932659

 Total Charge           Charge          ....    0
 Multiplicity           Mult            ....    1
 Number of Electrons    NEL             ....  154
 Basis Dimension        Dim             ....  828

ORBITAL ENERGIES
----------------

  NO   OCC          E(Eh)            E(eV)
   0   2.0000     -91.888679     -2500.4181
   1   2.0000     -20.601041      -560.5828
   2   2.0000     -20.597304      -560.4811
   3   2.0000     -20.541113      -558.9521
   4   2.0000     -15.628912      -425.2843
   5   2.0000     -15.608203      -424.7208
   6   2.0000     -11.395181      -310.0786
   7   2.0000     -11.383870      -309.7709
   8   2.0000     -11.336073      -308.4702
   9   2.0000     -11.314535      -307.8842
  10   2.0000     -11.308968      -307.7327
  11   2.0000     -11.294045      -307.3266
  12   2.0000     -11.260236      -306.4066
  13   2.0000     -11.258954      -306.3717
  14   2.0000     -11.255712      -306.2835
  15   2.0000     -11.251971      -306.1817
  16   2.0000     -11.243571      -305.9531
  17   2.0000     -11.238742      -305.8217
  18   2.0000     -11.238358      -305.8113
  19   2.0000     -11.222757      -305.3867
  20   2.0000      -8.893743      -242.0111
  21   2.0000      -6.575319      -178.9235
  22   2.0000      -6.573313      -178.8689
  23   2.0000      -6.572727      -178.8530
  24   2.0000      -1.450477       -39.4695
  25   2.0000      -1.416953       -38.5573
  26   2.0000      -1.354408       -36.8553
  27   2.0000      -1.339957       -36.4621
  28   2.0000      -1.238541       -33.7024
  29   2.0000      -1.158098       -31.5134
  30   2.0000      -1.120474       -30.4896
  31   2.0000      -1.043065       -28.3832
  32   2.0000      -1.036321       -28.1997
  33   2.0000      -1.015724       -27.6392
  34   2.0000      -0.995450       -27.0876
  35   2.0000      -0.984141       -26.7798
  36   2.0000      -0.922667       -25.1070
  37   2.0000      -0.891214       -24.2512
  38   2.0000      -0.846951       -23.0467
  39   2.0000      -0.837960       -22.8021
  40   2.0000      -0.834308       -22.7027
  41   2.0000      -0.814904       -22.1747
  42   2.0000      -0.760561       -20.6959
  43   2.0000      -0.732690       -19.9375
  44   2.0000      -0.722774       -19.6677
  45   2.0000      -0.696384       -18.9496
  46   2.0000      -0.688467       -18.7341
  47   2.0000      -0.679280       -18.4841
  48   2.0000      -0.670262       -18.2388
  49   2.0000      -0.662986       -18.0408
  50   2.0000      -0.647726       -17.6255
  51   2.0000      -0.642128       -17.4732
  52   2.0000      -0.632875       -17.2214
  53   2.0000      -0.607795       -16.5390
  54   2.0000      -0.602968       -16.4076
  55   2.0000      -0.599410       -16.3108
  56   2.0000      -0.598744       -16.2927
  57   2.0000      -0.578192       -15.7334
  58   2.0000      -0.570621       -15.5274
  59   2.0000      -0.566635       -15.4189
  60   2.0000      -0.561490       -15.2789
  61   2.0000      -0.545683       -14.8488
  62   2.0000      -0.535264       -14.5653
  63   2.0000      -0.529314       -14.4034
  64   2.0000      -0.525672       -14.3043
  65   2.0000      -0.513098       -13.9621
  66   2.0000      -0.501501       -13.6465
  67   2.0000      -0.498156       -13.5555
  68   2.0000      -0.482443       -13.1279
  69   2.0000      -0.463520       -12.6130
  70   2.0000      -0.452493       -12.3130
  71   2.0000      -0.448451       -12.2030
  72   2.0000      -0.354175        -9.6376
  73   2.0000      -0.350111        -9.5270
  74   2.0000      -0.328187        -8.9304
  75   2.0000      -0.321816        -8.7570
  76   2.0000      -0.316227        -8.6050
  77   0.0000       0.077069         2.0972
  78   0.0000       0.105276         2.8647
  79   0.0000       0.124498         3.3878
  80   0.0000       0.132558         3.6071
  81   0.0000       0.137985         3.7548

MULLIKEN ATOMIC CHARGES
-----------------------
   0 C :   -0.286581
   1 C :    0.016432
   2 O :   -0.352234
   3 C :    0.467357
   4 O :   -0.434747
   5 C :   -0.239534
   6 C :    0.155782
   7 C :   -0.272406
   8 N :   -0.121435
   9 C :    0.214723
  10 S :   -0.441348
  11 N :   -0.207937
  12 C :    0.066598
  13 C :    0.077165
  14 C :   -0.197475
  15 C :   -0.136492
  16 C :   -0.275614
  17 C :    0.316802
  18 O :   -0.356793
  19 C :   -0.268181
  20 H :    0.096774
  21 H :    0.102002
  22 H :    0.103131
  23 H :    0.102095
  24 H :    0.122852
  25 H :    0.131750
  26 H :    0.131096
  27 H :    0.095017
  28 H :    0.196982
  29 H :    0.195503
  30 H :    0.148628
  31 H :    0.148328
  32 H :    0.164171
  33 H :    0.130823
  34 H :    0.240944
  35 H :    0.165819
Sum of atomic charges:   -0.0000000

LOEWDIN ATOMIC CHARGES
----------------------
   0 C :    0.104538
   1 C :   -0.014546
   2 O :    0.308979
   3 C :   -0.414414
   4 O :    0.094967
   5 C :   -0.094680
   6 C :   -0.059207
   7 C :    0.131466
   8 N :    0.406740
   9 C :   -0.455471
  10 S :   -0.036135
  11 N :    0.396328
  12 C :   -0.052151
  13 C :   -0.037316
  14 C :    0.013359
  15 C :    0.040736
  16 C :   -0.001661
  17 C :   -0.188887
  18 O :    0.395618
  19 C :    0.031571
  20 H :   -0.028448
  21 H :   -0.027687
  22 H :   -0.025425
  23 H :   -0.028415
  24 H :   -0.028652
  25 H :   -0.004635
  26 H :   -0.003909
  27 H :   -0.023444
  28 H :   -0.057560
  29 H :   -0.064782
  30 H :   -0.011199
  31 H :   -0.030722
  32 H :   -0.021488
  33 H :   -0.035488
  34 H :   -0.153730
  35 H :   -0.024250

  Mayer bond orders larger than 0.100000
B(  0-C ,  1-C ) :   0.9667 B(  0-C , 20-H ) :   0.9727 B(  0-C , 21-H ) :   0.9775
B(  0-C , 22-H ) :   0.9766 B(  1-C ,  2-O ) :   0.8893 B(  1-C , 23-H ) :   0.9851
B(  1-C , 24-H ) :   0.9756 B(  2-O ,  3-C ) :   1.1744 B(  3-C ,  4-O ) :   1.9723
B(  3-C ,  5-C ) :   1.0533 B(  5-C ,  6-C ) :   1.6537 B(  5-C , 12-C ) :   0.9732
B(  6-C ,  7-C ) :   0.9668 B(  6-C ,  8-N ) :   1.1665 B(  7-C , 25-H ) :   0.9602
B(  7-C , 26-H ) :   0.9604 B(  7-C , 27-H ) :   0.9903 B(  8-N ,  9-C ) :   1.1837
B(  8-N , 28-H ) :   0.9478 B(  9-C , 10-S ) :   1.6038 B(  9-C , 11-N ) :   1.3077
B( 11-N , 12-C ) :   0.9804 B( 11-N , 29-H ) :   0.9514 B( 12-C , 13-C ) :   0.9377
B( 12-C , 30-H ) :   1.0020 B( 13-C , 14-C ) :   1.3497 B( 13-C , 19-C ) :   1.3800
B( 14-C , 15-C ) :   1.3879 B( 14-C , 31-H ) :   0.9734 B( 15-C , 16-C ) :   1.3594
B( 15-C , 32-H ) :   0.9706 B( 16-C , 17-C ) :   1.3314 B( 16-C , 33-H ) :   0.9849
B( 17-C , 18-O ) :   1.1104 B( 17-C , 19-C ) :   1.3699 B( 18-O , 34-H ) :   0.9796
B( 19-C , 35-H ) :   0.9585

MP2 TOTAL ENERGY:    -1274.351464325 Eh
FINAL SINGLE POINT ENERGY     -1274.351464325174

DIPOLE MOMENT
-------------
                                X             Y             Z
Electronic contribution:      8.59980      11.33123       6.68617
Nuclear contribution   :     -9.45069     -13.08957      -7.09524
                        -----------------------------------------
Total Dipole Moment    :     -0.85089      -1.75834      -0.40906
                        -----------------------------------------
Magnitude (a.u.)       :      1.99577
Magnitude (Debye)      :      5.07285

Rotational constants in cm-1:     0.012433     0.008594     0.006288
Rotational constants in MHz :   372.734593   257.632442   188.518485

                             ****ORCA TERMINATED NORMALLY****
TOTAL RUN TIME: 0 days 2 hours 49 minutes 14 seconds 275 msec
