                         Program Version 4.2.0 -  RELEASE  -
|  1> ! ri-mp2 cc-pvtz cc-pvtz/c TightSCF  NoKeepInts
|  2>
|  3> %scf
|  4>   MaxCore 4096
|  5> end
|  6> *xyz  0  1
|  7>     C       15.6682331   13.6997909   15.1921297
|  8>     C       15.0943480   15.0829867   15.5686968
|  9>     O       16.0588489   16.0427974   16.0749141
| 10>     C       17.2005961   15.7763232   16.7867910
| 11>     O       17.6847324   14.6657528   16.9192033
| 12>     C       17.6741474   16.9362136   17.6189864
| 13>     C       17.3338278   18.2371793   17.4168425
| 14>     C       16.4445728   18.8166723   16.3352303
| 15>     N       17.8904852   19.2343869   18.2250646
| 16>     C       18.8956693   19.0375278   19.1343622
| 17>     S       19.5901221   20.2960382   19.9526948
| 18>     N       19.2960506   17.7405695   19.3295010
| 19>     C       18.6206812   16.5572284   18.7650931
| 20>     C       17.8795540   15.7936481   19.8599236
| 21>     C       18.1281539   14.4240413   20.0661728
| 22>     C       17.4478480   13.7152224   21.0704958
| 23>     C       16.5095221   14.3808579   21.8773666
| 24>     C       16.2558704   15.7439317   21.6729839
| 25>     O       15.3457705   16.3880958   22.4464418
| 26>     C       16.9342565   16.4466342   20.6722359
| 27>     H       16.5712362   13.8022388   14.5773103
| 28>     H       14.9304462   13.1276437   14.6170556
| 29>     H       15.9122075   13.1124878   16.0861540
| 30>     H       14.6020601   15.5166060   14.6888282
| 31>     H       14.3178623   14.9294688   16.3294006
| 32>     H       15.3965321   18.5420647   16.5078512
| 33>     H       16.7361845   18.4393061   15.3471885
| 34>     H       16.4948034   19.9112179   16.2869079
| 35>     H       17.6099430   20.1933648   18.0966439
| 36>     H       20.0170640   17.6174122   20.0286438
| 37>     H       19.3987532   15.8982674   18.3532723
| 38>     H       18.8405595   13.9028728   19.4312169
| 39>     H       17.6451050   12.6545810   21.2149681
| 40>     H       15.9804772   13.8368522   22.6526166
| 41>     H       15.0153961   15.7499969   23.0963543
| 42>     H       16.7250794   17.5017206   20.5344575
| 43> *
| 44>
| 45>                          ****END OF INPUT****

CARTESIAN COORDINATES (ANGSTROEM)
---------------------------------
  C     15.668233   13.699791   15.192130
  C     15.094348   15.082987   15.568697
  O     16.058849   16.042797   16.074914
  C     17.200596   15.776323   16.786791
  O     17.684732   14.665753   16.919203
  C     17.674147   16.936214   17.618986
  C     17.333828   18.237179   17.416843
  C     16.444573   18.816672   16.335230
  N     17.890485   19.234387   18.225065
  C     18.895669   19.037528   19.134362
  S     19.590122   20.296038   19.952695
  N     19.296051   17.740569   19.329501
  C     18.620681   16.557228   18.765093
  C     17.879554   15.793648   19.859924
  C     18.128154   14.424041   20.066173
  C     17.447848   13.715222   21.070496
  C     16.509522   14.380858   21.877367
  C     16.255870   15.743932   21.672984
  O     15.345770   16.388096   22.446442
  C     16.934257   16.446634   20.672236
  H     16.571236   13.802239   14.577310
  H     14.930446   13.127644   14.617056
  H     15.912207   13.112488   16.086154
  H     14.602060   15.516606   14.688828
  H     14.317862   14.929469   16.329401
  H     15.396532   18.542065   16.507851
  H     16.736185   18.439306   15.347188
  H     16.494803   19.911218   16.286908
  H     17.609943   20.193365   18.096644
  H     20.017064   17.617412   20.028644
  H     19.398753   15.898267   18.353272
  H     18.840560   13.902873   19.431217
  H     17.645105   12.654581   21.214968
  H     15.980477   13.836852   22.652617
  H     15.015396   15.749997   23.096354
  H     16.725079   17.501721   20.534457

 Total Charge           Charge          ....    0
 Multiplicity           Mult            ....    1
 Number of Electrons    NEL             ....  154
 Basis Dimension        Dim             ....  828

ORBITAL ENERGIES
----------------

  NO   OCC          E(Eh)            E(eV)
   0   2.0000     -91.887103     -2500.3752
   1   2.0000     -20.600136      -560.5582
   2   2.0000     -20.591163      -560.3140
   3   2.0000     -20.544768      -559.0516
   4   2.0000     -15.626982      -425.2318
   5   2.0000     -15.605759      -424.6543
   6   2.0000     -11.398927      -310.1806
   7   2.0000     -11.381873      -309.7165
   8   2.0000     -11.334416      -308.4251
   9   2.0000     -11.306952      -307.6778
  10   2.0000     -11.306655      -307.6697
  11   2.0000     -11.304558      -307.6127
  12   2.0000     -11.259334      -306.3821
  13   2.0000     -11.257795      -306.3402
  14   2.0000     -11.252791      -306.2040
  15   2.0000     -11.247191      -306.0516
  16   2.0000     -11.236771      -305.7681
  17   2.0000     -11.232747      -305.6586
  18   2.0000     -11.229838      -305.5794
  19   2.0000     -11.224045      -305.4218
  20   2.0000      -8.892175      -241.9684
  21   2.0000      -6.573755      -178.8810
  22   2.0000      -6.571747      -178.8263
  23   2.0000      -6.571163      -178.8104
  24   2.0000      -1.445819       -39.3427
  25   2.0000      -1.410896       -38.3924
  26   2.0000      -1.357237       -36.9323
  27   2.0000      -1.338189       -36.4140
  28   2.0000      -1.235896       -33.6304
  29   2.0000      -1.151287       -31.3281
  30   2.0000      -1.117936       -30.4206
  31   2.0000      -1.041553       -28.3421
  32   2.0000      -1.034195       -28.1419
  33   2.0000      -1.008816       -27.4513
  34   2.0000      -0.996172       -27.1072
  35   2.0000      -0.981516       -26.7084
  36   2.0000      -0.920663       -25.0525
  37   2.0000      -0.896113       -24.3845
  38   2.0000      -0.847146       -23.0520
  39   2.0000      -0.835162       -22.7259
  40   2.0000      -0.827322       -22.5126
  41   2.0000      -0.817517       -22.2458
  42   2.0000      -0.743577       -20.2338
  43   2.0000      -0.726500       -19.7691
  44   2.0000      -0.723965       -19.7001
  45   2.0000      -0.689994       -18.7757
  46   2.0000      -0.683733       -18.6053
  47   2.0000      -0.677853       -18.4453
  48   2.0000      -0.671594       -18.2750
  49   2.0000      -0.665501       -18.1092
  50   2.0000      -0.645067       -17.5532
  51   2.0000      -0.642791       -17.4912
  52   2.0000      -0.633912       -17.2496
  53   2.0000      -0.602679       -16.3997
  54   2.0000      -0.599058       -16.3012
  55   2.0000      -0.597193       -16.2505
  56   2.0000      -0.594538       -16.1782
  57   2.0000      -0.585837       -15.9414
  58   2.0000      -0.571737       -15.5578
  59   2.0000      -0.570120       -15.5138
  60   2.0000      -0.558869       -15.2076
  61   2.0000      -0.542995       -14.7757
  62   2.0000      -0.537013       -14.6129
  63   2.0000      -0.523759       -14.2522
  64   2.0000      -0.516683       -14.0597
  65   2.0000      -0.510156       -13.8821
  66   2.0000      -0.499276       -13.5860
  67   2.0000      -0.494451       -13.4547
  68   2.0000      -0.479254       -13.0412
  69   2.0000      -0.461206       -12.5501
  70   2.0000      -0.454931       -12.3793
  71   2.0000      -0.445940       -12.1346
  72   2.0000      -0.352901        -9.6029
  73   2.0000      -0.343302        -9.3417
  74   2.0000      -0.326298        -8.8790
  75   2.0000      -0.314821        -8.5667
  76   2.0000      -0.313118        -8.5204
  77   0.0000       0.077264         2.1024
  78   0.0000       0.113573         3.0905
  79   0.0000       0.121643         3.3101
  80   0.0000       0.136365         3.7107
  81   0.0000       0.139547         3.7973

MULLIKEN ATOMIC CHARGES
-----------------------
   0 C :   -0.287843
   1 C :    0.050306
   2 O :   -0.361107
   3 C :    0.435787
   4 O :   -0.427028
   5 C :   -0.142454
   6 C :    0.137959
   7 C :   -0.286972
   8 N :   -0.121298
   9 C :    0.201116
  10 S :   -0.440941
  11 N :   -0.197203
  12 C :    0.032409
  13 C :    0.057326
  14 C :   -0.163829
  15 C :   -0.134203
  16 C :   -0.279250
  17 C :    0.311494
  18 O :   -0.359045
  19 C :   -0.271358
  20 H :    0.102649
  21 H :    0.095408
  22 H :    0.118541
  23 H :    0.095518
  24 H :    0.089657
  25 H :    0.126841
  26 H :    0.125148
  27 H :    0.102551
  28 H :    0.196435
  29 H :    0.193415
  30 H :    0.154634
  31 H :    0.153982
  32 H :    0.158910
  33 H :    0.127831
  34 H :    0.239907
  35 H :    0.164709
Sum of atomic charges:   -0.0000000

LOEWDIN ATOMIC CHARGES
----------------------
   0 C :    0.102527
   1 C :   -0.008821
   2 O :    0.292736
   3 C :   -0.412274
   4 O :    0.115035
   5 C :   -0.090050
   6 C :   -0.066658
   7 C :    0.124289
   8 N :    0.404430
   9 C :   -0.459198
  10 S :   -0.037302
  11 N :    0.397834
  12 C :   -0.046426
  13 C :   -0.038631
  14 C :    0.021319
  15 C :    0.040349
  16 C :   -0.002614
  17 C :   -0.192586
  18 O :    0.392987
  19 C :    0.028749
  20 H :   -0.025089
  21 H :   -0.028749
  22 H :   -0.024800
  23 H :   -0.025988
  24 H :   -0.028935
  25 H :   -0.009940
  26 H :   -0.008896
  27 H :   -0.021239
  28 H :   -0.059430
  29 H :   -0.063779
  30 H :   -0.005472
  31 H :   -0.025420
  32 H :   -0.021425
  33 H :   -0.036538
  34 H :   -0.155026
  35 H :   -0.024969

  Mayer bond orders larger than 0.100000
B(  0-C ,  1-C ) :   0.9776 B(  0-C , 20-H ) :   0.9749 B(  0-C , 21-H ) :   0.9740
B(  0-C , 22-H ) :   0.9724 B(  1-C ,  2-O ) :   0.9012 B(  1-C , 23-H ) :   0.9811
B(  1-C , 24-H ) :   0.9781 B(  2-O ,  3-C ) :   1.1346 B(  3-C ,  4-O ) :   1.9803
B(  3-C ,  5-C ) :   1.0557 B(  5-C ,  6-C ) :   1.6532 B(  5-C , 12-C ) :   0.9637
B(  6-C ,  7-C ) :   0.9551 B(  6-C ,  8-N ) :   1.1442 B(  7-C , 25-H ) :   0.9638
B(  7-C , 26-H ) :   0.9666 B(  7-C , 27-H ) :   0.9917 B(  8-N ,  9-C ) :   1.1800
B(  8-N , 28-H ) :   0.9491 B(  9-C , 10-S ) :   1.6093 B(  9-C , 11-N ) :   1.3041
B( 11-N , 12-C ) :   0.9922 B( 11-N , 29-H ) :   0.9521 B( 12-C , 13-C ) :   0.9477
B( 12-C , 30-H ) :   0.9998 B( 13-C , 14-C ) :   1.3754 B( 13-C , 19-C ) :   1.3697
B( 14-C , 15-C ) :   1.3945 B( 14-C , 31-H ) :   0.9649 B( 15-C , 16-C ) :   1.3626
B( 15-C , 32-H ) :   0.9715 B( 16-C , 17-C ) :   1.3314 B( 16-C , 33-H ) :   0.9861
B( 17-C , 18-O ) :   1.1080 B( 17-C , 19-C ) :   1.3789 B( 18-O , 34-H ) :   0.9807
B( 19-C , 35-H ) :   0.9584

MP2 TOTAL ENERGY:    -1274.335934969 Eh
FINAL SINGLE POINT ENERGY     -1274.335934968742

DIPOLE MOMENT
-------------
                                X             Y             Z
Electronic contribution:      9.83746      10.36290      10.87002
Nuclear contribution   :    -11.51608     -11.55612     -11.88702
                        -----------------------------------------
Total Dipole Moment    :     -1.67862      -1.19323      -1.01700
                        -----------------------------------------
Magnitude (a.u.)       :      2.29692
Magnitude (Debye)      :      5.83831

Rotational constants in cm-1:     0.010693     0.008897     0.005866
Rotational constants in MHz :   320.559254   266.720540   175.849148

                             ****ORCA TERMINATED NORMALLY****
TOTAL RUN TIME: 0 days 2 hours 31 minutes 41 seconds 8 msec
