                         Program Version 4.2.0 -  RELEASE  -
|  1> ! ri-mp2 cc-pvtz cc-pvtz/c TightSCF  NoKeepInts
|  2>
|  3> %scf
|  4>   MaxCore 4096
|  5> end
|  6> *xyz  0  1
|  7>     C       14.7542216   14.3135572   15.0209495
|  8>     C       15.4438591   14.6032194   16.3645254
|  9>     O       16.4205517   15.6336179   16.1304813
| 10>     C       17.6135166   15.5828574   16.7909489
| 11>     O       18.1552855   14.5220605   17.0544543
| 12>     C       17.9061794   16.8316992   17.5695897
| 13>     C       17.4741193   18.0711782   17.2214621
| 14>     C       16.6605454   18.4613839   16.0045883
| 15>     N       17.8475512   19.1782949   17.9900827
| 16>     C       18.7556024   19.1490322   19.0156243
| 17>     S       19.2344784   20.5269442   19.7950644
| 18>     N       19.2477688   17.9160304   19.3620917
| 19>     C       18.7597942   16.6311338   18.8262983
| 20>     C       17.9833457   15.8669724   19.8956305
| 21>     C       18.3487983   14.5522593   20.2390579
| 22>     C       17.6335110   13.8420790   21.2177904
| 23>     C       16.5418330   14.4508349   21.8598862
| 24>     C       16.1718605   15.7586106   21.5180328
| 25>     O       15.1136150   16.3466793   22.1308554
| 26>     C       16.8853119   16.4626772   20.5429859
| 27>     H       15.4856065   13.9682352   14.2794127
| 28>     H       14.2658435   15.2159887   14.6330383
| 29>     H       13.9923682   13.5335896   15.1399070
| 30>     H       14.7134376   14.9343492   17.1141309
| 31>     H       15.9109633   13.6760626   16.7241269
| 32>     H       17.0425180   17.9662350   15.1030009
| 33>     H       16.6836921   19.5406102   15.8104996
| 34>     H       15.6109930   18.1675370   16.1303149
| 35>     H       17.4979725   20.0923773   17.7505811
| 36>     H       19.8925153   17.9186446   20.1420115
| 37>     H       19.6379478   16.0327134   18.5434760
| 38>     H       19.1817831   14.0727662   19.7305772
| 39>     H       17.9233635   12.8235829   21.4699012
| 40>     H       15.9857026   13.9052783   22.6149158
| 41>     H       14.7863580   15.7278585   22.8008346
| 42>     H       16.5841862   17.4750495   20.2968716
| 43> *
| 44>
| 45>                          ****END OF INPUT****

CARTESIAN COORDINATES (ANGSTROEM)
---------------------------------
  C     14.754222   14.313557   15.020949
  C     15.443859   14.603219   16.364525
  O     16.420552   15.633618   16.130481
  C     17.613517   15.582857   16.790949
  O     18.155286   14.522061   17.054454
  C     17.906179   16.831699   17.569590
  C     17.474119   18.071178   17.221462
  C     16.660545   18.461384   16.004588
  N     17.847551   19.178295   17.990083
  C     18.755602   19.149032   19.015624
  S     19.234478   20.526944   19.795064
  N     19.247769   17.916030   19.362092
  C     18.759794   16.631134   18.826298
  C     17.983346   15.866972   19.895630
  C     18.348798   14.552259   20.239058
  C     17.633511   13.842079   21.217790
  C     16.541833   14.450835   21.859886
  C     16.171861   15.758611   21.518033
  O     15.113615   16.346679   22.130855
  C     16.885312   16.462677   20.542986
  H     15.485606   13.968235   14.279413
  H     14.265843   15.215989   14.633038
  H     13.992368   13.533590   15.139907
  H     14.713438   14.934349   17.114131
  H     15.910963   13.676063   16.724127
  H     17.042518   17.966235   15.103001
  H     16.683692   19.540610   15.810500
  H     15.610993   18.167537   16.130315
  H     17.497972   20.092377   17.750581
  H     19.892515   17.918645   20.142011
  H     19.637948   16.032713   18.543476
  H     19.181783   14.072766   19.730577
  H     17.923364   12.823583   21.469901
  H     15.985703   13.905278   22.614916
  H     14.786358   15.727858   22.800835
  H     16.584186   17.475049   20.296872

 Total Charge           Charge          ....    0
 Multiplicity           Mult            ....    1
 Number of Electrons    NEL             ....  154
 Basis Dimension        Dim             ....  828

ORBITAL ENERGIES
----------------

  NO   OCC          E(Eh)            E(eV)
   0   2.0000     -91.888258     -2500.4066
   1   2.0000     -20.593817      -560.3863
   2   2.0000     -20.593375      -560.3742
   3   2.0000     -20.550717      -559.2134
   4   2.0000     -15.628257      -425.2665
   5   2.0000     -15.607253      -424.6950
   6   2.0000     -11.395649      -310.0914
   7   2.0000     -11.383419      -309.7586
   8   2.0000     -11.334586      -308.4298
   9   2.0000     -11.309312      -307.7420
  10   2.0000     -11.306839      -307.6747
  11   2.0000     -11.298512      -307.4482
  12   2.0000     -11.260003      -306.4003
  13   2.0000     -11.259507      -306.3868
  14   2.0000     -11.255095      -306.2667
  15   2.0000     -11.249431      -306.1126
  16   2.0000     -11.239044      -305.8299
  17   2.0000     -11.235114      -305.7230
  18   2.0000     -11.232212      -305.6440
  19   2.0000     -11.230629      -305.6010
  20   2.0000      -8.893327      -241.9997
  21   2.0000      -6.574905      -178.9123
  22   2.0000      -6.572897      -178.8576
  23   2.0000      -6.572312      -178.8417
  24   2.0000      -1.453087       -39.5405
  25   2.0000      -1.413119       -38.4529
  26   2.0000      -1.357361       -36.9357
  27   2.0000      -1.339268       -36.4433
  28   2.0000      -1.237183       -33.6654
  29   2.0000      -1.153650       -31.3924
  30   2.0000      -1.120183       -30.4817
  31   2.0000      -1.043933       -28.4069
  32   2.0000      -1.036172       -28.1957
  33   2.0000      -1.011079       -27.5129
  34   2.0000      -0.998083       -27.1592
  35   2.0000      -0.983542       -26.7635
  36   2.0000      -0.921880       -25.0856
  37   2.0000      -0.885061       -24.0837
  38   2.0000      -0.847588       -23.0640
  39   2.0000      -0.836559       -22.7639
  40   2.0000      -0.829573       -22.5738
  41   2.0000      -0.821997       -22.3677
  42   2.0000      -0.759162       -20.6579
  43   2.0000      -0.735841       -20.0233
  44   2.0000      -0.726277       -19.7630
  45   2.0000      -0.691699       -18.8221
  46   2.0000      -0.685357       -18.6495
  47   2.0000      -0.680562       -18.5190
  48   2.0000      -0.673704       -18.3324
  49   2.0000      -0.655395       -17.8342
  50   2.0000      -0.648157       -17.6372
  51   2.0000      -0.641559       -17.4577
  52   2.0000      -0.629824       -17.1384
  53   2.0000      -0.619085       -16.8462
  54   2.0000      -0.601845       -16.3770
  55   2.0000      -0.601383       -16.3645
  56   2.0000      -0.596711       -16.2373
  57   2.0000      -0.578929       -15.7535
  58   2.0000      -0.574606       -15.6358
  59   2.0000      -0.562316       -15.3014
  60   2.0000      -0.561398       -15.2764
  61   2.0000      -0.546753       -14.8779
  62   2.0000      -0.534178       -14.5357
  63   2.0000      -0.526665       -14.3313
  64   2.0000      -0.518792       -14.1170
  65   2.0000      -0.510420       -13.8892
  66   2.0000      -0.500448       -13.6179
  67   2.0000      -0.496036       -13.4978
  68   2.0000      -0.481631       -13.1058
  69   2.0000      -0.464092       -12.6286
  70   2.0000      -0.460657       -12.5351
  71   2.0000      -0.451782       -12.2936
  72   2.0000      -0.353937        -9.6311
  73   2.0000      -0.345457        -9.4004
  74   2.0000      -0.327465        -8.9108
  75   2.0000      -0.316532        -8.6133
  76   2.0000      -0.314980        -8.5710
  77   0.0000       0.073509         2.0003
  78   0.0000       0.109201         2.9715
  79   0.0000       0.119717         3.2577
  80   0.0000       0.134643         3.6638
  81   0.0000       0.137708         3.7472

MULLIKEN ATOMIC CHARGES
-----------------------
   0 C :   -0.261888
   1 C :    0.031426
   2 O :   -0.365541
   3 C :    0.458878
   4 O :   -0.412535
   5 C :   -0.189141
   6 C :    0.142005
   7 C :   -0.283832
   8 N :   -0.124266
   9 C :    0.202222
  10 S :   -0.439795
  11 N :   -0.199094
  12 C :    0.044028
  13 C :    0.053771
  14 C :   -0.163239
  15 C :   -0.133425
  16 C :   -0.279779
  17 C :    0.311377
  18 O :   -0.358939
  19 C :   -0.274979
  20 H :    0.100513
  21 H :    0.089821
  22 H :    0.089846
  23 H :    0.096184
  24 H :    0.116978
  25 H :    0.125574
  26 H :    0.103688
  27 H :    0.125363
  28 H :    0.197076
  29 H :    0.193986
  30 H :    0.154345
  31 H :    0.154579
  32 H :    0.159802
  33 H :    0.128774
  34 H :    0.240369
  35 H :    0.165849
Sum of atomic charges:   -0.0000000

LOEWDIN ATOMIC CHARGES
----------------------
   0 C :    0.105920
   1 C :   -0.012643
   2 O :    0.298955
   3 C :   -0.414091
   4 O :    0.115676
   5 C :   -0.092595
   6 C :   -0.070244
   7 C :    0.125312
   8 N :    0.404424
   9 C :   -0.458212
  10 S :   -0.036376
  11 N :    0.397404
  12 C :   -0.045909
  13 C :   -0.039353
  14 C :    0.021601
  15 C :    0.041021
  16 C :   -0.002295
  17 C :   -0.193164
  18 O :    0.393034
  19 C :    0.028107
  20 H :   -0.024248
  21 H :   -0.030305
  22 H :   -0.025728
  23 H :   -0.032001
  24 H :   -0.026386
  25 H :   -0.008187
  26 H :   -0.020230
  27 H :   -0.010197
  28 H :   -0.058924
  29 H :   -0.063898
  30 H :   -0.004818
  31 H :   -0.025094
  32 H :   -0.020955
  33 H :   -0.036185
  34 H :   -0.154621
  35 H :   -0.024798

  Mayer bond orders larger than 0.100000
B(  0-C ,  1-C ) :   0.9763 B(  0-C , 20-H ) :   0.9777 B(  0-C , 21-H ) :   0.9798
B(  0-C , 22-H ) :   0.9762 B(  1-C ,  2-O ) :   0.8863 B(  1-C , 23-H ) :   0.9749
B(  1-C , 24-H ) :   0.9736 B(  2-O ,  3-C ) :   1.1078 B(  3-C ,  4-O ) :   2.0104
B(  3-C ,  5-C ) :   1.0415 B(  5-C ,  6-C ) :   1.6608 B(  5-C , 12-C ) :   0.9646
B(  6-C ,  7-C ) :   0.9525 B(  6-C ,  8-N ) :   1.1414 B(  7-C , 25-H ) :   0.9687
B(  7-C , 26-H ) :   0.9896 B(  7-C , 27-H ) :   0.9637 B(  8-N ,  9-C ) :   1.1820
B(  8-N , 28-H ) :   0.9494 B(  9-C , 10-S ) :   1.6104 B(  9-C , 11-N ) :   1.3021
B( 11-N , 12-C ) :   0.9909 B( 11-N , 29-H ) :   0.9518 B( 12-C , 13-C ) :   0.9472
B( 12-C , 30-H ) :   0.9988 B( 13-C , 14-C ) :   1.3769 B( 13-C , 19-C ) :   1.3684
B( 14-C , 15-C ) :   1.3944 B( 14-C , 31-H ) :   0.9644 B( 15-C , 16-C ) :   1.3632
B( 15-C , 32-H ) :   0.9712 B( 16-C , 17-C ) :   1.3314 B( 16-C , 33-H ) :   0.9857
B( 17-C , 18-O ) :   1.1085 B( 17-C , 19-C ) :   1.3774 B( 18-O , 34-H ) :   0.9803
B( 19-C , 35-H ) :   0.9583

MP2 TOTAL ENERGY:    -1274.334469039 Eh
FINAL SINGLE POINT ENERGY     -1274.334469039066

DIPOLE MOMENT
-------------
                                X             Y             Z
Electronic contribution:     11.25371       9.92039      10.31507
Nuclear contribution   :    -12.74620     -11.22595     -11.02261
                        -----------------------------------------
Total Dipole Moment    :     -1.49248      -1.30556      -0.70754
                        -----------------------------------------
Magnitude (a.u.)       :      2.10538
Magnitude (Debye)      :      5.35144

Rotational constants in cm-1:     0.010627     0.009040     0.006034
Rotational constants in MHz :   318.602710   271.007986   180.908106

                             ****ORCA TERMINATED NORMALLY****
TOTAL RUN TIME: 0 days 1 hours 34 minutes 8 seconds 561 msec
