                         Program Version 4.2.0 -  RELEASE  -
|  1> ! ri-mp2 cc-pvtz cc-pvtz/c TightSCF  NoKeepInts
|  2>
|  3> %scf
|  4>   MaxCore 4096
|  5> end
|  6> *xyz  0  1
|  7>     C       14.6616323   16.1154874   16.9876376
|  8>     C       15.6649161   14.9479997   16.9386063
|  9>     O       16.7494164   15.1808211   16.0113870
| 10>     C       17.9515379   15.7343769   16.3760923
| 11>     O       18.9644116   15.0702365   16.2545254
| 12>     C       17.8972059   16.8570910   17.3586091
| 13>     C       17.3223035   18.0443156   17.0564674
| 14>     C       16.6722630   18.4401328   15.7473832
| 15>     N       17.3911351   19.1026373   17.9649278
| 16>     C       18.1231710   19.0886251   19.1235661
| 17>     S       18.2122331   20.4118073   20.1111257
| 18>     N       18.7808911   17.9208312   19.4232712
| 19>     C       18.6670460   16.6584578   18.6655245
| 20>     C       18.0284756   15.5608512   19.5098368
| 21>     C       18.5413286   14.2514917   19.4673737
| 22>     C       17.9438939   13.2235776   20.2154800
| 23>     C       16.8211229   13.5054052   21.0120230
| 24>     C       16.3031811   14.8067742   21.0531536
| 25>     O       15.2100765   15.0792315   21.8087852
| 26>     C       16.8986861   15.8280460   20.3060929
| 27>     H       15.0145261   16.9242519   17.6351283
| 28>     H       13.7085020   15.7672691   17.4043415
| 29>     H       14.4636730   16.5073356   15.9827178
| 30>     H       16.0385078   14.7075115   17.9407807
| 31>     H       15.1191691   14.0631466   16.5862016
| 32>     H       16.5948091   17.6039401   15.0428161
| 33>     H       17.2570593   19.2234576   15.2486651
| 34>     H       15.6588931   18.8274752   15.9087804
| 35>     H       16.9354078   19.9759454   17.7510963
| 36>     H       19.3000876   17.9348142   20.2921124
| 37>     H       19.6858094   16.3349940   18.4049600
| 38>     H       19.3996073   14.0269021   18.8370458
| 39>     H       18.3494352   12.2140070   20.1711367
| 40>     H       16.3557716   12.7133902   21.5896818
| 41>     H       14.9852476   14.2730522   22.2977961
| 42>     H       16.4755662   16.8263102   20.3488707
| 43> *
| 44>
| 45>                          ****END OF INPUT****

CARTESIAN COORDINATES (ANGSTROEM)
---------------------------------
  C     14.661632   16.115487   16.987638
  C     15.664916   14.948000   16.938606
  O     16.749416   15.180821   16.011387
  C     17.951538   15.734377   16.376092
  O     18.964412   15.070237   16.254525
  C     17.897206   16.857091   17.358609
  C     17.322304   18.044316   17.056467
  C     16.672263   18.440133   15.747383
  N     17.391135   19.102637   17.964928
  C     18.123171   19.088625   19.123566
  S     18.212233   20.411807   20.111126
  N     18.780891   17.920831   19.423271
  C     18.667046   16.658458   18.665525
  C     18.028476   15.560851   19.509837
  C     18.541329   14.251492   19.467374
  C     17.943894   13.223578   20.215480
  C     16.821123   13.505405   21.012023
  C     16.303181   14.806774   21.053154
  O     15.210076   15.079232   21.808785
  C     16.898686   15.828046   20.306093
  H     15.014526   16.924252   17.635128
  H     13.708502   15.767269   17.404342
  H     14.463673   16.507336   15.982718
  H     16.038508   14.707512   17.940781
  H     15.119169   14.063147   16.586202
  H     16.594809   17.603940   15.042816
  H     17.257059   19.223458   15.248665
  H     15.658893   18.827475   15.908780
  H     16.935408   19.975945   17.751096
  H     19.300088   17.934814   20.292112
  H     19.685809   16.334994   18.404960
  H     19.399607   14.026902   18.837046
  H     18.349435   12.214007   20.171137
  H     16.355772   12.713390   21.589682
  H     14.985248   14.273052   22.297796
  H     16.475566   16.826310   20.348871

 Total Charge           Charge          ....    0
 Multiplicity           Mult            ....    1
 Number of Electrons    NEL             ....  154
 Basis Dimension        Dim             ....  828

ORBITAL ENERGIES
----------------

  NO   OCC          E(Eh)            E(eV)
   0   2.0000     -91.890838     -2500.4768
   1   2.0000     -20.601500      -560.5953
   2   2.0000     -20.586897      -560.1980
   3   2.0000     -20.554025      -559.3034
   4   2.0000     -15.628168      -425.2641
   5   2.0000     -15.611970      -424.8233
   6   2.0000     -11.396310      -310.1094
   7   2.0000     -11.387355      -309.8657
   8   2.0000     -11.331091      -308.3347
   9   2.0000     -11.318980      -308.0051
  10   2.0000     -11.314796      -307.8912
  11   2.0000     -11.301774      -307.5369
  12   2.0000     -11.264952      -306.5349
  13   2.0000     -11.264941      -306.5346
  14   2.0000     -11.263314      -306.4904
  15   2.0000     -11.259219      -306.3789
  16   2.0000     -11.248388      -306.0842
  17   2.0000     -11.243734      -305.9576
  18   2.0000     -11.240994      -305.8830
  19   2.0000     -11.233022      -305.6661
  20   2.0000      -8.895931      -242.0706
  21   2.0000      -6.577515      -178.9833
  22   2.0000      -6.575495      -178.9283
  23   2.0000      -6.574914      -178.9125
  24   2.0000      -1.445180       -39.3253
  25   2.0000      -1.421328       -38.6763
  26   2.0000      -1.355346       -36.8808
  27   2.0000      -1.341322       -36.4992
  28   2.0000      -1.240786       -33.7635
  29   2.0000      -1.163044       -31.6480
  30   2.0000      -1.125710       -30.6321
  31   2.0000      -1.049630       -28.5619
  32   2.0000      -1.036673       -28.2093
  33   2.0000      -1.020562       -27.7709
  34   2.0000      -1.004772       -27.3412
  35   2.0000      -0.990398       -26.9501
  36   2.0000      -0.928402       -25.2631
  37   2.0000      -0.890184       -24.2232
  38   2.0000      -0.852704       -23.2032
  39   2.0000      -0.842761       -22.9327
  40   2.0000      -0.838756       -22.8237
  41   2.0000      -0.832619       -22.6567
  42   2.0000      -0.754172       -20.5221
  43   2.0000      -0.735651       -20.0181
  44   2.0000      -0.731389       -19.9021
  45   2.0000      -0.699377       -19.0310
  46   2.0000      -0.689556       -18.7638
  47   2.0000      -0.679237       -18.4830
  48   2.0000      -0.675684       -18.3863
  49   2.0000      -0.663063       -18.0429
  50   2.0000      -0.654739       -17.8164
  51   2.0000      -0.642181       -17.4746
  52   2.0000      -0.637903       -17.3582
  53   2.0000      -0.614052       -16.7092
  54   2.0000      -0.608803       -16.5664
  55   2.0000      -0.607360       -16.5271
  56   2.0000      -0.604406       -16.4467
  57   2.0000      -0.587016       -15.9735
  58   2.0000      -0.582421       -15.8485
  59   2.0000      -0.577895       -15.7253
  60   2.0000      -0.566179       -15.4065
  61   2.0000      -0.556460       -15.1421
  62   2.0000      -0.540457       -14.7066
  63   2.0000      -0.530029       -14.4228
  64   2.0000      -0.522793       -14.2259
  65   2.0000      -0.514865       -14.0102
  66   2.0000      -0.503628       -13.7044
  67   2.0000      -0.492252       -13.3948
  68   2.0000      -0.490107       -13.3365
  69   2.0000      -0.465851       -12.6764
  70   2.0000      -0.456415       -12.4197
  71   2.0000      -0.449065       -12.2197
  72   2.0000      -0.357617        -9.7312
  73   2.0000      -0.353578        -9.6213
  74   2.0000      -0.330462        -8.9923
  75   2.0000      -0.327015        -8.8985
  76   2.0000      -0.319619        -8.6973
  77   0.0000       0.082064         2.2331
  78   0.0000       0.100914         2.7460
  79   0.0000       0.117398         3.1946
  80   0.0000       0.126261         3.4357
  81   0.0000       0.129026         3.5110

MULLIKEN ATOMIC CHARGES
-----------------------
   0 C :   -0.319943
   1 C :    0.029894
   2 O :   -0.349602
   3 C :    0.410968
   4 O :   -0.371786
   5 C :   -0.169302
   6 C :    0.103578
   7 C :   -0.328828
   8 N :   -0.128908
   9 C :    0.198436
  10 S :   -0.439031
  11 N :   -0.214153
  12 C :    0.073986
  13 C :    0.004152
  14 C :   -0.191483
  15 C :   -0.135029
  16 C :   -0.274590
  17 C :    0.311109
  18 O :   -0.356854
  19 C :   -0.259245
  20 H :    0.097471
  21 H :    0.122396
  22 H :    0.106311
  23 H :    0.107747
  24 H :    0.125907
  25 H :    0.128883
  26 H :    0.148905
  27 H :    0.119004
  28 H :    0.197538
  29 H :    0.198419
  30 H :    0.165347
  31 H :    0.171427
  32 H :    0.164727
  33 H :    0.133868
  34 H :    0.241800
  35 H :    0.176879
Sum of atomic charges:   -0.0000000

LOEWDIN ATOMIC CHARGES
----------------------
   0 C :    0.103610
   1 C :   -0.012932
   2 O :    0.282738
   3 C :   -0.416518
   4 O :    0.132981
   5 C :   -0.085445
   6 C :   -0.094495
   7 C :    0.125553
   8 N :    0.403493
   9 C :   -0.456863
  10 S :   -0.036175
  11 N :    0.397424
  12 C :   -0.044308
  13 C :   -0.045860
  14 C :    0.019755
  15 C :    0.044751
  16 C :   -0.000564
  17 C :   -0.194506
  18 O :    0.395892
  19 C :    0.027022
  20 H :   -0.035302
  21 H :   -0.021566
  22 H :   -0.027844
  23 H :   -0.030067
  24 H :   -0.020203
  25 H :   -0.010464
  26 H :   -0.009763
  27 H :   -0.016520
  28 H :   -0.056712
  29 H :   -0.063731
  30 H :   -0.002773
  31 H :   -0.021642
  32 H :   -0.018038
  33 H :   -0.034142
  34 H :   -0.152705
  35 H :   -0.024084

  Mayer bond orders larger than 0.100000
B(  0-C ,  1-C ) :   0.9580 B(  0-C , 20-H ) :   0.9757 B(  0-C , 21-H ) :   0.9785
B(  0-C , 22-H ) :   0.9739 B(  1-C ,  2-O ) :   0.8952 B(  1-C , 23-H ) :   0.9675
B(  1-C , 24-H ) :   0.9864 B(  2-O ,  3-C ) :   1.1471 B(  3-C ,  4-O ) :   2.0982
B(  3-C ,  5-C ) :   0.9238 B(  5-C ,  6-C ) :   1.6943 B(  5-C , 12-C ) :   0.9511
B(  6-C ,  7-C ) :   0.9518 B(  6-C ,  8-N ) :   1.1055 B(  7-C , 25-H ) :   0.9771
B(  7-C , 26-H ) :   0.9665 B(  7-C , 27-H ) :   0.9666 B(  8-N ,  9-C ) :   1.1932
B(  8-N , 28-H ) :   0.9510 B(  9-C , 10-S ) :   1.6142 B(  9-C , 11-N ) :   1.2880
B( 11-N , 12-C ) :   0.9941 B( 11-N , 29-H ) :   0.9493 B( 12-C , 13-C ) :   0.9445
B( 12-C , 30-H ) :   0.9978 B( 13-C , 14-C ) :   1.3933 B( 13-C , 19-C ) :   1.3459
B( 14-C , 15-C ) :   1.3951 B( 14-C , 31-H ) :   0.9595 B( 15-C , 16-C ) :   1.3630
B( 15-C , 32-H ) :   0.9700 B( 16-C , 17-C ) :   1.3285 B( 16-C , 33-H ) :   0.9840
B( 17-C , 18-O ) :   1.1133 B( 17-C , 19-C ) :   1.3693 B( 18-O , 34-H ) :   0.9789
B( 19-C , 35-H ) :   0.9570

MP2 TOTAL ENERGY:    -1274.325029870 Eh
FINAL SINGLE POINT ENERGY     -1274.325029869544

DIPOLE MOMENT
-------------
                                X             Y             Z
Electronic contribution:     10.20824       5.36442       6.12815
Nuclear contribution   :    -11.58685      -6.55269      -6.37416
                        -----------------------------------------
Total Dipole Moment    :     -1.37861      -1.18827      -0.24601
                        -----------------------------------------
Magnitude (a.u.)       :      1.83660
Magnitude (Debye)      :      4.66826

Rotational constants in cm-1:     0.012043     0.009395     0.007030
Rotational constants in MHz :   361.039188   281.655870   210.750967

                             ****ORCA TERMINATED NORMALLY****
TOTAL RUN TIME: 0 days 1 hours 50 minutes 22 seconds 66 msec
