                         Program Version 5.0.0 -  RELEASE  -
|  1> ! ri-mp2 cc-pvtz cc-pvtz/c TightSCF NoKeepInts
|  2>
|  3> %scf
|  4>   MaxCore 4096
|  5> end
|  6> *xyz  0  1
|  7>     C       14.5493481   14.6764634   16.5336579
|  8>     C       15.7177924   14.7527464   15.5352975
|  9>     O       16.4757154   15.9352071   15.8497382
| 10>     C       17.6307891   15.8314770   16.5707188
| 11>     O       18.2454919   14.7822663   16.6724887
| 12>     C       17.8729231   16.9905455   17.4934276
| 13>     C       17.3681201   18.2397261   17.3191665
| 14>     C       16.5040509   18.7444696   16.1817706
| 15>     N       17.6989764   19.2545195   18.2231689
| 16>     C       18.6234417   19.1393019   19.2275834
| 17>     S       19.0430885   20.4264871   20.1777130
| 18>     N       19.1835778   17.8995401   19.4038359
| 19>     C       18.7562433   16.6731520   18.7047202
| 20>     C       18.0371144   15.7322043   19.6678229
| 21>     C       18.4851793   14.4095886   19.8405453
| 22>     C       17.8201517   13.5366316   20.7178231
| 23>     C       16.6957912   13.9888188   21.4291557
| 24>     C       16.2437444   15.3041270   21.2569689
| 25>     O       15.1536775   15.7415058   21.9365012
| 26>     C       16.9077891   16.1706769   20.3832353
| 27>     H       14.9257827   14.5670248   17.5590875
| 28>     H       13.9090329   13.8143263   16.3111309
| 29>     H       13.9350589   15.5839901   16.4844386
| 30>     H       16.3256033   13.8385614   15.5752764
| 31>     H       15.3108714   14.8431928   14.5200355
| 32>     H       16.9124597   18.4319601   15.2126331
| 33>     H       16.4301894   19.8385067   16.1603296
| 34>     H       15.4855970   18.3445422   16.2634737
| 35>     H       17.2984293   20.1720569   18.1106611
| 36>     H       19.8386128   17.8333376   20.1722360
| 37>     H       19.6604929   16.1667257   18.3372242
| 38>     H       19.3430226   14.0517385   19.2764398
| 39>     H       18.1733500   12.5140080   20.8374444
| 40>     H       16.1778705   13.3171805   22.1055932
| 41>     H       14.8647978   15.0201019   22.5152373
| 42>     H       16.5428225   17.1852917   20.2674192
| 43> *
| 44>
| 45>                          ****END OF INPUT****

CARTESIAN COORDINATES (ANGSTROEM)
---------------------------------
  C     14.549348   14.676463   16.533658
  C     15.717792   14.752746   15.535298
  O     16.475715   15.935207   15.849738
  C     17.630789   15.831477   16.570719
  O     18.245492   14.782266   16.672489
  C     17.872923   16.990545   17.493428
  C     17.368120   18.239726   17.319167
  C     16.504051   18.744470   16.181771
  N     17.698976   19.254520   18.223169
  C     18.623442   19.139302   19.227583
  S     19.043088   20.426487   20.177713
  N     19.183578   17.899540   19.403836
  C     18.756243   16.673152   18.704720
  C     18.037114   15.732204   19.667823
  C     18.485179   14.409589   19.840545
  C     17.820152   13.536632   20.717823
  C     16.695791   13.988819   21.429156
  C     16.243744   15.304127   21.256969
  O     15.153677   15.741506   21.936501
  C     16.907789   16.170677   20.383235
  H     14.925783   14.567025   17.559088
  H     13.909033   13.814326   16.311131
  H     13.935059   15.583990   16.484439
  H     16.325603   13.838561   15.575276
  H     15.310871   14.843193   14.520035
  H     16.912460   18.431960   15.212633
  H     16.430189   19.838507   16.160330
  H     15.485597   18.344542   16.263474
  H     17.298429   20.172057   18.110661
  H     19.838613   17.833338   20.172236
  H     19.660493   16.166726   18.337224
  H     19.343023   14.051739   19.276440
  H     18.173350   12.514008   20.837444
  H     16.177871   13.317180   22.105593
  H     14.864798   15.020102   22.515237
  H     16.542822   17.185292   20.267419

 Total Charge           Charge          ....    0
 Multiplicity           Mult            ....    1
 Number of Electrons    NEL             ....  154
 Basis Dimension        Dim             ....  828

ORBITAL ENERGIES
----------------

  NO   OCC          E(Eh)            E(eV)
   0   2.0000     -91.888060     -2500.4012
   1   2.0000     -20.600450      -560.5667
   2   2.0000     -20.592962      -560.3630
   3   2.0000     -20.547277      -559.1198
   4   2.0000     -15.628100      -425.2622
   5   2.0000     -15.607025      -424.6888
   6   2.0000     -11.396223      -310.1070
   7   2.0000     -11.383149      -309.7512
   8   2.0000     -11.335150      -308.4451
   9   2.0000     -11.308925      -307.7315
  10   2.0000     -11.306297      -307.6600
  11   2.0000     -11.297986      -307.4338
  12   2.0000     -11.260142      -306.4040
  13   2.0000     -11.258965      -306.3720
  14   2.0000     -11.254580      -306.2527
  15   2.0000     -11.249039      -306.1019
  16   2.0000     -11.238709      -305.8208
  17   2.0000     -11.234691      -305.7115
  18   2.0000     -11.231800      -305.6328
  19   2.0000     -11.229325      -305.5655
  20   2.0000      -8.893126      -241.9943
  21   2.0000      -6.574704      -178.9068
  22   2.0000      -6.572696      -178.8522
  23   2.0000      -6.572112      -178.8363
  24   2.0000      -1.453509       -39.5520
  25   2.0000      -1.412725       -38.4422
  26   2.0000      -1.357515       -36.9399
  27   2.0000      -1.339159       -36.4404
  28   2.0000      -1.237033       -33.6614
  29   2.0000      -1.153392       -31.3854
  30   2.0000      -1.120004       -30.4769
  31   2.0000      -1.043339       -28.3907
  32   2.0000      -1.035474       -28.1767
  33   2.0000      -1.010693       -27.5023
  34   2.0000      -0.998082       -27.1592
  35   2.0000      -0.983553       -26.7638
  36   2.0000      -0.921774       -25.0828
  37   2.0000      -0.891717       -24.2649
  38   2.0000      -0.847273       -23.0555
  39   2.0000      -0.835667       -22.7397
  40   2.0000      -0.829150       -22.5623
  41   2.0000      -0.815275       -22.1848
  42   2.0000      -0.758433       -20.6380
  43   2.0000      -0.736410       -20.0387
  44   2.0000      -0.725722       -19.7479
  45   2.0000      -0.691811       -18.8251
  46   2.0000      -0.685265       -18.6470
  47   2.0000      -0.679002       -18.4766
  48   2.0000      -0.672885       -18.3101
  49   2.0000      -0.659560       -17.9476
  50   2.0000      -0.649664       -17.6783
  51   2.0000      -0.644629       -17.5412
  52   2.0000      -0.633830       -17.2474
  53   2.0000      -0.604151       -16.4398
  54   2.0000      -0.600936       -16.3523
  55   2.0000      -0.597704       -16.2644
  56   2.0000      -0.595881       -16.2148
  57   2.0000      -0.582179       -15.8419
  58   2.0000      -0.574648       -15.6370
  59   2.0000      -0.562072       -15.2947
  60   2.0000      -0.558392       -15.1946
  61   2.0000      -0.556149       -15.1336
  62   2.0000      -0.537303       -14.6208
  63   2.0000      -0.527761       -14.3611
  64   2.0000      -0.518337       -14.1047
  65   2.0000      -0.510057       -13.8794
  66   2.0000      -0.498230       -13.5575
  67   2.0000      -0.495823       -13.4920
  68   2.0000      -0.481825       -13.1111
  69   2.0000      -0.463410       -12.6100
  70   2.0000      -0.458948       -12.4886
  71   2.0000      -0.452630       -12.3167
  72   2.0000      -0.353993        -9.6326
  73   2.0000      -0.345179        -9.3928
  74   2.0000      -0.327257        -8.9051
  75   2.0000      -0.316291        -8.6067
  76   2.0000      -0.314676        -8.5628
  77   0.0000       0.075808         2.0628
  78   0.0000       0.111043         3.0216
  79   0.0000       0.119623         3.2551
  80   0.0000       0.134523         3.6606
  81   0.0000       0.141822         3.8592

MULLIKEN ATOMIC CHARGES
-----------------------
   0 C :   -0.276125
   1 C :    0.016933
   2 O :   -0.351563
   3 C :    0.443227
   4 O :   -0.422445
   5 C :   -0.172796
   6 C :    0.140944
   7 C :   -0.284897
   8 N :   -0.123716
   9 C :    0.203586
  10 S :   -0.439939
  11 N :   -0.198779
  12 C :    0.044648
  13 C :    0.052431
  14 C :   -0.159878
  15 C :   -0.133290
  16 C :   -0.281007
  17 C :    0.313496
  18 O :   -0.359346
  19 C :   -0.277878
  20 H :    0.110654
  21 H :    0.095965
  22 H :    0.089243
  23 H :    0.120381
  24 H :    0.102248
  25 H :    0.126028
  26 H :    0.102320
  27 H :    0.126760
  28 H :    0.196916
  29 H :    0.193962
  30 H :    0.153936
  31 H :    0.153866
  32 H :    0.159529
  33 H :    0.129026
  34 H :    0.240268
  35 H :    0.165293
Sum of atomic charges:   -0.0000000

LOEWDIN ATOMIC CHARGES
----------------------
   0 C :    0.104439
   1 C :   -0.015170
   2 O :    0.305880
   3 C :   -0.414380
   4 O :    0.106907
   5 C :   -0.091610
   6 C :   -0.068497
   7 C :    0.125248
   8 N :    0.404525
   9 C :   -0.458194
  10 S :   -0.036417
  11 N :    0.397664
  12 C :   -0.046087
  13 C :   -0.039479
  14 C :    0.022044
  15 C :    0.041018
  16 C :   -0.002581
  17 C :   -0.193323
  18 O :    0.393252
  19 C :    0.028500
  20 H :   -0.023320
  21 H :   -0.025820
  22 H :   -0.029832
  23 H :   -0.027099
  24 H :   -0.028565
  25 H :   -0.008221
  26 H :   -0.020661
  27 H :   -0.010480
  28 H :   -0.059064
  29 H :   -0.063809
  30 H :   -0.004982
  31 H :   -0.025141
  32 H :   -0.021009
  33 H :   -0.036193
  34 H :   -0.154713
  35 H :   -0.024830

  Mayer bond orders larger than 0.100000
B(  0-C ,  1-C ) :   0.9684 B(  0-C , 20-H ) :   0.9746 B(  0-C , 21-H ) :   0.9762
B(  0-C , 22-H ) :   0.9793 B(  1-C ,  2-O ) :   0.8874 B(  1-C , 23-H ) :   0.9732
B(  1-C , 24-H ) :   0.9840 B(  2-O ,  3-C ) :   1.1480 B(  3-C ,  4-O ) :   1.9948
B(  3-C ,  5-C ) :   1.0354 B(  5-C ,  6-C ) :   1.6560 B(  5-C , 12-C ) :   0.9651
B(  6-C ,  7-C ) :   0.9546 B(  6-C ,  8-N ) :   1.1441 B(  7-C , 25-H ) :   0.9676
B(  7-C , 26-H ) :   0.9901 B(  7-C , 27-H ) :   0.9633 B(  8-N ,  9-C ) :   1.1810
B(  8-N , 28-H ) :   0.9491 B(  9-C , 10-S ) :   1.6099 B(  9-C , 11-N ) :   1.3030
B( 11-N , 12-C ) :   0.9926 B( 11-N , 29-H ) :   0.9519 B( 12-C , 13-C ) :   0.9456
B( 12-C , 30-H ) :   0.9993 B( 13-C , 14-C ) :   1.3763 B( 13-C , 19-C ) :   1.3687
B( 14-C , 15-C ) :   1.3944 B( 14-C , 31-H ) :   0.9645 B( 15-C , 16-C ) :   1.3627
B( 15-C , 32-H ) :   0.9714 B( 16-C , 17-C ) :   1.3310 B( 16-C , 33-H ) :   0.9856
B( 17-C , 18-O ) :   1.1082 B( 17-C , 19-C ) :   1.3773 B( 18-O , 34-H ) :   0.9804
B( 19-C , 35-H ) :   0.9586

MP2 TOTAL ENERGY:    -1274.344009565 Eh
FINAL SINGLE POINT ENERGY     -1274.344009565370

DIPOLE MOMENT
-------------
                                X             Y             Z
Electronic contribution:     11.22411       9.09459       8.17031
Nuclear contribution   :    -12.65005     -10.40755      -9.14840
                        -----------------------------------------
Total Dipole Moment    :     -1.42594      -1.31296      -0.97809
                        -----------------------------------------
Magnitude (a.u.)       :      2.17114
Magnitude (Debye)      :      5.51859

Rotational constants in cm-1:     0.011039     0.009223     0.006347
Rotational constants in MHz :   330.942871   276.509102   190.291828

                             ****ORCA TERMINATED NORMALLY****
TOTAL RUN TIME: 0 days 2 hours 4 minutes 43 seconds 721 msec
