                         Program Version 4.2.0 -  RELEASE  -
|  1> ! ri-mp2 cc-pvtz cc-pvtz/c TightSCF  NoKeepInts
|  2>
|  3> %scf
|  4>   MaxCore 4096
|  5> end
|  6> *xyz  0  1
|  7>     C       15.3541619   14.1055751   15.0150850
|  8>     C       15.7536433   14.0661979   16.5065412
|  9>     O       16.7369319   15.0749047   16.8208504
| 10>     C       16.4822632   16.4173639   16.7185758
| 11>     O       15.5002642   16.8680178   16.1553170
| 12>     C       17.4060780   17.2378605   17.5777966
| 13>     C       17.3484149   18.5936754   17.6204644
| 14>     C       16.4000701   19.4967384   16.8607985
| 15>     N       18.2604398   19.3103862   18.4011772
| 16>     C       19.3226186   18.7610897   19.0681961
| 17>     S       20.4192461   19.6917239   19.8850917
| 18>     N       19.4344610   17.3950989   19.0204456
| 19>     C       18.4367480   16.4819603   18.4336476
| 20>     C       17.7721908   15.6681040   19.5407741
| 21>     C       18.0020624   14.2831453   19.6437768
| 22>     C       17.3903767   13.5303612   20.6603383
| 23>     C       16.5441241   14.1676518   21.5837394
| 24>     C       16.3167311   15.5473686   21.4870316
| 25>     O       15.5014668   16.1657543   22.3780960
| 26>     C       16.9265907   16.2937538   20.4741072
| 27>     H       14.6964773   14.9537574   14.7916673
| 28>     H       14.8112891   13.1918193   14.7452481
| 29>     H       16.2428657   14.1746429   14.3758377
| 30>     H       14.8613767   14.2014649   17.1324321
| 31>     H       16.1771443   13.0799358   16.7352705
| 32>     H       15.3625404   19.3054099   17.1636223
| 33>     H       16.4658512   19.3069025   15.7819763
| 34>     H       16.6012193   20.5624543   17.0206755
| 35>     H       18.1942408   20.3146690   18.4464556
| 36>     H       20.2064431   17.0163973   19.5537360
| 37>     H       18.9773188   15.7912013   17.7714202
| 38>     H       18.6526377   13.7874399   18.9283250
| 39>     H       17.5732561   12.4595719   20.7308756
| 40>     H       16.0699786   13.5909526   22.3710587
| 41>     H       15.2022897   15.4971889   23.0123137
| 42>     H       16.7431876   17.3614601   20.4212349
| 43> *
| 44>
| 45>                          ****END OF INPUT****

CARTESIAN COORDINATES (ANGSTROEM)
---------------------------------
  C     15.354162   14.105575   15.015085
  C     15.753643   14.066198   16.506541
  O     16.736932   15.074905   16.820850
  C     16.482263   16.417364   16.718576
  O     15.500264   16.868018   16.155317
  C     17.406078   17.237860   17.577797
  C     17.348415   18.593675   17.620464
  C     16.400070   19.496738   16.860799
  N     18.260440   19.310386   18.401177
  C     19.322619   18.761090   19.068196
  S     20.419246   19.691724   19.885092
  N     19.434461   17.395099   19.020446
  C     18.436748   16.481960   18.433648
  C     17.772191   15.668104   19.540774
  C     18.002062   14.283145   19.643777
  C     17.390377   13.530361   20.660338
  C     16.544124   14.167652   21.583739
  C     16.316731   15.547369   21.487032
  O     15.501467   16.165754   22.378096
  C     16.926591   16.293754   20.474107
  H     14.696477   14.953757   14.791667
  H     14.811289   13.191819   14.745248
  H     16.242866   14.174643   14.375838
  H     14.861377   14.201465   17.132432
  H     16.177144   13.079936   16.735270
  H     15.362540   19.305410   17.163622
  H     16.465851   19.306902   15.781976
  H     16.601219   20.562454   17.020675
  H     18.194241   20.314669   18.446456
  H     20.206443   17.016397   19.553736
  H     18.977319   15.791201   17.771420
  H     18.652638   13.787440   18.928325
  H     17.573256   12.459572   20.730876
  H     16.069979   13.590953   22.371059
  H     15.202290   15.497189   23.012314
  H     16.743188   17.361460   20.421235

 Total Charge           Charge          ....    0
 Multiplicity           Mult            ....    1
 Number of Electrons    NEL             ....  154
 Basis Dimension        Dim             ....  828

ORBITAL ENERGIES
----------------

  NO   OCC          E(Eh)            E(eV)
   0   2.0000     -91.888310     -2500.4080
   1   2.0000     -20.599369      -560.5373
   2   2.0000     -20.595662      -560.4365
   3   2.0000     -20.542549      -558.9912
   4   2.0000     -15.628472      -425.2723
   5   2.0000     -15.607534      -424.7026
   6   2.0000     -11.396591      -310.1170
   7   2.0000     -11.383336      -309.7563
   8   2.0000     -11.335165      -308.4455
   9   2.0000     -11.312715      -307.8346
  10   2.0000     -11.308251      -307.7131
  11   2.0000     -11.300440      -307.5006
  12   2.0000     -11.258650      -306.3634
  13   2.0000     -11.258636      -306.3631
  14   2.0000     -11.254248      -306.2436
  15   2.0000     -11.251752      -306.1757
  16   2.0000     -11.241905      -305.9078
  17   2.0000     -11.237274      -305.7818
  18   2.0000     -11.237113      -305.7774
  19   2.0000     -11.220857      -305.3350
  20   2.0000      -8.893375      -242.0010
  21   2.0000      -6.574951      -178.9135
  22   2.0000      -6.572946      -178.8589
  23   2.0000      -6.572360      -178.8430
  24   2.0000      -1.448390       -39.4127
  25   2.0000      -1.415300       -38.5123
  26   2.0000      -1.355403       -36.8824
  27   2.0000      -1.339480       -36.4491
  28   2.0000      -1.237869       -33.6841
  29   2.0000      -1.156483       -31.4695
  30   2.0000      -1.119440       -30.4615
  31   2.0000      -1.041786       -28.3484
  32   2.0000      -1.035314       -28.1723
  33   2.0000      -1.013994       -27.5922
  34   2.0000      -0.994533       -27.0626
  35   2.0000      -0.983072       -26.7508
  36   2.0000      -0.921773       -25.0827
  37   2.0000      -0.894556       -24.3421
  38   2.0000      -0.846665       -23.0389
  39   2.0000      -0.837136       -22.7796
  40   2.0000      -0.833004       -22.6672
  41   2.0000      -0.818687       -22.2776
  42   2.0000      -0.752115       -20.4661
  43   2.0000      -0.730603       -19.8807
  44   2.0000      -0.721226       -19.6256
  45   2.0000      -0.694839       -18.9075
  46   2.0000      -0.687901       -18.7187
  47   2.0000      -0.680428       -18.5154
  48   2.0000      -0.669335       -18.2135
  49   2.0000      -0.652249       -17.7486
  50   2.0000      -0.650434       -17.6992
  51   2.0000      -0.644853       -17.5473
  52   2.0000      -0.632566       -17.2130
  53   2.0000      -0.607099       -16.5200
  54   2.0000      -0.605322       -16.4717
  55   2.0000      -0.598541       -16.2871
  56   2.0000      -0.597918       -16.2702
  57   2.0000      -0.580584       -15.7985
  58   2.0000      -0.573256       -15.5991
  59   2.0000      -0.570420       -15.5219
  60   2.0000      -0.562255       -15.2997
  61   2.0000      -0.538425       -14.6513
  62   2.0000      -0.536004       -14.5854
  63   2.0000      -0.524186       -14.2638
  64   2.0000      -0.520609       -14.1665
  65   2.0000      -0.512639       -13.9496
  66   2.0000      -0.501787       -13.6543
  67   2.0000      -0.498983       -13.5780
  68   2.0000      -0.484258       -13.1773
  69   2.0000      -0.463605       -12.6153
  70   2.0000      -0.455933       -12.4066
  71   2.0000      -0.442224       -12.0335
  72   2.0000      -0.353619        -9.6225
  73   2.0000      -0.348356        -9.4792
  74   2.0000      -0.327664        -8.9162
  75   2.0000      -0.320320        -8.7164
  76   2.0000      -0.315363        -8.5815
  77   0.0000       0.076333         2.0771
  78   0.0000       0.107988         2.9385
  79   0.0000       0.125245         3.4081
  80   0.0000       0.133083         3.6214
  81   0.0000       0.137718         3.7475

MULLIKEN ATOMIC CHARGES
-----------------------
   0 C :   -0.297092
   1 C :    0.048595
   2 O :   -0.359236
   3 C :    0.465570
   4 O :   -0.434551
   5 C :   -0.208163
   6 C :    0.147797
   7 C :   -0.274507
   8 N :   -0.120227
   9 C :    0.211765
  10 S :   -0.440741
  11 N :   -0.203714
  12 C :    0.051430
  13 C :    0.071993
  14 C :   -0.187227
  15 C :   -0.130345
  16 C :   -0.279223
  17 C :    0.315719
  18 O :   -0.356742
  19 C :   -0.270028
  20 H :    0.127420
  21 H :    0.094422
  22 H :    0.091399
  23 H :    0.091832
  24 H :    0.103253
  25 H :    0.132774
  26 H :    0.129096
  27 H :    0.095315
  28 H :    0.197148
  29 H :    0.194249
  30 H :    0.149320
  31 H :    0.148419
  32 H :    0.159696
  33 H :    0.129490
  34 H :    0.240567
  35 H :    0.164526
Sum of atomic charges:   -0.0000000

LOEWDIN ATOMIC CHARGES
----------------------
   0 C :    0.104423
   1 C :   -0.012114
   2 O :    0.300680
   3 C :   -0.412230
   4 O :    0.103945
   5 C :   -0.093557
   6 C :   -0.059449
   7 C :    0.130903
   8 N :    0.406420
   9 C :   -0.456644
  10 S :   -0.036055
  11 N :    0.396394
  12 C :   -0.052605
  13 C :   -0.037817
  14 C :    0.013824
  15 C :    0.038680
  16 C :   -0.002200
  17 C :   -0.189463
  18 O :    0.395100
  19 C :    0.031317
  20 H :   -0.026547
  21 H :   -0.029128
  22 H :   -0.028927
  23 H :   -0.028096
  24 H :   -0.024839
  25 H :   -0.004676
  26 H :   -0.004508
  27 H :   -0.023448
  28 H :   -0.057700
  29 H :   -0.064732
  30 H :   -0.010901
  31 H :   -0.030583
  32 H :   -0.021632
  33 H :   -0.035833
  34 H :   -0.154080
  35 H :   -0.023925

  Mayer bond orders larger than 0.100000
B(  0-C ,  1-C ) :   0.9736 B(  0-C , 20-H ) :   0.9714 B(  0-C , 21-H ) :   0.9784
B(  0-C , 22-H ) :   0.9753 B(  1-C ,  2-O ) :   0.8976 B(  1-C , 23-H ) :   0.9751
B(  1-C , 24-H ) :   0.9835 B(  2-O ,  3-C ) :   1.1526 B(  3-C ,  4-O ) :   1.9585
B(  3-C ,  5-C ) :   1.0614 B(  5-C ,  6-C ) :   1.6568 B(  5-C , 12-C ) :   0.9739
B(  6-C ,  7-C ) :   0.9677 B(  6-C ,  8-N ) :   1.1633 B(  7-C , 25-H ) :   0.9598
B(  7-C , 26-H ) :   0.9609 B(  7-C , 27-H ) :   0.9909 B(  8-N ,  9-C ) :   1.1827
B(  8-N , 28-H ) :   0.9481 B(  9-C , 10-S ) :   1.6066 B(  9-C , 11-N ) :   1.3054
B( 11-N , 12-C ) :   0.9859 B( 11-N , 29-H ) :   0.9518 B( 12-C , 13-C ) :   0.9365
B( 12-C , 30-H ) :   1.0025 B( 13-C , 14-C ) :   1.3546 B( 13-C , 19-C ) :   1.3835
B( 14-C , 15-C ) :   1.3919 B( 14-C , 31-H ) :   0.9719 B( 15-C , 16-C ) :   1.3643
B( 15-C , 32-H ) :   0.9708 B( 16-C , 17-C ) :   1.3317 B( 16-C , 33-H ) :   0.9852
B( 17-C , 18-O ) :   1.1101 B( 17-C , 19-C ) :   1.3729 B( 18-O , 34-H ) :   0.9800
B( 19-C , 35-H ) :   0.9583

MP2 TOTAL ENERGY:    -1274.344446944 Eh
FINAL SINGLE POINT ENERGY     -1274.344446944134

DIPOLE MOMENT
-------------
                                X             Y             Z
Electronic contribution:     10.12347       9.60858       9.74750
Nuclear contribution   :    -11.21814     -11.29372     -10.08142
                        -----------------------------------------
Total Dipole Moment    :     -1.09467      -1.68514      -0.33392
                        -----------------------------------------
Magnitude (a.u.)       :      2.03703
Magnitude (Debye)      :      5.17772

Rotational constants in cm-1:     0.011137     0.008797     0.006033
Rotational constants in MHz :   333.875052   263.735218   180.864829

                             ****ORCA TERMINATED NORMALLY****
TOTAL RUN TIME: 0 days 1 hours 45 minutes 0 seconds 446 msec
