                         Program Version 4.2.0 -  RELEASE  -
|  1> ! ri-mp2 cc-pvtz cc-pvtz/c TightSCF  NoKeepInts
|  2>
|  3> %scf
|  4>   MaxCore 4096
|  5> end
|  6> *xyz  0  1
|  7>     C       15.0204337   14.5532522   17.3616090
|  8>     C       15.4823668   15.6371950   16.3726461
|  9>     O       16.7962139   15.2651167   15.9053022
| 10>     C       17.9870927   15.6717035   16.4585884
| 11>     O       18.9438343   14.9194443   16.4395631
| 12>     C       17.9682774   16.8637199   17.3643553
| 13>     C       17.5035974   18.0754732   16.9739066
| 14>     C       16.9503738   18.4513070   15.6143619
| 15>     N       17.6054943   19.1718245   17.8331176
| 16>     C       18.2845277   19.1688051   19.0233081
| 17>     S       18.4290946   20.5345577   19.9440114
| 18>     N       18.8396239   17.9746983   19.4117875
| 19>     C       18.6556613   16.6835871   18.7192708
| 20>     C       17.8910257   15.6941135   19.5922609
| 21>     C       18.3128070   14.3543926   19.6742970
| 22>     C       17.6104749   13.4293363   20.4645416
| 23>     C       16.4741885   13.8458558   21.1786937
| 24>     C       16.0468610   15.1778583   21.0954026
| 25>     O       14.9418319   15.5798849   21.7719226
| 26>     C       16.7469117   16.0966875   20.3068449
| 27>     H       15.7180178   14.4629692   18.2008500
| 28>     H       14.9631526   13.5775163   16.8631409
| 29>     H       14.0287672   14.7924326   17.7641778
| 30>     H       14.7874023   15.6572133   15.5232198
| 31>     H       15.4483693   16.6148477   16.8613751
| 32>     H       17.1366986   17.6770464   14.8600390
| 33>     H       17.4235829   19.3680366   15.2395531
| 34>     H       15.8688291   18.6274061   15.6588720
| 35>     H       17.2225382   20.0624329   17.5568517
| 36>     H       19.3196404   17.9970830   20.3027426
| 37>     H       19.6552799   16.2643935   18.5309443
| 38>     H       19.1826107   14.0255182   19.1091378
| 39>     H       17.9454183   12.3946232   20.5155327
| 40>     H       15.9276444   13.1334292   21.7878119
| 41>     H       14.6331571   14.8265477   22.2978913
| 42>     H       16.3951989   17.1216908   20.2560685
| 43> *
| 44>
| 45>                          ****END OF INPUT****

CARTESIAN COORDINATES (ANGSTROEM)
---------------------------------
  C     15.020434   14.553252   17.361609
  C     15.482367   15.637195   16.372646
  O     16.796214   15.265117   15.905302
  C     17.987093   15.671703   16.458588
  O     18.943834   14.919444   16.439563
  C     17.968277   16.863720   17.364355
  C     17.503597   18.075473   16.973907
  C     16.950374   18.451307   15.614362
  N     17.605494   19.171824   17.833118
  C     18.284528   19.168805   19.023308
  S     18.429095   20.534558   19.944011
  N     18.839624   17.974698   19.411787
  C     18.655661   16.683587   18.719271
  C     17.891026   15.694114   19.592261
  C     18.312807   14.354393   19.674297
  C     17.610475   13.429336   20.464542
  C     16.474189   13.845856   21.178694
  C     16.046861   15.177858   21.095403
  O     14.941832   15.579885   21.771923
  C     16.746912   16.096688   20.306845
  H     15.718018   14.462969   18.200850
  H     14.963153   13.577516   16.863141
  H     14.028767   14.792433   17.764178
  H     14.787402   15.657213   15.523220
  H     15.448369   16.614848   16.861375
  H     17.136699   17.677046   14.860039
  H     17.423583   19.368037   15.239553
  H     15.868829   18.627406   15.658872
  H     17.222538   20.062433   17.556852
  H     19.319640   17.997083   20.302743
  H     19.655280   16.264394   18.530944
  H     19.182611   14.025518   19.109138
  H     17.945418   12.394623   20.515533
  H     15.927644   13.133429   21.787812
  H     14.633157   14.826548   22.297891
  H     16.395199   17.121691   20.256069

 Total Charge           Charge          ....    0
 Multiplicity           Mult            ....    1
 Number of Electrons    NEL             ....  154
 Basis Dimension        Dim             ....  828

ORBITAL ENERGIES
----------------

  NO   OCC          E(Eh)            E(eV)
   0   2.0000     -91.891082     -2500.4835
   1   2.0000     -20.599709      -560.5466
   2   2.0000     -20.599426      -560.5389
   3   2.0000     -20.548916      -559.1644
   4   2.0000     -15.629326      -425.2956
   5   2.0000     -15.611730      -424.8168
   6   2.0000     -11.399055      -310.1841
   7   2.0000     -11.387456      -309.8684
   8   2.0000     -11.334107      -308.4167
   9   2.0000     -11.316375      -307.9342
  10   2.0000     -11.313716      -307.8619
  11   2.0000     -11.305305      -307.6330
  12   2.0000     -11.269301      -306.6533
  13   2.0000     -11.266591      -306.5795
  14   2.0000     -11.262997      -306.4817
  15   2.0000     -11.256699      -306.3104
  16   2.0000     -11.245883      -306.0160
  17   2.0000     -11.241776      -305.9043
  18   2.0000     -11.238796      -305.8232
  19   2.0000     -11.224969      -305.4469
  20   2.0000      -8.896178      -242.0773
  21   2.0000      -6.577762      -178.9900
  22   2.0000      -6.575740      -178.9350
  23   2.0000      -6.575161      -178.9192
  24   2.0000      -1.446695       -39.3666
  25   2.0000      -1.419195       -38.6183
  26   2.0000      -1.358654       -36.9709
  27   2.0000      -1.342205       -36.5233
  28   2.0000      -1.241121       -33.7726
  29   2.0000      -1.161103       -31.5952
  30   2.0000      -1.126060       -30.6417
  31   2.0000      -1.048907       -28.5422
  32   2.0000      -1.036616       -28.2077
  33   2.0000      -1.018669       -27.7194
  34   2.0000      -1.005870       -27.3711
  35   2.0000      -0.990119       -26.9425
  36   2.0000      -0.928278       -25.2597
  37   2.0000      -0.887465       -24.1492
  38   2.0000      -0.855633       -23.2829
  39   2.0000      -0.842297       -22.9201
  40   2.0000      -0.836626       -22.7657
  41   2.0000      -0.833988       -22.6940
  42   2.0000      -0.751583       -20.4516
  43   2.0000      -0.741121       -20.1669
  44   2.0000      -0.731106       -19.8944
  45   2.0000      -0.697492       -18.9797
  46   2.0000      -0.688667       -18.7396
  47   2.0000      -0.680934       -18.5292
  48   2.0000      -0.677084       -18.4244
  49   2.0000      -0.660585       -17.9754
  50   2.0000      -0.655942       -17.8491
  51   2.0000      -0.646344       -17.5879
  52   2.0000      -0.639905       -17.4127
  53   2.0000      -0.616505       -16.7759
  54   2.0000      -0.609191       -16.5769
  55   2.0000      -0.607450       -16.5295
  56   2.0000      -0.602131       -16.3848
  57   2.0000      -0.586069       -15.9477
  58   2.0000      -0.578235       -15.7346
  59   2.0000      -0.568140       -15.4599
  60   2.0000      -0.562516       -15.3068
  61   2.0000      -0.552247       -15.0274
  62   2.0000      -0.547030       -14.8854
  63   2.0000      -0.531587       -14.4652
  64   2.0000      -0.520222       -14.1560
  65   2.0000      -0.513546       -13.9743
  66   2.0000      -0.502936       -13.6856
  67   2.0000      -0.501268       -13.6402
  68   2.0000      -0.484916       -13.1952
  69   2.0000      -0.470798       -12.8111
  70   2.0000      -0.454599       -12.3703
  71   2.0000      -0.447902       -12.1880
  72   2.0000      -0.358798        -9.7634
  73   2.0000      -0.352100        -9.5811
  74   2.0000      -0.330602        -8.9961
  75   2.0000      -0.324510        -8.8304
  76   2.0000      -0.319642        -8.6979
  77   0.0000       0.080080         2.1791
  78   0.0000       0.104452         2.8423
  79   0.0000       0.113694         3.0938
  80   0.0000       0.128710         3.5024
  81   0.0000       0.133369         3.6292

MULLIKEN ATOMIC CHARGES
-----------------------
   0 C :   -0.269855
   1 C :    0.020480
   2 O :   -0.325080
   3 C :    0.409772
   4 O :   -0.384622
   5 C :   -0.203204
   6 C :    0.139169
   7 C :   -0.323104
   8 N :   -0.134023
   9 C :    0.200783
  10 S :   -0.438756
  11 N :   -0.211462
  12 C :    0.066282
  13 C :    0.002398
  14 C :   -0.188292
  15 C :   -0.132755
  16 C :   -0.272575
  17 C :    0.307716
  18 O :   -0.359184
  19 C :   -0.247578
  20 H :    0.105132
  21 H :    0.108918
  22 H :    0.092016
  23 H :    0.115664
  24 H :    0.090257
  25 H :    0.133385
  26 H :    0.135355
  27 H :    0.121776
  28 H :    0.197191
  29 H :    0.198310
  30 H :    0.164859
  31 H :    0.170257
  32 H :    0.163112
  33 H :    0.132126
  34 H :    0.241471
  35 H :    0.174061
Sum of atomic charges:   -0.0000000

LOEWDIN ATOMIC CHARGES
----------------------
   0 C :    0.109135
   1 C :   -0.021728
   2 O :    0.303701
   3 C :   -0.415411
   4 O :    0.121728
   5 C :   -0.084743
   6 C :   -0.096161
   7 C :    0.125568
   8 N :    0.402402
   9 C :   -0.457852
  10 S :   -0.035965
  11 N :    0.397743
  12 C :   -0.044492
  13 C :   -0.045673
  14 C :    0.020545
  15 C :    0.044557
  16 C :   -0.000504
  17 C :   -0.192862
  18 O :    0.395497
  19 C :    0.026750
  20 H :   -0.025458
  21 H :   -0.024512
  22 H :   -0.026665
  23 H :   -0.025202
  24 H :   -0.040676
  25 H :   -0.007063
  26 H :   -0.010439
  27 H :   -0.017079
  28 H :   -0.057161
  29 H :   -0.063216
  30 H :   -0.002429
  31 H :   -0.021716
  32 H :   -0.018510
  33 H :   -0.034646
  34 H :   -0.153039
  35 H :   -0.024425

  Mayer bond orders larger than 0.100000
B(  0-C ,  1-C ) :   0.9784 B(  0-C , 20-H ) :   0.9690 B(  0-C , 21-H ) :   0.9809
B(  0-C , 22-H ) :   0.9754 B(  1-C ,  2-O ) :   0.8975 B(  1-C , 23-H ) :   0.9817
B(  1-C , 24-H ) :   0.9637 B(  2-O ,  3-C ) :   1.1809 B(  3-C ,  4-O ) :   2.0862
B(  3-C ,  5-C ) :   0.9304 B(  5-C ,  6-C ) :   1.6871 B(  5-C , 12-C ) :   0.9555
B(  6-C ,  7-C ) :   0.9440 B(  6-C ,  8-N ) :   1.1182 B(  7-C , 25-H ) :   0.9770
B(  7-C , 26-H ) :   0.9739 B(  7-C , 27-H ) :   0.9649 B(  8-N ,  9-C ) :   1.1900
B(  8-N , 28-H ) :   0.9513 B(  9-C , 10-S ) :   1.6131 B(  9-C , 11-N ) :   1.2914
B( 11-N , 12-C ) :   0.9963 B( 11-N , 29-H ) :   0.9495 B( 12-C , 13-C ) :   0.9437
B( 12-C , 30-H ) :   0.9963 B( 13-C , 14-C ) :   1.3922 B( 13-C , 19-C ) :   1.3570
B( 14-C , 15-C ) :   1.3932 B( 14-C , 31-H ) :   0.9596 B( 15-C , 16-C ) :   1.3613
B( 15-C , 32-H ) :   0.9711 B( 16-C , 17-C ) :   1.3311 B( 16-C , 33-H ) :   0.9849
B( 17-C , 18-O ) :   1.1098 B( 17-C , 19-C ) :   1.3698 B( 18-O , 34-H ) :   0.9793
B( 19-C , 35-H ) :   0.9565

MP2 TOTAL ENERGY:    -1274.336085735 Eh
FINAL SINGLE POINT ENERGY     -1274.336085734874

DIPOLE MOMENT
-------------
                                X             Y             Z
Electronic contribution:      9.78595       7.87519       5.92846
Nuclear contribution   :    -11.32459      -8.76378      -6.36243
                        -----------------------------------------
Total Dipole Moment    :     -1.53864      -0.88860      -0.43397
                        -----------------------------------------
Magnitude (a.u.)       :      1.82903
Magnitude (Debye)      :      4.64902

Rotational constants in cm-1:     0.012009     0.009368     0.006782
Rotational constants in MHz :   360.033827   280.851213   203.330344

                             ****ORCA TERMINATED NORMALLY****
TOTAL RUN TIME: 0 days 1 hours 54 minutes 56 seconds 603 msec
