                         Program Version 4.2.0 -  RELEASE  -
|  1> ! ri-mp2 cc-pvtz cc-pvtz/c TightSCF  NoKeepInts
|  2>
|  3> %scf
|  4>   MaxCore 4096
|  5> end
|  6> *xyz  0  1
|  7>     C       14.2147543   14.9682895   16.4125488
|  8>     C       15.4327865   15.5947712   17.1100540
|  9>     O       16.5916327   15.2492234   16.3264563
| 10>     C       17.8239589   15.8424485   16.4479370
| 11>     O       18.8187298   15.2219071   16.1221289
| 12>     C       17.9217516   16.9698629   17.4214942
| 13>     C       17.3680888   18.1812986   17.1855913
| 14>     C       16.5992297   18.6055802   15.9521419
| 15>     N       17.5534847   19.2202074   18.0998612
| 16>     C       18.3578516   19.1478557   19.2078909
| 17>     S       18.5682154   20.4435803   20.2131433
| 18>     N       18.9772862   17.9445310   19.4447496
| 19>     C       18.7710994   16.7083175   18.6631713
| 20>     C       18.1454615   15.6044665   19.5100047
| 21>     C       18.5919267   14.2771103   19.3763036
| 22>     C       18.0037985   13.2444913   20.1252420
| 23>     C       16.9566275   13.5396906   21.0144038
| 24>     C       16.5036412   14.8590960   21.1455136
| 25>     O       15.4818742   15.1455611   21.9905733
| 26>     C       17.0899081   15.8853955   20.3978860
| 27>     H       13.2964222   15.1826312   16.9726103
| 28>     H       14.3288397   13.8789322   16.3447553
| 29>     H       14.1011374   15.3671407   15.3968654
| 30>     H       15.2735166   16.6752691   17.1695372
| 31>     H       15.5315679   15.1972767   18.1288288
| 32>     H       16.5103089   17.7992807   15.2137218
| 33>     H       17.1044676   19.4406991   15.4500847
| 34>     H       15.5840478   18.9315514   16.2102322
| 35>     H       17.1239979   20.1171310   17.9342547
| 36>     H       19.5500113   17.9162766   20.2790348
| 37>     H       19.7578017   16.3594402   18.3236481
| 38>     H       19.3889918   14.0424906   18.6735155
| 39>     H       18.3561290   12.2209176   20.0082703
| 40>     H       16.4976689   12.7438865   21.5918552
| 41>     H       15.2518167   14.3272139   22.4565065
| 42>     H       16.7181674   16.8981777   20.5131835
| 43> *
| 44>
| 45>                          ****END OF INPUT****

CARTESIAN COORDINATES (ANGSTROEM)
---------------------------------
  C     14.214754   14.968289   16.412549
  C     15.432786   15.594771   17.110054
  O     16.591633   15.249223   16.326456
  C     17.823959   15.842448   16.447937
  O     18.818730   15.221907   16.122129
  C     17.921752   16.969863   17.421494
  C     17.368089   18.181299   17.185591
  C     16.599230   18.605580   15.952142
  N     17.553485   19.220207   18.099861
  C     18.357852   19.147856   19.207891
  S     18.568215   20.443580   20.213143
  N     18.977286   17.944531   19.444750
  C     18.771099   16.708317   18.663171
  C     18.145461   15.604466   19.510005
  C     18.591927   14.277110   19.376304
  C     18.003798   13.244491   20.125242
  C     16.956627   13.539691   21.014404
  C     16.503641   14.859096   21.145514
  O     15.481874   15.145561   21.990573
  C     17.089908   15.885395   20.397886
  H     13.296422   15.182631   16.972610
  H     14.328840   13.878932   16.344755
  H     14.101137   15.367141   15.396865
  H     15.273517   16.675269   17.169537
  H     15.531568   15.197277   18.128829
  H     16.510309   17.799281   15.213722
  H     17.104468   19.440699   15.450085
  H     15.584048   18.931551   16.210232
  H     17.123998   20.117131   17.934255
  H     19.550011   17.916277   20.279035
  H     19.757802   16.359440   18.323648
  H     19.388992   14.042491   18.673515
  H     18.356129   12.220918   20.008270
  H     16.497669   12.743886   21.591855
  H     15.251817   14.327214   22.456506
  H     16.718167   16.898178   20.513184

 Total Charge           Charge          ....    0
 Multiplicity           Mult            ....    1
 Number of Electrons    NEL             ....  154
 Basis Dimension        Dim             ....  828

ORBITAL ENERGIES
----------------

  NO   OCC          E(Eh)            E(eV)
   0   2.0000     -91.890143     -2500.4579
   1   2.0000     -20.600574      -560.5701
   2   2.0000     -20.600300      -560.5627
   3   2.0000     -20.550887      -559.2181
   4   2.0000     -15.626949      -425.2309
   5   2.0000     -15.611904      -424.8215
   6   2.0000     -11.397810      -310.1502
   7   2.0000     -11.387041      -309.8571
   8   2.0000     -11.329023      -308.2784
   9   2.0000     -11.317192      -307.9564
  10   2.0000     -11.315458      -307.9093
  11   2.0000     -11.302242      -307.5497
  12   2.0000     -11.270296      -306.6803
  13   2.0000     -11.264734      -306.5290
  14   2.0000     -11.264041      -306.5101
  15   2.0000     -11.257415      -306.3298
  16   2.0000     -11.246661      -306.0372
  17   2.0000     -11.242451      -305.9226
  18   2.0000     -11.239777      -305.8499
  19   2.0000     -11.233415      -305.6768
  20   2.0000      -8.895260      -242.0523
  21   2.0000      -6.576848      -178.9651
  22   2.0000      -6.574822      -178.9100
  23   2.0000      -6.574247      -178.8944
  24   2.0000      -1.448490       -39.4154
  25   2.0000      -1.420138       -38.6439
  26   2.0000      -1.359796       -37.0019
  27   2.0000      -1.340310       -36.4717
  28   2.0000      -1.240154       -33.7463
  29   2.0000      -1.161939       -31.6180
  30   2.0000      -1.126141       -30.6439
  31   2.0000      -1.049648       -28.5624
  32   2.0000      -1.040581       -28.3156
  33   2.0000      -1.019483       -27.7416
  34   2.0000      -1.005630       -27.3646
  35   2.0000      -0.989719       -26.9316
  36   2.0000      -0.928331       -25.2612
  37   2.0000      -0.881060       -23.9749
  38   2.0000      -0.855653       -23.2835
  39   2.0000      -0.842394       -22.9227
  40   2.0000      -0.837743       -22.7961
  41   2.0000      -0.836861       -22.7722
  42   2.0000      -0.757490       -20.6123
  43   2.0000      -0.739858       -20.1325
  44   2.0000      -0.732491       -19.9321
  45   2.0000      -0.697764       -18.9871
  46   2.0000      -0.688551       -18.7364
  47   2.0000      -0.681312       -18.5394
  48   2.0000      -0.677372       -18.4322
  49   2.0000      -0.665703       -18.1147
  50   2.0000      -0.653595       -17.7852
  51   2.0000      -0.650539       -17.7021
  52   2.0000      -0.639972       -17.4145
  53   2.0000      -0.612405       -16.6644
  54   2.0000      -0.608276       -16.5520
  55   2.0000      -0.604237       -16.4421
  56   2.0000      -0.597210       -16.2509
  57   2.0000      -0.587213       -15.9789
  58   2.0000      -0.578513       -15.7421
  59   2.0000      -0.569902       -15.5078
  60   2.0000      -0.563216       -15.3259
  61   2.0000      -0.559308       -15.2196
  62   2.0000      -0.548835       -14.9346
  63   2.0000      -0.527520       -14.3546
  64   2.0000      -0.523587       -14.2475
  65   2.0000      -0.515671       -14.0321
  66   2.0000      -0.504396       -13.7253
  67   2.0000      -0.502824       -13.6825
  68   2.0000      -0.489047       -13.3076
  69   2.0000      -0.469765       -12.7829
  70   2.0000      -0.454413       -12.3652
  71   2.0000      -0.450044       -12.2463
  72   2.0000      -0.357498        -9.7280
  73   2.0000      -0.352132        -9.5820
  74   2.0000      -0.329838        -8.9753
  75   2.0000      -0.325233        -8.8500
  76   2.0000      -0.318613        -8.6699
  77   0.0000       0.085876         2.3368
  78   0.0000       0.104675         2.8484
  79   0.0000       0.111880         3.0444
  80   0.0000       0.127883         3.4799
  81   0.0000       0.129967         3.5366

MULLIKEN ATOMIC CHARGES
-----------------------
   0 C :   -0.257533
   1 C :    0.015155
   2 O :   -0.309108
   3 C :    0.392116
   4 O :   -0.381143
   5 C :   -0.177544
   6 C :    0.126929
   7 C :   -0.321999
   8 N :   -0.134690
   9 C :    0.204425
  10 S :   -0.440922
  11 N :   -0.216555
  12 C :    0.069284
  13 C :    0.020332
  14 C :   -0.194058
  15 C :   -0.133092
  16 C :   -0.274100
  17 C :    0.320846
  18 O :   -0.359074
  19 C :   -0.281264
  20 H :    0.089509
  21 H :    0.107248
  22 H :    0.095378
  23 H :    0.087721
  24 H :    0.122774
  25 H :    0.124374
  26 H :    0.143188
  27 H :    0.118286
  28 H :    0.195621
  29 H :    0.198990
  30 H :    0.164999
  31 H :    0.169098
  32 H :    0.164122
  33 H :    0.133008
  34 H :    0.241681
  35 H :    0.176000
Sum of atomic charges:    0.0000000

LOEWDIN ATOMIC CHARGES
----------------------
   0 C :    0.110544
   1 C :   -0.022342
   2 O :    0.307164
   3 C :   -0.416292
   4 O :    0.125093
   5 C :   -0.081490
   6 C :   -0.105474
   7 C :    0.123586
   8 N :    0.401300
   9 C :   -0.455649
  10 S :   -0.037698
  11 N :    0.397323
  12 C :   -0.044006
  13 C :   -0.044054
  14 C :    0.022351
  15 C :    0.045788
  16 C :   -0.000481
  17 C :   -0.195024
  18 O :    0.394898
  19 C :    0.026961
  20 H :   -0.025060
  21 H :   -0.023235
  22 H :   -0.027730
  23 H :   -0.038880
  24 H :   -0.027896
  25 H :   -0.008497
  26 H :   -0.008881
  27 H :   -0.017321
  28 H :   -0.057709
  29 H :   -0.063718
  30 H :   -0.002247
  31 H :   -0.021622
  32 H :   -0.018177
  33 H :   -0.034464
  34 H :   -0.152818
  35 H :   -0.024245

  Mayer bond orders larger than 0.100000
B(  0-C ,  1-C ) :   0.9835 B(  0-C , 20-H ) :   0.9769 B(  0-C , 21-H ) :   0.9790
B(  0-C , 22-H ) :   0.9782 B(  1-C ,  2-O ) :   0.9078 B(  1-C , 23-H ) :   0.9668
B(  1-C , 24-H ) :   0.9674 B(  2-O ,  3-C ) :   1.1863 B(  3-C ,  4-O ) :   2.0973
B(  3-C ,  5-C ) :   0.9183 B(  5-C ,  6-C ) :   1.6943 B(  5-C , 12-C ) :   0.9614
B(  6-C ,  7-C ) :   0.9431 B(  6-C ,  8-N ) :   1.1141 B(  7-C , 25-H ) :   0.9809
B(  7-C , 26-H ) :   0.9675 B(  7-C , 27-H ) :   0.9675 B(  8-N ,  9-C ) :   1.1956
B(  8-N , 28-H ) :   0.9523 B(  9-C , 10-S ) :   1.6108 B(  9-C , 11-N ) :   1.2877
B( 11-N , 12-C ) :   0.9958 B( 11-N , 29-H ) :   0.9486 B( 12-C , 13-C ) :   0.9429
B( 12-C , 30-H ) :   0.9974 B( 13-C , 14-C ) :   1.3872 B( 13-C , 19-C ) :   1.3474
B( 14-C , 15-C ) :   1.3967 B( 14-C , 31-H ) :   0.9608 B( 15-C , 16-C ) :   1.3637
B( 15-C , 32-H ) :   0.9699 B( 16-C , 17-C ) :   1.3284 B( 16-C , 33-H ) :   0.9842
B( 17-C , 18-O ) :   1.1089 B( 17-C , 19-C ) :   1.3655 B( 18-O , 34-H ) :   0.9790
B( 19-C , 35-H ) :   0.9587

MP2 TOTAL ENERGY:    -1274.332409040 Eh
FINAL SINGLE POINT ENERGY     -1274.332409040479

DIPOLE MOMENT
-------------
                                X             Y             Z
Electronic contribution:     11.86870       6.89162       7.42946
Nuclear contribution   :    -13.44784      -7.89625      -7.73292
                        -----------------------------------------
Total Dipole Moment    :     -1.57913      -1.00463      -0.30346
                        -----------------------------------------
Magnitude (a.u.)       :      1.89606
Magnitude (Debye)      :      4.81939

Rotational constants in cm-1:     0.011575     0.009137     0.006733
Rotational constants in MHz :   347.011207   273.918455   201.845770

                             ****ORCA TERMINATED NORMALLY****
TOTAL RUN TIME: 0 days 1 hours 44 minutes 37 seconds 476 msec
