                         Program Version 4.2.0 -  RELEASE  -
|  1> ! ri-mp2 cc-pvtz cc-pvtz/c TightSCF  NoKeepInts
|  2>
|  3> %scf
|  4>   MaxCore 4096
|  5> end
|  6> *xyz  0  1
|  7>     C       15.0040470   14.1334889   15.9847797
|  8>     C       16.0856109   14.5060169   17.0144510
|  9>     O       17.1903904   15.1021774   16.3088453
| 10>     C       17.1962020   16.4565902   16.1448796
| 11>     O       16.6115872   16.9508589   15.1985264
| 12>     C       17.6407245   17.2314239   17.3588224
| 13>     C       17.3699662   18.5537762   17.5126826
| 14>     C       16.5106187   19.4280581   16.6247160
| 15>     N       17.9579853   19.2698003   18.5604607
| 16>     C       18.9919745   18.8056722   19.3301662
| 17>     S       19.7822894   19.7726781   20.4143237
| 18>     N       19.3491301   17.4945450   19.1407059
| 19>     C       18.5556400   16.5184489   18.3722522
| 20>     C       17.8086284   15.6209358   19.3529847
| 21>     C       18.2156850   14.2865697   19.5417515
| 22>     C       17.5344377   13.4519640   20.4435833
| 23>     C       16.4426062   13.9573197   21.1696297
| 24>     C       16.0440186   15.2895739   20.9961472
| 25>     O       14.9917992   15.7817834   21.6965157
| 26>     C       16.7220553   16.1172838   20.0960447
| 27>     H       14.6167655   15.0298285   15.4838594
| 28>     H       14.1643501   13.6258283   16.4743820
| 29>     H       15.4137270   13.4623065   15.2196936
| 30>     H       15.6668510   15.1879535   17.7653276
| 31>     H       16.4212361   13.5920071   17.5206301
| 32>     H       15.5249453   18.9717165   16.4681140
| 33>     H       16.9752731   19.5477468   15.6374377
| 34>     H       16.3458184   20.4293647   17.0394948
| 35>     H       17.7195912   20.2394965   18.6956641
| 36>     H       20.1015403   17.1732330   19.7362761
| 37>     H       19.2576137   15.8943471   17.8009591
| 38>     H       19.0600997   13.8921293   18.9821260
| 39>     H       17.8551126   12.4203140   20.5804230
| 40>     H       15.9144628   13.3167560   21.8686404
| 41>     H       14.7012974   15.0921069   22.3125971
| 42>     H       16.4029193   17.1479001   19.9861064
| 43> *
| 44>
| 45>                          ****END OF INPUT****

CARTESIAN COORDINATES (ANGSTROEM)
---------------------------------
  C     15.004047   14.133489   15.984780
  C     16.085611   14.506017   17.014451
  O     17.190390   15.102177   16.308845
  C     17.196202   16.456590   16.144880
  O     16.611587   16.950859   15.198526
  C     17.640725   17.231424   17.358822
  C     17.369966   18.553776   17.512683
  C     16.510619   19.428058   16.624716
  N     17.957985   19.269800   18.560461
  C     18.991974   18.805672   19.330166
  S     19.782289   19.772678   20.414324
  N     19.349130   17.494545   19.140706
  C     18.555640   16.518449   18.372252
  C     17.808628   15.620936   19.352985
  C     18.215685   14.286570   19.541751
  C     17.534438   13.451964   20.443583
  C     16.442606   13.957320   21.169630
  C     16.044019   15.289574   20.996147
  O     14.991799   15.781783   21.696516
  C     16.722055   16.117284   20.096045
  H     14.616765   15.029829   15.483859
  H     14.164350   13.625828   16.474382
  H     15.413727   13.462307   15.219694
  H     15.666851   15.187953   17.765328
  H     16.421236   13.592007   17.520630
  H     15.524945   18.971716   16.468114
  H     16.975273   19.547747   15.637438
  H     16.345818   20.429365   17.039495
  H     17.719591   20.239497   18.695664
  H     20.101540   17.173233   19.736276
  H     19.257614   15.894347   17.800959
  H     19.060100   13.892129   18.982126
  H     17.855113   12.420314   20.580423
  H     15.914463   13.316756   21.868640
  H     14.701297   15.092107   22.312597
  H     16.402919   17.147900   19.986106

 Total Charge           Charge          ....    0
 Multiplicity           Mult            ....    1
 Number of Electrons    NEL             ....  154
 Basis Dimension        Dim             ....  828

ORBITAL ENERGIES
----------------

  NO   OCC          E(Eh)            E(eV)
   0   2.0000     -91.891899     -2500.5057
   1   2.0000     -20.602846      -560.6319
   2   2.0000     -20.580737      -560.0303
   3   2.0000     -20.549321      -559.1754
   4   2.0000     -15.632431      -425.3801
   5   2.0000     -15.610741      -424.7899
   6   2.0000     -11.393397      -310.0301
   7   2.0000     -11.386407      -309.8399
   8   2.0000     -11.338847      -308.5457
   9   2.0000     -11.320714      -308.0523
  10   2.0000     -11.313832      -307.8650
  11   2.0000     -11.295071      -307.3545
  12   2.0000     -11.265334      -306.5453
  13   2.0000     -11.261967      -306.4537
  14   2.0000     -11.260518      -306.4143
  15   2.0000     -11.254623      -306.2539
  16   2.0000     -11.249911      -306.1256
  17   2.0000     -11.244350      -305.9743
  18   2.0000     -11.244078      -305.9669
  19   2.0000     -11.217648      -305.2477
  20   2.0000      -8.896911      -242.0973
  21   2.0000      -6.578473      -179.0093
  22   2.0000      -6.576482      -178.9552
  23   2.0000      -6.575883      -178.9389
  24   2.0000      -1.447180       -39.3798
  25   2.0000      -1.422541       -38.7093
  26   2.0000      -1.353611       -36.8336
  27   2.0000      -1.343610       -36.5615
  28   2.0000      -1.241930       -33.7946
  29   2.0000      -1.163419       -31.6582
  30   2.0000      -1.122305       -30.5395
  31   2.0000      -1.047494       -28.5038
  32   2.0000      -1.029638       -28.0179
  33   2.0000      -1.021922       -27.8079
  34   2.0000      -0.999237       -27.1906
  35   2.0000      -0.986987       -26.8573
  36   2.0000      -0.926810       -25.2198
  37   2.0000      -0.880599       -23.9623
  38   2.0000      -0.851062       -23.1586
  39   2.0000      -0.845257       -23.0006
  40   2.0000      -0.840178       -22.8624
  41   2.0000      -0.831011       -22.6129
  42   2.0000      -0.756016       -20.5723
  43   2.0000      -0.736423       -20.0391
  44   2.0000      -0.719642       -19.5825
  45   2.0000      -0.702140       -19.1062
  46   2.0000      -0.693069       -18.8594
  47   2.0000      -0.679942       -18.5022
  48   2.0000      -0.669393       -18.2151
  49   2.0000      -0.664375       -18.0786
  50   2.0000      -0.650822       -17.7098
  51   2.0000      -0.649216       -17.6661
  52   2.0000      -0.640001       -17.4153
  53   2.0000      -0.613470       -16.6934
  54   2.0000      -0.606953       -16.5160
  55   2.0000      -0.602574       -16.3969
  56   2.0000      -0.588248       -16.0071
  57   2.0000      -0.582405       -15.8481
  58   2.0000      -0.576969       -15.7001
  59   2.0000      -0.573676       -15.6105
  60   2.0000      -0.564197       -15.3526
  61   2.0000      -0.542734       -14.7685
  62   2.0000      -0.537455       -14.6249
  63   2.0000      -0.530473       -14.4349
  64   2.0000      -0.518547       -14.1104
  65   2.0000      -0.514119       -13.9899
  66   2.0000      -0.506409       -13.7801
  67   2.0000      -0.498634       -13.5685
  68   2.0000      -0.483328       -13.1520
  69   2.0000      -0.465854       -12.6765
  70   2.0000      -0.453474       -12.3396
  71   2.0000      -0.442820       -12.0497
  72   2.0000      -0.359359        -9.7786
  73   2.0000      -0.355009        -9.6603
  74   2.0000      -0.331877        -9.0308
  75   2.0000      -0.327879        -8.9220
  76   2.0000      -0.318921        -8.6783
  77   0.0000       0.068405         1.8614
  78   0.0000       0.098636         2.6840
  79   0.0000       0.120806         3.2873
  80   0.0000       0.127310         3.4643
  81   0.0000       0.131049         3.5660

MULLIKEN ATOMIC CHARGES
-----------------------
   0 C :   -0.260598
   1 C :    0.021798
   2 O :   -0.380192
   3 C :    0.497094
   4 O :   -0.397807
   5 C :   -0.280843
   6 C :    0.155632
   7 C :   -0.270658
   8 N :   -0.125454
   9 C :    0.211030
  10 S :   -0.434151
  11 N :   -0.196648
  12 C :    0.042058
  13 C :    0.062257
  14 C :   -0.202776
  15 C :   -0.126672
  16 C :   -0.274192
  17 C :    0.315133
  18 O :   -0.355906
  19 C :   -0.264400
  20 H :    0.104525
  21 H :    0.086248
  22 H :    0.096939
  23 H :    0.101028
  24 H :    0.111384
  25 H :    0.126980
  26 H :    0.137424
  27 H :    0.094485
  28 H :    0.198858
  29 H :    0.192080
  30 H :    0.150837
  31 H :    0.150885
  32 H :    0.166211
  33 H :    0.133954
  34 H :    0.242148
  35 H :    0.171310
Sum of atomic charges:   -0.0000000

LOEWDIN ATOMIC CHARGES
----------------------
   0 C :    0.105988
   1 C :   -0.023111
   2 O :    0.285962
   3 C :   -0.421957
   4 O :    0.124842
   5 C :   -0.100466
   6 C :   -0.058892
   7 C :    0.130738
   8 N :    0.407076
   9 C :   -0.456814
  10 S :   -0.030893
  11 N :    0.396286
  12 C :   -0.052703
  13 C :   -0.038048
  14 C :    0.015132
  15 C :    0.042174
  16 C :   -0.000356
  17 C :   -0.190821
  18 O :    0.396566
  19 C :    0.031279
  20 H :   -0.026556
  21 H :   -0.030475
  22 H :   -0.026011
  23 H :   -0.033424
  24 H :   -0.024866
  25 H :   -0.005938
  26 H :   -0.002603
  27 H :   -0.023020
  28 H :   -0.057251
  29 H :   -0.065303
  30 H :   -0.006229
  31 H :   -0.029105
  32 H :   -0.019651
  33 H :   -0.034006
  34 H :   -0.152288
  35 H :   -0.025256

  Mayer bond orders larger than 0.100000
B(  0-C ,  1-C ) :   0.9813 B(  0-C , 20-H ) :   0.9738 B(  0-C , 21-H ) :   0.9772
B(  0-C , 22-H ) :   0.9801 B(  1-C ,  2-O ) :   0.8711 B(  1-C , 23-H ) :   0.9654
B(  1-C , 24-H ) :   0.9782 B(  2-O ,  3-C ) :   1.1057 B(  3-C ,  4-O ) :   2.0284
B(  3-C ,  5-C ) :   1.0466 B(  5-C ,  6-C ) :   1.6542 B(  5-C , 12-C ) :   0.9693
B(  6-C ,  7-C ) :   0.9714 B(  6-C ,  8-N ) :   1.1549 B(  7-C , 25-H ) :   0.9646
B(  7-C , 26-H ) :   0.9558 B(  7-C , 27-H ) :   0.9882 B(  8-N ,  9-C ) :   1.1772
B(  8-N , 28-H ) :   0.9482 B(  9-C , 10-S ) :   1.6158 B(  9-C , 11-N ) :   1.3011
B( 11-N , 12-C ) :   0.9739 B( 11-N , 29-H ) :   0.9540 B( 12-C , 13-C ) :   0.9532
B( 12-C , 30-H ) :   1.0013 B( 13-C , 14-C ) :   1.3443 B( 13-C , 19-C ) :   1.3623
B( 14-C , 15-C ) :   1.3839 B( 14-C , 31-H ) :   0.9773 B( 15-C , 16-C ) :   1.3685
B( 15-C , 32-H ) :   0.9685 B( 16-C , 17-C ) :   1.3261 B( 16-C , 33-H ) :   0.9834
B( 17-C , 18-O ) :   1.1150 B( 17-C , 19-C ) :   1.3742 B( 18-O , 34-H ) :   0.9788
B( 19-C , 35-H ) :   0.9567

MP2 TOTAL ENERGY:    -1274.328650838 Eh
FINAL SINGLE POINT ENERGY     -1274.328650838487

DIPOLE MOMENT
-------------
                                X             Y             Z
Electronic contribution:     10.68910       9.21015       6.76121
Nuclear contribution   :    -11.75364     -10.68973      -6.36533
                        -----------------------------------------
Total Dipole Moment    :     -1.06455      -1.47958       0.39587
                        -----------------------------------------
Magnitude (a.u.)       :      1.86524
Magnitude (Debye)      :      4.74107

Rotational constants in cm-1:     0.011702     0.009367     0.006404
Rotational constants in MHz :   350.806298   280.813224   191.975988

                             ****ORCA TERMINATED NORMALLY****
TOTAL RUN TIME: 0 days 1 hours 47 minutes 1 seconds 40 msec
