                         Program Version 5.0.0 -  RELEASE  -
|  1> ! ri-mp2 cc-pvtz cc-pvtz/c TightSCF NoKeepInts
|  2>
|  3> %scf
|  4>   MaxCore 4096
|  5> end
|  6> *xyz  0  1
|  7>     C       14.7457503   15.6098582   17.1863517
|  8>     C       15.8152960   14.7811073   16.4514647
|  9>     O       16.7274442   15.6737062   15.7829030
| 10>     C       17.9531316   15.8611581   16.3519094
| 11>     O       18.7211043   14.9204334   16.4569742
| 12>     C       17.9514894   16.9707825   17.3573711
| 13>     C       17.3305541   18.1572361   17.1485991
| 14>     C       16.5869601   18.5920448   15.9032658
| 15>     N       17.4167562   19.1656837   18.1125610
| 16>     C       18.2191180   19.1163091   19.2227474
| 17>     S       18.3536440   20.3996195   20.2570192
| 18>     N       18.9040606   17.9451600   19.4341239
| 19>     C       18.7213638   16.7051963   18.6543397
| 20>     C       18.0202646   15.6355313   19.4891982
| 21>     C       18.5288881   14.3244440   19.5374707
| 22>     C       17.8760898   13.3282811   20.2824586
| 23>     C       16.7020904   13.6438711   20.9869159
| 24>     C       16.1909703   14.9477006   20.9416191
| 25>     O       15.0511645   15.2538676   21.6107261
| 26>     C       16.8438874   15.9371855   20.2002152
| 27>     H       15.1985916   16.2722063   17.9320913
| 28>     H       14.0440044   14.9474417   17.7077274
| 29>     H       14.1739482   16.2203481   16.4772434
| 30>     H       16.3435698   14.1284965   17.1615393
| 31>     H       15.3234496   14.1410337   15.7077671
| 32>     H       15.5556473   18.2206855   15.9149039
| 33>     H       17.0707012   18.2048519   14.9977650
| 34>     H       16.5503690   19.6836049   15.8014686
| 35>     H       16.9245766   20.0339045   17.9731378
| 36>     H       19.4683470   17.9272931   20.2740756
| 37>     H       19.7193402   16.3310541   18.3830477
| 38>     H       19.4263911   14.0722576   18.9770625
| 39>     H       18.2781863   12.3168449   20.3055445
| 40>     H       16.1929708   12.8766627   21.5608462
| 41>     H       14.7876822   14.4668509   22.1111525
| 42>     H       16.4291970   16.9392871   20.1803935
| 43> *
| 44>
| 45>                          ****END OF INPUT****

CARTESIAN COORDINATES (ANGSTROEM)
---------------------------------
  C     14.745750   15.609858   17.186352
  C     15.815296   14.781107   16.451465
  O     16.727444   15.673706   15.782903
  C     17.953132   15.861158   16.351909
  O     18.721104   14.920433   16.456974
  C     17.951489   16.970782   17.357371
  C     17.330554   18.157236   17.148599
  C     16.586960   18.592045   15.903266
  N     17.416756   19.165684   18.112561
  C     18.219118   19.116309   19.222747
  S     18.353644   20.399620   20.257019
  N     18.904061   17.945160   19.434124
  C     18.721364   16.705196   18.654340
  C     18.020265   15.635531   19.489198
  C     18.528888   14.324444   19.537471
  C     17.876090   13.328281   20.282459
  C     16.702090   13.643871   20.986916
  C     16.190970   14.947701   20.941619
  O     15.051165   15.253868   21.610726
  C     16.843887   15.937186   20.200215
  H     15.198592   16.272206   17.932091
  H     14.044004   14.947442   17.707727
  H     14.173948   16.220348   16.477243
  H     16.343570   14.128496   17.161539
  H     15.323450   14.141034   15.707767
  H     15.555647   18.220685   15.914904
  H     17.070701   18.204852   14.997765
  H     16.550369   19.683605   15.801469
  H     16.924577   20.033904   17.973138
  H     19.468347   17.927293   20.274076
  H     19.719340   16.331054   18.383048
  H     19.426391   14.072258   18.977062
  H     18.278186   12.316845   20.305544
  H     16.192971   12.876663   21.560846
  H     14.787682   14.466851   22.111152
  H     16.429197   16.939287   20.180394

 Total Charge           Charge          ....    0
 Multiplicity           Mult            ....    1
 Number of Electrons    NEL             ....  154
 Basis Dimension        Dim             ....  828

ORBITAL ENERGIES
----------------

  NO   OCC          E(Eh)            E(eV)
   0   2.0000     -91.890388     -2500.4646
   1   2.0000     -20.597687      -560.4916
   2   2.0000     -20.581013      -560.0378
   3   2.0000     -20.556549      -559.3721
   4   2.0000     -15.629784      -425.3081
   5   2.0000     -15.609960      -424.7686
   6   2.0000     -11.394533      -310.0610
   7   2.0000     -11.385976      -309.8282
   8   2.0000     -11.333744      -308.4068
   9   2.0000     -11.313983      -307.8691
  10   2.0000     -11.310931      -307.7861
  11   2.0000     -11.299815      -307.4836
  12   2.0000     -11.261176      -306.4322
  13   2.0000     -11.260610      -306.4168
  14   2.0000     -11.260088      -306.4026
  15   2.0000     -11.254064      -306.2387
  16   2.0000     -11.243837      -305.9604
  17   2.0000     -11.239826      -305.8512
  18   2.0000     -11.236429      -305.7588
  19   2.0000     -11.228137      -305.5331
  20   2.0000      -8.895454      -242.0576
  21   2.0000      -6.577030      -178.9701
  22   2.0000      -6.575021      -178.9154
  23   2.0000      -6.574434      -178.8995
  24   2.0000      -1.451540       -39.4984
  25   2.0000      -1.417469       -38.5713
  26   2.0000      -1.355701       -36.8905
  27   2.0000      -1.341005       -36.4906
  28   2.0000      -1.239329       -33.7239
  29   2.0000      -1.158209       -31.5165
  30   2.0000      -1.122822       -30.5535
  31   2.0000      -1.045894       -28.4602
  32   2.0000      -1.033201       -28.1148
  33   2.0000      -1.015881       -27.6435
  34   2.0000      -1.001016       -27.2390
  35   2.0000      -0.987786       -26.8790
  36   2.0000      -0.925287       -25.1783
  37   2.0000      -0.886587       -24.1253
  38   2.0000      -0.849414       -23.1137
  39   2.0000      -0.840193       -22.8628
  40   2.0000      -0.834453       -22.7066
  41   2.0000      -0.824123       -22.4255
  42   2.0000      -0.756031       -20.5727
  43   2.0000      -0.736048       -20.0289
  44   2.0000      -0.729526       -19.8514
  45   2.0000      -0.696314       -18.9477
  46   2.0000      -0.686946       -18.6927
  47   2.0000      -0.678929       -18.4746
  48   2.0000      -0.675747       -18.3880
  49   2.0000      -0.659795       -17.9539
  50   2.0000      -0.654828       -17.8188
  51   2.0000      -0.645871       -17.5750
  52   2.0000      -0.637915       -17.3585
  53   2.0000      -0.607927       -16.5425
  54   2.0000      -0.604872       -16.4594
  55   2.0000      -0.601565       -16.3694
  56   2.0000      -0.592545       -16.1240
  57   2.0000      -0.583947       -15.8900
  58   2.0000      -0.576857       -15.6971
  59   2.0000      -0.572978       -15.5915
  60   2.0000      -0.563282       -15.3277
  61   2.0000      -0.551628       -15.0105
  62   2.0000      -0.544885       -14.8271
  63   2.0000      -0.523057       -14.2331
  64   2.0000      -0.516479       -14.0541
  65   2.0000      -0.511191       -13.9102
  66   2.0000      -0.502493       -13.6735
  67   2.0000      -0.498661       -13.5692
  68   2.0000      -0.483734       -13.1631
  69   2.0000      -0.465549       -12.6682
  70   2.0000      -0.456364       -12.4183
  71   2.0000      -0.452276       -12.3070
  72   2.0000      -0.355180        -9.6649
  73   2.0000      -0.349661        -9.5148
  74   2.0000      -0.329631        -8.9697
  75   2.0000      -0.321505        -8.7486
  76   2.0000      -0.317575        -8.6417
  77   0.0000       0.069117         1.8808
  78   0.0000       0.103404         2.8138
  79   0.0000       0.119612         3.2548
  80   0.0000       0.129810         3.5323
  81   0.0000       0.134349         3.6558

MULLIKEN ATOMIC CHARGES
-----------------------
   0 C :   -0.320928
   1 C :    0.043411
   2 O :   -0.380980
   3 C :    0.465152
   4 O :   -0.394193
   5 C :   -0.207551
   6 C :    0.140368
   7 C :   -0.282078
   8 N :   -0.124092
   9 C :    0.192627
  10 S :   -0.436773
  11 N :   -0.204895
  12 C :    0.057519
  13 C :    0.048939
  14 C :   -0.182851
  15 C :   -0.134265
  16 C :   -0.280166
  17 C :    0.325130
  18 O :   -0.359717
  19 C :   -0.304514
  20 H :    0.105706
  21 H :    0.118699
  22 H :    0.102165
  23 H :    0.105482
  24 H :    0.115037
  25 H :    0.126254
  26 H :    0.125155
  27 H :    0.108892
  28 H :    0.197976
  29 H :    0.195021
  30 H :    0.159272
  31 H :    0.164137
  32 H :    0.163016
  33 H :    0.131950
  34 H :    0.241089
  35 H :    0.180010
Sum of atomic charges:    0.0000000

LOEWDIN ATOMIC CHARGES
----------------------
   0 C :    0.103419
   1 C :   -0.010517
   2 O :    0.282720
   3 C :   -0.418824
   4 O :    0.132816
   5 C :   -0.094008
   6 C :   -0.076271
   7 C :    0.127842
   8 N :    0.404831
   9 C :   -0.458165
  10 S :   -0.034736
  11 N :    0.397020
  12 C :   -0.044942
  13 C :   -0.042456
  14 C :    0.020852
  15 C :    0.040855
  16 C :   -0.002319
  17 C :   -0.193758
  18 O :    0.394467
  19 C :    0.029779
  20 H :   -0.033449
  21 H :   -0.022455
  22 H :   -0.032613
  23 H :   -0.025027
  24 H :   -0.024531
  25 H :   -0.011738
  26 H :   -0.007361
  27 H :   -0.018302
  28 H :   -0.058239
  29 H :   -0.063962
  30 H :   -0.003680
  31 H :   -0.023582
  32 H :   -0.019790
  33 H :   -0.035249
  34 H :   -0.153607
  35 H :   -0.025015

  Mayer bond orders larger than 0.100000
B(  0-C ,  1-C ) :   0.9640 B(  0-C , 20-H ) :   0.9720 B(  0-C , 21-H ) :   0.9780
B(  0-C , 22-H ) :   0.9781 B(  1-C ,  2-O ) :   0.8843 B(  1-C , 23-H ) :   0.9691
B(  1-C , 24-H ) :   0.9854 B(  2-O ,  3-C ) :   1.0944 B(  3-C ,  4-O ) :   2.0426
B(  3-C ,  5-C ) :   1.0031 B(  5-C ,  6-C ) :   1.6721 B(  5-C , 12-C ) :   0.9578
B(  6-C ,  7-C ) :   0.9548 B(  6-C ,  8-N ) :   1.1329 B(  7-C , 25-H ) :   0.9619
B(  7-C , 26-H ) :   0.9704 B(  7-C , 27-H ) :   0.9867 B(  8-N ,  9-C ) :   1.1841
B(  8-N , 28-H ) :   0.9497 B(  9-C , 10-S ) :   1.6160 B(  9-C , 11-N ) :   1.2948
B( 11-N , 12-C ) :   0.9895 B( 11-N , 29-H ) :   0.9514 B( 12-C , 13-C ) :   0.9474
B( 12-C , 30-H ) :   0.9980 B( 13-C , 14-C ) :   1.3819 B( 13-C , 19-C ) :   1.3432
B( 14-C , 15-C ) :   1.3969 B( 14-C , 31-H ) :   0.9609 B( 15-C , 16-C ) :   1.3621
B( 15-C , 32-H ) :   0.9705 B( 16-C , 17-C ) :   1.3312 B( 16-C , 33-H ) :   0.9844
B( 17-C , 18-O ) :   1.1092 B( 17-C , 19-C ) :   1.3679 B( 18-O , 34-H ) :   0.9799
B( 19-C , 35-H ) :   0.9543

MP2 TOTAL ENERGY:    -1274.322720447 Eh
FINAL SINGLE POINT ENERGY     -1274.322720446742

DIPOLE MOMENT
-------------
                                X             Y             Z
Electronic contribution:     10.23615       7.10657       5.90778
Nuclear contribution   :    -11.45255      -8.36297      -6.46603
                        -----------------------------------------
Total Dipole Moment    :     -1.21640      -1.25640      -0.55825
                        -----------------------------------------
Magnitude (a.u.)       :      1.83570
Magnitude (Debye)      :      4.66599

Rotational constants in cm-1:     0.012035     0.009536     0.007035
Rotational constants in MHz :   360.795916   285.884022   210.904438

                             ****ORCA TERMINATED NORMALLY****
TOTAL RUN TIME: 0 days 2 hours 52 minutes 29 seconds 245 msec
