                         Program Version 4.2.0 -  RELEASE  -
|  1> ! ri-mp2 cc-pvtz cc-pvtz/c TightSCF  NoKeepInts
|  2>
|  3> %scf
|  4>   MaxCore 4096
|  5> end
|  6> *xyz  0  1
|  7>     C       14.7786668   14.5861327   17.3854753
|  8>     C       15.6317262   15.4306712   16.4253265
|  9>     O       16.9840971   14.9529653   16.5286476
| 10>     C       18.0851635   15.7620124   16.4424641
| 11>     O       19.1621734   15.2296929   16.2503381
| 12>     C       18.0280909   16.9279667   17.3699374
| 13>     C       17.5469676   18.1280847   16.9756293
| 14>     C       16.9869506   18.4767157   15.6129311
| 15>     N       17.5994260   19.2189399   17.8457062
| 16>     C       18.2335981   19.2130574   19.0612719
| 17>     S       18.3194633   20.5708844   20.0010800
| 18>     N       18.7927594   18.0232130   19.4605248
| 19>     C       18.6597178   16.7355099   18.7483656
| 20>     C       17.8883760   15.7115891   19.5765829
| 21>     C       18.2834693   14.3612722   19.5643989
| 22>     C       17.5845844   13.4025356   20.3164407
| 23>     C       16.4798027   13.7960358   21.0902706
| 24>     C       16.0784976   15.1385841   21.1011642
| 25>     O       15.0026941   15.5188455   21.8350727
| 26>     C       16.7726789   16.0905795   20.3473620
| 27>     H       15.1373604   14.6893767   18.4157133
| 28>     H       14.8267878   13.5247655   17.1116607
| 29>     H       13.7293918   14.9031958   17.3538056
| 30>     H       15.2689724   15.3316157   15.3939642
| 31>     H       15.5378047   16.4769586   16.7326035
| 32>     H       17.1395458   17.6761599   14.8790937
| 33>     H       17.4789494   19.3707242   15.2082694
| 34>     H       15.9107944   18.6819776   15.6692555
| 35>     H       17.2101589   20.1053132   17.5649346
| 36>     H       19.2394957   18.0446555   20.3685424
| 37>     H       19.6742105   16.3402073   18.5905884
| 38>     H       19.1295324   14.0516737   18.9542200
| 39>     H       17.8984301   12.3603949   20.2925461
| 40>     H       15.9366264   13.0581023   21.6712123
| 41>     H       14.6922467   14.7394075   22.3201822
| 42>     H       16.4377888   17.1221836   20.3684182
| 43> *
| 44>
| 45>                          ****END OF INPUT****

CARTESIAN COORDINATES (ANGSTROEM)
---------------------------------
  C     14.778667   14.586133   17.385475
  C     15.631726   15.430671   16.425327
  O     16.984097   14.952965   16.528648
  C     18.085163   15.762012   16.442464
  O     19.162173   15.229693   16.250338
  C     18.028091   16.927967   17.369937
  C     17.546968   18.128085   16.975629
  C     16.986951   18.476716   15.612931
  N     17.599426   19.218940   17.845706
  C     18.233598   19.213057   19.061272
  S     18.319463   20.570884   20.001080
  N     18.792759   18.023213   19.460525
  C     18.659718   16.735510   18.748366
  C     17.888376   15.711589   19.576583
  C     18.283469   14.361272   19.564399
  C     17.584584   13.402536   20.316441
  C     16.479803   13.796036   21.090271
  C     16.078498   15.138584   21.101164
  O     15.002694   15.518845   21.835073
  C     16.772679   16.090580   20.347362
  H     15.137360   14.689377   18.415713
  H     14.826788   13.524766   17.111661
  H     13.729392   14.903196   17.353806
  H     15.268972   15.331616   15.393964
  H     15.537805   16.476959   16.732603
  H     17.139546   17.676160   14.879094
  H     17.478949   19.370724   15.208269
  H     15.910794   18.681978   15.669256
  H     17.210159   20.105313   17.564935
  H     19.239496   18.044656   20.368542
  H     19.674211   16.340207   18.590588
  H     19.129532   14.051674   18.954220
  H     17.898430   12.360395   20.292546
  H     15.936626   13.058102   21.671212
  H     14.692247   14.739408   22.320182
  H     16.437789   17.122184   20.368418

 Total Charge           Charge          ....    0
 Multiplicity           Mult            ....    1
 Number of Electrons    NEL             ....  154
 Basis Dimension        Dim             ....  828

ORBITAL ENERGIES
----------------

  NO   OCC          E(Eh)            E(eV)
   0   2.0000     -91.888091     -2500.4021
   1   2.0000     -20.602367      -560.6189
   2   2.0000     -20.598156      -560.5043
   3   2.0000     -20.557230      -559.3907
   4   2.0000     -15.623532      -425.1379
   5   2.0000     -15.610620      -424.7866
   6   2.0000     -11.396903      -310.1255
   7   2.0000     -11.385001      -309.8016
   8   2.0000     -11.323519      -308.1286
   9   2.0000     -11.316022      -307.9246
  10   2.0000     -11.314817      -307.8918
  11   2.0000     -11.304353      -307.6071
  12   2.0000     -11.270764      -306.6931
  13   2.0000     -11.265502      -306.5499
  14   2.0000     -11.262525      -306.4689
  15   2.0000     -11.255249      -306.2709
  16   2.0000     -11.244137      -305.9685
  17   2.0000     -11.240306      -305.8643
  18   2.0000     -11.237599      -305.7906
  19   2.0000     -11.228208      -305.5351
  20   2.0000      -8.893224      -241.9969
  21   2.0000      -6.574820      -178.9100
  22   2.0000      -6.572786      -178.8546
  23   2.0000      -6.572219      -178.8392
  24   2.0000      -1.455124       -39.5959
  25   2.0000      -1.417985       -38.5853
  26   2.0000      -1.362944       -37.0876
  27   2.0000      -1.337917       -36.4066
  28   2.0000      -1.238228       -33.6939
  29   2.0000      -1.159381       -31.5484
  30   2.0000      -1.124566       -30.6010
  31   2.0000      -1.047974       -28.5168
  32   2.0000      -1.039763       -28.2934
  33   2.0000      -1.017362       -27.6838
  34   2.0000      -1.004193       -27.3255
  35   2.0000      -0.987934       -26.8830
  36   2.0000      -0.926928       -25.2230
  37   2.0000      -0.883445       -24.0398
  38   2.0000      -0.853312       -23.2198
  39   2.0000      -0.840286       -22.8653
  40   2.0000      -0.835343       -22.7308
  41   2.0000      -0.834676       -22.7127
  42   2.0000      -0.759122       -20.6568
  43   2.0000      -0.737575       -20.0704
  44   2.0000      -0.730335       -19.8734
  45   2.0000      -0.696618       -18.9559
  46   2.0000      -0.690283       -18.7835
  47   2.0000      -0.683958       -18.6114
  48   2.0000      -0.676393       -18.4056
  49   2.0000      -0.662584       -18.0298
  50   2.0000      -0.653490       -17.7824
  51   2.0000      -0.641925       -17.4677
  52   2.0000      -0.637541       -17.3484
  53   2.0000      -0.617409       -16.8006
  54   2.0000      -0.611368       -16.6362
  55   2.0000      -0.605712       -16.4823
  56   2.0000      -0.601930       -16.3793
  57   2.0000      -0.588230       -16.0066
  58   2.0000      -0.576533       -15.6883
  59   2.0000      -0.566593       -15.4178
  60   2.0000      -0.561413       -15.2768
  61   2.0000      -0.556047       -15.1308
  62   2.0000      -0.537962       -14.6387
  63   2.0000      -0.532859       -14.4998
  64   2.0000      -0.519239       -14.1292
  65   2.0000      -0.512910       -13.9570
  66   2.0000      -0.501796       -13.6546
  67   2.0000      -0.500823       -13.6281
  68   2.0000      -0.488720       -13.2987
  69   2.0000      -0.467589       -12.7237
  70   2.0000      -0.457156       -12.4398
  71   2.0000      -0.452222       -12.3056
  72   2.0000      -0.356000        -9.6872
  73   2.0000      -0.350009        -9.5242
  74   2.0000      -0.327934        -8.9235
  75   2.0000      -0.322533        -8.7766
  76   2.0000      -0.316513        -8.6128
  77   0.0000       0.092240         2.5100
  78   0.0000       0.099947         2.7197
  79   0.0000       0.108596         2.9551
  80   0.0000       0.127723         3.4755
  81   0.0000       0.129190         3.5154

MULLIKEN ATOMIC CHARGES
-----------------------
   0 C :   -0.268311
   1 C :    0.012386
   2 O :   -0.306173
   3 C :    0.381627
   4 O :   -0.366452
   5 C :   -0.138143
   6 C :    0.112933
   7 C :   -0.320662
   8 N :   -0.134960
   9 C :    0.206684
  10 S :   -0.444308
  11 N :   -0.220623
  12 C :    0.049839
  13 C :    0.029130
  14 C :   -0.189462
  15 C :   -0.138312
  16 C :   -0.266954
  17 C :    0.298971
  18 O :   -0.362222
  19 C :   -0.253796
  20 H :    0.117357
  21 H :    0.102317
  22 H :    0.089793
  23 H :    0.110757
  24 H :    0.083755
  25 H :    0.117301
  26 H :    0.136174
  27 H :    0.121875
  28 H :    0.194552
  29 H :    0.200296
  30 H :    0.168875
  31 H :    0.163678
  32 H :    0.162756
  33 H :    0.132106
  34 H :    0.240922
  35 H :    0.176293
Sum of atomic charges:   -0.0000000

LOEWDIN ATOMIC CHARGES
----------------------
   0 C :    0.111997
   1 C :   -0.027429
   2 O :    0.323765
   3 C :   -0.423532
   4 O :    0.137699
   5 C :   -0.078151
   6 C :   -0.115328
   7 C :    0.122131
   8 N :    0.399740
   9 C :   -0.455677
  10 S :   -0.040813
  11 N :    0.397914
  12 C :   -0.041409
  13 C :   -0.040814
  14 C :    0.024285
  15 C :    0.045492
  16 C :   -0.001747
  17 C :   -0.194739
  18 O :    0.395413
  19 C :    0.025528
  20 H :   -0.023183
  21 H :   -0.025374
  22 H :   -0.026744
  23 H :   -0.032845
  24 H :   -0.038901
  25 H :   -0.011162
  26 H :   -0.009915
  27 H :   -0.017117
  28 H :   -0.059232
  29 H :   -0.063773
  30 H :   -0.001913
  31 H :   -0.022422
  32 H :   -0.018815
  33 H :   -0.035230
  34 H :   -0.153324
  35 H :   -0.024377

  Mayer bond orders larger than 0.100000
B(  0-C ,  1-C ) :   0.9806 B(  0-C , 20-H ) :   0.9707 B(  0-C , 21-H ) :   0.9814
B(  0-C , 22-H ) :   0.9763 B(  1-C ,  2-O ) :   0.9294 B(  1-C , 23-H ) :   0.9788
B(  1-C , 24-H ) :   0.9615 B(  2-O ,  3-C ) :   1.1154 B(  3-C ,  4-O ) :   2.0976
B(  3-C ,  5-C ) :   0.9252 B(  5-C ,  6-C ) :   1.7098 B(  5-C , 12-C ) :   0.9650
B(  6-C ,  7-C ) :   0.9459 B(  6-C ,  8-N ) :   1.1044 B(  7-C , 25-H ) :   0.9819
B(  7-C , 26-H ) :   0.9712 B(  7-C , 27-H ) :   0.9664 B(  8-N ,  9-C ) :   1.2011
B(  8-N , 28-H ) :   0.9538 B(  9-C , 10-S ) :   1.6062 B(  9-C , 11-N ) :   1.2849
B( 11-N , 12-C ) :   0.9894 B( 11-N , 29-H ) :   0.9476 B( 12-C , 13-C ) :   0.9464
B( 12-C , 30-H ) :   0.9978 B( 13-C , 14-C ) :   1.3844 B( 13-C , 19-C ) :   1.3532
B( 14-C , 15-C ) :   1.3988 B( 14-C , 31-H ) :   0.9637 B( 15-C , 16-C ) :   1.3571
B( 15-C , 32-H ) :   0.9705 B( 16-C , 17-C ) :   1.3355 B( 16-C , 33-H ) :   0.9851
B( 17-C , 18-O ) :   1.1062 B( 17-C , 19-C ) :   1.3662 B( 18-O , 34-H ) :   0.9796
B( 19-C , 35-H ) :   0.9564

MP2 TOTAL ENERGY:    -1274.320758851 Eh
FINAL SINGLE POINT ENERGY     -1274.320758850639

DIPOLE MOMENT
-------------
                                X             Y             Z
Electronic contribution:     10.30435       7.85345       6.41706
Nuclear contribution   :    -11.90611      -8.98984      -7.17513
                        -----------------------------------------
Total Dipole Moment    :     -1.60177      -1.13639      -0.75807
                        -----------------------------------------
Magnitude (a.u.)       :      2.10516
Magnitude (Debye)      :      5.35089

Rotational constants in cm-1:     0.012287     0.009221     0.006783
Rotational constants in MHz :   368.350679   276.430391   203.339566

                             ****ORCA TERMINATED NORMALLY****
TOTAL RUN TIME: 0 days 1 hours 54 minutes 35 seconds 337 msec
