                         Program Version 4.2.0 -  RELEASE  -
|  1> ! ri-mp2 cc-pvtz cc-pvtz/c TightSCF  NoKeepInts
|  2>
|  3> %scf
|  4>   MaxCore 4096
|  5> end
|  6> *xyz  0  1
|  7>     C       15.6383430   13.7041058   15.2526978
|  8>     C       15.0819170   15.0485370   15.7704163
|  9>     O       16.0958097   16.0360985   16.0836965
| 10>     C       17.2721906   15.7964577   16.7455106
| 11>     O       17.7613279   14.6888456   16.8845326
| 12>     C       17.7178963   16.9536914   17.5947346
| 13>     C       17.3713811   18.2512293   17.3853011
| 14>     C       16.5094210   18.8205576   16.2767472
| 15>     N       17.8960402   19.2522540   18.2097117
| 16>     C       18.8764584   19.0621967   19.1472423
| 17>     S       19.5343651   20.3248759   19.9889933
| 18>     N       19.2843904   17.7685599   19.3502721
| 19>     C       18.6396956   16.5796058   18.7618902
| 20>     C       17.8798674   15.8002322   19.8324337
| 21>     C       18.1413347   14.4330180   20.0385458
| 22>     C       17.4432011   13.7096539   21.0200017
| 23>     C       16.4738265   14.3581715   21.8037886
| 24>     C       16.2072904   15.7187644   21.5992561
| 25>     O       15.2671783   16.3463105   22.3501303
| 26>     C       16.9034527   16.4359515   20.6212571
| 27>     H       16.4360729   13.8663089   14.5171208
| 28>     H       14.8421586   13.1259052   14.7687914
| 29>     H       16.0329354   13.0917976   16.0729015
| 30>     H       14.4082344   15.4706127   15.0137667
| 31>     H       14.4817817   14.8507871   16.6682972
| 32>     H       15.4540782   18.5688212   16.4394174
| 33>     H       16.8080740   18.4144903   15.3022452
| 34>     H       16.5820226   19.9124707   16.2033954
| 35>     H       17.6096274   20.2087513   18.0756003
| 36>     H       19.9863052   17.6507946   20.0695057
| 37>     H       19.4362117   15.9329749   18.3661125
| 38>     H       18.8780812   13.9249934   19.4209536
| 39>     H       17.6509811   12.6510399   21.1646745
| 40>     H       15.9310476   13.8028943   22.5613656
| 41>     H       14.9302139   15.7014002   22.9898806
| 42>     H       16.6837868   17.4888408   20.4828120
| 43> *
| 44>
| 45>                          ****END OF INPUT****

CARTESIAN COORDINATES (ANGSTROEM)
---------------------------------
  C     15.638343   13.704106   15.252698
  C     15.081917   15.048537   15.770416
  O     16.095810   16.036099   16.083696
  C     17.272191   15.796458   16.745511
  O     17.761328   14.688846   16.884533
  C     17.717896   16.953691   17.594735
  C     17.371381   18.251229   17.385301
  C     16.509421   18.820558   16.276747
  N     17.896040   19.252254   18.209712
  C     18.876458   19.062197   19.147242
  S     19.534365   20.324876   19.988993
  N     19.284390   17.768560   19.350272
  C     18.639696   16.579606   18.761890
  C     17.879867   15.800232   19.832434
  C     18.141335   14.433018   20.038546
  C     17.443201   13.709654   21.020002
  C     16.473827   14.358171   21.803789
  C     16.207290   15.718764   21.599256
  O     15.267178   16.346311   22.350130
  C     16.903453   16.435952   20.621257
  H     16.436073   13.866309   14.517121
  H     14.842159   13.125905   14.768791
  H     16.032935   13.091798   16.072902
  H     14.408234   15.470613   15.013767
  H     14.481782   14.850787   16.668297
  H     15.454078   18.568821   16.439417
  H     16.808074   18.414490   15.302245
  H     16.582023   19.912471   16.203395
  H     17.609627   20.208751   18.075600
  H     19.986305   17.650795   20.069506
  H     19.436212   15.932975   18.366112
  H     18.878081   13.924993   19.420954
  H     17.650981   12.651040   21.164675
  H     15.931048   13.802894   22.561366
  H     14.930214   15.701400   22.989881
  H     16.683787   17.488841   20.482812

 Total Charge           Charge          ....    0
 Multiplicity           Mult            ....    1
 Number of Electrons    NEL             ....  154
 Basis Dimension        Dim             ....  828

ORBITAL ENERGIES
----------------

  NO   OCC          E(Eh)            E(eV)
   0   2.0000     -91.887205     -2500.3780
   1   2.0000     -20.598407      -560.5111
   2   2.0000     -20.591781      -560.3308
   3   2.0000     -20.546739      -559.1052
   4   2.0000     -15.626952      -425.2310
   5   2.0000     -15.606030      -424.6617
   6   2.0000     -11.398474      -310.1682
   7   2.0000     -11.382105      -309.7228
   8   2.0000     -11.333821      -308.4089
   9   2.0000     -11.307636      -307.6964
  10   2.0000     -11.305732      -307.6446
  11   2.0000     -11.305183      -307.6297
  12   2.0000     -11.259247      -306.3797
  13   2.0000     -11.257905      -306.3432
  14   2.0000     -11.253457      -306.2221
  15   2.0000     -11.247886      -306.0705
  16   2.0000     -11.237454      -305.7867
  17   2.0000     -11.233399      -305.6763
  18   2.0000     -11.230562      -305.5991
  19   2.0000     -11.222973      -305.3926
  20   2.0000      -8.892279      -241.9712
  21   2.0000      -6.573859      -178.8838
  22   2.0000      -6.571850      -178.8291
  23   2.0000      -6.571267      -178.8133
  24   2.0000      -1.447029       -39.3757
  25   2.0000      -1.411517       -38.4093
  26   2.0000      -1.357591       -36.9419
  27   2.0000      -1.338194       -36.4141
  28   2.0000      -1.236028       -33.6340
  29   2.0000      -1.151919       -31.3453
  30   2.0000      -1.118365       -30.4323
  31   2.0000      -1.041655       -28.3449
  32   2.0000      -1.033703       -28.1285
  33   2.0000      -1.009440       -27.4683
  34   2.0000      -0.996350       -27.1121
  35   2.0000      -0.981706       -26.7136
  36   2.0000      -0.920918       -25.0594
  37   2.0000      -0.894667       -24.3451
  38   2.0000      -0.847192       -23.0533
  39   2.0000      -0.835568       -22.7370
  40   2.0000      -0.827990       -22.5307
  41   2.0000      -0.818315       -22.2675
  42   2.0000      -0.744621       -20.2622
  43   2.0000      -0.727711       -19.8020
  44   2.0000      -0.724583       -19.7169
  45   2.0000      -0.690604       -18.7923
  46   2.0000      -0.684062       -18.6143
  47   2.0000      -0.678909       -18.4741
  48   2.0000      -0.670852       -18.2548
  49   2.0000      -0.665351       -18.1051
  50   2.0000      -0.645083       -17.5536
  51   2.0000      -0.642606       -17.4862
  52   2.0000      -0.634013       -17.2524
  53   2.0000      -0.602947       -16.4070
  54   2.0000      -0.599487       -16.3129
  55   2.0000      -0.597069       -16.2471
  56   2.0000      -0.595078       -16.1929
  57   2.0000      -0.586138       -15.9496
  58   2.0000      -0.572410       -15.5761
  59   2.0000      -0.569968       -15.5096
  60   2.0000      -0.559204       -15.2167
  61   2.0000      -0.543977       -14.8024
  62   2.0000      -0.536583       -14.6012
  63   2.0000      -0.522290       -14.2122
  64   2.0000      -0.517204       -14.0738
  65   2.0000      -0.510244       -13.8844
  66   2.0000      -0.499614       -13.5952
  67   2.0000      -0.494803       -13.4643
  68   2.0000      -0.479293       -13.0422
  69   2.0000      -0.461158       -12.5487
  70   2.0000      -0.456761       -12.4291
  71   2.0000      -0.445900       -12.1335
  72   2.0000      -0.352888        -9.6026
  73   2.0000      -0.343874        -9.3573
  74   2.0000      -0.326429        -8.8826
  75   2.0000      -0.315183        -8.5766
  76   2.0000      -0.313615        -8.5339
  77   0.0000       0.076828         2.0906
  78   0.0000       0.112360         3.0575
  79   0.0000       0.121712         3.3120
  80   0.0000       0.135998         3.7007
  81   0.0000       0.139763         3.8031

MULLIKEN ATOMIC CHARGES
-----------------------
   0 C :   -0.287776
   1 C :    0.050298
   2 O :   -0.363463
   3 C :    0.435947
   4 O :   -0.423532
   5 C :   -0.143005
   6 C :    0.137157
   7 C :   -0.286211
   8 N :   -0.122007
   9 C :    0.201465
  10 S :   -0.441040
  11 N :   -0.197846
  12 C :    0.035701
  13 C :    0.055369
  14 C :   -0.164377
  15 C :   -0.134171
  16 C :   -0.279451
  17 C :    0.311288
  18 O :   -0.358892
  19 C :   -0.271191
  20 H :    0.099604
  21 H :    0.093961
  22 H :    0.120068
  23 H :    0.097197
  24 H :    0.089954
  25 H :    0.126428
  26 H :    0.124735
  27 H :    0.102290
  28 H :    0.196571
  29 H :    0.193510
  30 H :    0.154751
  31 H :    0.154284
  32 H :    0.159194
  33 H :    0.128113
  34 H :    0.239985
  35 H :    0.165095
Sum of atomic charges:   -0.0000000

LOEWDIN ATOMIC CHARGES
----------------------
   0 C :    0.102685
   1 C :   -0.009762
   2 O :    0.291919
   3 C :   -0.411594
   4 O :    0.117615
   5 C :   -0.090335
   6 C :   -0.068169
   7 C :    0.124530
   8 N :    0.404308
   9 C :   -0.458894
  10 S :   -0.037375
  11 N :    0.397668
  12 C :   -0.046180
  13 C :   -0.038791
  14 C :    0.021108
  15 C :    0.040358
  16 C :   -0.002605
  17 C :   -0.192690
  18 O :    0.393055
  19 C :    0.028784
  20 H :   -0.025341
  21 H :   -0.029525
  22 H :   -0.025469
  23 H :   -0.025072
  24 H :   -0.028967
  25 H :   -0.009991
  26 H :   -0.008845
  27 H :   -0.020969
  28 H :   -0.059309
  29 H :   -0.063858
  30 H :   -0.005353
  31 H :   -0.025391
  32 H :   -0.021338
  33 H :   -0.036455
  34 H :   -0.154946
  35 H :   -0.024808

  Mayer bond orders larger than 0.100000
B(  0-C ,  1-C ) :   0.9738 B(  0-C , 20-H ) :   0.9754 B(  0-C , 21-H ) :   0.9749
B(  0-C , 22-H ) :   0.9723 B(  1-C ,  2-O ) :   0.9042 B(  1-C , 23-H ) :   0.9824
B(  1-C , 24-H ) :   0.9785 B(  2-O ,  3-C ) :   1.1199 B(  3-C ,  4-O ) :   1.9833
B(  3-C ,  5-C ) :   1.0526 B(  5-C ,  6-C ) :   1.6560 B(  5-C , 12-C ) :   0.9635
B(  6-C ,  7-C ) :   0.9551 B(  6-C ,  8-N ) :   1.1418 B(  7-C , 25-H ) :   0.9635
B(  7-C , 26-H ) :   0.9672 B(  7-C , 27-H ) :   0.9911 B(  8-N ,  9-C ) :   1.1813
B(  8-N , 28-H ) :   0.9493 B(  9-C , 10-S ) :   1.6093 B(  9-C , 11-N ) :   1.3032
B( 11-N , 12-C ) :   0.9922 B( 11-N , 29-H ) :   0.9520 B( 12-C , 13-C ) :   0.9472
B( 12-C , 30-H ) :   0.9994 B( 13-C , 14-C ) :   1.3758 B( 13-C , 19-C ) :   1.3696
B( 14-C , 15-C ) :   1.3944 B( 14-C , 31-H ) :   0.9648 B( 15-C , 16-C ) :   1.3628
B( 15-C , 32-H ) :   0.9714 B( 16-C , 17-C ) :   1.3313 B( 16-C , 33-H ) :   0.9860
B( 17-C , 18-O ) :   1.1082 B( 17-C , 19-C ) :   1.3785 B( 18-O , 34-H ) :   0.9806
B( 19-C , 35-H ) :   0.9583

MP2 TOTAL ENERGY:    -1274.334648927 Eh
FINAL SINGLE POINT ENERGY     -1274.334648927472

DIPOLE MOMENT
-------------
                                X             Y             Z
Electronic contribution:      9.87002      10.48750      10.54670
Nuclear contribution   :    -11.52635     -11.69645     -11.49972
                        -----------------------------------------
Total Dipole Moment    :     -1.65633      -1.20895      -0.95301
                        -----------------------------------------
Magnitude (a.u.)       :      2.26124
Magnitude (Debye)      :      5.74763

Rotational constants in cm-1:     0.010808     0.008941     0.005932
Rotational constants in MHz :   324.028922   268.038806   177.850561

                             ****ORCA TERMINATED NORMALLY****
TOTAL RUN TIME: 0 days 1 hours 33 minutes 15 seconds 34 msec
