                         Program Version 4.2.0 -  RELEASE  -
|  1> ! ri-mp2 cc-pvtz cc-pvtz/c TightSCF  NoKeepInts
|  2>
|  3> %scf
|  4>   MaxCore 4096
|  5> end
|  6> *xyz  0  1
|  7>     C       14.9666581   14.3655265   16.0401170
|  8>     C       16.2487206   14.1817203   16.8782916
|  9>     O       17.3244287   15.0431312   16.4332372
| 10>     C       17.1378178   16.3868685   16.2587385
| 11>     O       16.4700815   16.8219754   15.3375481
| 12>     C       17.6664642   17.2236986   17.3938887
| 13>     C       17.4286759   18.5581807   17.4824302
| 14>     C       16.5767977   19.4048579   16.5608659
| 15>     N       18.0361604   19.3126438   18.4910475
| 16>     C       19.0225950   18.8520453   19.3217864
| 17>     S       19.8088239   19.8456261   20.3849108
| 18>     N       19.3350831   17.5207938   19.2165591
| 19>     C       18.5639957   16.5352586   18.4376639
| 20>     C       17.7867803   15.6436656   19.3994263
| 21>     C       18.2134207   14.3244333   19.6434581
| 22>     C       17.5012864   13.4946800   20.5257491
| 23>     C       16.3573038   13.9895936   21.1748019
| 24>     C       15.9366723   15.3064148   20.9437427
| 25>     O       14.8340405   15.7880887   21.5701621
| 26>     C       16.6456186   16.1291943   20.0631276
| 27>     H       14.4968371   15.3367495   16.2390203
| 28>     H       14.2358386   13.5854633   16.2846933
| 29>     H       15.1907819   14.2995201   14.9678061
| 30>     H       16.0046701   14.3825632   17.9277754
| 31>     H       16.5791675   13.1374762   16.8093277
| 32>     H       15.5596145   18.9985537   16.4926284
| 33>     H       16.9952169   19.4095908   15.5461245
| 34>     H       16.4931089   20.4471225   16.8902042
| 35>     H       17.8274133   20.2950949   18.5711722
| 36>     H       20.0486710   17.2041600   19.8602784
| 37>     H       19.2841628   15.9090586   17.8920213
| 38>     H       19.0976865   13.9388136   19.1424998
| 39>     H       17.8381800   12.4752109   20.7071046
| 40>     H       15.8052815   13.3531202   21.8588690
| 41>     H       14.5209015   15.1031615   22.1802419
| 42>     H       16.3080425   17.1479441   19.9066803
| 43> *
| 44>
| 45>                          ****END OF INPUT****

CARTESIAN COORDINATES (ANGSTROEM)
---------------------------------
  C     14.966658   14.365526   16.040117
  C     16.248721   14.181720   16.878292
  O     17.324429   15.043131   16.433237
  C     17.137818   16.386868   16.258738
  O     16.470081   16.821975   15.337548
  C     17.666464   17.223699   17.393889
  C     17.428676   18.558181   17.482430
  C     16.576798   19.404858   16.560866
  N     18.036160   19.312644   18.491048
  C     19.022595   18.852045   19.321786
  S     19.808824   19.845626   20.384911
  N     19.335083   17.520794   19.216559
  C     18.563996   16.535259   18.437664
  C     17.786780   15.643666   19.399426
  C     18.213421   14.324433   19.643458
  C     17.501286   13.494680   20.525749
  C     16.357304   13.989594   21.174802
  C     15.936672   15.306415   20.943743
  O     14.834041   15.788089   21.570162
  C     16.645619   16.129194   20.063128
  H     14.496837   15.336749   16.239020
  H     14.235839   13.585463   16.284693
  H     15.190782   14.299520   14.967806
  H     16.004670   14.382563   17.927775
  H     16.579168   13.137476   16.809328
  H     15.559614   18.998554   16.492628
  H     16.995217   19.409591   15.546124
  H     16.493109   20.447122   16.890204
  H     17.827413   20.295095   18.571172
  H     20.048671   17.204160   19.860278
  H     19.284163   15.909059   17.892021
  H     19.097686   13.938814   19.142500
  H     17.838180   12.475211   20.707105
  H     15.805281   13.353120   21.858869
  H     14.520902   15.103161   22.180242
  H     16.308042   17.147944   19.906680

 Total Charge           Charge          ....    0
 Multiplicity           Mult            ....    1
 Number of Electrons    NEL             ....  154
 Basis Dimension        Dim             ....  828

ORBITAL ENERGIES
----------------

  NO   OCC          E(Eh)            E(eV)
   0   2.0000     -91.890497     -2500.4675
   1   2.0000     -20.602048      -560.6102
   2   2.0000     -20.583184      -560.0969
   3   2.0000     -20.546085      -559.0874
   4   2.0000     -15.630971      -425.3403
   5   2.0000     -15.609577      -424.7582
   6   2.0000     -11.393854      -310.0425
   7   2.0000     -11.385206      -309.8072
   8   2.0000     -11.337480      -308.5085
   9   2.0000     -11.320018      -308.0334
  10   2.0000     -11.311328      -307.7969
  11   2.0000     -11.297103      -307.4098
  12   2.0000     -11.264175      -306.5138
  13   2.0000     -11.261127      -306.4308
  14   2.0000     -11.258920      -306.3708
  15   2.0000     -11.253446      -306.2218
  16   2.0000     -11.248859      -306.0970
  17   2.0000     -11.243464      -305.9502
  18   2.0000     -11.243011      -305.9379
  19   2.0000     -11.219220      -305.2905
  20   2.0000      -8.895536      -242.0598
  21   2.0000      -6.577104      -178.9721
  22   2.0000      -6.575106      -178.9177
  23   2.0000      -6.574513      -178.9016
  24   2.0000      -1.442900       -39.2633
  25   2.0000      -1.421725       -38.6871
  26   2.0000      -1.351910       -36.7873
  27   2.0000      -1.342091       -36.5202
  28   2.0000      -1.240546       -33.7570
  29   2.0000      -1.162515       -31.6337
  30   2.0000      -1.121363       -30.5138
  31   2.0000      -1.046287       -28.4709
  32   2.0000      -1.030458       -28.0402
  33   2.0000      -1.020781       -27.7769
  34   2.0000      -0.997726       -27.1495
  35   2.0000      -0.985673       -26.8215
  36   2.0000      -0.925383       -25.1809
  37   2.0000      -0.888695       -24.1826
  38   2.0000      -0.849502       -23.1161
  39   2.0000      -0.843207       -22.9448
  40   2.0000      -0.838924       -22.8283
  41   2.0000      -0.824845       -22.4452
  42   2.0000      -0.749005       -20.3815
  43   2.0000      -0.735092       -20.0029
  44   2.0000      -0.716893       -19.5077
  45   2.0000      -0.700703       -19.0671
  46   2.0000      -0.690939       -18.8014
  47   2.0000      -0.677797       -18.4438
  48   2.0000      -0.667213       -18.1558
  49   2.0000      -0.664254       -18.0753
  50   2.0000      -0.651511       -17.7285
  51   2.0000      -0.647568       -17.6212
  52   2.0000      -0.638689       -17.3796
  53   2.0000      -0.612481       -16.6665
  54   2.0000      -0.609335       -16.5809
  55   2.0000      -0.602092       -16.3838
  56   2.0000      -0.601532       -16.3685
  57   2.0000      -0.581800       -15.8316
  58   2.0000      -0.572533       -15.5794
  59   2.0000      -0.568719       -15.4756
  60   2.0000      -0.557914       -15.1816
  61   2.0000      -0.540621       -14.7111
  62   2.0000      -0.535230       -14.5643
  63   2.0000      -0.529205       -14.4004
  64   2.0000      -0.522762       -14.2251
  65   2.0000      -0.516077       -14.0432
  66   2.0000      -0.504813       -13.7366
  67   2.0000      -0.495652       -13.4874
  68   2.0000      -0.481871       -13.1124
  69   2.0000      -0.463337       -12.6081
  70   2.0000      -0.453269       -12.3341
  71   2.0000      -0.441804       -12.0221
  72   2.0000      -0.357216        -9.7203
  73   2.0000      -0.354566        -9.6482
  74   2.0000      -0.330801        -9.0015
  75   2.0000      -0.326932        -8.8963
  76   2.0000      -0.317645        -8.6436
  77   0.0000       0.070244         1.9114
  78   0.0000       0.100913         2.7460
  79   0.0000       0.122266         3.3270
  80   0.0000       0.128454         3.4954
  81   0.0000       0.132932         3.6173

MULLIKEN ATOMIC CHARGES
-----------------------
   0 C :   -0.277674
   1 C :    0.032017
   2 O :   -0.388754
   3 C :    0.491817
   4 O :   -0.405961
   5 C :   -0.268141
   6 C :    0.159394
   7 C :   -0.269376
   8 N :   -0.124873
   9 C :    0.213498
  10 S :   -0.437686
  11 N :   -0.202744
  12 C :    0.058006
  13 C :    0.023955
  14 C :   -0.169468
  15 C :   -0.131955
  16 C :   -0.275466
  17 C :    0.306472
  18 O :   -0.356358
  19 C :   -0.246930
  20 H :    0.096575
  21 H :    0.095657
  22 H :    0.111445
  23 H :    0.101915
  24 H :    0.105139
  25 H :    0.128163
  26 H :    0.135664
  27 H :    0.094850
  28 H :    0.198367
  29 H :    0.193405
  30 H :    0.151142
  31 H :    0.151855
  32 H :    0.163067
  33 H :    0.133463
  34 H :    0.241901
  35 H :    0.167620
Sum of atomic charges:   -0.0000000

LOEWDIN ATOMIC CHARGES
----------------------
   0 C :    0.104366
   1 C :   -0.016704
   2 O :    0.281515
   3 C :   -0.415937
   4 O :    0.120661
   5 C :   -0.098732
   6 C :   -0.057889
   7 C :    0.131045
   8 N :    0.407029
   9 C :   -0.456347
  10 S :   -0.033404
  11 N :    0.396466
  12 C :   -0.053041
  13 C :   -0.039003
  14 C :    0.014544
  15 C :    0.041907
  16 C :   -0.001493
  17 C :   -0.190778
  18 O :    0.396668
  19 C :    0.029148
  20 H :   -0.029742
  21 H :   -0.028509
  22 H :   -0.022787
  23 H :   -0.033202
  24 H :   -0.023351
  25 H :   -0.005823
  26 H :   -0.002850
  27 H :   -0.023280
  28 H :   -0.057372
  29 H :   -0.065197
  30 H :   -0.007660
  31 H :   -0.029109
  32 H :   -0.019766
  33 H :   -0.034341
  34 H :   -0.152561
  35 H :   -0.024471

  Mayer bond orders larger than 0.100000
B(  0-C ,  1-C ) :   0.9818 B(  0-C , 20-H ) :   0.9735 B(  0-C , 21-H ) :   0.9748
B(  0-C , 22-H ) :   0.9757 B(  1-C ,  2-O ) :   0.8910 B(  1-C , 23-H ) :   0.9666
B(  1-C , 24-H ) :   0.9809 B(  2-O ,  3-C ) :   1.0907 B(  3-C ,  4-O ) :   2.0181
B(  3-C ,  5-C ) :   1.0640 B(  5-C ,  6-C ) :   1.6506 B(  5-C , 12-C ) :   0.9694
B(  6-C ,  7-C ) :   0.9687 B(  6-C ,  8-N ) :   1.1579 B(  7-C , 25-H ) :   0.9631
B(  7-C , 26-H ) :   0.9570 B(  7-C , 27-H ) :   0.9896 B(  8-N ,  9-C ) :   1.1805
B(  8-N , 28-H ) :   0.9478 B(  9-C , 10-S ) :   1.6097 B(  9-C , 11-N ) :   1.3051
B( 11-N , 12-C ) :   0.9711 B( 11-N , 29-H ) :   0.9533 B( 12-C , 13-C ) :   0.9439
B( 12-C , 30-H ) :   1.0013 B( 13-C , 14-C ) :   1.3539 B( 13-C , 19-C ) :   1.3762
B( 14-C , 15-C ) :   1.3907 B( 14-C , 31-H ) :   0.9727 B( 15-C , 16-C ) :   1.3644
B( 15-C , 32-H ) :   0.9701 B( 16-C , 17-C ) :   1.3285 B( 16-C , 33-H ) :   0.9840
B( 17-C , 18-O ) :   1.1147 B( 17-C , 19-C ) :   1.3746 B( 18-O , 34-H ) :   0.9788
B( 19-C , 35-H ) :   0.9575

MP2 TOTAL ENERGY:    -1274.332829656 Eh
FINAL SINGLE POINT ENERGY     -1274.332829656445

DIPOLE MOMENT
-------------
                                X             Y             Z
Electronic contribution:     10.48181       9.13482       7.01695
Nuclear contribution   :    -11.54001     -10.73835      -6.80501
                        -----------------------------------------
Total Dipole Moment    :     -1.05820      -1.60353       0.21195
                        -----------------------------------------
Magnitude (a.u.)       :      1.93288
Magnitude (Debye)      :      4.91299

Rotational constants in cm-1:     0.011934     0.009140     0.006412
Rotational constants in MHz :   357.757465   274.007895   192.229325

                             ****ORCA TERMINATED NORMALLY****
TOTAL RUN TIME: 0 days 1 hours 50 minutes 6 seconds 240 msec
