                         Program Version 4.2.0 -  RELEASE  -
|  1> ! ri-mp2 cc-pvtz cc-pvtz/c TightSCF  NoKeepInts
|  2>
|  3> %scf
|  4>   MaxCore 4096
|  5> end
|  6> *xyz  0  1
|  7>     C       15.1070490   15.4479851   17.0275672
|  8>     C       16.1459725   14.3124802   16.8696874
|  9>     O       17.4739159   14.7436178   16.4678275
| 10>     C       17.7775553   16.0262917   16.1094650
| 11>     O       17.5839355   16.3771277   14.9598227
| 12>     C       17.8349658   16.9890960   17.2651374
| 13>     C       17.4332192   18.2810517   17.1577569
| 14>     C       16.7384345   18.9317010   15.9809770
| 15>     N       17.6910415   19.1810376   18.1957323
| 16>     C       18.5287117   18.9296137   19.2498712
| 17>     S       18.9257524   20.0975664   20.3511781
| 18>     N       19.0289463   17.6550812   19.3414228
| 19>     C       18.5696942   16.5101779   18.5321774
| 20>     C       17.7742485   15.5571947   19.4198744
| 21>     C       18.1895650   14.2206225   19.5747087
| 22>     C       17.4762680   13.3407568   20.4061269
| 23>     C       16.3428655   13.8021130   21.0967421
| 24>     C       15.9367898   15.1363773   20.9603743
| 25>     O       14.8447426   15.5863944   21.6274250
| 26>     C       16.6503350   16.0101228   20.1343900
| 27>     H       15.3705576   16.1511016   17.8215426
| 28>     H       14.1294434   15.0220040   17.2837207
| 29>     H       14.9873589   16.0018794   16.0881635
| 30>     H       16.2100894   13.7489449   17.8082809
| 31>     H       15.7707925   13.6163275   16.1083956
| 32>     H       17.4365807   19.0500385   15.1421824
| 33>     H       16.3296363   19.9203359   16.2202203
| 34>     H       15.9068149   18.3109338   15.6260540
| 35>     H       17.3489585   20.1266084   18.1307366
| 36>     H       19.6250203   17.4934961   20.1433072
| 37>     H       19.4678932   15.9741741   18.1944870
| 38>     H       19.0635641   13.8582773   19.0393595
| 39>     H       17.8029061   12.3075741   20.5135259
| 40>     H       15.7882093   13.1260728   21.7394173
| 41>     H       14.5296569   14.8657346   22.1937246
| 42>     H       16.3255097   17.0420877   20.0526176
| 43> *
| 44>
| 45>                          ****END OF INPUT****

CARTESIAN COORDINATES (ANGSTROEM)
---------------------------------
  C     15.107049   15.447985   17.027567
  C     16.145972   14.312480   16.869687
  O     17.473916   14.743618   16.467827
  C     17.777555   16.026292   16.109465
  O     17.583935   16.377128   14.959823
  C     17.834966   16.989096   17.265137
  C     17.433219   18.281052   17.157757
  C     16.738435   18.931701   15.980977
  N     17.691042   19.181038   18.195732
  C     18.528712   18.929614   19.249871
  S     18.925752   20.097566   20.351178
  N     19.028946   17.655081   19.341423
  C     18.569694   16.510178   18.532177
  C     17.774248   15.557195   19.419874
  C     18.189565   14.220622   19.574709
  C     17.476268   13.340757   20.406127
  C     16.342865   13.802113   21.096742
  C     15.936790   15.136377   20.960374
  O     14.844743   15.586394   21.627425
  C     16.650335   16.010123   20.134390
  H     15.370558   16.151102   17.821543
  H     14.129443   15.022004   17.283721
  H     14.987359   16.001879   16.088164
  H     16.210089   13.748945   17.808281
  H     15.770792   13.616328   16.108396
  H     17.436581   19.050038   15.142182
  H     16.329636   19.920336   16.220220
  H     15.906815   18.310934   15.626054
  H     17.348958   20.126608   18.130737
  H     19.625020   17.493496   20.143307
  H     19.467893   15.974174   18.194487
  H     19.063564   13.858277   19.039359
  H     17.802906   12.307574   20.513526
  H     15.788209   13.126073   21.739417
  H     14.529657   14.865735   22.193725
  H     16.325510   17.042088   20.052618

 Total Charge           Charge          ....    0
 Multiplicity           Mult            ....    1
 Number of Electrons    NEL             ....  154
 Basis Dimension        Dim             ....  828

ORBITAL ENERGIES
----------------

  NO   OCC          E(Eh)            E(eV)
   0   2.0000     -91.891352     -2500.4908
   1   2.0000     -20.601878      -560.6056
   2   2.0000     -20.576016      -559.9019
   3   2.0000     -20.552850      -559.2715
   4   2.0000     -15.630360      -425.3237
   5   2.0000     -15.610733      -424.7897
   6   2.0000     -11.394229      -310.0527
   7   2.0000     -11.386072      -309.8308
   8   2.0000     -11.335189      -308.4462
   9   2.0000     -11.319548      -308.0206
  10   2.0000     -11.314982      -307.8963
  11   2.0000     -11.300621      -307.5055
  12   2.0000     -11.264953      -306.5349
  13   2.0000     -11.260100      -306.4029
  14   2.0000     -11.260068      -306.4020
  15   2.0000     -11.254518      -306.2510
  16   2.0000     -11.249126      -306.1043
  17   2.0000     -11.244443      -305.9769
  18   2.0000     -11.243144      -305.9415
  19   2.0000     -11.229069      -305.5585
  20   2.0000      -8.896389      -242.0831
  21   2.0000      -6.577958      -178.9953
  22   2.0000      -6.575959      -178.9409
  23   2.0000      -6.575365      -178.9248
  24   2.0000      -1.443056       -39.2676
  25   2.0000      -1.421649       -38.6850
  26   2.0000      -1.349621       -36.7251
  27   2.0000      -1.342197       -36.5230
  28   2.0000      -1.241184       -33.7743
  29   2.0000      -1.162329       -31.6286
  30   2.0000      -1.121653       -30.5217
  31   2.0000      -1.046930       -28.4884
  32   2.0000      -1.031724       -28.0746
  33   2.0000      -1.020899       -27.7801
  34   2.0000      -1.001419       -27.2500
  35   2.0000      -0.987747       -26.8780
  36   2.0000      -0.926475       -25.2107
  37   2.0000      -0.897043       -24.4098
  38   2.0000      -0.849626       -23.1195
  39   2.0000      -0.844075       -22.9684
  40   2.0000      -0.839799       -22.8521
  41   2.0000      -0.821865       -22.3641
  42   2.0000      -0.746116       -20.3029
  43   2.0000      -0.736115       -20.0307
  44   2.0000      -0.720912       -19.6170
  45   2.0000      -0.700652       -19.0657
  46   2.0000      -0.690989       -18.8028
  47   2.0000      -0.673896       -18.3376
  48   2.0000      -0.672232       -18.2924
  49   2.0000      -0.659564       -17.9477
  50   2.0000      -0.655705       -17.8426
  51   2.0000      -0.646991       -17.6055
  52   2.0000      -0.638904       -17.3855
  53   2.0000      -0.626852       -17.0575
  54   2.0000      -0.611802       -16.6480
  55   2.0000      -0.604275       -16.4431
  56   2.0000      -0.602151       -16.3854
  57   2.0000      -0.581434       -15.8216
  58   2.0000      -0.574369       -15.6294
  59   2.0000      -0.566218       -15.4076
  60   2.0000      -0.548815       -14.9340
  61   2.0000      -0.545745       -14.8505
  62   2.0000      -0.541298       -14.7295
  63   2.0000      -0.531689       -14.4680
  64   2.0000      -0.528681       -14.3861
  65   2.0000      -0.516414       -14.0523
  66   2.0000      -0.505073       -13.7437
  67   2.0000      -0.493538       -13.4299
  68   2.0000      -0.480037       -13.0625
  69   2.0000      -0.470398       -12.8002
  70   2.0000      -0.450942       -12.2708
  71   2.0000      -0.444638       -12.0992
  72   2.0000      -0.357960        -9.7406
  73   2.0000      -0.351822        -9.5736
  74   2.0000      -0.330853        -9.0030
  75   2.0000      -0.327138        -8.9019
  76   2.0000      -0.318870        -8.6769
  77   0.0000       0.068764         1.8712
  78   0.0000       0.101389         2.7589
  79   0.0000       0.119029         3.2389
  80   0.0000       0.126997         3.4558
  81   0.0000       0.132174         3.5966

MULLIKEN ATOMIC CHARGES
-----------------------
   0 C :   -0.352616
   1 C :    0.042460
   2 O :   -0.387650
   3 C :    0.478218
   4 O :   -0.385979
   5 C :   -0.267050
   6 C :    0.162349
   7 C :   -0.276799
   8 N :   -0.122656
   9 C :    0.196424
  10 S :   -0.434117
  11 N :   -0.194099
  12 C :    0.053902
  13 C :    0.052469
  14 C :   -0.178341
  15 C :   -0.136323
  16 C :   -0.276104
  17 C :    0.321250
  18 O :   -0.356285
  19 C :   -0.292965
  20 H :    0.112851
  21 H :    0.121928
  22 H :    0.114815
  23 H :    0.114075
  24 H :    0.123075
  25 H :    0.141470
  26 H :    0.094782
  27 H :    0.125179
  28 H :    0.197876
  29 H :    0.192209
  30 H :    0.148753
  31 H :    0.149296
  32 H :    0.164882
  33 H :    0.134003
  34 H :    0.241575
  35 H :    0.177145
Sum of atomic charges:   -0.0000000

LOEWDIN ATOMIC CHARGES
----------------------
   0 C :    0.105281
   1 C :   -0.005475
   2 O :    0.273647
   3 C :   -0.424335
   4 O :    0.132338
   5 C :   -0.095746
   6 C :   -0.065563
   7 C :    0.130185
   8 N :    0.406302
   9 C :   -0.458913
  10 S :   -0.032360
  11 N :    0.396628
  12 C :   -0.052450
  13 C :   -0.040351
  14 C :    0.018308
  15 C :    0.039688
  16 C :   -0.001775
  17 C :   -0.191594
  18 O :    0.396579
  19 C :    0.033813
  20 H :   -0.037842
  21 H :   -0.020712
  22 H :   -0.029125
  23 H :   -0.027942
  24 H :   -0.026031
  25 H :   -0.002956
  26 H :   -0.022632
  27 H :   -0.009356
  28 H :   -0.057783
  29 H :   -0.064481
  30 H :   -0.007114
  31 H :   -0.027893
  32 H :   -0.019902
  33 H :   -0.034259
  34 H :   -0.152720
  35 H :   -0.023460

  Mayer bond orders larger than 0.100000
B(  0-C ,  1-C ) :   0.9625 B(  0-C , 20-H ) :   0.9675 B(  0-C , 21-H ) :   0.9759
B(  0-C , 22-H ) :   0.9733 B(  1-C ,  2-O ) :   0.8811 B(  1-C , 23-H ) :   0.9709
B(  1-C , 24-H ) :   0.9853 B(  2-O ,  3-C ) :   1.1173 B(  3-C ,  4-O ) :   2.0580
B(  3-C ,  5-C ) :   1.0054 B(  5-C ,  6-C ) :   1.6693 B(  5-C , 12-C ) :   0.9666
B(  6-C ,  7-C ) :   0.9631 B(  6-C ,  8-N ) :   1.1419 B(  7-C , 25-H ) :   0.9568
B(  7-C , 26-H ) :   0.9871 B(  7-C , 27-H ) :   0.9684 B(  8-N ,  9-C ) :   1.1829
B(  8-N , 28-H ) :   0.9489 B(  9-C , 10-S ) :   1.6189 B(  9-C , 11-N ) :   1.2934
B( 11-N , 12-C ) :   0.9928 B( 11-N , 29-H ) :   0.9528 B( 12-C , 13-C ) :   0.9381
B( 12-C , 30-H ) :   1.0071 B( 13-C , 14-C ) :   1.3576 B( 13-C , 19-C ) :   1.3566
B( 14-C , 15-C ) :   1.3934 B( 14-C , 31-H ) :   0.9728 B( 15-C , 16-C ) :   1.3600
B( 15-C , 32-H ) :   0.9704 B( 16-C , 17-C ) :   1.3298 B( 16-C , 33-H ) :   0.9837
B( 17-C , 18-O ) :   1.1139 B( 17-C , 19-C ) :   1.3694 B( 18-O , 34-H ) :   0.9792
B( 19-C , 35-H ) :   0.9555

MP2 TOTAL ENERGY:    -1274.316842640 Eh
FINAL SINGLE POINT ENERGY     -1274.316842640457

DIPOLE MOMENT
-------------
                                X             Y             Z
Electronic contribution:      9.90834       6.88649       5.66399
Nuclear contribution   :    -11.07269      -8.43111      -5.45092
                        -----------------------------------------
Total Dipole Moment    :     -1.16435      -1.54462       0.21307
                        -----------------------------------------
Magnitude (a.u.)       :      1.94601
Magnitude (Debye)      :      4.94636

Rotational constants in cm-1:     0.012007     0.009837     0.006706
Rotational constants in MHz :   359.958193   294.905606   201.048981

                             ****ORCA TERMINATED NORMALLY****
TOTAL RUN TIME: 0 days 2 hours 48 minutes 4 seconds 736 msec
