                         Program Version 4.2.0 -  RELEASE  -
|  1> ! ri-mp2 cc-pvtz cc-pvtz/c TightSCF  NoKeepInts
|  2>
|  3> %scf
|  4>   MaxCore 4096
|  5> end
|  6> *xyz  0  1
|  7>     C       15.3400042   14.7067240   17.2744782
|  8>     C       15.5167183   15.4054614   15.9106859
|  9>     O       16.9070562   15.5488409   15.5342715
| 10>     C       17.9284356   15.6605074   16.4380103
| 11>     O       18.7293877   14.7525230   16.5684416
| 12>     C       17.9023870   16.8437073   17.3650694
| 13>     C       17.3823109   18.0592098   17.0515619
| 14>     C       16.7745991   18.5172478   15.7407480
| 15>     N       17.4956942   19.1173489   17.9585037
| 16>     C       18.2811014   19.1052286   19.0804128
| 17>     S       18.4766164   20.4506491   20.0215935
| 18>     N       18.8980381   17.9175681   19.3800658
| 19>     C       18.6289259   16.6348729   18.7021901
| 20>     C       17.8666767   15.6833479   19.6226487
| 21>     C       18.2272946   14.3246362   19.6890615
| 22>     C       17.5273842   13.4352232   20.5210224
| 23>     C       16.4563860   13.9068647   21.2982887
| 24>     C       16.0935912   15.2588246   21.2381610
| 25>     O       15.0539341   15.7158791   21.9803211
| 26>     C       16.7915113   16.1420874   20.4082822
| 27>     H       15.9783420   13.8167508   17.3523017
| 28>     H       14.2992043   14.3864069   17.4040248
| 29>     H       15.5758113   15.3862703   18.0981997
| 30>     H       15.0065206   14.8176572   15.1364969
| 31>     H       15.0243069   16.3826940   15.9527832
| 32>     H       17.1254170   17.9209293   14.8904193
| 33>     H       17.0556114   19.5535011   15.5133073
| 34>     H       15.6803429   18.4746687   15.7704420
| 35>     H       17.0605680   20.0018411   17.7487910
| 36>     H       19.4581276   17.9278143   20.2230774
| 37>     H       19.6034580   16.1747872   18.4813564
| 38>     H       19.0482543   13.9524139   19.0798710
| 39>     H       17.8148955   12.3857952   20.5567890
| 40>     H       15.9119104   13.2226325   21.9405785
| 41>     H       14.7382733   14.9780278   22.5235472
| 42>     H       16.4879033   17.1830574   20.3781964
| 43> *
| 44>
| 45>                          ****END OF INPUT****

CARTESIAN COORDINATES (ANGSTROEM)
---------------------------------
  C     15.340004   14.706724   17.274478
  C     15.516718   15.405461   15.910686
  O     16.907056   15.548841   15.534271
  C     17.928436   15.660507   16.438010
  O     18.729388   14.752523   16.568442
  C     17.902387   16.843707   17.365069
  C     17.382311   18.059210   17.051562
  C     16.774599   18.517248   15.740748
  N     17.495694   19.117349   17.958504
  C     18.281101   19.105229   19.080413
  S     18.476616   20.450649   20.021594
  N     18.898038   17.917568   19.380066
  C     18.628926   16.634873   18.702190
  C     17.866677   15.683348   19.622649
  C     18.227295   14.324636   19.689061
  C     17.527384   13.435223   20.521022
  C     16.456386   13.906865   21.298289
  C     16.093591   15.258825   21.238161
  O     15.053934   15.715879   21.980321
  C     16.791511   16.142087   20.408282
  H     15.978342   13.816751   17.352302
  H     14.299204   14.386407   17.404025
  H     15.575811   15.386270   18.098200
  H     15.006521   14.817657   15.136497
  H     15.024307   16.382694   15.952783
  H     17.125417   17.920929   14.890419
  H     17.055611   19.553501   15.513307
  H     15.680343   18.474669   15.770442
  H     17.060568   20.001841   17.748791
  H     19.458128   17.927814   20.223077
  H     19.603458   16.174787   18.481356
  H     19.048254   13.952414   19.079871
  H     17.814895   12.385795   20.556789
  H     15.911910   13.222632   21.940579
  H     14.738273   14.978028   22.523547
  H     16.487903   17.183057   20.378196

 Total Charge           Charge          ....    0
 Multiplicity           Mult            ....    1
 Number of Electrons    NEL             ....  154
 Basis Dimension        Dim             ....  828

ORBITAL ENERGIES
----------------

  NO   OCC          E(Eh)            E(eV)
   0   2.0000     -91.891035     -2500.4822
   1   2.0000     -20.596581      -560.4615
   2   2.0000     -20.588680      -560.2465
   3   2.0000     -20.552571      -559.2639
   4   2.0000     -15.630509      -425.3278
   5   2.0000     -15.609803      -424.7643
   6   2.0000     -11.397749      -310.1485
   7   2.0000     -11.386259      -309.8359
   8   2.0000     -11.339313      -308.5584
   9   2.0000     -11.313140      -307.8462
  10   2.0000     -11.310157      -307.7650
  11   2.0000     -11.308421      -307.7178
  12   2.0000     -11.266547      -306.5783
  13   2.0000     -11.264831      -306.5316
  14   2.0000     -11.259437      -306.3849
  15   2.0000     -11.253153      -306.2139
  16   2.0000     -11.242650      -305.9281
  17   2.0000     -11.238337      -305.8107
  18   2.0000     -11.234339      -305.7019
  19   2.0000     -11.228083      -305.5317
  20   2.0000      -8.896102      -242.0752
  21   2.0000      -6.577680      -178.9878
  22   2.0000      -6.575667      -178.9330
  23   2.0000      -6.575081      -178.9170
  24   2.0000      -1.446294       -39.3557
  25   2.0000      -1.416405       -38.5423
  26   2.0000      -1.357239       -36.9324
  27   2.0000      -1.342841       -36.5406
  28   2.0000      -1.240557       -33.7573
  29   2.0000      -1.157120       -31.4868
  30   2.0000      -1.122804       -30.5531
  31   2.0000      -1.045244       -28.4425
  32   2.0000      -1.035197       -28.1691
  33   2.0000      -1.015546       -27.6344
  34   2.0000      -1.004091       -27.3227
  35   2.0000      -0.988369       -26.8949
  36   2.0000      -0.926463       -25.2103
  37   2.0000      -0.896934       -24.4068
  38   2.0000      -0.853690       -23.2301
  39   2.0000      -0.840880       -22.8815
  40   2.0000      -0.833101       -22.6698
  41   2.0000      -0.825728       -22.4692
  42   2.0000      -0.744498       -20.2588
  43   2.0000      -0.731817       -19.9138
  44   2.0000      -0.729403       -19.8481
  45   2.0000      -0.694393       -18.8954
  46   2.0000      -0.686691       -18.6858
  47   2.0000      -0.681518       -18.5451
  48   2.0000      -0.675004       -18.3678
  49   2.0000      -0.663020       -18.0417
  50   2.0000      -0.654373       -17.8064
  51   2.0000      -0.649948       -17.6860
  52   2.0000      -0.639198       -17.3935
  53   2.0000      -0.626778       -17.0555
  54   2.0000      -0.607793       -16.5389
  55   2.0000      -0.604448       -16.4479
  56   2.0000      -0.600521       -16.3410
  57   2.0000      -0.583491       -15.8776
  58   2.0000      -0.574366       -15.6293
  59   2.0000      -0.564811       -15.3693
  60   2.0000      -0.558169       -15.1885
  61   2.0000      -0.545949       -14.8560
  62   2.0000      -0.540851       -14.7173
  63   2.0000      -0.534675       -14.5492
  64   2.0000      -0.520316       -14.1585
  65   2.0000      -0.512613       -13.9489
  66   2.0000      -0.500361       -13.6155
  67   2.0000      -0.490625       -13.3506
  68   2.0000      -0.486689       -13.2435
  69   2.0000      -0.470340       -12.7986
  70   2.0000      -0.457546       -12.4505
  71   2.0000      -0.449102       -12.2207
  72   2.0000      -0.359148        -9.7729
  73   2.0000      -0.347962        -9.4685
  74   2.0000      -0.330319        -8.9884
  75   2.0000      -0.321594        -8.7510
  76   2.0000      -0.318696        -8.6722
  77   0.0000       0.072590         1.9753
  78   0.0000       0.106792         2.9060
  79   0.0000       0.117853         3.2070
  80   0.0000       0.131643         3.5822
  81   0.0000       0.134818         3.6686

MULLIKEN ATOMIC CHARGES
-----------------------
   0 C :   -0.327210
   1 C :    0.040825
   2 O :   -0.365391
   3 C :    0.484651
   4 O :   -0.390481
   5 C :   -0.247769
   6 C :    0.170224
   7 C :   -0.334451
   8 N :   -0.129253
   9 C :    0.188799
  10 S :   -0.436305
  11 N :   -0.208398
  12 C :    0.059415
  13 C :    0.024799
  14 C :   -0.194220
  15 C :   -0.138623
  16 C :   -0.272415
  17 C :    0.311264
  18 O :   -0.358002
  19 C :   -0.259188
  20 H :    0.121657
  21 H :    0.111839
  22 H :    0.111457
  23 H :    0.121543
  24 H :    0.080416
  25 H :    0.145874
  26 H :    0.124755
  27 H :    0.123678
  28 H :    0.197996
  29 H :    0.197046
  30 H :    0.162894
  31 H :    0.172226
  32 H :    0.163737
  33 H :    0.131513
  34 H :    0.240602
  35 H :    0.174497
Sum of atomic charges:   -0.0000000

LOEWDIN ATOMIC CHARGES
----------------------
   0 C :    0.108393
   1 C :   -0.016901
   2 O :    0.286718
   3 C :   -0.419769
   4 O :    0.126965
   5 C :   -0.088608
   6 C :   -0.076080
   7 C :    0.126352
   8 N :    0.404524
   9 C :   -0.461043
  10 S :   -0.034460
  11 N :    0.397604
  12 C :   -0.044611
  13 C :   -0.042055
  14 C :    0.021730
  15 C :    0.042825
  16 C :   -0.001642
  17 C :   -0.193584
  18 O :    0.394841
  19 C :    0.026245
  20 H :   -0.020073
  21 H :   -0.023452
  22 H :   -0.032257
  23 H :   -0.021306
  24 H :   -0.039548
  25 H :   -0.007818
  26 H :   -0.013719
  27 H :   -0.018948
  28 H :   -0.057207
  29 H :   -0.063230
  30 H :   -0.002672
  31 H :   -0.023292
  32 H :   -0.019563
  33 H :   -0.035347
  34 H :   -0.153807
  35 H :   -0.025204

  Mayer bond orders larger than 0.100000
B(  0-C ,  1-C ) :   0.9625 B(  0-C , 20-H ) :   0.9687 B(  0-C , 21-H ) :   0.9769
B(  0-C , 22-H ) :   0.9695 B(  1-C ,  2-O ) :   0.8994 B(  1-C , 23-H ) :   0.9817
B(  1-C , 24-H ) :   0.9749 B(  2-O ,  3-C ) :   1.1251 B(  3-C ,  4-O ) :   2.0562
B(  3-C ,  5-C ) :   0.9796 B(  5-C ,  6-C ) :   1.6580 B(  5-C , 12-C ) :   0.9561
B(  6-C ,  7-C ) :   0.9427 B(  6-C ,  8-N ) :   1.1305 B(  7-C , 25-H ) :   0.9686
B(  7-C , 26-H ) :   0.9814 B(  7-C , 27-H ) :   0.9664 B(  8-N ,  9-C ) :   1.1846
B(  8-N , 28-H ) :   0.9510 B(  9-C , 10-S ) :   1.6145 B(  9-C , 11-N ) :   1.2970
B( 11-N , 12-C ) :   0.9865 B( 11-N , 29-H ) :   0.9511 B( 12-C , 13-C ) :   0.9501
B( 12-C , 30-H ) :   0.9977 B( 13-C , 14-C ) :   1.3849 B( 13-C , 19-C ) :   1.3469
B( 14-C , 15-C ) :   1.3974 B( 14-C , 31-H ) :   0.9583 B( 15-C , 16-C ) :   1.3614
B( 15-C , 32-H ) :   0.9700 B( 16-C , 17-C ) :   1.3309 B( 16-C , 33-H ) :   0.9846
B( 17-C , 18-O ) :   1.1117 B( 17-C , 19-C ) :   1.3697 B( 18-O , 34-H ) :   0.9800
B( 19-C , 35-H ) :   0.9595

MP2 TOTAL ENERGY:    -1274.331699588 Eh
FINAL SINGLE POINT ENERGY     -1274.331699588428

DIPOLE MOMENT
-------------
                                X             Y             Z
Electronic contribution:      9.48112       7.76514       6.30730
Nuclear contribution   :    -11.05176      -8.76916      -6.86555
                        -----------------------------------------
Total Dipole Moment    :     -1.57063      -1.00402      -0.55825
                        -----------------------------------------
Magnitude (a.u.)       :      1.94592
Magnitude (Debye)      :      4.94613

Rotational constants in cm-1:     0.011369     0.009861     0.006667
Rotational constants in MHz :   340.843901   295.633484   199.869573

                             ****ORCA TERMINATED NORMALLY****
TOTAL RUN TIME: 0 days 2 hours 50 minutes 50 seconds 44 msec
