                         Program Version 5.0.0 -  RELEASE  -
|  1> ! ri-mp2 cc-pvtz cc-pvtz/c TightSCF NoKeepInts
|  2>
|  3> %scf
|  4>   MaxCore 4096
|  5> end
|  6> *xyz  0  1
|  7>     C       14.4984364   16.0066474   16.4528889
|  8>     C       15.5275027   15.1420868   17.2030862
|  9>     O       16.7195853   14.9607119   16.4082961
| 10>     C       17.8556593   15.7318691   16.4580327
| 11>     O       18.9117397   15.2642499   16.0758547
| 12>     C       17.8476531   16.8718159   17.4172091
| 13>     C       17.3467857   18.0789514   17.0737309
| 14>     C       16.7629794   18.4671130   15.7323683
| 15>     N       17.4559229   19.1548287   17.9568097
| 16>     C       18.1326191   19.1191470   19.1484180
| 17>     S       18.2424780   20.4488241   20.1250385
| 18>     N       18.7177313   17.9247384   19.4921287
| 19>     C       18.6142261   16.6662386   18.7256582
| 20>     C       18.0235018   15.5350394   19.5634560
| 21>     C       18.4745235   14.2160639   19.3711366
| 22>     C       17.9297812   13.1558293   20.1140289
| 23>     C       16.9236770   13.4143991   21.0599273
| 24>     C       16.4688277   14.7252855   21.2541010
| 25>     O       15.4884806   14.9768861   22.1572304
| 26>     C       17.0110587   15.7793594   20.5116296
| 27>     H       14.6608100   17.0712266   16.6411579
| 28>     H       13.4856824   15.7689464   16.8010941
| 29>     H       14.5369602   15.8189599   15.3723302
| 30>     H       15.7361265   15.5589645   18.1937475
| 31>     H       15.0813734   14.1512307   17.3592598
| 32>     H       16.5451457   17.5972723   15.1010845
| 33>     H       17.4712506   19.0948414   15.1765045
| 34>     H       15.8312262   19.0342712   15.8478979
| 35>     H       17.0598747   20.0482893   17.7099115
| 36>     H       19.2013564   17.9269784   20.3815194
| 37>     H       19.6374083   16.3677962   18.4521801
| 38>     H       19.2439616   14.0099655   18.6293322
| 39>     H       18.2860246   12.1398177   19.9511953
| 40>     H       16.4994044   12.5975735   21.6346617
| 41>     H       15.2836977   14.1422613   22.6056924
| 42>     H       16.6335280   16.7835205   20.6754013
| 43> *
| 44>
| 45>                          ****END OF INPUT****

CARTESIAN COORDINATES (ANGSTROEM)
---------------------------------
  C     14.498436   16.006647   16.452889
  C     15.527503   15.142087   17.203086
  O     16.719585   14.960712   16.408296
  C     17.855659   15.731869   16.458033
  O     18.911740   15.264250   16.075855
  C     17.847653   16.871816   17.417209
  C     17.346786   18.078951   17.073731
  C     16.762979   18.467113   15.732368
  N     17.455923   19.154829   17.956810
  C     18.132619   19.119147   19.148418
  S     18.242478   20.448824   20.125038
  N     18.717731   17.924738   19.492129
  C     18.614226   16.666239   18.725658
  C     18.023502   15.535039   19.563456
  C     18.474524   14.216064   19.371137
  C     17.929781   13.155829   20.114029
  C     16.923677   13.414399   21.059927
  C     16.468828   14.725285   21.254101
  O     15.488481   14.976886   22.157230
  C     17.011059   15.779359   20.511630
  H     14.660810   17.071227   16.641158
  H     13.485682   15.768946   16.801094
  H     14.536960   15.818960   15.372330
  H     15.736126   15.558965   18.193748
  H     15.081373   14.151231   17.359260
  H     16.545146   17.597272   15.101085
  H     17.471251   19.094841   15.176505
  H     15.831226   19.034271   15.847898
  H     17.059875   20.048289   17.709912
  H     19.201356   17.926978   20.381519
  H     19.637408   16.367796   18.452180
  H     19.243962   14.009965   18.629332
  H     18.286025   12.139818   19.951195
  H     16.499404   12.597573   21.634662
  H     15.283698   14.142261   22.605692
  H     16.633528   16.783521   20.675401

 Total Charge           Charge          ....    0
 Multiplicity           Mult            ....    1
 Number of Electrons    NEL             ....  154
 Basis Dimension        Dim             ....  828

ORBITAL ENERGIES
----------------

  NO   OCC          E(Eh)            E(eV)
   0   2.0000     -91.889880     -2500.4508
   1   2.0000     -20.601646      -560.5993
   2   2.0000     -20.599307      -560.5356
   3   2.0000     -20.551854      -559.2444
   4   2.0000     -15.625326      -425.1867
   5   2.0000     -15.612547      -424.8390
   6   2.0000     -11.398730      -310.1752
   7   2.0000     -11.386906      -309.8535
   8   2.0000     -11.326663      -308.2142
   9   2.0000     -11.319141      -308.0095
  10   2.0000     -11.318159      -307.9828
  11   2.0000     -11.302250      -307.5499
  12   2.0000     -11.267214      -306.5965
  13   2.0000     -11.266923      -306.5886
  14   2.0000     -11.264998      -306.5362
  15   2.0000     -11.259465      -306.3856
  16   2.0000     -11.248062      -306.0753
  17   2.0000     -11.244025      -305.9655
  18   2.0000     -11.241304      -305.8914
  19   2.0000     -11.235291      -305.7278
  20   2.0000      -8.895002      -242.0453
  21   2.0000      -6.576594      -178.9582
  22   2.0000      -6.574564      -178.9030
  23   2.0000      -6.573992      -178.8874
  24   2.0000      -1.447146       -39.3788
  25   2.0000      -1.421453       -38.6797
  26   2.0000      -1.359142       -36.9841
  27   2.0000      -1.339635       -36.4533
  28   2.0000      -1.240236       -33.7485
  29   2.0000      -1.163243       -31.6534
  30   2.0000      -1.126274       -30.6475
  31   2.0000      -1.050278       -28.5795
  32   2.0000      -1.040150       -28.3039
  33   2.0000      -1.021221       -27.7888
  34   2.0000      -1.005288       -27.3553
  35   2.0000      -0.990348       -26.9487
  36   2.0000      -0.928734       -25.2721
  37   2.0000      -0.893589       -24.3158
  38   2.0000      -0.853207       -23.2169
  39   2.0000      -0.842374       -22.9222
  40   2.0000      -0.838398       -22.8140
  41   2.0000      -0.836188       -22.7538
  42   2.0000      -0.755217       -20.5505
  43   2.0000      -0.735083       -20.0026
  44   2.0000      -0.731742       -19.9117
  45   2.0000      -0.699058       -19.0223
  46   2.0000      -0.690656       -18.7937
  47   2.0000      -0.679933       -18.5019
  48   2.0000      -0.677298       -18.4302
  49   2.0000      -0.666497       -18.1363
  50   2.0000      -0.654771       -17.8172
  51   2.0000      -0.639690       -17.4068
  52   2.0000      -0.633572       -17.2404
  53   2.0000      -0.624080       -16.9821
  54   2.0000      -0.611234       -16.6325
  55   2.0000      -0.608310       -16.5530
  56   2.0000      -0.604916       -16.4606
  57   2.0000      -0.587445       -15.9852
  58   2.0000      -0.579082       -15.7576
  59   2.0000      -0.574552       -15.6344
  60   2.0000      -0.567699       -15.4479
  61   2.0000      -0.559254       -15.2181
  62   2.0000      -0.539742       -14.6871
  63   2.0000      -0.537361       -14.6223
  64   2.0000      -0.523859       -14.2549
  65   2.0000      -0.515856       -14.0371
  66   2.0000      -0.503854       -13.7106
  67   2.0000      -0.498879       -13.5752
  68   2.0000      -0.488734       -13.2991
  69   2.0000      -0.470606       -12.8059
  70   2.0000      -0.452362       -12.3094
  71   2.0000      -0.450165       -12.2496
  72   2.0000      -0.357225        -9.7206
  73   2.0000      -0.352759        -9.5990
  74   2.0000      -0.329693        -8.9714
  75   2.0000      -0.326808        -8.8929
  76   2.0000      -0.319238        -8.6869
  77   0.0000       0.091864         2.4998
  78   0.0000       0.103278         2.8103
  79   0.0000       0.115773         3.1504
  80   0.0000       0.126126         3.4321
  81   0.0000       0.128326         3.4919

MULLIKEN ATOMIC CHARGES
-----------------------
   0 C :   -0.318199
   1 C :    0.037182
   2 O :   -0.319701
   3 C :    0.389351
   4 O :   -0.377528
   5 C :   -0.179411
   6 C :    0.133780
   7 C :   -0.333812
   8 N :   -0.139499
   9 C :    0.211675
  10 S :   -0.442891
  11 N :   -0.231339
  12 C :    0.094871
  13 C :    0.001336
  14 C :   -0.201905
  15 C :   -0.133747
  16 C :   -0.272999
  17 C :    0.317371
  18 O :   -0.355442
  19 C :   -0.269981
  20 H :    0.092575
  21 H :    0.114808
  22 H :    0.113621
  23 H :    0.101715
  24 H :    0.122863
  25 H :    0.121321
  26 H :    0.152022
  27 H :    0.114409
  28 H :    0.195496
  29 H :    0.204024
  30 H :    0.165140
  31 H :    0.169726
  32 H :    0.165266
  33 H :    0.133479
  34 H :    0.241698
  35 H :    0.182727
Sum of atomic charges:   -0.0000000

LOEWDIN ATOMIC CHARGES
----------------------
   0 C :    0.103359
   1 C :   -0.016670
   2 O :    0.304453
   3 C :   -0.418048
   4 O :    0.125443
   5 C :   -0.079596
   6 C :   -0.107171
   7 C :    0.123277
   8 N :    0.401332
   9 C :   -0.454898
  10 S :   -0.038917
  11 N :    0.397467
  12 C :   -0.043099
  13 C :   -0.043866
  14 C :    0.022367
  15 C :    0.046768
  16 C :    0.000015
  17 C :   -0.193416
  18 O :    0.395894
  19 C :    0.024595
  20 H :   -0.034511
  21 H :   -0.022473
  22 H :   -0.024615
  23 H :   -0.036295
  24 H :   -0.020126
  25 H :   -0.010100
  26 H :   -0.007891
  27 H :   -0.018167
  28 H :   -0.058314
  29 H :   -0.064052
  30 H :   -0.002458
  31 H :   -0.021163
  32 H :   -0.017574
  33 H :   -0.034249
  34 H :   -0.152546
  35 H :   -0.024753

  Mayer bond orders larger than 0.100000
B(  0-C ,  1-C ) :   0.9590 B(  0-C , 20-H ) :   0.9771 B(  0-C , 21-H ) :   0.9805
B(  0-C , 22-H ) :   0.9738 B(  1-C ,  2-O ) :   0.8944 B(  1-C , 23-H ) :   0.9585
B(  1-C , 24-H ) :   0.9859 B(  2-O ,  3-C ) :   1.1808 B(  3-C ,  4-O ) :   2.0985
B(  3-C ,  5-C ) :   0.9019 B(  5-C ,  6-C ) :   1.7027 B(  5-C , 12-C ) :   0.9486
B(  6-C ,  7-C ) :   0.9521 B(  6-C ,  8-N ) :   1.1066 B(  7-C , 25-H ) :   0.9799
B(  7-C , 26-H ) :   0.9634 B(  7-C , 27-H ) :   0.9714 B(  8-N ,  9-C ) :   1.2039
B(  8-N , 28-H ) :   0.9524 B(  9-C , 10-S ) :   1.6063 B(  9-C , 11-N ) :   1.2845
B( 11-N , 12-C ) :   0.9904 B( 11-N , 29-H ) :   0.9455 B( 12-C , 13-C ) :   0.9551
B( 12-C , 30-H ) :   0.9966 B( 13-C , 14-C ) :   1.3903 B( 13-C , 19-C ) :   1.3334
B( 14-C , 15-C ) :   1.4006 B( 14-C , 31-H ) :   0.9617 B( 15-C , 16-C ) :   1.3603
B( 15-C , 32-H ) :   0.9692 B( 16-C , 17-C ) :   1.3308 B( 16-C , 33-H ) :   0.9841
B( 17-C , 18-O ) :   1.1103 B( 17-C , 19-C ) :   1.3659 B( 18-O , 34-H ) :   0.9790
B( 19-C , 35-H ) :   0.9577

MP2 TOTAL ENERGY:    -1274.327534864 Eh
FINAL SINGLE POINT ENERGY     -1274.327534864078

DIPOLE MOMENT
-------------
                                X             Y             Z
Electronic contribution:     10.38855       5.07330       7.60214
Nuclear contribution   :    -11.87934      -6.29000      -7.87016
                        -----------------------------------------
Total Dipole Moment    :     -1.49079      -1.21670      -0.26802
                        -----------------------------------------
Magnitude (a.u.)       :      1.94284
Magnitude (Debye)      :      4.93831

Rotational constants in cm-1:     0.011810     0.009228     0.006729
Rotational constants in MHz :   354.055881   276.663272   201.739704

                             ****ORCA TERMINATED NORMALLY****
TOTAL RUN TIME: 0 days 2 hours 7 minutes 41 seconds 319 msec
