                         Program Version 4.2.0 -  RELEASE  -
|  1> ! ri-mp2 cc-pvtz cc-pvtz/c TightSCF  NoKeepInts
|  2>
|  3> %scf
|  4>   MaxCore 4096
|  5> end
|  6> *xyz  0  1
|  7>     C       14.8888680   14.5983698   17.3935056
|  8>     C       15.5659808   15.5528141   16.3964214
|  9>     O       16.9034869   15.0595337   16.1814788
| 10>     C       18.0832237   15.7087905   16.4576589
| 11>     O       19.1217395   15.0794144   16.3771966
| 12>     C       18.0055877   16.8885036   17.3707683
| 13>     C       17.5282772   18.0867308   16.9606756
| 14>     C       16.9959330   18.4319622   15.5854835
| 15>     N       17.5790971   19.1880170   17.8176272
| 16>     C       18.2161452   19.1999546   19.0312450
| 17>     S       18.3013200   20.5699602   19.9530747
| 18>     N       18.7809163   18.0174733   19.4428306
| 19>     C       18.6493147   16.7209145   18.7472438
| 20>     C       17.8835001   15.7062919   19.5913005
| 21>     C       18.2848075   14.3577747   19.6009077
| 22>     C       17.5892002   13.4079101   20.3671822
| 23>     C       16.4804892   13.8082404   21.1319415
| 24>     C       16.0724709   15.1487853   21.1206317
| 25>     O       14.9932038   15.5356261   21.8458596
| 26>     C       16.7643374   16.0920907   20.3538270
| 27>     H       15.4460037   14.5598144   18.3357174
| 28>     H       14.8440314   13.5817014   16.9834601
| 29>     H       13.8657763   14.9269527   17.6123722
| 30>     H       15.0116156   15.5502275   15.4490127
| 31>     H       15.5335270   16.5627656   16.8126774
| 32>     H       17.1260270   17.6130917   14.8674396
| 33>     H       17.5260269   19.2992510   15.1709670
| 34>     H       15.9277283   18.6784017   15.6244253
| 35>     H       17.1892203   20.0704310   17.5252130
| 36>     H       19.2311568   18.0518498   20.3488101
| 37>     H       19.6644854   16.3265050   18.5910204
| 38>     H       19.1350622   14.0424379   18.9992836
| 39>     H       17.9089252   12.3671908   20.3617389
| 40>     H       15.9398118   13.0770394   21.7237526
| 41>     H       14.6849790   14.7627553   22.3428575
| 42>     H       16.4247239   17.1224273   20.3583919
| 43> *
| 44>
| 45>                          ****END OF INPUT****

CARTESIAN COORDINATES (ANGSTROEM)
---------------------------------
  C     14.888868   14.598370   17.393506
  C     15.565981   15.552814   16.396421
  O     16.903487   15.059534   16.181479
  C     18.083224   15.708790   16.457659
  O     19.121740   15.079414   16.377197
  C     18.005588   16.888504   17.370768
  C     17.528277   18.086731   16.960676
  C     16.995933   18.431962   15.585483
  N     17.579097   19.188017   17.817627
  C     18.216145   19.199955   19.031245
  S     18.301320   20.569960   19.953075
  N     18.780916   18.017473   19.442831
  C     18.649315   16.720914   18.747244
  C     17.883500   15.706292   19.591300
  C     18.284807   14.357775   19.600908
  C     17.589200   13.407910   20.367182
  C     16.480489   13.808240   21.131941
  C     16.072471   15.148785   21.120632
  O     14.993204   15.535626   21.845860
  C     16.764337   16.092091   20.353827
  H     15.446004   14.559814   18.335717
  H     14.844031   13.581701   16.983460
  H     13.865776   14.926953   17.612372
  H     15.011616   15.550227   15.449013
  H     15.533527   16.562766   16.812677
  H     17.126027   17.613092   14.867440
  H     17.526027   19.299251   15.170967
  H     15.927728   18.678402   15.624425
  H     17.189220   20.070431   17.525213
  H     19.231157   18.051850   20.348810
  H     19.664485   16.326505   18.591020
  H     19.135062   14.042438   18.999284
  H     17.908925   12.367191   20.361739
  H     15.939812   13.077039   21.723753
  H     14.684979   14.762755   22.342858
  H     16.424724   17.122427   20.358392

 Total Charge           Charge          ....    0
 Multiplicity           Mult            ....    1
 Number of Electrons    NEL             ....  154
 Basis Dimension        Dim             ....  828

ORBITAL ENERGIES
----------------

  NO   OCC          E(Eh)            E(eV)
   0   2.0000     -91.890245     -2500.4607
   1   2.0000     -20.602524      -560.6232
   2   2.0000     -20.599129      -560.5308
   3   2.0000     -20.549754      -559.1872
   4   2.0000     -15.627244      -425.2389
   5   2.0000     -15.611777      -424.8181
   6   2.0000     -11.399320      -310.1913
   7   2.0000     -11.386964      -309.8550
   8   2.0000     -11.329750      -308.2982
   9   2.0000     -11.316193      -307.9293
  10   2.0000     -11.315396      -307.9076
  11   2.0000     -11.304500      -307.6111
  12   2.0000     -11.271530      -306.7139
  13   2.0000     -11.266727      -306.5832
  14   2.0000     -11.263687      -306.5005
  15   2.0000     -11.256580      -306.3071
  16   2.0000     -11.245465      -306.0047
  17   2.0000     -11.241589      -305.8992
  18   2.0000     -11.238558      -305.8167
  19   2.0000     -11.225907      -305.4725
  20   2.0000      -8.895355      -242.0549
  21   2.0000      -6.576944      -178.9677
  22   2.0000      -6.574917      -178.9126
  23   2.0000      -6.574342      -178.8969
  24   2.0000      -1.448575       -39.4177
  25   2.0000      -1.418932       -38.6111
  26   2.0000      -1.359169       -36.9849
  27   2.0000      -1.340770       -36.4842
  28   2.0000      -1.240330       -33.7511
  29   2.0000      -1.160929       -31.5905
  30   2.0000      -1.126252       -30.6469
  31   2.0000      -1.049225       -28.5509
  32   2.0000      -1.038459       -28.2579
  33   2.0000      -1.018721       -27.7208
  34   2.0000      -1.005765       -27.3683
  35   2.0000      -0.989892       -26.9363
  36   2.0000      -0.928272       -25.2596
  37   2.0000      -0.885230       -24.0883
  38   2.0000      -0.855255       -23.2727
  39   2.0000      -0.841864       -22.9083
  40   2.0000      -0.836385       -22.7592
  41   2.0000      -0.834841       -22.7172
  42   2.0000      -0.756065       -20.5736
  43   2.0000      -0.740452       -20.1487
  44   2.0000      -0.731183       -19.8965
  45   2.0000      -0.697252       -18.9732
  46   2.0000      -0.689217       -18.7545
  47   2.0000      -0.682445       -18.5703
  48   2.0000      -0.676520       -18.4090
  49   2.0000      -0.662471       -18.0267
  50   2.0000      -0.654520       -17.8104
  51   2.0000      -0.642466       -17.4824
  52   2.0000      -0.639205       -17.3937
  53   2.0000      -0.615628       -16.7521
  54   2.0000      -0.610217       -16.6048
  55   2.0000      -0.607385       -16.5278
  56   2.0000      -0.602367       -16.3912
  57   2.0000      -0.587442       -15.9851
  58   2.0000      -0.578156       -15.7324
  59   2.0000      -0.568410       -15.4672
  60   2.0000      -0.562266       -15.3000
  61   2.0000      -0.556496       -15.1430
  62   2.0000      -0.542989       -14.7755
  63   2.0000      -0.532719       -14.4960
  64   2.0000      -0.519086       -14.1251
  65   2.0000      -0.513460       -13.9720
  66   2.0000      -0.503808       -13.7093
  67   2.0000      -0.501919       -13.6579
  68   2.0000      -0.485696       -13.2165
  69   2.0000      -0.470358       -12.7991
  70   2.0000      -0.452625       -12.3166
  71   2.0000      -0.449359       -12.2277
  72   2.0000      -0.358059        -9.7433
  73   2.0000      -0.351709        -9.5705
  74   2.0000      -0.329896        -8.9769
  75   2.0000      -0.324341        -8.8258
  76   2.0000      -0.318814        -8.6754
  77   0.0000       0.086650         2.3579
  78   0.0000       0.105520         2.8713
  79   0.0000       0.109802         2.9879
  80   0.0000       0.128839         3.5059
  81   0.0000       0.131161         3.5691

MULLIKEN ATOMIC CHARGES
-----------------------
   0 C :   -0.262764
   1 C :    0.017217
   2 O :   -0.311317
   3 C :    0.396107
   4 O :   -0.382746
   5 C :   -0.171244
   6 C :    0.123631
   7 C :   -0.321951
   8 N :   -0.136139
   9 C :    0.203770
  10 S :   -0.440608
  11 N :   -0.219763
  12 C :    0.065164
  13 C :    0.008915
  14 C :   -0.195684
  15 C :   -0.135280
  16 C :   -0.270233
  17 C :    0.303548
  18 O :   -0.359794
  19 C :   -0.246750
  20 H :    0.109881
  21 H :    0.104748
  22 H :    0.088977
  23 H :    0.111174
  24 H :    0.089137
  25 H :    0.122762
  26 H :    0.139594
  27 H :    0.121825
  28 H :    0.196185
  29 H :    0.200448
  30 H :    0.167697
  31 H :    0.170968
  32 H :    0.163363
  33 H :    0.132100
  34 H :    0.241288
  35 H :    0.175774
Sum of atomic charges:   -0.0000000

LOEWDIN ATOMIC CHARGES
----------------------
   0 C :    0.110186
   1 C :   -0.022186
   2 O :    0.313777
   3 C :   -0.418045
   4 O :    0.123470
   5 C :   -0.080474
   6 C :   -0.106676
   7 C :    0.124093
   8 N :    0.401181
   9 C :   -0.456675
  10 S :   -0.037718
  11 N :    0.397874
  12 C :   -0.043079
  13 C :   -0.043380
  14 C :    0.021790
  15 C :    0.045348
  16 C :   -0.001214
  17 C :   -0.193647
  18 O :    0.395847
  19 C :    0.025637
  20 H :   -0.024106
  21 H :   -0.025383
  22 H :   -0.026905
  23 H :   -0.029667
  24 H :   -0.040309
  25 H :   -0.008527
  26 H :   -0.009146
  27 H :   -0.016723
  28 H :   -0.057940
  29 H :   -0.063488
  30 H :   -0.001740
  31 H :   -0.021500
  32 H :   -0.018333
  33 H :   -0.034823
  34 H :   -0.153078
  35 H :   -0.024444

  Mayer bond orders larger than 0.100000
B(  0-C ,  1-C ) :   0.9780 B(  0-C , 20-H ) :   0.9697 B(  0-C , 21-H ) :   0.9817
B(  0-C , 22-H ) :   0.9753 B(  1-C ,  2-O ) :   0.9134 B(  1-C , 23-H ) :   0.9807
B(  1-C , 24-H ) :   0.9616 B(  2-O ,  3-C ) :   1.1708 B(  3-C ,  4-O ) :   2.0857
B(  3-C ,  5-C ) :   0.9224 B(  5-C ,  6-C ) :   1.6945 B(  5-C , 12-C ) :   0.9581
B(  6-C ,  7-C ) :   0.9476 B(  6-C ,  8-N ) :   1.1088 B(  7-C , 25-H ) :   0.9804
B(  7-C , 26-H ) :   0.9703 B(  7-C , 27-H ) :   0.9660 B(  8-N ,  9-C ) :   1.1956
B(  8-N , 28-H ) :   0.9522 B(  9-C , 10-S ) :   1.6104 B(  9-C , 11-N ) :   1.2877
B( 11-N , 12-C ) :   0.9908 B( 11-N , 29-H ) :   0.9482 B( 12-C , 13-C ) :   0.9473
B( 12-C , 30-H ) :   0.9957 B( 13-C , 14-C ) :   1.3901 B( 13-C , 19-C ) :   1.3533
B( 14-C , 15-C ) :   1.3973 B( 14-C , 31-H ) :   0.9600 B( 15-C , 16-C ) :   1.3587
B( 15-C , 32-H ) :   0.9707 B( 16-C , 17-C ) :   1.3327 B( 16-C , 33-H ) :   0.9852
B( 17-C , 18-O ) :   1.1097 B( 17-C , 19-C ) :   1.3686 B( 18-O , 34-H ) :   0.9793
B( 19-C , 35-H ) :   0.9561

MP2 TOTAL ENERGY:    -1274.330697075 Eh
FINAL SINGLE POINT ENERGY     -1274.330697075043

DIPOLE MOMENT
-------------
                                X             Y             Z
Electronic contribution:      9.97906       7.84457       6.18104
Nuclear contribution   :    -11.54153      -8.80550      -6.76084
                        -----------------------------------------
Total Dipole Moment    :     -1.56247      -0.96093      -0.57980
                        -----------------------------------------
Magnitude (a.u.)       :      1.92376
Magnitude (Debye)      :      4.88981

Rotational constants in cm-1:     0.012106     0.009301     0.006776
Rotational constants in MHz :   362.919107   278.841477   203.138969

                             ****ORCA TERMINATED NORMALLY****
TOTAL RUN TIME: 0 days 1 hours 52 minutes 2 seconds 930 msec
