                         Program Version 5.0.0 -  RELEASE  -
|  1> ! ri-mp2 cc-pvtz cc-pvtz/c TightSCF NoKeepInts
|  2>
|  3> %scf
|  4>   MaxCore 4096
|  5> end
|  6> *xyz  0  1
|  7>     C       14.5735349   14.3478961   15.7213346
|  8>     C       15.6070538   14.7807813   16.7741127
|  9>     O       16.5955556   15.5805861   16.1034919
| 10>     C       17.8388985   15.6317326   16.6581137
| 11>     O       18.4461354   14.6070719   16.9194826
| 12>     C       18.0289523   16.8760719   17.4702024
| 13>     C       17.5519112   18.0917447   17.1042103
| 14>     C       16.8016830   18.4380784   15.8351388
| 15>     N       17.8039924   19.2079161   17.9073924
| 16>     C       18.6219435   19.2107251   19.0070138
| 17>     S       18.9515360   20.5990319   19.8431528
| 18>     N       19.1529992   18.0011383   19.3801783
| 19>     C       18.7997578   16.6998437   18.7810282
| 20>     C       17.9924964   15.8570966   19.7647760
| 21>     C       18.4175759   14.5613093   20.1108090
| 22>     C       17.6669416   13.7749206   21.0007330
| 23>     C       16.4790070   14.2872055   21.5494028
| 24>     C       16.0497247   15.5756530   21.2039147
| 25>     O       14.8974752   16.0694555   21.7228693
| 26>     C       16.7986412   16.3557889   20.3174958
| 27>     H       15.0550743   13.7644221   14.9265039
| 28>     H       14.0929194   15.2230252   15.2669753
| 29>     H       13.7949182   13.7261377   16.1796446
| 30>     H       15.1299122   15.3546155   17.5795995
| 31>     H       16.0613164   13.8807776   17.2120047
| 32>     H       17.2280173   17.9138488   14.9705855
| 33>     H       16.8364135   19.5105033   15.6075979
| 34>     H       15.7474148   18.1454717   15.9165790
| 35>     H       17.4244465   20.1050242   17.6494835
| 36>     H       19.7286251   18.0274281   20.2120900
| 37>     H       19.7354464   16.1688184   18.5533325
| 38>     H       19.3254511   14.1550501   19.6712878
| 39>     H       18.0042333   12.7717481   21.2556737
| 40>     H       15.8951864   13.6819812   22.2349876
| 41>     H       14.5620425   15.4176271   22.3568231
| 42>     H       16.4497669   17.3514734   20.0659783
| 43> *
| 44>
| 45>                          ****END OF INPUT****

CARTESIAN COORDINATES (ANGSTROEM)
---------------------------------
  C     14.573535   14.347896   15.721335
  C     15.607054   14.780781   16.774113
  O     16.595556   15.580586   16.103492
  C     17.838898   15.631733   16.658114
  O     18.446135   14.607072   16.919483
  C     18.028952   16.876072   17.470202
  C     17.551911   18.091745   17.104210
  C     16.801683   18.438078   15.835139
  N     17.803992   19.207916   17.907392
  C     18.621944   19.210725   19.007014
  S     18.951536   20.599032   19.843153
  N     19.152999   18.001138   19.380178
  C     18.799758   16.699844   18.781028
  C     17.992496   15.857097   19.764776
  C     18.417576   14.561309   20.110809
  C     17.666942   13.774921   21.000733
  C     16.479007   14.287206   21.549403
  C     16.049725   15.575653   21.203915
  O     14.897475   16.069456   21.722869
  C     16.798641   16.355789   20.317496
  H     15.055074   13.764422   14.926504
  H     14.092919   15.223025   15.266975
  H     13.794918   13.726138   16.179645
  H     15.129912   15.354615   17.579600
  H     16.061316   13.880778   17.212005
  H     17.228017   17.913849   14.970586
  H     16.836413   19.510503   15.607598
  H     15.747415   18.145472   15.916579
  H     17.424446   20.105024   17.649483
  H     19.728625   18.027428   20.212090
  H     19.735446   16.168818   18.553332
  H     19.325451   14.155050   19.671288
  H     18.004233   12.771748   21.255674
  H     15.895186   13.681981   22.234988
  H     14.562042   15.417627   22.356823
  H     16.449767   17.351473   20.065978

 Total Charge           Charge          ....    0
 Multiplicity           Mult            ....    1
 Number of Electrons    NEL             ....  154
 Basis Dimension        Dim             ....  828

ORBITAL ENERGIES
----------------

  NO   OCC          E(Eh)            E(eV)
   0   2.0000     -91.888927     -2500.4248
   1   2.0000     -20.596238      -560.4521
   2   2.0000     -20.584871      -560.1428
   3   2.0000     -20.555784      -559.3513
   4   2.0000     -15.628539      -425.2742
   5   2.0000     -15.608457      -424.7277
   6   2.0000     -11.394255      -310.0534
   7   2.0000     -11.384467      -309.7871
   8   2.0000     -11.333232      -308.3929
   9   2.0000     -11.312289      -307.8230
  10   2.0000     -11.308738      -307.7264
  11   2.0000     -11.297806      -307.4289
  12   2.0000     -11.260636      -306.4175
  13   2.0000     -11.259449      -306.3852
  14   2.0000     -11.257762      -306.3393
  15   2.0000     -11.252382      -306.1929
  16   2.0000     -11.242013      -305.9107
  17   2.0000     -11.237896      -305.7987
  18   2.0000     -11.235167      -305.7244
  19   2.0000     -11.229889      -305.5808
  20   2.0000      -8.894006      -242.0182
  21   2.0000      -6.575584      -178.9307
  22   2.0000      -6.573574      -178.8760
  23   2.0000      -6.572990      -178.8602
  24   2.0000      -1.453296       -39.5462
  25   2.0000      -1.416011       -38.5316
  26   2.0000      -1.357179       -36.9307
  27   2.0000      -1.339643       -36.4535
  28   2.0000      -1.237947       -33.6862
  29   2.0000      -1.156414       -31.4676
  30   2.0000      -1.121478       -30.5170
  31   2.0000      -1.044967       -28.4350
  32   2.0000      -1.034953       -28.1625
  33   2.0000      -1.013872       -27.5889
  34   2.0000      -0.999392       -27.1948
  35   2.0000      -0.984830       -26.7986
  36   2.0000      -0.923454       -25.1285
  37   2.0000      -0.880528       -23.9604
  38   2.0000      -0.848673       -23.0936
  39   2.0000      -0.838902       -22.8277
  40   2.0000      -0.832454       -22.6522
  41   2.0000      -0.826806       -22.4985
  42   2.0000      -0.757319       -20.6077
  43   2.0000      -0.735856       -20.0237
  44   2.0000      -0.728494       -19.8233
  45   2.0000      -0.694144       -18.8886
  46   2.0000      -0.686455       -18.6794
  47   2.0000      -0.681268       -18.5383
  48   2.0000      -0.674579       -18.3562
  49   2.0000      -0.657721       -17.8975
  50   2.0000      -0.648606       -17.6495
  51   2.0000      -0.641147       -17.4465
  52   2.0000      -0.628136       -17.0925
  53   2.0000      -0.623827       -16.9752
  54   2.0000      -0.604724       -16.4554
  55   2.0000      -0.603162       -16.4129
  56   2.0000      -0.599648       -16.3172
  57   2.0000      -0.578778       -15.7493
  58   2.0000      -0.576250       -15.6806
  59   2.0000      -0.563757       -15.3406
  60   2.0000      -0.558931       -15.2093
  61   2.0000      -0.548923       -14.9370
  62   2.0000      -0.534123       -14.5342
  63   2.0000      -0.521690       -14.1959
  64   2.0000      -0.519743       -14.1429
  65   2.0000      -0.512141       -13.9361
  66   2.0000      -0.502835       -13.6828
  67   2.0000      -0.497655       -13.5419
  68   2.0000      -0.482729       -13.1357
  69   2.0000      -0.465078       -12.6554
  70   2.0000      -0.459939       -12.5156
  71   2.0000      -0.451416       -12.2836
  72   2.0000      -0.354358        -9.6426
  73   2.0000      -0.348066        -9.4713
  74   2.0000      -0.328259        -8.9324
  75   2.0000      -0.319433        -8.6922
  76   2.0000      -0.315854        -8.5948
  77   0.0000       0.070711         1.9241
  78   0.0000       0.104311         2.8384
  79   0.0000       0.118202         3.2164
  80   0.0000       0.132006         3.5921
  81   0.0000       0.135188         3.6787

MULLIKEN ATOMIC CHARGES
-----------------------
   0 C :   -0.257946
   1 C :    0.033988
   2 O :   -0.374240
   3 C :    0.465418
   4 O :   -0.398231
   5 C :   -0.209499
   6 C :    0.140224
   7 C :   -0.281245
   8 N :   -0.124910
   9 C :    0.203494
  10 S :   -0.439652
  11 N :   -0.201383
  12 C :    0.055008
  13 C :    0.050963
  14 C :   -0.162200
  15 C :   -0.133330
  16 C :   -0.280035
  17 C :    0.316498
  18 O :   -0.359731
  19 C :   -0.291653
  20 H :    0.102445
  21 H :    0.089978
  22 H :    0.088831
  23 H :    0.094306
  24 H :    0.113757
  25 H :    0.124282
  26 H :    0.105309
  27 H :    0.124436
  28 H :    0.197182
  29 H :    0.194309
  30 H :    0.155001
  31 H :    0.156532
  32 H :    0.161087
  33 H :    0.130536
  34 H :    0.241085
  35 H :    0.169387
Sum of atomic charges:   -0.0000000

LOEWDIN ATOMIC CHARGES
----------------------
   0 C :    0.108664
   1 C :   -0.016535
   2 O :    0.291492
   3 C :   -0.417017
   4 O :    0.129092
   5 C :   -0.094253
   6 C :   -0.075194
   7 C :    0.126177
   8 N :    0.404044
   9 C :   -0.457314
  10 S :   -0.036264
  11 N :    0.397004
  12 C :   -0.045465
  13 C :   -0.040450
  14 C :    0.021753
  15 C :    0.041812
  16 C :   -0.002020
  17 C :   -0.194316
  18 O :    0.393270
  19 C :    0.028379
  20 H :   -0.023516
  21 H :   -0.030199
  22 H :   -0.025349
  23 H :   -0.034409
  24 H :   -0.025221
  25 H :   -0.007780
  26 H :   -0.019361
  27 H :   -0.010273
  28 H :   -0.058705
  29 H :   -0.064092
  30 H :   -0.004675
  31 H :   -0.024615
  32 H :   -0.020310
  33 H :   -0.035633
  34 H :   -0.153900
  35 H :   -0.024821

  Mayer bond orders larger than 0.100000
B(  0-C ,  1-C ) :   0.9798 B(  0-C , 20-H ) :   0.9781 B(  0-C , 21-H ) :   0.9797
B(  0-C , 22-H ) :   0.9762 B(  1-C ,  2-O ) :   0.8843 B(  1-C , 23-H ) :   0.9705
B(  1-C , 24-H ) :   0.9732 B(  2-O ,  3-C ) :   1.0954 B(  3-C ,  4-O ) :   2.0331
B(  3-C ,  5-C ) :   1.0203 B(  5-C ,  6-C ) :   1.6680 B(  5-C , 12-C ) :   0.9645
B(  6-C ,  7-C ) :   0.9519 B(  6-C ,  8-N ) :   1.1392 B(  7-C , 25-H ) :   0.9709
B(  7-C , 26-H ) :   0.9875 B(  7-C , 27-H ) :   0.9635 B(  8-N ,  9-C ) :   1.1843
B(  8-N , 28-H ) :   0.9498 B(  9-C , 10-S ) :   1.6109 B(  9-C , 11-N ) :   1.2997
B( 11-N , 12-C ) :   0.9931 B( 11-N , 29-H ) :   0.9517 B( 12-C , 13-C ) :   0.9444
B( 12-C , 30-H ) :   0.9985 B( 13-C , 14-C ) :   1.3775 B( 13-C , 19-C ) :   1.3625
B( 14-C , 15-C ) :   1.3938 B( 14-C , 31-H ) :   0.9638 B( 15-C , 16-C ) :   1.3642
B( 15-C , 32-H ) :   0.9707 B( 16-C , 17-C ) :   1.3312 B( 16-C , 33-H ) :   0.9849
B( 17-C , 18-O ) :   1.1087 B( 17-C , 19-C ) :   1.3717 B( 18-O , 34-H ) :   0.9798
B( 19-C , 35-H ) :   0.9585

MP2 TOTAL ENERGY:    -1274.324877085 Eh
FINAL SINGLE POINT ENERGY     -1274.324877084721

DIPOLE MOMENT
-------------
                                X             Y             Z
Electronic contribution:     11.31267       9.77905       8.36486
Nuclear contribution   :    -12.66693     -11.04562      -8.88985
                        -----------------------------------------
Total Dipole Moment    :     -1.35426      -1.26657      -0.52499
                        -----------------------------------------
Magnitude (a.u.)       :      1.92713
Magnitude (Debye)      :      4.89838

Rotational constants in cm-1:     0.011347     0.009093     0.006441
Rotational constants in MHz :   340.167403   272.595789   193.088709

                             ****ORCA TERMINATED NORMALLY****
TOTAL RUN TIME: 0 days 2 hours 2 minutes 13 seconds 409 msec
