                         Program Version 4.2.0 -  RELEASE  -
|  1> ! ri-mp2 cc-pvtz cc-pvtz/c TightSCF  NoKeepInts
|  2>
|  3> %scf
|  4>   MaxCore 4096
|  5> end
|  6> *xyz  0  1
|  7>     C       14.8062111   15.8957211   17.2483812
|  8>     C       15.7945571   14.8468149   16.7025437
|  9>     O       16.7858844   15.4403280   15.8356444
| 10>     C       17.9994165   15.8147783   16.3451335
| 11>     O       18.8892169   14.9851796   16.4025719
| 12>     C       17.9345991   16.9280335   17.3411046
| 13>     C       17.3191525   18.1049080   17.0752101
| 14>     C       16.6367368   18.5141920   15.7868067
| 15>     N       17.3505461   19.1344013   18.0188629
| 16>     C       18.0907295   19.1122858   19.1722558
| 17>     S       18.1491929   20.4120708   20.1927369
| 18>     N       18.7805367   17.9551915   19.4392357
| 19>     C       18.6750537   16.7038492   18.6626703
| 20>     C       18.0048079   15.6033561   19.4821167
| 21>     C       18.5361532   14.3004311   19.4869883
| 22>     C       17.9116366   13.2732405   20.2137361
| 23>     C       16.7433181   13.5491157   20.9437858
| 24>     C       16.2099063   14.8447147   20.9425137
| 25>     O       15.0753802   15.1128178   21.6362719
| 26>     C       16.8343508   15.8651460   20.2186649
| 27>     H       15.2827729   16.5819737   17.9541924
| 28>     H       13.9908125   15.3949206   17.7846394
| 29>     H       14.3624327   16.4735407   16.4293125
| 30>     H       16.2748771   14.3057526   17.5297038
| 31>     H       15.2240064   14.1117908   16.1203283
| 32>     H       15.5462396   18.4863312   15.8925268
| 33>     H       16.9077680   17.8629965   14.9472918
| 34>     H       16.9200649   19.5331870   15.4947123
| 35>     H       16.8594238   19.9953255   17.8357550
| 36>     H       19.3011194   17.9600633   20.3072522
| 37>     H       19.6967642   16.3750726   18.4220114
| 38>     H       19.4301117   14.0790961   18.9076944
| 39>     H       18.3315532   12.2687444   20.2034625
| 40>     H       16.2562373   12.7577716   21.5040508
| 41>     H       14.8337225   14.3089706   22.1209082
| 42>     H       16.4017075   16.8598867   20.2329231
| 43> *
| 44>
| 45>                          ****END OF INPUT****

CARTESIAN COORDINATES (ANGSTROEM)
---------------------------------
  C     14.806211   15.895721   17.248381
  C     15.794557   14.846815   16.702544
  O     16.785884   15.440328   15.835644
  C     17.999416   15.814778   16.345133
  O     18.889217   14.985180   16.402572
  C     17.934599   16.928034   17.341105
  C     17.319152   18.104908   17.075210
  C     16.636737   18.514192   15.786807
  N     17.350546   19.134401   18.018863
  C     18.090729   19.112286   19.172256
  S     18.149193   20.412071   20.192737
  N     18.780537   17.955192   19.439236
  C     18.675054   16.703849   18.662670
  C     18.004808   15.603356   19.482117
  C     18.536153   14.300431   19.486988
  C     17.911637   13.273240   20.213736
  C     16.743318   13.549116   20.943786
  C     16.209906   14.844715   20.942514
  O     15.075380   15.112818   21.636272
  C     16.834351   15.865146   20.218665
  H     15.282773   16.581974   17.954192
  H     13.990813   15.394921   17.784639
  H     14.362433   16.473541   16.429313
  H     16.274877   14.305753   17.529704
  H     15.224006   14.111791   16.120328
  H     15.546240   18.486331   15.892527
  H     16.907768   17.862996   14.947292
  H     16.920065   19.533187   15.494712
  H     16.859424   19.995325   17.835755
  H     19.301119   17.960063   20.307252
  H     19.696764   16.375073   18.422011
  H     19.430112   14.079096   18.907694
  H     18.331553   12.268744   20.203462
  H     16.256237   12.757772   21.504051
  H     14.833723   14.308971   22.120908
  H     16.401708   16.859887   20.232923

 Total Charge           Charge          ....    0
 Multiplicity           Mult            ....    1
 Number of Electrons    NEL             ....  154
 Basis Dimension        Dim             ....  828

ORBITAL ENERGIES
----------------

  NO   OCC          E(Eh)            E(eV)
   0   2.0000     -91.891008     -2500.4814
   1   2.0000     -20.599605      -560.5438
   2   2.0000     -20.579181      -559.9880
   3   2.0000     -20.557179      -559.3893
   4   2.0000     -15.629459      -425.2992
   5   2.0000     -15.611252      -424.8038
   6   2.0000     -11.394676      -310.0649
   7   2.0000     -11.387136      -309.8597
   8   2.0000     -11.332891      -308.3836
   9   2.0000     -11.316315      -307.9326
  10   2.0000     -11.313146      -307.8463
  11   2.0000     -11.301589      -307.5319
  12   2.0000     -11.263035      -306.4828
  13   2.0000     -11.262516      -306.4686
  14   2.0000     -11.262202      -306.4601
  15   2.0000     -11.256255      -306.2983
  16   2.0000     -11.246129      -306.0227
  17   2.0000     -11.241951      -305.9090
  18   2.0000     -11.238413      -305.8128
  19   2.0000     -11.229240      -305.5632
  20   2.0000      -8.896085      -242.0748
  21   2.0000      -6.577664      -178.9873
  22   2.0000      -6.575650      -178.9325
  23   2.0000      -6.575065      -178.9166
  24   2.0000      -1.447875       -39.3987
  25   2.0000      -1.419401       -38.6239
  26   2.0000      -1.354186       -36.8493
  27   2.0000      -1.341618       -36.5073
  28   2.0000      -1.240433       -33.7539
  29   2.0000      -1.160501       -31.5788
  30   2.0000      -1.124242       -30.5922
  31   2.0000      -1.047614       -28.5070
  32   2.0000      -1.033367       -28.1193
  33   2.0000      -1.018132       -27.7048
  34   2.0000      -1.003251       -27.2999
  35   2.0000      -0.989533       -26.9266
  36   2.0000      -0.927128       -25.2284
  37   2.0000      -0.887434       -24.1483
  38   2.0000      -0.851278       -23.1645
  39   2.0000      -0.841708       -22.9040
  40   2.0000      -0.836644       -22.7663
  41   2.0000      -0.828386       -22.5415
  42   2.0000      -0.754007       -20.5176
  43   2.0000      -0.735597       -20.0166
  44   2.0000      -0.730590       -19.8804
  45   2.0000      -0.698028       -18.9943
  46   2.0000      -0.688110       -18.7244
  47   2.0000      -0.678665       -18.4674
  48   2.0000      -0.674837       -18.3633
  49   2.0000      -0.660934       -17.9849
  50   2.0000      -0.654981       -17.8229
  51   2.0000      -0.645204       -17.5569
  52   2.0000      -0.639076       -17.3901
  53   2.0000      -0.610849       -16.6221
  54   2.0000      -0.607503       -16.5310
  55   2.0000      -0.603655       -16.4263
  56   2.0000      -0.597258       -16.2522
  57   2.0000      -0.588074       -16.0023
  58   2.0000      -0.578119       -15.7314
  59   2.0000      -0.574912       -15.6441
  60   2.0000      -0.564689       -15.3660
  61   2.0000      -0.554241       -15.0817
  62   2.0000      -0.542101       -14.7513
  63   2.0000      -0.525912       -14.3108
  64   2.0000      -0.519495       -14.1362
  65   2.0000      -0.512337       -13.9414
  66   2.0000      -0.502732       -13.6800
  67   2.0000      -0.495138       -13.4734
  68   2.0000      -0.485086       -13.1998
  69   2.0000      -0.466785       -12.7019
  70   2.0000      -0.455194       -12.3865
  71   2.0000      -0.451142       -12.2762
  72   2.0000      -0.356377        -9.6975
  73   2.0000      -0.351799        -9.5729
  74   2.0000      -0.330373        -8.9899
  75   2.0000      -0.324027        -8.8172
  76   2.0000      -0.319146        -8.6844
  77   0.0000       0.073283         1.9941
  78   0.0000       0.102004         2.7757
  79   0.0000       0.118676         3.2293
  80   0.0000       0.128034         3.4840
  81   0.0000       0.131293         3.5727

MULLIKEN ATOMIC CHARGES
-----------------------
   0 C :   -0.336552
   1 C :    0.039683
   2 O :   -0.374734
   3 C :    0.440445
   4 O :   -0.378412
   5 C :   -0.191805
   6 C :    0.123753
   7 C :   -0.302860
   8 N :   -0.127591
   9 C :    0.194864
  10 S :   -0.437062
  11 N :   -0.210499
  12 C :    0.067286
  13 C :    0.023785
  14 C :   -0.187040
  15 C :   -0.133900
  16 C :   -0.278994
  17 C :    0.320311
  18 O :   -0.358549
  19 C :   -0.285500
  20 H :    0.107021
  21 H :    0.125094
  22 H :    0.107719
  23 H :    0.104690
  24 H :    0.123560
  25 H :    0.122347
  26 H :    0.129988
  27 H :    0.126543
  28 H :    0.198344
  29 H :    0.196708
  30 H :    0.162725
  31 H :    0.167987
  32 H :    0.163856
  33 H :    0.132987
  34 H :    0.241444
  35 H :    0.182357
Sum of atomic charges:   -0.0000000

LOEWDIN ATOMIC CHARGES
----------------------
   0 C :    0.103630
   1 C :   -0.009922
   2 O :    0.274116
   3 C :   -0.419013
   4 O :    0.138249
   5 C :   -0.089915
   6 C :   -0.083493
   7 C :    0.128067
   8 N :    0.404343
   9 C :   -0.457700
  10 S :   -0.034995
  11 N :    0.397139
  12 C :   -0.044231
  13 C :   -0.044026
  14 C :    0.020275
  15 C :    0.041809
  16 C :   -0.001573
  17 C :   -0.194186
  18 O :    0.395074
  19 C :    0.029605
  20 H :   -0.037224
  21 H :   -0.021249
  22 H :   -0.031839
  23 H :   -0.026279
  24 H :   -0.021239
  25 H :   -0.015185
  26 H :   -0.008395
  27 H :   -0.013965
  28 H :   -0.056653
  29 H :   -0.063733
  30 H :   -0.003234
  31 H :   -0.022684
  32 H :   -0.019030
  33 H :   -0.034648
  34 H :   -0.153125
  35 H :   -0.024771

  Mayer bond orders larger than 0.100000
B(  0-C ,  1-C ) :   0.9627 B(  0-C , 20-H ) :   0.9715 B(  0-C , 21-H ) :   0.9774
B(  0-C , 22-H ) :   0.9761 B(  1-C ,  2-O ) :   0.8893 B(  1-C , 23-H ) :   0.9699
B(  1-C , 24-H ) :   0.9843 B(  2-O ,  3-C ) :   1.1068 B(  3-C ,  4-O ) :   2.0723
B(  3-C ,  5-C ) :   0.9662 B(  5-C ,  6-C ) :   1.6741 B(  5-C , 12-C ) :   0.9560
B(  6-C ,  7-C ) :   0.9575 B(  6-C ,  8-N ) :   1.1236 B(  7-C , 25-H ) :   0.9623
B(  7-C , 26-H ) :   0.9729 B(  7-C , 27-H ) :   0.9771 B(  8-N ,  9-C ) :   1.1879
B(  8-N , 28-H ) :   0.9513 B(  9-C , 10-S ) :   1.6161 B(  9-C , 11-N ) :   1.2899
B( 11-N , 12-C ) :   0.9910 B( 11-N , 29-H ) :   0.9508 B( 12-C , 13-C ) :   0.9438
B( 12-C , 30-H ) :   0.9979 B( 13-C , 14-C ) :   1.3859 B( 13-C , 19-C ) :   1.3435
B( 14-C , 15-C ) :   1.3991 B( 14-C , 31-H ) :   0.9603 B( 15-C , 16-C ) :   1.3606
B( 15-C , 32-H ) :   0.9703 B( 16-C , 17-C ) :   1.3314 B( 16-C , 33-H ) :   0.9841
B( 17-C , 18-O ) :   1.1099 B( 17-C , 19-C ) :   1.3687 B( 18-O , 34-H ) :   0.9795
B( 19-C , 35-H ) :   0.9519

MP2 TOTAL ENERGY:    -1274.320764747 Eh
FINAL SINGLE POINT ENERGY     -1274.320764747336

DIPOLE MOMENT
-------------
                                X             Y             Z
Electronic contribution:      9.83869       6.24901       5.64687
Nuclear contribution   :    -11.06558      -7.45390      -6.06141
                        -----------------------------------------
Total Dipole Moment    :     -1.22689      -1.20489      -0.41454
                        -----------------------------------------
Magnitude (a.u.)       :      1.76886
Magnitude (Debye)      :      4.49609

Rotational constants in cm-1:     0.012236     0.009516     0.007101
Rotational constants in MHz :   366.824812   285.292786   212.880201

                             ****ORCA TERMINATED NORMALLY****
TOTAL RUN TIME: 0 days 1 hours 51 minutes 11 seconds 966 msec
