                         Program Version 4.2.0 -  RELEASE  -
|  1> ! ri-mp2 cc-pvtz cc-pvtz/c TightSCF  NoKeepInts
|  2>
|  3> %scf
|  4>   MaxCore 4096
|  5> end
|  6> *xyz  0  1
|  7>     C       16.2096853   13.1894269   15.6391912
|  8>     C       15.4950476   14.4945079   16.0277146
|  9>     O       16.4530429   15.3173515   16.7137845
| 10>     C       16.2945198   16.6752079   16.7266972
| 11>     O       15.4081680   17.2354215   16.1039022
| 12>     C       17.3210912   17.3708547   17.5774742
| 13>     C       17.3995002   18.7229891   17.6656353
| 14>     C       16.5177938   19.7395297   16.9723626
| 15>     N       18.4014234   19.3182883   18.4380532
| 16>     C       19.4175351   18.6426457   19.0594868
| 17>     S       20.6219893   19.4306150   19.8745279
| 18>     N       19.3875090   17.2743881   18.9695714
| 19>     C       18.2920466   16.4857667   18.3761322
| 20>     C       17.5740072   15.6959466   19.4668049
| 21>     C       17.6238489   14.2892692   19.4796566
| 22>     C       16.9622080   13.5593706   20.4814638
| 23>     C       16.2471191   14.2412221   21.4808130
| 24>     C       16.1984818   15.6420162   21.4732175
| 25>     O       15.5093143   16.3031800   22.4370625
| 26>     C       16.8575960   16.3656537   20.4746881
| 27>     H       16.5690778   12.6654584   16.5335030
| 28>     H       17.0683076   13.3971471   14.9885889
| 29>     H       15.5250459   12.5220265   15.1017668
| 30>     H       15.1414678   14.9849216   15.1101838
| 31>     H       14.6301196   14.2928867   16.6732378
| 32>     H       15.4699987   19.6072599   17.2712429
| 33>     H       16.5655799   19.6133851   15.8832681
| 34>     H       16.7975953   20.7752061   17.1979189
| 35>     H       18.4400960   20.3221691   18.5140126
| 36>     H       20.1286537   16.8021519   19.4711050
| 37>     H       18.7481561   15.7732351   17.6745376
| 38>     H       18.1707268   13.7596899   18.7042395
| 39>     H       17.0041489   12.4716545   20.4809627
| 40>     H       15.7344960   13.6820996   22.2565694
| 41>     H       15.1481803   15.6397611   23.0438455
| 42>     H       16.8134219   17.4492964   20.4907777
| 43> *
| 44>
| 45>                          ****END OF INPUT****

CARTESIAN COORDINATES (ANGSTROEM)
---------------------------------
  C     16.209685   13.189427   15.639191
  C     15.495048   14.494508   16.027715
  O     16.453043   15.317351   16.713784
  C     16.294520   16.675208   16.726697
  O     15.408168   17.235422   16.103902
  C     17.321091   17.370855   17.577474
  C     17.399500   18.722989   17.665635
  C     16.517794   19.739530   16.972363
  N     18.401423   19.318288   18.438053
  C     19.417535   18.642646   19.059487
  S     20.621989   19.430615   19.874528
  N     19.387509   17.274388   18.969571
  C     18.292047   16.485767   18.376132
  C     17.574007   15.695947   19.466805
  C     17.623849   14.289269   19.479657
  C     16.962208   13.559371   20.481464
  C     16.247119   14.241222   21.480813
  C     16.198482   15.642016   21.473218
  O     15.509314   16.303180   22.437062
  C     16.857596   16.365654   20.474688
  H     16.569078   12.665458   16.533503
  H     17.068308   13.397147   14.988589
  H     15.525046   12.522027   15.101767
  H     15.141468   14.984922   15.110184
  H     14.630120   14.292887   16.673238
  H     15.469999   19.607260   17.271243
  H     16.565580   19.613385   15.883268
  H     16.797595   20.775206   17.197919
  H     18.440096   20.322169   18.514013
  H     20.128654   16.802152   19.471105
  H     18.748156   15.773235   17.674538
  H     18.170727   13.759690   18.704239
  H     17.004149   12.471654   20.480963
  H     15.734496   13.682100   22.256569
  H     15.148180   15.639761   23.043845
  H     16.813422   17.449296   20.490778

 Total Charge           Charge          ....    0
 Multiplicity           Mult            ....    1
 Number of Electrons    NEL             ....  154
 Basis Dimension        Dim             ....  828

ORBITAL ENERGIES
----------------

  NO   OCC          E(Eh)            E(eV)
   0   2.0000     -91.888626     -2500.4166
   1   2.0000     -20.603166      -560.6406
   2   2.0000     -20.595369      -560.4285
   3   2.0000     -20.541328      -558.9580
   4   2.0000     -15.628757      -425.2801
   5   2.0000     -15.607952      -424.7140
   6   2.0000     -11.394631      -310.0637
   7   2.0000     -11.383710      -309.7665
   8   2.0000     -11.335655      -308.4589
   9   2.0000     -11.312436      -307.8270
  10   2.0000     -11.308519      -307.7204
  11   2.0000     -11.296212      -307.3856
  12   2.0000     -11.258700      -306.3648
  13   2.0000     -11.258467      -306.3585
  14   2.0000     -11.253932      -306.2350
  15   2.0000     -11.251649      -306.1729
  16   2.0000     -11.241910      -305.9079
  17   2.0000     -11.237463      -305.7869
  18   2.0000     -11.237176      -305.7791
  19   2.0000     -11.232254      -305.6452
  20   2.0000      -8.893688      -242.0095
  21   2.0000      -6.575262      -178.9220
  22   2.0000      -6.573258      -178.8674
  23   2.0000      -6.572671      -178.8515
  24   2.0000      -1.452424       -39.5225
  25   2.0000      -1.415029       -38.5049
  26   2.0000      -1.355012       -36.8717
  27   2.0000      -1.339720       -36.4556
  28   2.0000      -1.238136       -33.6914
  29   2.0000      -1.156610       -31.4729
  30   2.0000      -1.120031       -30.4776
  31   2.0000      -1.043637       -28.3988
  32   2.0000      -1.040035       -28.3008
  33   2.0000      -1.013959       -27.5912
  34   2.0000      -0.995549       -27.0903
  35   2.0000      -0.984126       -26.7794
  36   2.0000      -0.921961       -25.0878
  37   2.0000      -0.889663       -24.2090
  38   2.0000      -0.846335       -23.0300
  39   2.0000      -0.836585       -22.7646
  40   2.0000      -0.832902       -22.6644
  41   2.0000      -0.817251       -22.2385
  42   2.0000      -0.765634       -20.8340
  43   2.0000      -0.731413       -19.9028
  44   2.0000      -0.720805       -19.6141
  45   2.0000      -0.694621       -18.9016
  46   2.0000      -0.685311       -18.6483
  47   2.0000      -0.679425       -18.4881
  48   2.0000      -0.679214       -18.4824
  49   2.0000      -0.663195       -18.0465
  50   2.0000      -0.645705       -17.5705
  51   2.0000      -0.644790       -17.5456
  52   2.0000      -0.635430       -17.2909
  53   2.0000      -0.605612       -16.4795
  54   2.0000      -0.599810       -16.3217
  55   2.0000      -0.597988       -16.2721
  56   2.0000      -0.591907       -16.1066
  57   2.0000      -0.577236       -15.7074
  58   2.0000      -0.570742       -15.5307
  59   2.0000      -0.570175       -15.5153
  60   2.0000      -0.561907       -15.2903
  61   2.0000      -0.551639       -15.0109
  62   2.0000      -0.539960       -14.6931
  63   2.0000      -0.524336       -14.2679
  64   2.0000      -0.522865       -14.2279
  65   2.0000      -0.512926       -13.9574
  66   2.0000      -0.503238       -13.6938
  67   2.0000      -0.498476       -13.5642
  68   2.0000      -0.484535       -13.1849
  69   2.0000      -0.464887       -12.6502
  70   2.0000      -0.459272       -12.4974
  71   2.0000      -0.447534       -12.1780
  72   2.0000      -0.354052        -9.6343
  73   2.0000      -0.348415        -9.4809
  74   2.0000      -0.327912        -8.9230
  75   2.0000      -0.320085        -8.7100
  76   2.0000      -0.315613        -8.5883
  77   0.0000       0.076727         2.0878
  78   0.0000       0.107336         2.9208
  79   0.0000       0.124491         3.3876
  80   0.0000       0.132334         3.6010
  81   0.0000       0.136062         3.7024

MULLIKEN ATOMIC CHARGES
-----------------------
   0 C :   -0.269153
   1 C :    0.030579
   2 O :   -0.340256
   3 C :    0.461789
   4 O :   -0.434644
   5 C :   -0.216443
   6 C :    0.149353
   7 C :   -0.274761
   8 N :   -0.120436
   9 C :    0.210147
  10 S :   -0.439902
  11 N :   -0.202602
  12 C :    0.044774
  13 C :    0.066713
  14 C :   -0.178327
  15 C :   -0.132958
  16 C :   -0.277574
  17 C :    0.315738
  18 O :   -0.356764
  19 C :   -0.269744
  20 H :    0.092043
  21 H :    0.095995
  22 H :    0.097128
  23 H :    0.112709
  24 H :    0.093762
  25 H :    0.132310
  26 H :    0.130727
  27 H :    0.094813
  28 H :    0.197283
  29 H :    0.194295
  30 H :    0.150966
  31 H :    0.149016
  32 H :    0.159082
  33 H :    0.129202
  34 H :    0.240497
  35 H :    0.164644
Sum of atomic charges:    0.0000000

LOEWDIN ATOMIC CHARGES
----------------------
   0 C :    0.105858
   1 C :   -0.014480
   2 O :    0.310788
   3 C :   -0.413200
   4 O :    0.094947
   5 C :   -0.094484
   6 C :   -0.059029
   7 C :    0.131506
   8 N :    0.406482
   9 C :   -0.456774
  10 S :   -0.035560
  11 N :    0.396586
  12 C :   -0.052853
  13 C :   -0.038933
  14 C :    0.014244
  15 C :    0.038783
  16 C :   -0.001284
  17 C :   -0.189524
  18 O :    0.395026
  19 C :    0.031719
  20 H :   -0.030340
  21 H :   -0.026722
  22 H :   -0.024123
  23 H :   -0.027129
  24 H :   -0.029188
  25 H :   -0.004378
  26 H :   -0.004094
  27 H :   -0.023486
  28 H :   -0.057608
  29 H :   -0.064540
  30 H :   -0.011504
  31 H :   -0.031409
  32 H :   -0.021768
  33 H :   -0.035705
  34 H :   -0.154093
  35 H :   -0.023729

  Mayer bond orders larger than 0.100000
B(  0-C ,  1-C ) :   0.9716 B(  0-C , 20-H ) :   0.9789 B(  0-C , 21-H ) :   0.9768
B(  0-C , 22-H ) :   0.9781 B(  1-C ,  2-O ) :   0.8980 B(  1-C , 23-H ) :   0.9778
B(  1-C , 24-H ) :   0.9769 B(  2-O ,  3-C ) :   1.1831 B(  3-C ,  4-O ) :   1.9677
B(  3-C ,  5-C ) :   1.0576 B(  5-C ,  6-C ) :   1.6592 B(  5-C , 12-C ) :   0.9709
B(  6-C ,  7-C ) :   0.9676 B(  6-C ,  8-N ) :   1.1649 B(  7-C , 25-H ) :   0.9606
B(  7-C , 26-H ) :   0.9601 B(  7-C , 27-H ) :   0.9903 B(  8-N ,  9-C ) :   1.1826
B(  8-N , 28-H ) :   0.9480 B(  9-C , 10-S ) :   1.6080 B(  9-C , 11-N ) :   1.3043
B( 11-N , 12-C ) :   0.9897 B( 11-N , 29-H ) :   0.9516 B( 12-C , 13-C ) :   0.9365
B( 12-C , 30-H ) :   1.0039 B( 13-C , 14-C ) :   1.3593 B( 13-C , 19-C ) :   1.3814
B( 14-C , 15-C ) :   1.3915 B( 14-C , 31-H ) :   0.9707 B( 15-C , 16-C ) :   1.3647
B( 15-C , 32-H ) :   0.9708 B( 16-C , 17-C ) :   1.3323 B( 16-C , 33-H ) :   0.9853
B( 17-C , 18-O ) :   1.1098 B( 17-C , 19-C ) :   1.3737 B( 18-O , 34-H ) :   0.9801
B( 19-C , 35-H ) :   0.9583

MP2 TOTAL ENERGY:    -1274.351610035 Eh
FINAL SINGLE POINT ENERGY     -1274.351610035173

DIPOLE MOMENT
-------------
                                X             Y             Z
Electronic contribution:      8.49339      10.81584       8.99161
Nuclear contribution   :     -9.69212     -12.40699      -9.42780
                        -----------------------------------------
Total Dipole Moment    :     -1.19873      -1.59115      -0.43620
                        -----------------------------------------
Magnitude (a.u.)       :      2.03936
Magnitude (Debye)      :      5.18365

Rotational constants in cm-1:     0.011184     0.008565     0.006129
Rotational constants in MHz :   335.292647   256.768009   183.744393

                             ****ORCA TERMINATED NORMALLY****
TOTAL RUN TIME: 0 days 1 hours 44 minutes 6 seconds 204 msec
