                         Program Version 4.2.0 -  RELEASE  -
|  1> ! ri-mp2 cc-pvtz cc-pvtz/c TightSCF  NoKeepInts
|  2>
|  3> %scf
|  4>   MaxCore 4096
|  5> end
|  6> *xyz  0  1
|  7>     C       15.4408709   14.0054681   16.8054838
|  8>     C       15.3782377   15.1305151   15.7463530
|  9>     O       16.5153917   16.0310412   15.7429872
| 10>     C       17.6193007   15.8832233   16.5350924
| 11>     O       18.2283318   14.8306117   16.6264420
| 12>     C       17.8722332   17.0386881   17.4588498
| 13>     C       17.4231299   18.3055531   17.2628169
| 14>     C       16.6270778   18.8403792   16.0901814
| 15>     N       17.7527999   19.3084517   18.1803681
| 16>     C       18.6195072   19.1574887   19.2304950
| 17>     S       19.0374047   20.4272581   20.2044170
| 18>     N       19.1212855   17.8970146   19.4335186
| 19>     C       18.6908353   16.6885870   18.7056058
| 20>     C       17.8995369   15.7608599   19.6240313
| 21>     C       18.2792527   14.4146004   19.7764193
| 22>     C       17.5424621   13.5515274   20.6046084
| 23>     C       16.4146815   14.0376893   21.2874367
| 24>     C       16.0308250   15.3769204   21.1357945
| 25>     O       14.9369720   15.8472047   21.7864770
| 26>     C       16.7655752   16.2333094   20.3098968
| 27>     H       16.2298731   13.2802930   16.5702744
| 28>     H       14.4909684   13.4583741   16.8315302
| 29>     H       15.6212359   14.4108875   17.8094555
| 30>     H       15.2865006   14.6706934   14.7538059
| 31>     H       14.4680507   15.7200779   15.9152613
| 32>     H       15.5890056   18.4887885   16.1337001
| 33>     H       17.0588994   18.5035349   15.1393087
| 34>     H       16.6053589   19.9365394   16.0598052
| 35>     H       17.3959225   20.2413537   18.0486174
| 36>     H       19.7345148   17.8059021   20.2332882
| 37>     H       19.5959702   16.1586915   18.3748870
| 38>     H       19.1391056   14.0309204   19.2323998
| 39>     H       17.8434092   12.5105420   20.7081487
| 40>     H       15.8415887   13.3738354   21.9260795
| 41>     H       14.5994412   15.1288323   22.3423515
| 42>     H       16.4514434   17.2663424   20.2078116
| 43> *
| 44>
| 45>                          ****END OF INPUT****

CARTESIAN COORDINATES (ANGSTROEM)
---------------------------------
  C     15.440871   14.005468   16.805484
  C     15.378238   15.130515   15.746353
  O     16.515392   16.031041   15.742987
  C     17.619301   15.883223   16.535092
  O     18.228332   14.830612   16.626442
  C     17.872233   17.038688   17.458850
  C     17.423130   18.305553   17.262817
  C     16.627078   18.840379   16.090181
  N     17.752800   19.308452   18.180368
  C     18.619507   19.157489   19.230495
  S     19.037405   20.427258   20.204417
  N     19.121285   17.897015   19.433519
  C     18.690835   16.688587   18.705606
  C     17.899537   15.760860   19.624031
  C     18.279253   14.414600   19.776419
  C     17.542462   13.551527   20.604608
  C     16.414682   14.037689   21.287437
  C     16.030825   15.376920   21.135794
  O     14.936972   15.847205   21.786477
  C     16.765575   16.233309   20.309897
  H     16.229873   13.280293   16.570274
  H     14.490968   13.458374   16.831530
  H     15.621236   14.410887   17.809455
  H     15.286501   14.670693   14.753806
  H     14.468051   15.720078   15.915261
  H     15.589006   18.488788   16.133700
  H     17.058899   18.503535   15.139309
  H     16.605359   19.936539   16.059805
  H     17.395922   20.241354   18.048617
  H     19.734515   17.805902   20.233288
  H     19.595970   16.158691   18.374887
  H     19.139106   14.030920   19.232400
  H     17.843409   12.510542   20.708149
  H     15.841589   13.373835   21.926080
  H     14.599441   15.128832   22.342351
  H     16.451443   17.266342   20.207812

 Total Charge           Charge          ....    0
 Multiplicity           Mult            ....    1
 Number of Electrons    NEL             ....  154
 Basis Dimension        Dim             ....  828

ORBITAL ENERGIES
----------------

  NO   OCC          E(Eh)            E(eV)
   0   2.0000     -91.888522     -2500.4138
   1   2.0000     -20.594791      -560.4128
   2   2.0000     -20.589364      -560.2651
   3   2.0000     -20.548772      -559.1605
   4   2.0000     -15.628465      -425.2722
   5   2.0000     -15.607544      -424.7029
   6   2.0000     -11.396110      -310.1039
   7   2.0000     -11.383630      -309.7643
   8   2.0000     -11.335367      -308.4510
   9   2.0000     -11.310973      -307.7872
  10   2.0000     -11.306614      -307.6686
  11   2.0000     -11.306092      -307.6544
  12   2.0000     -11.259474      -306.3859
  13   2.0000     -11.259079      -306.3751
  14   2.0000     -11.256279      -306.2989
  15   2.0000     -11.250923      -306.1532
  16   2.0000     -11.240717      -305.8755
  17   2.0000     -11.236681      -305.7656
  18   2.0000     -11.233401      -305.6764
  19   2.0000     -11.225425      -305.4593
  20   2.0000      -8.893591      -242.0069
  21   2.0000      -6.575169      -178.9194
  22   2.0000      -6.573160      -178.8648
  23   2.0000      -6.572576      -178.8489
  24   2.0000      -1.445394       -39.3312
  25   2.0000      -1.414588       -38.4929
  26   2.0000      -1.354936       -36.8697
  27   2.0000      -1.339516       -36.4501
  28   2.0000      -1.237495       -33.6740
  29   2.0000      -1.155109       -31.4321
  30   2.0000      -1.120105       -30.4796
  31   2.0000      -1.043118       -28.3847
  32   2.0000      -1.032650       -28.0998
  33   2.0000      -1.012562       -27.5532
  34   2.0000      -0.998765       -27.1778
  35   2.0000      -0.984107       -26.7789
  36   2.0000      -0.922982       -25.1156
  37   2.0000      -0.896238       -24.3879
  38   2.0000      -0.848678       -23.0937
  39   2.0000      -0.837622       -22.7928
  40   2.0000      -0.831028       -22.6134
  41   2.0000      -0.818933       -22.2843
  42   2.0000      -0.743085       -20.2204
  43   2.0000      -0.728065       -19.8117
  44   2.0000      -0.726061       -19.7571
  45   2.0000      -0.692477       -18.8433
  46   2.0000      -0.685210       -18.6455
  47   2.0000      -0.675790       -18.3892
  48   2.0000      -0.674403       -18.3514
  49   2.0000      -0.663579       -18.0569
  50   2.0000      -0.650435       -17.6992
  51   2.0000      -0.645154       -17.5555
  52   2.0000      -0.634693       -17.2709
  53   2.0000      -0.620618       -16.8879
  54   2.0000      -0.603236       -16.4149
  55   2.0000      -0.601533       -16.3686
  56   2.0000      -0.598463       -16.2850
  57   2.0000      -0.576670       -15.6920
  58   2.0000      -0.574916       -15.6443
  59   2.0000      -0.564652       -15.3650
  60   2.0000      -0.552233       -15.0270
  61   2.0000      -0.545645       -14.8478
  62   2.0000      -0.536909       -14.6100
  63   2.0000      -0.525794       -14.3076
  64   2.0000      -0.518323       -14.1043
  65   2.0000      -0.510822       -13.9002
  66   2.0000      -0.500490       -13.6190
  67   2.0000      -0.495996       -13.4967
  68   2.0000      -0.479923       -13.0594
  69   2.0000      -0.464062       -12.6278
  70   2.0000      -0.455591       -12.3973
  71   2.0000      -0.448775       -12.2118
  72   2.0000      -0.354033        -9.6337
  73   2.0000      -0.346984        -9.4419
  74   2.0000      -0.327781        -8.9194
  75   2.0000      -0.318083        -8.6555
  76   2.0000      -0.315460        -8.5841
  77   0.0000       0.073757         2.0070
  78   0.0000       0.108538         2.9535
  79   0.0000       0.121123         3.2959
  80   0.0000       0.133199         3.6245
  81   0.0000       0.139603         3.7988

MULLIKEN ATOMIC CHARGES
-----------------------
   0 C :   -0.317027
   1 C :    0.062515
   2 O :   -0.375565
   3 C :    0.447706
   4 O :   -0.407813
   5 C :   -0.185023
   6 C :    0.141261
   7 C :   -0.282456
   8 N :   -0.122877
   9 C :    0.202318
  10 S :   -0.439565
  11 N :   -0.201552
  12 C :    0.052175
  13 C :    0.027940
  14 C :   -0.156760
  15 C :   -0.137286
  16 C :   -0.275527
  17 C :    0.306823
  18 O :   -0.359630
  19 C :   -0.262102
  20 H :    0.122930
  21 H :    0.103341
  22 H :    0.112005
  23 H :    0.099499
  24 H :    0.087290
  25 H :    0.122842
  26 H :    0.129517
  27 H :    0.103360
  28 H :    0.197003
  29 H :    0.194427
  30 H :    0.154616
  31 H :    0.157350
  32 H :    0.160421
  33 H :    0.130241
  34 H :    0.240511
  35 H :    0.167093
Sum of atomic charges:   -0.0000000

LOEWDIN ATOMIC CHARGES
----------------------
   0 C :    0.106123
   1 C :   -0.009221
   2 O :    0.286885
   3 C :   -0.417404
   4 O :    0.119915
   5 C :   -0.093741
   6 C :   -0.068576
   7 C :    0.125485
   8 N :    0.404561
   9 C :   -0.458336
  10 S :   -0.036227
  11 N :    0.397609
  12 C :   -0.046163
  13 C :   -0.041272
  14 C :    0.022310
  15 C :    0.041158
  16 C :   -0.002496
  17 C :   -0.194082
  18 O :    0.393620
  19 C :    0.027129
  20 H :   -0.023545
  21 H :   -0.025659
  22 H :   -0.024378
  23 H :   -0.027184
  24 H :   -0.030692
  25 H :   -0.010545
  26 H :   -0.006922
  27 H :   -0.020601
  28 H :   -0.058987
  29 H :   -0.063862
  30 H :   -0.004994
  31 H :   -0.024598
  32 H :   -0.020602
  33 H :   -0.035854
  34 H :   -0.154349
  35 H :   -0.024507

  Mayer bond orders larger than 0.100000
B(  0-C ,  1-C ) :   0.9703 B(  0-C , 20-H ) :   0.9713 B(  0-C , 21-H ) :   0.9741
B(  0-C , 22-H ) :   0.9665 B(  1-C ,  2-O ) :   0.9013 B(  1-C , 23-H ) :   0.9819
B(  1-C , 24-H ) :   0.9779 B(  2-O ,  3-C ) :   1.1064 B(  3-C ,  4-O ) :   2.0176
B(  3-C ,  5-C ) :   1.0289 B(  5-C ,  6-C ) :   1.6608 B(  5-C , 12-C ) :   0.9611
B(  6-C ,  7-C ) :   0.9527 B(  6-C ,  8-N ) :   1.1462 B(  7-C , 25-H ) :   0.9655
B(  7-C , 26-H ) :   0.9664 B(  7-C , 27-H ) :   0.9901 B(  8-N ,  9-C ) :   1.1815
B(  8-N , 28-H ) :   0.9490 B(  9-C , 10-S ) :   1.6104 B(  9-C , 11-N ) :   1.3027
B( 11-N , 12-C ) :   0.9913 B( 11-N , 29-H ) :   0.9517 B( 12-C , 13-C ) :   0.9442
B( 12-C , 30-H ) :   0.9997 B( 13-C , 14-C ) :   1.3819 B( 13-C , 19-C ) :   1.3697
B( 14-C , 15-C ) :   1.3945 B( 14-C , 31-H ) :   0.9629 B( 15-C , 16-C ) :   1.3615
B( 15-C , 32-H ) :   0.9712 B( 16-C , 17-C ) :   1.3316 B( 16-C , 33-H ) :   0.9852
B( 17-C , 18-O ) :   1.1099 B( 17-C , 19-C ) :   1.3750 B( 18-O , 34-H ) :   0.9801
B( 19-C , 35-H ) :   0.9579

MP2 TOTAL ENERGY:    -1274.333297012 Eh
FINAL SINGLE POINT ENERGY     -1274.333297011844

DIPOLE MOMENT
-------------
                                X             Y             Z
Electronic contribution:      9.83038      10.02156       7.45664
Nuclear contribution   :    -11.37693     -11.26854      -8.24832
                        -----------------------------------------
Total Dipole Moment    :     -1.54655      -1.24698      -0.79168
                        -----------------------------------------
Magnitude (a.u.)       :      2.13858
Magnitude (Debye)      :      5.43585

Rotational constants in cm-1:     0.011706     0.009244     0.006423
Rotational constants in MHz :   350.923736   277.114716   192.545841

                             ****ORCA TERMINATED NORMALLY****
TOTAL RUN TIME: 0 days 1 hours 45 minutes 9 seconds 315 msec
