                         Program Version 4.2.0 -  RELEASE  -
|  1> ! ri-mp2 cc-pvtz cc-pvtz/c TightSCF  NoKeepInts
|  2>
|  3> %scf
|  4>   MaxCore 4096
|  5> end
|  6> *xyz  0  1
|  7>     C       14.5356578   15.7653517   16.3667243
|  8>     C       15.5496848   15.1071165   17.3192430
|  9>     O       16.7873042   14.8757130   16.6152802
| 10>     C       17.7748477   15.8082154   16.4221935
| 11>     O       18.7749430   15.5122986   15.7970476
| 12>     C       17.8224970   16.9227128   17.4105347
| 13>     C       17.3977365   18.1644089   17.0880417
| 14>     C       16.7958635   18.6058768   15.7721272
| 15>     N       17.5646577   19.2156160   17.9914304
| 16>     C       18.2346800   19.1202127   19.1831380
| 17>     S       18.4111529   20.4213341   20.1881033
| 18>     N       18.7516251   17.8890744   19.5046213
| 19>     C       18.5854114   16.6535138   18.7124700
| 20>     C       17.9755835   15.5288961   19.5454317
| 21>     C       18.4031088   14.2028131   19.3476705
| 22>     C       17.8445647   13.1504987   20.0916667
| 23>     C       16.8503364   13.4245705   21.0457480
| 24>     C       16.4216613   14.7430418   21.2479136
| 25>     O       15.4539689   15.0100539   22.1601592
| 26>     C       16.9775320   15.7892487   20.5044621
| 27>     H       14.8094322   16.7979203   16.1390595
| 28>     H       13.5390930   15.7776526   16.8249462
| 29>     H       14.4694481   15.2048377   15.4255148
| 30>     H       15.6820849   15.7244355   18.2137271
| 31>     H       15.1469697   14.1382794   17.6422967
| 32>     H       16.7342977   17.7890296   15.0426164
| 33>     H       17.4104493   19.3905010   15.3124459
| 34>     H       15.7852823   19.0084737   15.9125682
| 35>     H       17.2141308   20.1326868   17.7628921
| 36>     H       19.2304207   17.8476955   20.3956843
| 37>     H       19.5933746   16.3239969   18.4192742
| 38>     H       19.1628275   13.9848630   18.5997061
| 39>     H       18.1808119   12.1285475   19.9235771
| 40>     H       16.4154823   12.6139079   21.6213398
| 41>     H       15.2381909   14.1783513   22.6089509
| 42>     H       16.6218866   16.8002540   20.6753936
| 43> *
| 44>
| 45>                          ****END OF INPUT****

CARTESIAN COORDINATES (ANGSTROEM)
---------------------------------
  C     14.535658   15.765352   16.366724
  C     15.549685   15.107117   17.319243
  O     16.787304   14.875713   16.615280
  C     17.774848   15.808215   16.422193
  O     18.774943   15.512299   15.797048
  C     17.822497   16.922713   17.410535
  C     17.397737   18.164409   17.088042
  C     16.795863   18.605877   15.772127
  N     17.564658   19.215616   17.991430
  C     18.234680   19.120213   19.183138
  S     18.411153   20.421334   20.188103
  N     18.751625   17.889074   19.504621
  C     18.585411   16.653514   18.712470
  C     17.975583   15.528896   19.545432
  C     18.403109   14.202813   19.347670
  C     17.844565   13.150499   20.091667
  C     16.850336   13.424570   21.045748
  C     16.421661   14.743042   21.247914
  O     15.453969   15.010054   22.160159
  C     16.977532   15.789249   20.504462
  H     14.809432   16.797920   16.139059
  H     13.539093   15.777653   16.824946
  H     14.469448   15.204838   15.425515
  H     15.682085   15.724436   18.213727
  H     15.146970   14.138279   17.642297
  H     16.734298   17.789030   15.042616
  H     17.410449   19.390501   15.312446
  H     15.785282   19.008474   15.912568
  H     17.214131   20.132687   17.762892
  H     19.230421   17.847696   20.395684
  H     19.593375   16.323997   18.419274
  H     19.162827   13.984863   18.599706
  H     18.180812   12.128547   19.923577
  H     16.415482   12.613908   21.621340
  H     15.238191   14.178351   22.608951
  H     16.621887   16.800254   20.675394

 Total Charge           Charge          ....    0
 Multiplicity           Mult            ....    1
 Number of Electrons    NEL             ....  154
 Basis Dimension        Dim             ....  828

ORBITAL ENERGIES
----------------

  NO   OCC          E(Eh)            E(eV)
   0   2.0000     -91.888789     -2500.4211
   1   2.0000     -20.602066      -560.6107
   2   2.0000     -20.601857      -560.6050
   3   2.0000     -20.553662      -559.2936
   4   2.0000     -15.623356      -425.1331
   5   2.0000     -15.612228      -424.8303
   6   2.0000     -11.398506      -310.1691
   7   2.0000     -11.385882      -309.8256
   8   2.0000     -11.323977      -308.1411
   9   2.0000     -11.319859      -308.0290
  10   2.0000     -11.319489      -308.0189
  11   2.0000     -11.302324      -307.5519
  12   2.0000     -11.267490      -306.6040
  13   2.0000     -11.266232      -306.5698
  14   2.0000     -11.265101      -306.5390
  15   2.0000     -11.260074      -306.4022
  16   2.0000     -11.248850      -306.0968
  17   2.0000     -11.244623      -305.9817
  18   2.0000     -11.242892      -305.9347
  19   2.0000     -11.235281      -305.7275
  20   2.0000      -8.893927      -242.0161
  21   2.0000      -6.575524      -178.9291
  22   2.0000      -6.573488      -178.8737
  23   2.0000      -6.572922      -178.8583
  24   2.0000      -1.449522       -39.4435
  25   2.0000      -1.421890       -38.6916
  26   2.0000      -1.361683       -37.0533
  27   2.0000      -1.338517       -36.4229
  28   2.0000      -1.239662       -33.7329
  29   2.0000      -1.163516       -31.6609
  30   2.0000      -1.125435       -30.6246
  31   2.0000      -1.050188       -28.5771
  32   2.0000      -1.039984       -28.2994
  33   2.0000      -1.021736       -27.8028
  34   2.0000      -1.005462       -27.3600
  35   2.0000      -0.989329       -26.9210
  36   2.0000      -0.928603       -25.2686
  37   2.0000      -0.894983       -24.3537
  38   2.0000      -0.852722       -23.2037
  39   2.0000      -0.842238       -22.9185
  40   2.0000      -0.839182       -22.8353
  41   2.0000      -0.836135       -22.7524
  42   2.0000      -0.754969       -20.5437
  43   2.0000      -0.735350       -20.0099
  44   2.0000      -0.728876       -19.8337
  45   2.0000      -0.699725       -19.0405
  46   2.0000      -0.691892       -18.8273
  47   2.0000      -0.680321       -18.5125
  48   2.0000      -0.678266       -18.4566
  49   2.0000      -0.667861       -18.1734
  50   2.0000      -0.654447       -17.8084
  51   2.0000      -0.641736       -17.4625
  52   2.0000      -0.637033       -17.3346
  53   2.0000      -0.622831       -16.9481
  54   2.0000      -0.611592       -16.6423
  55   2.0000      -0.608866       -16.5681
  56   2.0000      -0.605220       -16.4689
  57   2.0000      -0.587898       -15.9975
  58   2.0000      -0.579101       -15.7581
  59   2.0000      -0.568208       -15.4617
  60   2.0000      -0.567575       -15.4445
  61   2.0000      -0.556498       -15.1431
  62   2.0000      -0.545337       -14.8394
  63   2.0000      -0.536314       -14.5938
  64   2.0000      -0.524286       -14.2665
  65   2.0000      -0.516060       -14.0427
  66   2.0000      -0.504198       -13.7199
  67   2.0000      -0.503767       -13.7082
  68   2.0000      -0.488028       -13.2799
  69   2.0000      -0.471259       -12.8236
  70   2.0000      -0.453037       -12.3278
  71   2.0000      -0.450986       -12.2720
  72   2.0000      -0.357033        -9.7154
  73   2.0000      -0.352134        -9.5820
  74   2.0000      -0.328831        -8.9479
  75   2.0000      -0.326818        -8.8932
  76   2.0000      -0.318208        -8.6589
  77   0.0000       0.094693         2.5767
  78   0.0000       0.103704         2.8219
  79   0.0000       0.116409         3.1677
  80   0.0000       0.127642         3.4733
  81   0.0000       0.130168         3.5421

MULLIKEN ATOMIC CHARGES
-----------------------
   0 C :   -0.293156
   1 C :    0.032558
   2 O :   -0.315687
   3 C :    0.386289
   4 O :   -0.373600
   5 C :   -0.172031
   6 C :    0.137912
   7 C :   -0.342353
   8 N :   -0.139693
   9 C :    0.214251
  10 S :   -0.445280
  11 N :   -0.230778
  12 C :    0.085657
  13 C :   -0.005338
  14 C :   -0.185053
  15 C :   -0.137225
  16 C :   -0.273977
  17 C :    0.315781
  18 O :   -0.355110
  19 C :   -0.264620
  20 H :    0.086885
  21 H :    0.102244
  22 H :    0.112586
  23 H :    0.099088
  24 H :    0.122936
  25 H :    0.120592
  26 H :    0.147447
  27 H :    0.119824
  28 H :    0.195126
  29 H :    0.204294
  30 H :    0.164754
  31 H :    0.161525
  32 H :    0.164635
  33 H :    0.133936
  34 H :    0.241790
  35 H :    0.183789
Sum of atomic charges:   -0.0000000

LOEWDIN ATOMIC CHARGES
----------------------
   0 C :    0.104748
   1 C :   -0.019358
   2 O :    0.312898
   3 C :   -0.421491
   4 O :    0.128557
   5 C :   -0.077176
   6 C :   -0.110164
   7 C :    0.122320
   8 N :    0.400679
   9 C :   -0.454957
  10 S :   -0.040628
  11 N :    0.397376
  12 C :   -0.042888
  13 C :   -0.043584
  14 C :    0.023590
  15 C :    0.046010
  16 C :   -0.000052
  17 C :   -0.193715
  18 O :    0.395900
  19 C :    0.026249
  20 H :   -0.035264
  21 H :   -0.023470
  22 H :   -0.023279
  23 H :   -0.039037
  24 H :   -0.019313
  25 H :   -0.010233
  26 H :   -0.009020
  27 H :   -0.018158
  28 H :   -0.058135
  29 H :   -0.064011
  30 H :   -0.003243
  31 H :   -0.022187
  32 H :   -0.017903
  33 H :   -0.034155
  34 H :   -0.152520
  35 H :   -0.024386

  Mayer bond orders larger than 0.100000
B(  0-C ,  1-C ) :   0.9748 B(  0-C , 20-H ) :   0.9787 B(  0-C , 21-H ) :   0.9778
B(  0-C , 22-H ) :   0.9763 B(  1-C ,  2-O ) :   0.8931 B(  1-C , 23-H ) :   0.9573
B(  1-C , 24-H ) :   0.9792 B(  2-O ,  3-C ) :   1.1639 B(  3-C ,  4-O ) :   2.1086
B(  3-C ,  5-C ) :   0.8985 B(  5-C ,  6-C ) :   1.7177 B(  5-C , 12-C ) :   0.9536
B(  6-C ,  7-C ) :   0.9474 B(  6-C ,  8-N ) :   1.1071 B(  7-C , 25-H ) :   0.9819
B(  7-C , 26-H ) :   0.9661 B(  7-C , 27-H ) :   0.9690 B(  8-N ,  9-C ) :   1.2077
B(  8-N , 28-H ) :   0.9535 B(  9-C , 10-S ) :   1.6038 B(  9-C , 11-N ) :   1.2828
B( 11-N , 12-C ) :   0.9892 B( 11-N , 29-H ) :   0.9448 B( 12-C , 13-C ) :   0.9540
B( 12-C , 30-H ) :   0.9975 B( 13-C , 14-C ) :   1.3867 B( 13-C , 19-C ) :   1.3354
B( 14-C , 15-C ) :   1.4006 B( 14-C , 31-H ) :   0.9668 B( 15-C , 16-C ) :   1.3591
B( 15-C , 32-H ) :   0.9696 B( 16-C , 17-C ) :   1.3312 B( 16-C , 33-H ) :   0.9840
B( 17-C , 18-O ) :   1.1103 B( 17-C , 19-C ) :   1.3659 B( 18-O , 34-H ) :   0.9788
B( 19-C , 35-H ) :   0.9566

MP2 TOTAL ENERGY:    -1274.328498856 Eh
FINAL SINGLE POINT ENERGY     -1274.328498856243

DIPOLE MOMENT
-------------
                                X             Y             Z
Electronic contribution:     10.41409       5.38252       7.75077
Nuclear contribution   :    -11.99161      -6.70748      -7.94800
                        -----------------------------------------
Total Dipole Moment    :     -1.57752      -1.32496      -0.19724
                        -----------------------------------------
Magnitude (a.u.)       :      2.06954
Magnitude (Debye)      :      5.26035

Rotational constants in cm-1:     0.011883     0.009218     0.006610
Rotational constants in MHz :   356.256574   276.348965   198.175600

                             ****ORCA TERMINATED NORMALLY****
TOTAL RUN TIME: 0 days 1 hours 52 minutes 45 seconds 87 msec
