                         Program Version 4.2.0 -  RELEASE  -
|  1> ! ri-mp2 cc-pvtz cc-pvtz/c TightSCF  NoKeepInts
|  2>
|  3> %scf
|  4>   MaxCore 4096
|  5> end
|  6> *xyz  0  1
|  7>     C       15.0974725   14.0904486   15.5233531
|  8>     C       16.0906990   14.0470971   16.7042463
|  9>     O       17.0764679   15.1058893   16.6681807
| 10>     C       16.7723346   16.4374260   16.5480278
| 11>     O       15.8412441   16.8580722   15.8852420
| 12>     C       17.5633695   17.2856263   17.5079912
| 13>     C       17.4451594   18.6376259   17.5524323
| 14>     C       16.5529575   19.5105699   16.6956284
| 15>     N       18.2282056   19.3821288   18.4396996
| 16>     C       19.2174848   18.8681312   19.2343417
| 17>     S       20.1619589   19.8323552   20.1904739
| 18>     N       19.3894608   17.5083404   19.1945928
| 19>     C       18.5209323   16.5622163   18.4711852
| 20>     C       17.7739643   15.6855101   19.4727945
| 21>     C       18.1109368   14.3266165   19.6192361
| 22>     C       17.4195638   13.5128854   20.5324312
| 23>     C       16.3853288   14.0629709   21.3087434
| 24>     C       16.0519460   15.4174022   21.1707115
| 25>     O       15.0553302   15.9518621   21.9202810
| 26>     C       16.7408919   16.2243197   20.2600870
| 27>     H       14.3377281   14.8681918   15.6679744
| 28>     H       14.5719745   13.1322280   15.4340098
| 29>     H       15.6214428   14.2818538   14.5785739
| 30>     H       15.5286137   14.1014220   17.6462081
| 31>     H       16.6161373   13.0837596   16.6908400
| 32>     H       15.4962409   19.2789361   16.8811750
| 33>     H       16.7443328   19.3310432   15.6300375
| 34>     H       16.6953456   20.5818654   16.8795429
| 35>     H       18.1167473   20.3825757   18.4812562
| 36>     H       20.1019260   17.1553602   19.8203549
| 37>     H       19.1741584   15.9179268   17.8659745
| 38>     H       18.9081038   13.8983318   19.0173897
| 39>     H       17.6870887   12.4628691   20.6382285
| 40>     H       15.8494491   13.4392529   22.0167628
| 41>     H       14.7303586   15.2573895   22.5127288
| 42>     H       16.4716435   17.2714999   20.1732635
| 43> *
| 44>
| 45>                          ****END OF INPUT****

CARTESIAN COORDINATES (ANGSTROEM)
---------------------------------
  C     15.097472   14.090449   15.523353
  C     16.090699   14.047097   16.704246
  O     17.076468   15.105889   16.668181
  C     16.772335   16.437426   16.548028
  O     15.841244   16.858072   15.885242
  C     17.563370   17.285626   17.507991
  C     17.445159   18.637626   17.552432
  C     16.552958   19.510570   16.695628
  N     18.228206   19.382129   18.439700
  C     19.217485   18.868131   19.234342
  S     20.161959   19.832355   20.190474
  N     19.389461   17.508340   19.194593
  C     18.520932   16.562216   18.471185
  C     17.773964   15.685510   19.472794
  C     18.110937   14.326617   19.619236
  C     17.419564   13.512885   20.532431
  C     16.385329   14.062971   21.308743
  C     16.051946   15.417402   21.170711
  O     15.055330   15.951862   21.920281
  C     16.740892   16.224320   20.260087
  H     14.337728   14.868192   15.667974
  H     14.571974   13.132228   15.434010
  H     15.621443   14.281854   14.578574
  H     15.528614   14.101422   17.646208
  H     16.616137   13.083760   16.690840
  H     15.496241   19.278936   16.881175
  H     16.744333   19.331043   15.630038
  H     16.695346   20.581865   16.879543
  H     18.116747   20.382576   18.481256
  H     20.101926   17.155360   19.820355
  H     19.174158   15.917927   17.865975
  H     18.908104   13.898332   19.017390
  H     17.687089   12.462869   20.638229
  H     15.849449   13.439253   22.016763
  H     14.730359   15.257389   22.512729
  H     16.471643   17.271500   20.173264

 Total Charge           Charge          ....    0
 Multiplicity           Mult            ....    1
 Number of Electrons    NEL             ....  154
 Basis Dimension        Dim             ....  828

ORBITAL ENERGIES
----------------

  NO   OCC          E(Eh)            E(eV)
   0   2.0000     -91.888665     -2500.4177
   1   2.0000     -20.598239      -560.5066
   2   2.0000     -20.592737      -560.3569
   3   2.0000     -20.543293      -559.0114
   4   2.0000     -15.628758      -425.2801
   5   2.0000     -15.608021      -424.7158
   6   2.0000     -11.396415      -310.1122
   7   2.0000     -11.383718      -309.7667
   8   2.0000     -11.335334      -308.4501
   9   2.0000     -11.315667      -307.9150
  10   2.0000     -11.308841      -307.7292
  11   2.0000     -11.300028      -307.4894
  12   2.0000     -11.261085      -306.4297
  13   2.0000     -11.258124      -306.3491
  14   2.0000     -11.257031      -306.3194
  15   2.0000     -11.252004      -306.1826
  16   2.0000     -11.244628      -305.9819
  17   2.0000     -11.239786      -305.8501
  18   2.0000     -11.239455      -305.8411
  19   2.0000     -11.218576      -305.2730
  20   2.0000      -8.893733      -242.0108
  21   2.0000      -6.575310      -178.9233
  22   2.0000      -6.573304      -178.8687
  23   2.0000      -6.572718      -178.8527
  24   2.0000      -1.444339       -39.3024
  25   2.0000      -1.417888       -38.5827
  26   2.0000      -1.354459       -36.8567
  27   2.0000      -1.339854       -36.4593
  28   2.0000      -1.238429       -33.6994
  29   2.0000      -1.158794       -31.5324
  30   2.0000      -1.119783       -30.4708
  31   2.0000      -1.043230       -28.3877
  32   2.0000      -1.033566       -28.1248
  33   2.0000      -1.016688       -27.6655
  34   2.0000      -0.995114       -27.0784
  35   2.0000      -0.983492       -26.7622
  36   2.0000      -0.922770       -25.1099
  37   2.0000      -0.892449       -24.2848
  38   2.0000      -0.847430       -23.0597
  39   2.0000      -0.839075       -22.8324
  40   2.0000      -0.835412       -22.7327
  41   2.0000      -0.820506       -22.3271
  42   2.0000      -0.748593       -20.3702
  43   2.0000      -0.731879       -19.9155
  44   2.0000      -0.719081       -19.5672
  45   2.0000      -0.696923       -18.9642
  46   2.0000      -0.688393       -18.7321
  47   2.0000      -0.678870       -18.4730
  48   2.0000      -0.668718       -18.1967
  49   2.0000      -0.658007       -17.9053
  50   2.0000      -0.650258       -17.6944
  51   2.0000      -0.645550       -17.5663
  52   2.0000      -0.635140       -17.2831
  53   2.0000      -0.608494       -16.5580
  54   2.0000      -0.602026       -16.3819
  55   2.0000      -0.599476       -16.3126
  56   2.0000      -0.595811       -16.2128
  57   2.0000      -0.581734       -15.8298
  58   2.0000      -0.575840       -15.6694
  59   2.0000      -0.570713       -15.5299
  60   2.0000      -0.562900       -15.3173
  61   2.0000      -0.538805       -14.6616
  62   2.0000      -0.534672       -14.5492
  63   2.0000      -0.525725       -14.3057
  64   2.0000      -0.520525       -14.1642
  65   2.0000      -0.513101       -13.9622
  66   2.0000      -0.501315       -13.6415
  67   2.0000      -0.497845       -13.5470
  68   2.0000      -0.484297       -13.1784
  69   2.0000      -0.463607       -12.6154
  70   2.0000      -0.454738       -12.3741
  71   2.0000      -0.439186       -11.9509
  72   2.0000      -0.353727        -9.6254
  73   2.0000      -0.350834        -9.5467
  74   2.0000      -0.328301        -8.9335
  75   2.0000      -0.323064        -8.7910
  76   2.0000      -0.316082        -8.6010
  77   0.0000       0.074585         2.0296
  78   0.0000       0.104968         2.8563
  79   0.0000       0.124539         3.3889
  80   0.0000       0.131815         3.5869
  81   0.0000       0.137240         3.7345

MULLIKEN ATOMIC CHARGES
-----------------------
   0 C :   -0.278560
   1 C :    0.043698
   2 O :   -0.378783
   3 C :    0.465292
   4 O :   -0.424691
   5 C :   -0.223125
   6 C :    0.155139
   7 C :   -0.271404
   8 N :   -0.121937
   9 C :    0.213619
  10 S :   -0.441046
  11 N :   -0.206787
  12 C :    0.069403
  13 C :    0.046048
  14 C :   -0.180203
  15 C :   -0.131760
  16 C :   -0.280930
  17 C :    0.313858
  18 O :   -0.355844
  19 C :   -0.263294
  20 H :    0.113817
  21 H :    0.092055
  22 H :    0.099674
  23 H :    0.096776
  24 H :    0.100016
  25 H :    0.131820
  26 H :    0.130255
  27 H :    0.095301
  28 H :    0.197270
  29 H :    0.194866
  30 H :    0.149092
  31 H :    0.150068
  32 H :    0.161401
  33 H :    0.131502
  34 H :    0.240996
  35 H :    0.166396
Sum of atomic charges:    0.0000000

LOEWDIN ATOMIC CHARGES
----------------------
   0 C :    0.103099
   1 C :   -0.013746
   2 O :    0.291907
   3 C :   -0.412347
   4 O :    0.112513
   5 C :   -0.095510
   6 C :   -0.059288
   7 C :    0.130892
   8 N :    0.406524
   9 C :   -0.456256
  10 S :   -0.036166
  11 N :    0.396204
  12 C :   -0.052384
  13 C :   -0.037682
  14 C :    0.014606
  15 C :    0.039079
  16 C :   -0.002921
  17 C :   -0.189993
  18 O :    0.395764
  19 C :    0.030495
  20 H :   -0.027230
  21 H :   -0.030259
  22 H :   -0.024725
  23 H :   -0.028811
  24 H :   -0.024530
  25 H :   -0.004959
  26 H :   -0.004182
  27 H :   -0.023440
  28 H :   -0.057646
  29 H :   -0.064806
  30 H :   -0.010606
  31 H :   -0.029970
  32 H :   -0.021049
  33 H :   -0.035401
  34 H :   -0.153589
  35 H :   -0.023586

  Mayer bond orders larger than 0.100000
B(  0-C ,  1-C ) :   0.9810 B(  0-C , 20-H ) :   0.9725 B(  0-C , 21-H ) :   0.9767
B(  0-C , 22-H ) :   0.9760 B(  1-C ,  2-O ) :   0.8888 B(  1-C , 23-H ) :   0.9707
B(  1-C , 24-H ) :   0.9821 B(  2-O ,  3-C ) :   1.1134 B(  3-C ,  4-O ) :   1.9850
B(  3-C ,  5-C ) :   1.0729 B(  5-C ,  6-C ) :   1.6528 B(  5-C , 12-C ) :   0.9732
B(  6-C ,  7-C ) :   0.9666 B(  6-C ,  8-N ) :   1.1607 B(  7-C , 25-H ) :   0.9595
B(  7-C , 26-H ) :   0.9611 B(  7-C , 27-H ) :   0.9909 B(  8-N ,  9-C ) :   1.1836
B(  8-N , 28-H ) :   0.9478 B(  9-C , 10-S ) :   1.6054 B(  9-C , 11-N ) :   1.3066
B( 11-N , 12-C ) :   0.9812 B( 11-N , 29-H ) :   0.9515 B( 12-C , 13-C ) :   0.9355
B( 12-C , 30-H ) :   1.0017 B( 13-C , 14-C ) :   1.3555 B( 13-C , 19-C ) :   1.3841
B( 14-C , 15-C ) :   1.3918 B( 14-C , 31-H ) :   0.9734 B( 15-C , 16-C ) :   1.3629
B( 15-C , 32-H ) :   0.9706 B( 16-C , 17-C ) :   1.3308 B( 16-C , 33-H ) :   0.9846
B( 17-C , 18-O ) :   1.1118 B( 17-C , 19-C ) :   1.3706 B( 18-O , 34-H ) :   0.9796
B( 19-C , 35-H ) :   0.9580

MP2 TOTAL ENERGY:    -1274.337671586 Eh
FINAL SINGLE POINT ENERGY     -1274.337671585682

DIPOLE MOMENT
-------------
                                X             Y             Z
Electronic contribution:     10.25906       9.94659       8.60973
Nuclear contribution   :    -11.26349     -11.65084      -8.82607
                        -----------------------------------------
Total Dipole Moment    :     -1.00442      -1.70426      -0.21634
                        -----------------------------------------
Magnitude (a.u.)       :      1.99002
Magnitude (Debye)      :      5.05822

Rotational constants in cm-1:     0.011907     0.008690     0.006167
Rotational constants in MHz :   356.962353   260.520583   184.877321

                             ****ORCA TERMINATED NORMALLY****
TOTAL RUN TIME: 0 days 1 hours 45 minutes 56 seconds 701 msec
