                         Program Version 4.2.0 -  RELEASE  -
|  1> ! ri-mp2 cc-pvtz cc-pvtz/c TightSCF  NoKeepInts
|  2>
|  3> %scf
|  4>   MaxCore 4096
|  5> end
|  6> *xyz  0  1
|  7>     C       14.2260051   14.9254724   15.4626777
|  8>     C       15.7359341   14.6332694   15.4678252
|  9>     O       16.3985184   15.8223302   15.9322564
| 10>     C       17.4995300   15.7103361   16.7303308
| 11>     O       18.1187516   14.6643737   16.8394513
| 12>     C       17.7725229   16.9051314   17.6004214
| 13>     C       17.2245090   18.1385673   17.4357051
| 14>     C       16.2471133   18.5960391   16.3719750
| 15>     N       17.6097864   19.1868646   18.2784306
| 16>     C       18.6297408   19.1259901   19.1907360
| 17>     S       19.1093144   20.4536499   20.0526987
| 18>     N       19.2326123   17.9046625   19.3512380
| 19>     C       18.7588378   16.6462842   18.7455476
| 20>     C       18.1408760   15.7421582   19.8092015
| 21>     C       18.6090390   14.4269175   19.9856335
| 22>     C       18.0426397   13.5892821   20.9610837
| 23>     C       16.9979670   14.0698551   21.7687285
| 24>     C       16.5260553   15.3778390   21.5940142
| 25>     O       15.5132241   15.8428760   22.3681769
| 26>     C       17.0915598   16.2090647   20.6220378
| 27>     H       13.8783091   15.1808060   16.4715522
| 28>     H       13.6660421   14.0471482   15.1191072
| 29>     H       13.9960267   15.7633231   14.7929023
| 30>     H       15.9227746   13.7857303   16.1421051
| 31>     H       16.0887972   14.3645616   14.4636311
| 32>     H       16.6176997   18.3472466   15.3697222
| 33>     H       16.0747307   19.6789259   16.3911673
| 34>     H       15.2742089   18.1063277   16.5042531
| 35>     H       17.1793922   20.0919062   18.1757347
| 36>     H       19.9606120   17.8776805   20.0535155
| 37>     H       19.6343444   16.1318235   18.3235884
| 38>     H       19.4052140   14.0469810   19.3500334
| 39>     H       18.4099770   12.5719144   21.0827912
| 40>     H       16.5563833   13.4256900   22.5216806
| 41>     H       15.2844247   15.1420198   22.9968207
| 42>     H       16.7135263   17.2189520   20.5072250
| 43> *
| 44>
| 45>                          ****END OF INPUT****

CARTESIAN COORDINATES (ANGSTROEM)
---------------------------------
  C     14.226005   14.925472   15.462678
  C     15.735934   14.633269   15.467825
  O     16.398518   15.822330   15.932256
  C     17.499530   15.710336   16.730331
  O     18.118752   14.664374   16.839451
  C     17.772523   16.905131   17.600421
  C     17.224509   18.138567   17.435705
  C     16.247113   18.596039   16.371975
  N     17.609786   19.186865   18.278431
  C     18.629741   19.125990   19.190736
  S     19.109314   20.453650   20.052699
  N     19.232612   17.904663   19.351238
  C     18.758838   16.646284   18.745548
  C     18.140876   15.742158   19.809202
  C     18.609039   14.426918   19.985633
  C     18.042640   13.589282   20.961084
  C     16.997967   14.069855   21.768728
  C     16.526055   15.377839   21.594014
  O     15.513224   15.842876   22.368177
  C     17.091560   16.209065   20.622038
  H     13.878309   15.180806   16.471552
  H     13.666042   14.047148   15.119107
  H     13.996027   15.763323   14.792902
  H     15.922775   13.785730   16.142105
  H     16.088797   14.364562   14.463631
  H     16.617700   18.347247   15.369722
  H     16.074731   19.678926   16.391167
  H     15.274209   18.106328   16.504253
  H     17.179392   20.091906   18.175735
  H     19.960612   17.877681   20.053515
  H     19.634344   16.131823   18.323588
  H     19.405214   14.046981   19.350033
  H     18.409977   12.571914   21.082791
  H     16.556383   13.425690   22.521681
  H     15.284425   15.142020   22.996821
  H     16.713526   17.218952   20.507225

 Total Charge           Charge          ....    0
 Multiplicity           Mult            ....    1
 Number of Electrons    NEL             ....  154
 Basis Dimension        Dim             ....  828

ORBITAL ENERGIES
----------------

  NO   OCC          E(Eh)            E(eV)
   0   2.0000     -91.888118     -2500.4028
   1   2.0000     -20.603433      -560.6479
   2   2.0000     -20.591570      -560.3251
   3   2.0000     -20.545275      -559.0653
   4   2.0000     -15.628605      -425.2760
   5   2.0000     -15.606659      -424.6788
   6   2.0000     -11.395485      -310.0869
   7   2.0000     -11.382938      -309.7455
   8   2.0000     -11.336817      -308.4905
   9   2.0000     -11.307316      -307.6877
  10   2.0000     -11.305350      -307.6342
  11   2.0000     -11.299401      -307.4723
  12   2.0000     -11.260763      -306.4209
  13   2.0000     -11.259027      -306.3737
  14   2.0000     -11.253201      -306.2152
  15   2.0000     -11.247389      -306.0570
  16   2.0000     -11.237065      -305.7761
  17   2.0000     -11.234656      -305.7105
  18   2.0000     -11.233238      -305.6719
  19   2.0000     -11.230108      -305.5868
  20   2.0000      -8.893180      -241.9957
  21   2.0000      -6.574757      -178.9082
  22   2.0000      -6.572750      -178.8536
  23   2.0000      -6.572164      -178.8377
  24   2.0000      -1.454681       -39.5839
  25   2.0000      -1.411306       -38.4036
  26   2.0000      -1.357116       -36.9290
  27   2.0000      -1.339480       -36.4491
  28   2.0000      -1.237010       -33.6608
  29   2.0000      -1.151927       -31.3455
  30   2.0000      -1.119457       -30.4620
  31   2.0000      -1.044748       -28.4290
  32   2.0000      -1.037011       -28.2185
  33   2.0000      -1.009311       -27.4647
  34   2.0000      -0.997753       -27.1502
  35   2.0000      -0.983354       -26.7584
  36   2.0000      -0.921012       -25.0620
  37   2.0000      -0.889725       -24.2106
  38   2.0000      -0.847093       -23.0506
  39   2.0000      -0.834819       -22.7166
  40   2.0000      -0.827602       -22.5202
  41   2.0000      -0.817088       -22.2341
  42   2.0000      -0.762274       -20.7425
  43   2.0000      -0.735989       -20.0273
  44   2.0000      -0.724659       -19.7190
  45   2.0000      -0.691054       -18.8045
  46   2.0000      -0.684785       -18.6340
  47   2.0000      -0.680048       -18.5051
  48   2.0000      -0.675417       -18.3790
  49   2.0000      -0.660176       -17.9643
  50   2.0000      -0.648960       -17.6591
  51   2.0000      -0.643720       -17.5165
  52   2.0000      -0.634877       -17.2759
  53   2.0000      -0.601192       -16.3593
  54   2.0000      -0.599998       -16.3268
  55   2.0000      -0.595287       -16.1986
  56   2.0000      -0.591020       -16.0825
  57   2.0000      -0.584188       -15.8966
  58   2.0000      -0.573198       -15.5975
  59   2.0000      -0.564136       -15.3509
  60   2.0000      -0.561579       -15.2814
  61   2.0000      -0.557331       -15.1657
  62   2.0000      -0.539153       -14.6711
  63   2.0000      -0.523390       -14.2422
  64   2.0000      -0.517234       -14.0746
  65   2.0000      -0.510369       -13.8878
  66   2.0000      -0.500839       -13.6285
  67   2.0000      -0.495498       -13.4832
  68   2.0000      -0.480681       -13.0800
  69   2.0000      -0.464655       -12.6439
  70   2.0000      -0.458687       -12.4815
  71   2.0000      -0.456043       -12.4096
  72   2.0000      -0.354348        -9.6423
  73   2.0000      -0.343841        -9.3564
  74   2.0000      -0.327222        -8.9042
  75   2.0000      -0.315627        -8.5887
  76   2.0000      -0.313551        -8.5321
  77   0.0000       0.075829         2.0634
  78   0.0000       0.113138         3.0786
  79   0.0000       0.120452         3.2777
  80   0.0000       0.136054         3.7022
  81   0.0000       0.139080         3.7845

MULLIKEN ATOMIC CHARGES
-----------------------
   0 C :   -0.276503
   1 C :    0.035626
   2 O :   -0.338439
   3 C :    0.439872
   4 O :   -0.427705
   5 C :   -0.175099
   6 C :    0.143597
   7 C :   -0.286756
   8 N :   -0.121536
   9 C :    0.201361
  10 S :   -0.439057
  11 N :   -0.196925
  12 C :    0.036076
  13 C :    0.058056
  14 C :   -0.160263
  15 C :   -0.134164
  16 C :   -0.279171
  17 C :    0.311355
  18 O :   -0.359311
  19 C :   -0.273590
  20 H :    0.099068
  21 H :    0.102804
  22 H :    0.092583
  23 H :    0.104166
  24 H :    0.096892
  25 H :    0.127689
  26 H :    0.104131
  27 H :    0.126659
  28 H :    0.196740
  29 H :    0.193579
  30 H :    0.153482
  31 H :    0.153229
  32 H :    0.159069
  33 H :    0.127958
  34 H :    0.240076
  35 H :    0.164452
Sum of atomic charges:   -0.0000000

LOEWDIN ATOMIC CHARGES
----------------------
   0 C :    0.104849
   1 C :   -0.013789
   2 O :    0.307351
   3 C :   -0.415630
   4 O :    0.103444
   5 C :   -0.091707
   6 C :   -0.065382
   7 C :    0.124884
   8 N :    0.404888
   9 C :   -0.458993
  10 S :   -0.035818
  11 N :    0.397935
  12 C :   -0.046561
  13 C :   -0.038736
  14 C :    0.022375
  15 C :    0.040862
  16 C :   -0.002458
  17 C :   -0.192809
  18 O :    0.392850
  19 C :    0.028073
  20 H :   -0.026263
  21 H :   -0.023307
  22 H :   -0.029899
  23 H :   -0.025497
  24 H :   -0.030249
  25 H :   -0.008336
  26 H :   -0.021082
  27 H :   -0.010062
  28 H :   -0.059211
  29 H :   -0.063634
  30 H :   -0.004950
  31 H :   -0.025245
  32 H :   -0.021244
  33 H :   -0.036460
  34 H :   -0.154937
  35 H :   -0.025253

  Mayer bond orders larger than 0.100000
B(  0-C ,  1-C ) :   0.9718 B(  0-C , 20-H ) :   0.9763 B(  0-C , 21-H ) :   0.9787
B(  0-C , 22-H ) :   0.9783 B(  1-C ,  2-O ) :   0.8984 B(  1-C , 23-H ) :   0.9734
B(  1-C , 24-H ) :   0.9822 B(  2-O ,  3-C ) :   1.1694 B(  3-C ,  4-O ) :   1.9844
B(  3-C ,  5-C ) :   1.0545 B(  5-C ,  6-C ) :   1.6455 B(  5-C , 12-C ) :   0.9660
B(  6-C ,  7-C ) :   0.9548 B(  6-C ,  8-N ) :   1.1495 B(  7-C , 25-H ) :   0.9652
B(  7-C , 26-H ) :   0.9916 B(  7-C , 27-H ) :   0.9643 B(  8-N ,  9-C ) :   1.1778
B(  8-N , 28-H ) :   0.9488 B(  9-C , 10-S ) :   1.6109 B(  9-C , 11-N ) :   1.3047
B( 11-N , 12-C ) :   0.9921 B( 11-N , 29-H ) :   0.9521 B( 12-C , 13-C ) :   0.9474
B( 12-C , 30-H ) :   0.9999 B( 13-C , 14-C ) :   1.3758 B( 13-C , 19-C ) :   1.3690
B( 14-C , 15-C ) :   1.3946 B( 14-C , 31-H ) :   0.9649 B( 15-C , 16-C ) :   1.3624
B( 15-C , 32-H ) :   0.9714 B( 16-C , 17-C ) :   1.3316 B( 16-C , 33-H ) :   0.9860
B( 17-C , 18-O ) :   1.1079 B( 17-C , 19-C ) :   1.3793 B( 18-O , 34-H ) :   0.9806
B( 19-C , 35-H ) :   0.9586

MP2 TOTAL ENERGY:    -1274.347457232 Eh
FINAL SINGLE POINT ENERGY     -1274.347457231554

DIPOLE MOMENT
-------------
                                X             Y             Z
Electronic contribution:     11.96737       8.69229      10.33150
Nuclear contribution   :    -13.45522     -10.01684     -11.31596
                        -----------------------------------------
Total Dipole Moment    :     -1.48785      -1.32455      -0.98445
                        -----------------------------------------
Magnitude (a.u.)       :      2.22199
Magnitude (Debye)      :      5.64786

Rotational constants in cm-1:     0.010303     0.009019     0.005993
Rotational constants in MHz :   308.884257   270.392588   179.678432

                             ****ORCA TERMINATED NORMALLY****
TOTAL RUN TIME: 0 days 1 hours 44 minutes 0 seconds 589 msec
