                         Program Version 4.2.0 -  RELEASE  -
|  1> ! ri-mp2 cc-pvtz cc-pvtz/c TightSCF  NoKeepInts
|  2>
|  3> %scf
|  4>   MaxCore 4096
|  5> end
|  6> *xyz  0  1
|  7>     C       14.4843853   14.5845231   16.2860595
|  8>     C       15.6112262   15.3935027   16.9480169
|  9>     O       16.8279132   15.0828676   16.2413745
| 10>     C       18.0511298   15.5515526   16.6464776
| 11>     O       19.0170730   14.8111140   16.6445111
| 12>     C       18.0461902   16.8187936   17.4400062
| 13>     C       17.5204035   17.9765694   16.9745491
| 14>     C       16.9015827   18.2204451   15.6138373
| 15>     N       17.6040846   19.1374628   17.7463895
| 16>     C       18.2917419   19.2403608   18.9278382
| 17>     S       18.3992571   20.6721591   19.7476418
| 18>     N       18.8839421   18.0940576   19.3989598
| 19>     C       18.7467067   16.7531120   18.7960854
| 20>     C       18.0049635   15.7975904   19.7256624
| 21>     C       18.4654606   14.4793892   19.8967483
| 22>     C       17.7728804   13.5803144   20.7245320
| 23>     C       16.6064302   14.0007430   21.3856118
| 24>     C       16.1400546   15.3106358   21.2126820
| 25>     O       15.0055345   15.7157007   21.8363843
| 26>     C       16.8307378   16.2035254   20.3871366
| 27>     H       14.7046884   13.5103496   16.3304982
| 28>     H       14.3690000   14.8699260   15.2330626
| 29>     H       13.5305723   14.7605337   16.7981182
| 30>     H       15.3647972   16.4592785   16.9044545
| 31>     H       15.7007842   15.0955355   18.0014061
| 32>     H       17.0157391   17.3615560   14.9412950
| 33>     H       17.3807030   19.0728609   15.1154166
| 34>     H       15.8301566   18.4394815   15.6976588
| 35>     H       17.1912189   19.9935322   17.4102139
| 36>     H       19.3679796   18.1958952   20.2822205
| 37>     H       19.7590381   16.3549665   18.6313123
| 38>     H       19.3569092   14.1449168   19.3699021
| 39>     H       18.1380071   12.5615480   20.8442228
| 40>     H       16.0670476   13.3078010   22.0230375
| 41>     H       14.7102661   14.9877338   22.4043696
| 42>     H       16.4483947   17.2116654   20.2663068
| 43> *
| 44>
| 45>                          ****END OF INPUT****

CARTESIAN COORDINATES (ANGSTROEM)
---------------------------------
  C     14.484385   14.584523   16.286060
  C     15.611226   15.393503   16.948017
  O     16.827913   15.082868   16.241374
  C     18.051130   15.551553   16.646478
  O     19.017073   14.811114   16.644511
  C     18.046190   16.818794   17.440006
  C     17.520404   17.976569   16.974549
  C     16.901583   18.220445   15.613837
  N     17.604085   19.137463   17.746389
  C     18.291742   19.240361   18.927838
  S     18.399257   20.672159   19.747642
  N     18.883942   18.094058   19.398960
  C     18.746707   16.753112   18.796085
  C     18.004963   15.797590   19.725662
  C     18.465461   14.479389   19.896748
  C     17.772880   13.580314   20.724532
  C     16.606430   14.000743   21.385612
  C     16.140055   15.310636   21.212682
  O     15.005534   15.715701   21.836384
  C     16.830738   16.203525   20.387137
  H     14.704688   13.510350   16.330498
  H     14.369000   14.869926   15.233063
  H     13.530572   14.760534   16.798118
  H     15.364797   16.459278   16.904454
  H     15.700784   15.095535   18.001406
  H     17.015739   17.361556   14.941295
  H     17.380703   19.072861   15.115417
  H     15.830157   18.439481   15.697659
  H     17.191219   19.993532   17.410214
  H     19.367980   18.195895   20.282220
  H     19.759038   16.354966   18.631312
  H     19.356909   14.144917   19.369902
  H     18.138007   12.561548   20.844223
  H     16.067048   13.307801   22.023037
  H     14.710266   14.987734   22.404370
  H     16.448395   17.211665   20.266307

 Total Charge           Charge          ....    0
 Multiplicity           Mult            ....    1
 Number of Electrons    NEL             ....  154
 Basis Dimension        Dim             ....  828

ORBITAL ENERGIES
----------------

  NO   OCC          E(Eh)            E(eV)
   0   2.0000     -91.890679     -2500.4725
   1   2.0000     -20.599941      -560.5529
   2   2.0000     -20.597512      -560.4868
   3   2.0000     -20.551697      -559.2401
   4   2.0000     -15.628438      -425.2714
   5   2.0000     -15.611628      -424.8140
   6   2.0000     -11.396863      -310.1244
   7   2.0000     -11.387262      -309.8631
   8   2.0000     -11.332264      -308.3666
   9   2.0000     -11.316767      -307.9449
  10   2.0000     -11.313845      -307.8654
  11   2.0000     -11.302727      -307.5629
  12   2.0000     -11.268423      -306.6294
  13   2.0000     -11.264446      -306.5212
  14   2.0000     -11.263141      -306.4856
  15   2.0000     -11.256871      -306.3150
  16   2.0000     -11.246299      -306.0273
  17   2.0000     -11.242105      -305.9132
  18   2.0000     -11.239224      -305.8348
  19   2.0000     -11.233212      -305.6712
  20   2.0000      -8.895783      -242.0666
  21   2.0000      -6.577367      -178.9793
  22   2.0000      -6.575345      -178.9242
  23   2.0000      -6.574767      -178.9085
  24   2.0000      -1.448620       -39.4189
  25   2.0000      -1.419774       -38.6340
  26   2.0000      -1.360056       -37.0090
  27   2.0000      -1.341242       -36.4971
  28   2.0000      -1.240503       -33.7558
  29   2.0000      -1.161440       -31.6044
  30   2.0000      -1.125661       -30.6308
  31   2.0000      -1.048954       -28.5435
  32   2.0000      -1.039705       -28.2918
  33   2.0000      -1.018901       -27.7257
  34   2.0000      -1.005249       -27.3542
  35   2.0000      -0.989569       -26.9275
  36   2.0000      -0.927930       -25.2503
  37   2.0000      -0.879298       -23.9269
  38   2.0000      -0.855843       -23.2887
  39   2.0000      -0.842860       -22.9354
  40   2.0000      -0.837418       -22.7873
  41   2.0000      -0.836363       -22.7586
  42   2.0000      -0.757348       -20.6085
  43   2.0000      -0.739895       -20.1336
  44   2.0000      -0.732159       -19.9231
  45   2.0000      -0.697504       -18.9800
  46   2.0000      -0.688355       -18.7311
  47   2.0000      -0.682445       -18.5703
  48   2.0000      -0.676946       -18.4206
  49   2.0000      -0.663956       -18.0672
  50   2.0000      -0.653719       -17.7886
  51   2.0000      -0.650234       -17.6938
  52   2.0000      -0.640818       -17.4375
  53   2.0000      -0.611766       -16.6470
  54   2.0000      -0.608004       -16.5446
  55   2.0000      -0.603903       -16.4330
  56   2.0000      -0.599834       -16.3223
  57   2.0000      -0.586629       -15.9630
  58   2.0000      -0.578049       -15.7295
  59   2.0000      -0.568008       -15.4563
  60   2.0000      -0.561616       -15.2823
  61   2.0000      -0.557850       -15.1799
  62   2.0000      -0.547795       -14.9063
  63   2.0000      -0.526078       -14.3153
  64   2.0000      -0.522749       -14.2247
  65   2.0000      -0.515971       -14.0403
  66   2.0000      -0.502669       -13.6783
  67   2.0000      -0.501706       -13.6521
  68   2.0000      -0.490539       -13.3483
  69   2.0000      -0.469215       -12.7680
  70   2.0000      -0.457296       -12.4437
  71   2.0000      -0.450707       -12.2644
  72   2.0000      -0.358095        -9.7443
  73   2.0000      -0.351823        -9.5736
  74   2.0000      -0.330246        -8.9865
  75   2.0000      -0.324762        -8.8372
  76   2.0000      -0.319104        -8.6833
  77   0.0000       0.080682         2.1955
  78   0.0000       0.104528         2.8444
  79   0.0000       0.113629         3.0920
  80   0.0000       0.128782         3.5043
  81   0.0000       0.131511         3.5786

MULLIKEN ATOMIC CHARGES
-----------------------
   0 C :   -0.259797
   1 C :    0.019026
   2 O :   -0.318550
   3 C :    0.407103
   4 O :   -0.380110
   5 C :   -0.191174
   6 C :    0.129475
   7 C :   -0.321252
   8 N :   -0.133129
   9 C :    0.201174
  10 S :   -0.439303
  11 N :   -0.211434
  12 C :    0.066945
  13 C :    0.020886
  14 C :   -0.189462
  15 C :   -0.133311
  16 C :   -0.275594
  17 C :    0.321460
  18 O :   -0.358882
  19 C :   -0.281944
  20 H :    0.107674
  21 H :    0.096491
  22 H :    0.090262
  23 H :    0.085959
  24 H :    0.118525
  25 H :    0.132957
  26 H :    0.137316
  27 H :    0.119155
  28 H :    0.196373
  29 H :    0.197594
  30 H :    0.163530
  31 H :    0.169260
  32 H :    0.163934
  33 H :    0.132827
  34 H :    0.241656
  35 H :    0.174362
Sum of atomic charges:   -0.0000000

LOEWDIN ATOMIC CHARGES
----------------------
   0 C :    0.111969
   1 C :   -0.023817
   2 O :    0.300442
   3 C :   -0.415705
   4 O :    0.126511
   5 C :   -0.084610
   6 C :   -0.096676
   7 C :    0.124961
   8 N :    0.402302
   9 C :   -0.456612
  10 S :   -0.036340
  11 N :    0.397186
  12 C :   -0.044708
  13 C :   -0.044907
  14 C :    0.021513
  15 C :    0.044927
  16 C :   -0.000614
  17 C :   -0.195140
  18 O :    0.394644
  19 C :    0.027074
  20 H :   -0.022350
  21 H :   -0.027562
  22 H :   -0.024627
  23 H :   -0.039033
  24 H :   -0.027531
  25 H :   -0.007759
  26 H :   -0.010460
  27 H :   -0.017836
  28 H :   -0.057108
  29 H :   -0.063623
  30 H :   -0.002586
  31 H :   -0.021801
  32 H :   -0.018432
  33 H :   -0.034539
  34 H :   -0.152909
  35 H :   -0.024244

  Mayer bond orders larger than 0.100000
B(  0-C ,  1-C ) :   0.9840 B(  0-C , 20-H ) :   0.9784 B(  0-C , 21-H ) :   0.9789
B(  0-C , 22-H ) :   0.9767 B(  1-C ,  2-O ) :   0.9041 B(  1-C , 23-H ) :   0.9672
B(  1-C , 24-H ) :   0.9694 B(  2-O ,  3-C ) :   1.1807 B(  3-C ,  4-O ) :   2.0975
B(  3-C ,  5-C ) :   0.9271 B(  5-C ,  6-C ) :   1.6815 B(  5-C , 12-C ) :   0.9613
B(  6-C ,  7-C ) :   0.9424 B(  6-C ,  8-N ) :   1.1217 B(  7-C , 25-H ) :   0.9777
B(  7-C , 26-H ) :   0.9710 B(  7-C , 27-H ) :   0.9657 B(  8-N ,  9-C ) :   1.1913
B(  8-N , 28-H ) :   0.9519 B(  9-C , 10-S ) :   1.6127 B(  9-C , 11-N ) :   1.2906
B( 11-N , 12-C ) :   0.9967 B( 11-N , 29-H ) :   0.9497 B( 12-C , 13-C ) :   0.9406
B( 12-C , 30-H ) :   0.9976 B( 13-C , 14-C ) :   1.3878 B( 13-C , 19-C ) :   1.3506
B( 14-C , 15-C ) :   1.3957 B( 14-C , 31-H ) :   0.9600 B( 15-C , 16-C ) :   1.3643
B( 15-C , 32-H ) :   0.9700 B( 16-C , 17-C ) :   1.3282 B( 16-C , 33-H ) :   0.9843
B( 17-C , 18-O ) :   1.1099 B( 17-C , 19-C ) :   1.3663 B( 18-O , 34-H ) :   0.9791
B( 19-C , 35-H ) :   0.9588

MP2 TOTAL ENERGY:    -1274.335029950 Eh
FINAL SINGLE POINT ENERGY     -1274.335029949769

DIPOLE MOMENT
-------------
                                X             Y             Z
Electronic contribution:     10.92636       8.27059       7.56272
Nuclear contribution   :    -12.41370      -9.30301      -7.87632
                        -----------------------------------------
Total Dipole Moment    :     -1.48734      -1.03242      -0.31359
                        -----------------------------------------
Magnitude (a.u.)       :      1.83750
Magnitude (Debye)      :      4.67055

Rotational constants in cm-1:     0.011466     0.009181     0.006731
Rotational constants in MHz :   343.731109   275.242668   201.787854

                             ****ORCA TERMINATED NORMALLY****
TOTAL RUN TIME: 0 days 1 hours 47 minutes 27 seconds 827 msec
