                         Program Version 4.2.0 -  RELEASE  -
|  1> ! ri-mp2 cc-pvtz cc-pvtz/c TightSCF  NoKeepInts
|  2>
|  3> %scf
|  4>   MaxCore 4096
|  5> end
|  6> *xyz  0  1
|  7>     C       15.4383559   13.3741879   16.4873756
|  8>     C       15.7100441   14.8284963   16.9043847
|  9>     O       16.9682350   15.2125341   16.3185906
| 10>     C       17.1742202   16.5404078   16.0918763
| 11>     O       16.6205685   17.0677410   15.1445565
| 12>     C       17.6328537   17.2995594   17.3093196
| 13>     C       17.4161932   18.6317172   17.4635490
| 14>     C       16.5934475   19.5412342   16.5762387
| 15>     N       18.0346220   19.3225662   18.5107124
| 16>     C       19.0526259   18.8175550   19.2761546
| 17>     S       19.8814623   19.7514345   20.3605107
| 18>     N       19.3571930   17.4932895   19.0851526
| 19>     C       18.5257284   16.5498758   18.3152879
| 20>     C       17.7520169   15.6687055   19.2889674
| 21>     C       18.0208759   14.2887044   19.3639620
| 22>     C       17.3087757   13.4691074   20.2556267
| 23>     C       16.3248501   14.0340208   21.0847851
| 24>     C       16.0618175   15.4090823   21.0208875
| 25>     O       15.1114311   15.9574792   21.8184560
| 26>     C       16.7692821   16.2221358   20.1300014
| 27>     H       14.4699825   13.0367202   16.8759673
| 28>     H       16.2174933   12.7092568   16.8800348
| 29>     H       15.4218373   13.2827863   15.3939754
| 30>     H       14.9021039   15.4597303   16.5090198
| 31>     H       15.7103016   14.9198015   17.9942968
| 32>     H       15.5935931   19.1205961   16.4104204
| 33>     H       17.0684851   19.6513696   15.5928172
| 34>     H       16.4607300   20.5446851   16.9973087
| 35>     H       17.8347526   20.3006568   18.6478161
| 36>     H       20.0970344   17.1412514   19.6792018
| 37>     H       19.2035526   15.9060147   17.7369868
| 38>     H       18.7779297   13.8471237   18.7209306
| 39>     H       17.5213264   12.4022563   20.3030612
| 40>     H       15.7732080   13.4047826   21.7757756
| 41>     H       14.7857301   15.2603344   22.4078288
| 42>     H       16.5543404   17.2847999   20.1021633
| 43> *
| 44>
| 45>                          ****END OF INPUT****

CARTESIAN COORDINATES (ANGSTROEM)
---------------------------------
  C     15.438356   13.374188   16.487376
  C     15.710044   14.828496   16.904385
  O     16.968235   15.212534   16.318591
  C     17.174220   16.540408   16.091876
  O     16.620569   17.067741   15.144556
  C     17.632854   17.299559   17.309320
  C     17.416193   18.631717   17.463549
  C     16.593447   19.541234   16.576239
  N     18.034622   19.322566   18.510712
  C     19.052626   18.817555   19.276155
  S     19.881462   19.751434   20.360511
  N     19.357193   17.493289   19.085153
  C     18.525728   16.549876   18.315288
  C     17.752017   15.668705   19.288967
  C     18.020876   14.288704   19.363962
  C     17.308776   13.469107   20.255627
  C     16.324850   14.034021   21.084785
  C     16.061818   15.409082   21.020888
  O     15.111431   15.957479   21.818456
  C     16.769282   16.222136   20.130001
  H     14.469983   13.036720   16.875967
  H     16.217493   12.709257   16.880035
  H     15.421837   13.282786   15.393975
  H     14.902104   15.459730   16.509020
  H     15.710302   14.919802   17.994297
  H     15.593593   19.120596   16.410420
  H     17.068485   19.651370   15.592817
  H     16.460730   20.544685   16.997309
  H     17.834753   20.300657   18.647816
  H     20.097034   17.141251   19.679202
  H     19.203553   15.906015   17.736987
  H     18.777930   13.847124   18.720931
  H     17.521326   12.402256   20.303061
  H     15.773208   13.404783   21.775776
  H     14.785730   15.260334   22.407829
  H     16.554340   17.284800   20.102163

 Total Charge           Charge          ....    0
 Multiplicity           Mult            ....    1
 Number of Electrons    NEL             ....  154
 Basis Dimension        Dim             ....  828

ORBITAL ENERGIES
----------------

  NO   OCC          E(Eh)            E(eV)
   0   2.0000     -91.891643     -2500.4987
   1   2.0000     -20.601862      -560.6052
   2   2.0000     -20.580282      -560.0179
   3   2.0000     -20.550887      -559.2181
   4   2.0000     -15.631749      -425.3615
   5   2.0000     -15.610478      -424.7827
   6   2.0000     -11.392486      -310.0053
   7   2.0000     -11.386134      -309.8325
   8   2.0000     -11.337808      -308.5175
   9   2.0000     -11.319893      -308.0300
  10   2.0000     -11.313574      -307.8580
  11   2.0000     -11.293318      -307.3068
  12   2.0000     -11.264406      -306.5201
  13   2.0000     -11.261073      -306.4294
  14   2.0000     -11.260345      -306.4096
  15   2.0000     -11.254163      -306.2413
  16   2.0000     -11.249031      -306.1017
  17   2.0000     -11.243508      -305.9514
  18   2.0000     -11.243182      -305.9425
  19   2.0000     -11.225095      -305.4504
  20   2.0000      -8.896658      -242.0904
  21   2.0000      -6.578221      -179.0025
  22   2.0000      -6.576229      -178.9483
  23   2.0000      -6.575630      -178.9320
  24   2.0000      -1.448964       -39.4283
  25   2.0000      -1.421585       -38.6833
  26   2.0000      -1.352707       -36.8090
  27   2.0000      -1.343008       -36.5451
  28   2.0000      -1.241407       -33.7804
  29   2.0000      -1.162581       -31.6354
  30   2.0000      -1.121797       -30.5256
  31   2.0000      -1.046754       -28.4836
  32   2.0000      -1.033304       -28.1176
  33   2.0000      -1.020945       -27.7813
  34   2.0000      -0.999042       -27.1853
  35   2.0000      -0.986543       -26.8452
  36   2.0000      -0.926307       -25.2061
  37   2.0000      -0.876462       -23.8497
  38   2.0000      -0.849994       -23.1295
  39   2.0000      -0.843765       -22.9600
  40   2.0000      -0.839287       -22.8382
  41   2.0000      -0.831130       -22.6162
  42   2.0000      -0.760734       -20.7006
  43   2.0000      -0.736452       -20.0399
  44   2.0000      -0.725061       -19.7299
  45   2.0000      -0.701106       -19.0781
  46   2.0000      -0.692096       -18.8329
  47   2.0000      -0.679963       -18.5027
  48   2.0000      -0.672770       -18.3070
  49   2.0000      -0.657508       -17.8917
  50   2.0000      -0.649147       -17.6642
  51   2.0000      -0.644630       -17.5413
  52   2.0000      -0.635739       -17.2993
  53   2.0000      -0.617574       -16.8050
  54   2.0000      -0.611798       -16.6479
  55   2.0000      -0.603925       -16.4336
  56   2.0000      -0.601248       -16.3608
  57   2.0000      -0.582110       -15.8400
  58   2.0000      -0.573244       -15.5988
  59   2.0000      -0.565578       -15.3902
  60   2.0000      -0.555737       -15.1224
  61   2.0000      -0.542975       -14.7751
  62   2.0000      -0.536245       -14.5920
  63   2.0000      -0.529913       -14.4197
  64   2.0000      -0.518065       -14.0973
  65   2.0000      -0.512469       -13.9450
  66   2.0000      -0.506117       -13.7721
  67   2.0000      -0.498870       -13.5749
  68   2.0000      -0.485103       -13.2003
  69   2.0000      -0.467156       -12.7119
  70   2.0000      -0.456118       -12.4116
  71   2.0000      -0.445156       -12.1133
  72   2.0000      -0.358864        -9.7652
  73   2.0000      -0.354138        -9.6366
  74   2.0000      -0.331363        -9.0168
  75   2.0000      -0.327517        -8.9122
  76   2.0000      -0.318550        -8.6682
  77   0.0000       0.067143         1.8271
  78   0.0000       0.101459         2.7608
  79   0.0000       0.120951         3.2912
  80   0.0000       0.126339         3.4379
  81   0.0000       0.131789         3.5862

MULLIKEN ATOMIC CHARGES
-----------------------
   0 C :   -0.263221
   1 C :    0.024700
   2 O :   -0.377650
   3 C :    0.481624
   4 O :   -0.391667
   5 C :   -0.264540
   6 C :    0.153945
   7 C :   -0.270405
   8 N :   -0.125685
   9 C :    0.205842
  10 S :   -0.433499
  11 N :   -0.192186
  12 C :    0.036398
  13 C :    0.028244
  14 C :   -0.160597
  15 C :   -0.138007
  16 C :   -0.270789
  17 C :    0.302620
  18 O :   -0.356311
  19 C :   -0.250380
  20 H :    0.086228
  21 H :    0.091083
  22 H :    0.106964
  23 H :    0.105324
  24 H :    0.117178
  25 H :    0.127236
  26 H :    0.137135
  27 H :    0.094177
  28 H :    0.198583
  29 H :    0.191187
  30 H :    0.147738
  31 H :    0.150767
  32 H :    0.164388
  33 H :    0.133820
  34 H :    0.241705
  35 H :    0.168052
Sum of atomic charges:   -0.0000000

LOEWDIN ATOMIC CHARGES
----------------------
   0 C :    0.110181
   1 C :   -0.015939
   2 O :    0.285642
   3 C :   -0.423290
   4 O :    0.127304
   5 C :   -0.099177
   6 C :   -0.059809
   7 C :    0.130341
   8 N :    0.406598
   9 C :   -0.457916
  10 S :   -0.031008
  11 N :    0.396369
  12 C :   -0.053177
  13 C :   -0.040854
  14 C :    0.015258
  15 C :    0.042585
  16 C :   -0.001030
  17 C :   -0.191508
  18 O :    0.396779
  19 C :    0.030462
  20 H :   -0.026198
  21 H :   -0.030208
  22 H :   -0.023616
  23 H :   -0.030913
  24 H :   -0.036143
  25 H :   -0.006084
  26 H :   -0.003040
  27 H :   -0.023074
  28 H :   -0.057471
  29 H :   -0.065114
  30 H :   -0.006372
  31 H :   -0.028984
  32 H :   -0.019612
  33 H :   -0.034159
  34 H :   -0.152590
  35 H :   -0.024234

  Mayer bond orders larger than 0.100000
B(  0-C ,  1-C ) :   0.9833 B(  0-C , 20-H ) :   0.9757 B(  0-C , 21-H ) :   0.9793
B(  0-C , 22-H ) :   0.9789 B(  1-C ,  2-O ) :   0.8721 B(  1-C , 23-H ) :   0.9771
B(  1-C , 24-H ) :   0.9614 B(  2-O ,  3-C ) :   1.1148 B(  3-C ,  4-O ) :   2.0446
B(  3-C ,  5-C ) :   1.0347 B(  5-C ,  6-C ) :   1.6620 B(  5-C , 12-C ) :   0.9708
B(  6-C ,  7-C ) :   0.9698 B(  6-C ,  8-N ) :   1.1486 B(  7-C , 25-H ) :   0.9657
B(  7-C , 26-H ) :   0.9562 B(  7-C , 27-H ) :   0.9879 B(  8-N ,  9-C ) :   1.1778
B(  8-N , 28-H ) :   0.9485 B(  9-C , 10-S ) :   1.6186 B(  9-C , 11-N ) :   1.2986
B( 11-N , 12-C ) :   0.9821 B( 11-N , 29-H ) :   0.9543 B( 12-C , 13-C ) :   0.9431
B( 12-C , 30-H ) :   1.0047 B( 13-C , 14-C ) :   1.3621 B( 13-C , 19-C ) :   1.3731
B( 14-C , 15-C ) :   1.3859 B( 14-C , 31-H ) :   0.9716 B( 15-C , 16-C ) :   1.3654
B( 15-C , 32-H ) :   0.9696 B( 16-C , 17-C ) :   1.3271 B( 16-C , 33-H ) :   0.9837
B( 17-C , 18-O ) :   1.1150 B( 17-C , 19-C ) :   1.3797 B( 18-O , 34-H ) :   0.9789
B( 19-C , 35-H ) :   0.9566

MP2 TOTAL ENERGY:    -1274.325338118 Eh
FINAL SINGLE POINT ENERGY     -1274.325338118251

DIPOLE MOMENT
-------------
                                X             Y             Z
Electronic contribution:     10.29214      10.44253       5.90174
Nuclear contribution   :    -11.47198     -11.87830      -5.62716
                        -----------------------------------------
Total Dipole Moment    :     -1.17984      -1.43576       0.27458
                        -----------------------------------------
Magnitude (a.u.)       :      1.87852
Magnitude (Debye)      :      4.77482

Rotational constants in cm-1:     0.012127     0.009165     0.006339
Rotational constants in MHz :   363.567305   274.744860   190.047809

                             ****ORCA TERMINATED NORMALLY****
TOTAL RUN TIME: 0 days 1 hours 54 minutes 33 seconds 838 msec
