                         Program Version 4.2.0 -  RELEASE  -
|  1> ! ri-mp2 cc-pvtz cc-pvtz/c TightSCF  NoKeepInts
|  2>
|  3> %scf
|  4>   MaxCore 4096
|  5> end
|  6> *xyz  0  1
|  7>     C       15.4167009   13.8552951   16.4453499
|  8>     C       15.3620262   15.1286656   15.5708685
|  9>     O       16.4484406   16.0690109   15.7755702
| 10>     C       17.5232044   15.8739477   16.5992576
| 11>     O       18.1125366   14.8100111   16.6879516
| 12>     C       17.8270983   17.0317137   17.5067289
| 13>     C       17.3984105   18.3079763   17.3211056
| 14>     C       16.5683312   18.8589739   16.1796865
| 15>     N       17.7846812   19.3074722   18.2204428
| 16>     C       18.6911410   19.1443110   19.2343581
| 17>     S       19.1775075   20.4106947   20.1805682
| 18>     N       19.1729310   17.8744237   19.4249298
| 19>     C       18.6815393   16.6716426   18.7271271
| 20>     C       17.9025153   15.7749008   19.6862063
| 21>     C       18.2500181   14.4196043   19.8358513
| 22>     C       17.5276886   13.5862838   20.7062105
| 23>     C       16.4470266   14.1116585   21.4346757
| 24>     C       16.0949855   15.4599619   21.2859045
| 25>     O       15.0470575   15.9684495   21.9819880
| 26>     C       16.8152031   16.2866459   20.4179534
| 27>     H       16.2444065   13.2014346   16.1433542
| 28>     H       14.4889739   13.2812049   16.3353089
| 29>     H       15.5327335   14.1057793   17.5078693
| 30>     H       15.3488222   14.8261464   14.5157595
| 31>     H       14.4149129   15.6465563   15.7692554
| 32>     H       15.5347732   18.4969652   16.2422328
| 33>     H       16.9797039   18.5452339   15.2120376
| 34>     H       16.5344733   19.9551919   16.1718967
| 35>     H       17.4429930   20.2471790   18.0974611
| 36>     H       19.8167820   17.7741991   20.1991007
| 37>     H       19.5592717   16.1140503   18.3692238
| 38>     H       19.0734230   14.0061485   19.2582955
| 39>     H       17.8033473   12.5381300   20.8075534
| 40>     H       15.8853541   13.4711095   22.1063696
| 41>     H       14.7112667   15.2635517   22.5557763
| 42>     H       16.5267196   17.3274764   20.3197708
| 43> *
| 44>
| 45>                          ****END OF INPUT****

CARTESIAN COORDINATES (ANGSTROEM)
---------------------------------
  C     15.416701   13.855295   16.445350
  C     15.362026   15.128666   15.570868
  O     16.448441   16.069011   15.775570
  C     17.523204   15.873948   16.599258
  O     18.112537   14.810011   16.687952
  C     17.827098   17.031714   17.506729
  C     17.398411   18.307976   17.321106
  C     16.568331   18.858974   16.179686
  N     17.784681   19.307472   18.220443
  C     18.691141   19.144311   19.234358
  S     19.177508   20.410695   20.180568
  N     19.172931   17.874424   19.424930
  C     18.681539   16.671643   18.727127
  C     17.902515   15.774901   19.686206
  C     18.250018   14.419604   19.835851
  C     17.527689   13.586284   20.706210
  C     16.447027   14.111659   21.434676
  C     16.094985   15.459962   21.285905
  O     15.047057   15.968450   21.981988
  C     16.815203   16.286646   20.417953
  H     16.244407   13.201435   16.143354
  H     14.488974   13.281205   16.335309
  H     15.532733   14.105779   17.507869
  H     15.348822   14.826146   14.515759
  H     14.414913   15.646556   15.769255
  H     15.534773   18.496965   16.242233
  H     16.979704   18.545234   15.212038
  H     16.534473   19.955192   16.171897
  H     17.442993   20.247179   18.097461
  H     19.816782   17.774199   20.199101
  H     19.559272   16.114050   18.369224
  H     19.073423   14.006148   19.258295
  H     17.803347   12.538130   20.807553
  H     15.885354   13.471110   22.106370
  H     14.711267   15.263552   22.555776
  H     16.526720   17.327476   20.319771

 Total Charge           Charge          ....    0
 Multiplicity           Mult            ....    1
 Number of Electrons    NEL             ....  154
 Basis Dimension        Dim             ....  828

ORBITAL ENERGIES
----------------

  NO   OCC          E(Eh)            E(eV)
   0   2.0000     -91.888035     -2500.4005
   1   2.0000     -20.593473      -560.3769
   2   2.0000     -20.593454      -560.3764
   3   2.0000     -20.546763      -559.1058
   4   2.0000     -15.628044      -425.2607
   5   2.0000     -15.606882      -424.6849
   6   2.0000     -11.396948      -310.1267
   7   2.0000     -11.382985      -309.7468
   8   2.0000     -11.335420      -308.4525
   9   2.0000     -11.309484      -307.7467
  10   2.0000     -11.306777      -307.6730
  11   2.0000     -11.305653      -307.6425
  12   2.0000     -11.259479      -306.3860
  13   2.0000     -11.258564      -306.3611
  14   2.0000     -11.255006      -306.2643
  15   2.0000     -11.249507      -306.1146
  16   2.0000     -11.239274      -305.8362
  17   2.0000     -11.235273      -305.7273
  18   2.0000     -11.232026      -305.6390
  19   2.0000     -11.226028      -305.4757
  20   2.0000      -8.893103      -241.9936
  21   2.0000      -6.574682      -178.9062
  22   2.0000      -6.572674      -178.8516
  23   2.0000      -6.572089      -178.8356
  24   2.0000      -1.445386       -39.3309
  25   2.0000      -1.413239       -38.4562
  26   2.0000      -1.355445       -36.8835
  27   2.0000      -1.339096       -36.4386
  28   2.0000      -1.236942       -33.6589
  29   2.0000      -1.153690       -31.3935
  30   2.0000      -1.119280       -30.4572
  31   2.0000      -1.042379       -28.3646
  32   2.0000      -1.033735       -28.1294
  33   2.0000      -1.011173       -27.5154
  34   2.0000      -0.997910       -27.1545
  35   2.0000      -0.983195       -26.7541
  36   2.0000      -0.922137       -25.0926
  37   2.0000      -0.896885       -24.4055
  38   2.0000      -0.848198       -23.0807
  39   2.0000      -0.836671       -22.7670
  40   2.0000      -0.829645       -22.5758
  41   2.0000      -0.818335       -22.2680
  42   2.0000      -0.742844       -20.2138
  43   2.0000      -0.727445       -19.7948
  44   2.0000      -0.725284       -19.7360
  45   2.0000      -0.691256       -18.8100
  46   2.0000      -0.684610       -18.6292
  47   2.0000      -0.676165       -18.3994
  48   2.0000      -0.674261       -18.3476
  49   2.0000      -0.663994       -18.0682
  50   2.0000      -0.649293       -17.6682
  51   2.0000      -0.644453       -17.5365
  52   2.0000      -0.634269       -17.2593
  53   2.0000      -0.617267       -16.7967
  54   2.0000      -0.601965       -16.3803
  55   2.0000      -0.600602       -16.3432
  56   2.0000      -0.596991       -16.2450
  57   2.0000      -0.575917       -15.6715
  58   2.0000      -0.574447       -15.6315
  59   2.0000      -0.565149       -15.3785
  60   2.0000      -0.554817       -15.0973
  61   2.0000      -0.544305       -14.8113
  62   2.0000      -0.537587       -14.6285
  63   2.0000      -0.525394       -14.2967
  64   2.0000      -0.517435       -14.0801
  65   2.0000      -0.510938       -13.9033
  66   2.0000      -0.500525       -13.6200
  67   2.0000      -0.495688       -13.4884
  68   2.0000      -0.479408       -13.0454
  69   2.0000      -0.463279       -12.6065
  70   2.0000      -0.455173       -12.3859
  71   2.0000      -0.448563       -12.2060
  72   2.0000      -0.353622        -9.6225
  73   2.0000      -0.345637        -9.4053
  74   2.0000      -0.327265        -8.9053
  75   2.0000      -0.316685        -8.6174
  76   2.0000      -0.314749        -8.5647
  77   0.0000       0.074863         2.0371
  78   0.0000       0.110321         3.0020
  79   0.0000       0.121481         3.3057
  80   0.0000       0.134295         3.6543
  81   0.0000       0.139662         3.8004

MULLIKEN ATOMIC CHARGES
-----------------------
   0 C :   -0.307520
   1 C :    0.058631
   2 O :   -0.367211
   3 C :    0.440296
   4 O :   -0.413042
   5 C :   -0.176012
   6 C :    0.143120
   7 C :   -0.282422
   8 N :   -0.122712
   9 C :    0.201921
  10 S :   -0.439923
  11 N :   -0.200637
  12 C :    0.048506
  13 C :    0.046734
  14 C :   -0.166353
  15 C :   -0.134004
  16 C :   -0.280232
  17 C :    0.311251
  18 O :   -0.358674
  19 C :   -0.273102
  20 H :    0.122119
  21 H :    0.099911
  22 H :    0.111030
  23 H :    0.096858
  24 H :    0.087907
  25 H :    0.123506
  26 H :    0.129187
  27 H :    0.102731
  28 H :    0.196835
  29 H :    0.194281
  30 H :    0.154741
  31 H :    0.156228
  32 H :    0.160097
  33 H :    0.129383
  34 H :    0.240284
  35 H :    0.166286
Sum of atomic charges:   -0.0000000

LOEWDIN ATOMIC CHARGES
----------------------
   0 C :    0.105251
   1 C :   -0.008900
   2 O :    0.289596
   3 C :   -0.415982
   4 O :    0.117066
   5 C :   -0.092671
   6 C :   -0.067121
   7 C :    0.125038
   8 N :    0.404611
   9 C :   -0.458716
  10 S :   -0.036529
  11 N :    0.397762
  12 C :   -0.046432
  13 C :   -0.040250
  14 C :    0.021860
  15 C :    0.040395
  16 C :   -0.002793
  17 C :   -0.193484
  18 O :    0.393230
  19 C :    0.027618
  20 H :   -0.023598
  21 H :   -0.026301
  22 H :   -0.024110
  23 H :   -0.027554
  24 H :   -0.029969
  25 H :   -0.010437
  26 H :   -0.007286
  27 H :   -0.020989
  28 H :   -0.059186
  29 H :   -0.063789
  30 H :   -0.005208
  31 H :   -0.024816
  32 H :   -0.020925
  33 H :   -0.036125
  34 H :   -0.154638
  35 H :   -0.024617

  Mayer bond orders larger than 0.100000
B(  0-C ,  1-C ) :   0.9723 B(  0-C , 20-H ) :   0.9718 B(  0-C , 21-H ) :   0.9732
B(  0-C , 22-H ) :   0.9704 B(  1-C ,  2-O ) :   0.9029 B(  1-C , 23-H ) :   0.9809
B(  1-C , 24-H ) :   0.9781 B(  2-O ,  3-C ) :   1.1237 B(  3-C ,  4-O ) :   2.0070
B(  3-C ,  5-C ) :   1.0304 B(  5-C ,  6-C ) :   1.6565 B(  5-C , 12-C ) :   0.9622
B(  6-C ,  7-C ) :   0.9533 B(  6-C ,  8-N ) :   1.1459 B(  7-C , 25-H ) :   0.9653
B(  7-C , 26-H ) :   0.9656 B(  7-C , 27-H ) :   0.9911 B(  8-N ,  9-C ) :   1.1809
B(  8-N , 28-H ) :   0.9488 B(  9-C , 10-S ) :   1.6098 B(  9-C , 11-N ) :   1.3036
B( 11-N , 12-C ) :   0.9908 B( 11-N , 29-H ) :   0.9517 B( 12-C , 13-C ) :   0.9439
B( 12-C , 30-H ) :   0.9999 B( 13-C , 14-C ) :   1.3778 B( 13-C , 19-C ) :   1.3684
B( 14-C , 15-C ) :   1.3948 B( 14-C , 31-H ) :   0.9638 B( 15-C , 16-C ) :   1.3618
B( 15-C , 32-H ) :   0.9712 B( 16-C , 17-C ) :   1.3313 B( 16-C , 33-H ) :   0.9855
B( 17-C , 18-O ) :   1.1091 B( 17-C , 19-C ) :   1.3770 B( 18-O , 34-H ) :   0.9803
B( 19-C , 35-H ) :   0.9580

MP2 TOTAL ENERGY:    -1274.334853097 Eh
FINAL SINGLE POINT ENERGY     -1274.334853096890

DIPOLE MOMENT
-------------
                                X             Y             Z
Electronic contribution:      9.99791      10.29910       8.39679
Nuclear contribution   :    -11.59997     -11.55371      -9.29719
                        -----------------------------------------
Total Dipole Moment    :     -1.60206      -1.25461      -0.90040
                        -----------------------------------------
Magnitude (a.u.)       :      2.22517
Magnitude (Debye)      :      5.65592

Rotational constants in cm-1:     0.011311     0.009184     0.006232
Rotational constants in MHz :   339.096110   275.324808   186.825278

                             ****ORCA TERMINATED NORMALLY****
TOTAL RUN TIME: 0 days 1 hours 47 minutes 33 seconds 620 msec
