                         Program Version 4.2.0 -  RELEASE  -
|  1> ! ri-mp2 cc-pvtz cc-pvtz/c TightSCF  NoKeepInts
|  2>
|  3> %scf
|  4>   MaxCore 4096
|  5> end
|  6> *xyz  0  1
|  7>     C       15.2104453   14.9907404   17.1045251
|  8>     C       16.3284806   14.1515907   16.4475867
|  9>     O       17.6272859   14.7912428   16.4670785
| 10>     C       17.7542645   16.0988214   16.0999546
| 11>     O       17.3574940   16.4473715   15.0020384
| 12>     C       17.8210447   17.0288333   17.2819342
| 13>     C       17.4066790   18.3206981   17.2249749
| 14>     C       16.6861528   19.0089283   16.0854776
| 15>     N       17.7028940   19.1931444   18.2773704
| 16>     C       18.6126588   18.9270549   19.2673250
| 17>     S       19.0833314   20.0769783   20.3586536
| 18>     N       19.1147233   17.6499374   19.3041576
| 19>     C       18.5690757   16.5199006   18.5278416
| 20>     C       17.7261625   15.6327283   19.4415223
| 21>     C       17.9870545   14.2516465   19.5262396
| 22>     C       17.2277002   13.4286331   20.3746423
| 23>     C       16.2030972   13.9910664   21.1543143
| 24>     C       15.9467598   15.3669287   21.0835136
| 25>     O       14.9567207   15.9127721   21.8333404
| 26>     C       16.7023180   16.1832821   20.2359864
| 27>     H       15.3925066   15.1323814   18.1718346
| 28>     H       14.2499477   14.4710085   17.0053300
| 29>     H       15.1024557   15.9717350   16.6267241
| 30>     H       16.3964233   13.1786788   16.9509919
| 31>     H       16.0474161   13.9627695   15.4027822
| 32>     H       17.3481202   19.1064260   15.2154115
| 33>     H       16.3292104   20.0113878   16.3488850
| 34>     H       15.8141005   18.4235950   15.7682195
| 35>     H       17.3526946   20.1376005   18.2537109
| 36>     H       19.7630834   17.4723454   20.0606380
| 37>     H       19.4231645   15.9236193   18.1769946
| 38>     H       18.7774864   13.8119844   18.9233266
| 39>     H       17.4361590   12.3614022   20.4278327
| 40>     H       15.6144428   13.3597078   21.8118335
| 41>     H       14.5895236   15.2096386   22.3898701
| 42>     H       16.4859221   17.2454203   20.2011379
| 43> *
| 44>
| 45>                          ****END OF INPUT****

CARTESIAN COORDINATES (ANGSTROEM)
---------------------------------
  C     15.210445   14.990740   17.104525
  C     16.328481   14.151591   16.447587
  O     17.627286   14.791243   16.467078
  C     17.754264   16.098821   16.099955
  O     17.357494   16.447371   15.002038
  C     17.821045   17.028833   17.281934
  C     17.406679   18.320698   17.224975
  C     16.686153   19.008928   16.085478
  N     17.702894   19.193144   18.277370
  C     18.612659   18.927055   19.267325
  S     19.083331   20.076978   20.358654
  N     19.114723   17.649937   19.304158
  C     18.569076   16.519901   18.527842
  C     17.726163   15.632728   19.441522
  C     17.987054   14.251646   19.526240
  C     17.227700   13.428633   20.374642
  C     16.203097   13.991066   21.154314
  C     15.946760   15.366929   21.083514
  O     14.956721   15.912772   21.833340
  C     16.702318   16.183282   20.235986
  H     15.392507   15.132381   18.171835
  H     14.249948   14.471008   17.005330
  H     15.102456   15.971735   16.626724
  H     16.396423   13.178679   16.950992
  H     16.047416   13.962770   15.402782
  H     17.348120   19.106426   15.215412
  H     16.329210   20.011388   16.348885
  H     15.814101   18.423595   15.768220
  H     17.352695   20.137601   18.253711
  H     19.763083   17.472345   20.060638
  H     19.423164   15.923619   18.176995
  H     18.777486   13.811984   18.923327
  H     17.436159   12.361402   20.427833
  H     15.614443   13.359708   21.811833
  H     14.589524   15.209639   22.389870
  H     16.485922   17.245420   20.201138

 Total Charge           Charge          ....    0
 Multiplicity           Mult            ....    1
 Number of Electrons    NEL             ....  154
 Basis Dimension        Dim             ....  828

ORBITAL ENERGIES
----------------

  NO   OCC          E(Eh)            E(eV)
   0   2.0000     -91.891211     -2500.4870
   1   2.0000     -20.598541      -560.5148
   2   2.0000     -20.580610      -560.0269
   3   2.0000     -20.551509      -559.2350
   4   2.0000     -15.630884      -425.3380
   5   2.0000     -15.609535      -424.7570
   6   2.0000     -11.394457      -310.0589
   7   2.0000     -11.385549      -309.8165
   8   2.0000     -11.336494      -308.4817
   9   2.0000     -11.315971      -307.9232
  10   2.0000     -11.312624      -307.8322
  11   2.0000     -11.300239      -307.4951
  12   2.0000     -11.262025      -306.4553
  13   2.0000     -11.260560      -306.4154
  14   2.0000     -11.257570      -306.3341
  15   2.0000     -11.254350      -306.2464
  16   2.0000     -11.245801      -306.0138
  17   2.0000     -11.240511      -305.8698
  18   2.0000     -11.239786      -305.8501
  19   2.0000     -11.224384      -305.4310
  20   2.0000      -8.896222      -242.0785
  21   2.0000      -6.577786      -178.9907
  22   2.0000      -6.575794      -178.9364
  23   2.0000      -6.575195      -178.9202
  24   2.0000      -1.448186       -39.4071
  25   2.0000      -1.418344       -38.5951
  26   2.0000      -1.351011       -36.7629
  27   2.0000      -1.341976       -36.5170
  28   2.0000      -1.240064       -33.7439
  29   2.0000      -1.159098       -31.5407
  30   2.0000      -1.120796       -30.4984
  31   2.0000      -1.044281       -28.4163
  32   2.0000      -1.031832       -28.0776
  33   2.0000      -1.017611       -27.6906
  34   2.0000      -0.999293       -27.1921
  35   2.0000      -0.986672       -26.8487
  36   2.0000      -0.924690       -25.1621
  37   2.0000      -0.896056       -24.3829
  38   2.0000      -0.848236       -23.0817
  39   2.0000      -0.841950       -22.9106
  40   2.0000      -0.836382       -22.7591
  41   2.0000      -0.817197       -22.2370
  42   2.0000      -0.748688       -20.3728
  43   2.0000      -0.734044       -19.9744
  44   2.0000      -0.723192       -19.6791
  45   2.0000      -0.697705       -18.9855
  46   2.0000      -0.691289       -18.8109
  47   2.0000      -0.675617       -18.3845
  48   2.0000      -0.668566       -18.1926
  49   2.0000      -0.665549       -18.1105
  50   2.0000      -0.650825       -17.7099
  51   2.0000      -0.645333       -17.5604
  52   2.0000      -0.637687       -17.3524
  53   2.0000      -0.618804       -16.8385
  54   2.0000      -0.608477       -16.5575
  55   2.0000      -0.601461       -16.3666
  56   2.0000      -0.600501       -16.3405
  57   2.0000      -0.579455       -15.7678
  58   2.0000      -0.572496       -15.5784
  59   2.0000      -0.564704       -15.3664
  60   2.0000      -0.551441       -15.0055
  61   2.0000      -0.544785       -14.8244
  62   2.0000      -0.540677       -14.7126
  63   2.0000      -0.529170       -14.3995
  64   2.0000      -0.526107       -14.3161
  65   2.0000      -0.515370       -14.0239
  66   2.0000      -0.503389       -13.6979
  67   2.0000      -0.500585       -13.6216
  68   2.0000      -0.476628       -12.9697
  69   2.0000      -0.464604       -12.6425
  70   2.0000      -0.453750       -12.3472
  71   2.0000      -0.444479       -12.0949
  72   2.0000      -0.357789        -9.7359
  73   2.0000      -0.349994        -9.5238
  74   2.0000      -0.330264        -8.9870
  75   2.0000      -0.324493        -8.8299
  76   2.0000      -0.317943        -8.6517
  77   0.0000       0.066669         1.8142
  78   0.0000       0.104282         2.8377
  79   0.0000       0.120197         3.2707
  80   0.0000       0.129380         3.5206
  81   0.0000       0.132895         3.6163

MULLIKEN ATOMIC CHARGES
-----------------------
   0 C :   -0.332461
   1 C :    0.037669
   2 O :   -0.390541
   3 C :    0.466179
   4 O :   -0.402217
   5 C :   -0.212017
   6 C :    0.154571
   7 C :   -0.274574
   8 N :   -0.122051
   9 C :    0.188507
  10 S :   -0.431273
  11 N :   -0.192724
  12 C :    0.030148
  13 C :    0.041245
  14 C :   -0.180540
  15 C :   -0.142232
  16 C :   -0.269883
  17 C :    0.300235
  18 O :   -0.358473
  19 C :   -0.246938
  20 H :    0.120775
  21 H :    0.115365
  22 H :    0.103923
  23 H :    0.114235
  24 H :    0.120247
  25 H :    0.137582
  26 H :    0.094888
  27 H :    0.126108
  28 H :    0.198175
  29 H :    0.190624
  30 H :    0.150087
  31 H :    0.158551
  32 H :    0.163516
  33 H :    0.132808
  34 H :    0.240600
  35 H :    0.169887
Sum of atomic charges:   -0.0000000

LOEWDIN ATOMIC CHARGES
----------------------
   0 C :    0.108291
   1 C :   -0.012080
   2 O :    0.278474
   3 C :   -0.421775
   4 O :    0.124074
   5 C :   -0.095872
   6 C :   -0.060592
   7 C :    0.130086
   8 N :    0.406918
   9 C :   -0.459799
  10 S :   -0.031120
  11 N :    0.396316
  12 C :   -0.051815
  13 C :   -0.039974
  14 C :    0.017671
  15 C :    0.038842
  16 C :   -0.002312
  17 C :   -0.192700
  18 O :    0.396558
  19 C :    0.031187
  20 H :   -0.030359
  21 H :   -0.022868
  22 H :   -0.030004
  23 H :   -0.023424
  24 H :   -0.028350
  25 H :   -0.003149
  26 H :   -0.022804
  27 H :   -0.008954
  28 H :   -0.057933
  29 H :   -0.065138
  30 H :   -0.006106
  31 H :   -0.028073
  32 H :   -0.020604
  33 H :   -0.034974
  34 H :   -0.153519
  35 H :   -0.024122

  Mayer bond orders larger than 0.100000
B(  0-C ,  1-C ) :   0.9597 B(  0-C , 20-H ) :   0.9676 B(  0-C , 21-H ) :   0.9780
B(  0-C , 22-H ) :   0.9727 B(  1-C ,  2-O ) :   0.8795 B(  1-C , 23-H ) :   0.9797
B(  1-C , 24-H ) :   0.9856 B(  2-O ,  3-C ) :   1.1005 B(  3-C ,  4-O ) :   2.0164
B(  3-C ,  5-C ) :   1.0497 B(  5-C ,  6-C ) :   1.6586 B(  5-C , 12-C ) :   0.9690
B(  6-C ,  7-C ) :   0.9694 B(  6-C ,  8-N ) :   1.1369 B(  7-C , 25-H ) :   0.9566
B(  7-C , 26-H ) :   0.9878 B(  7-C , 27-H ) :   0.9667 B(  8-N ,  9-C ) :   1.1779
B(  8-N , 28-H ) :   0.9489 B(  9-C , 10-S ) :   1.6232 B(  9-C , 11-N ) :   1.2956
B( 11-N , 12-C ) :   0.9883 B( 11-N , 29-H ) :   0.9535 B( 12-C , 13-C ) :   0.9366
B( 12-C , 30-H ) :   1.0059 B( 13-C , 14-C ) :   1.3713 B( 13-C , 19-C ) :   1.3660
B( 14-C , 15-C ) :   1.3869 B( 14-C , 31-H ) :   0.9667 B( 15-C , 16-C ) :   1.3635
B( 15-C , 32-H ) :   0.9702 B( 16-C , 17-C ) :   1.3309 B( 16-C , 33-H ) :   0.9840
B( 17-C , 18-O ) :   1.1131 B( 17-C , 19-C ) :   1.3784 B( 18-O , 34-H ) :   0.9798
B( 19-C , 35-H ) :   0.9573

MP2 TOTAL ENERGY:    -1274.322889221 Eh
FINAL SINGLE POINT ENERGY     -1274.322889221089

DIPOLE MOMENT
-------------
                                X             Y             Z
Electronic contribution:     10.07763       8.12988       6.03273
Nuclear contribution   :    -11.21202      -9.75179      -6.06709
                        -----------------------------------------
Total Dipole Moment    :     -1.13439      -1.62191      -0.03436
                        -----------------------------------------
Magnitude (a.u.)       :      1.97955
Magnitude (Debye)      :      5.03162

Rotational constants in cm-1:     0.011716     0.010002     0.006591
Rotational constants in MHz :   351.249379   299.853917   197.588296

                             ****ORCA TERMINATED NORMALLY****
TOTAL RUN TIME: 0 days 1 hours 51 minutes 58 seconds 284 msec
