                         Program Version 4.2.0 -  RELEASE  -
|  1> ! ri-mp2 cc-pvtz cc-pvtz/c TightSCF  NoKeepInts
|  2>
|  3> %scf
|  4>   MaxCore 4096
|  5> end
|  6> *xyz  0  1
|  7>     C       14.5153231   14.4542178   15.9645246
|  8>     C       15.7936403   14.8181626   15.1894732
|  9>     O       16.3965627   15.9455929   15.8513714
| 10>     C       17.4551949   15.7636745   16.6949477
| 11>     O       18.0287755   14.6922374   16.8061645
| 12>     C       17.7736628   16.9417887   17.5729031
| 13>     C       17.2935675   18.2028459   17.4043293
| 14>     C       16.3591664   18.7154466   16.3272223
| 15>     N       17.7176120   19.2264675   18.2588087
| 16>     C       18.7149227   19.1089025   19.1903358
| 17>     S       19.2470372   20.4066190   20.0669683
| 18>     N       19.2489796   17.8569066   19.3573742
| 19>     C       18.7216755   16.6276070   18.7365235
| 20>     C       18.0347384   15.7535255   19.7829098
| 21>     C       18.4265213   14.4136665   19.9602150
| 22>     C       17.7954967   13.6031724   20.9187710
| 23>     C       16.7625480   14.1360006   21.7084982
| 24>     C       16.3665609   15.4688008   21.5327911
| 25>     O       15.3651293   15.9844983   22.2895004
| 26>     C       16.9962824   16.2729238   20.5776518
| 27>     H       14.7617467   14.1414865   16.9873404
| 28>     H       13.9891486   13.6275208   15.4720276
| 29>     H       13.8347305   15.3128988   16.0182843
| 30>     H       16.4712915   13.9559393   15.1247211
| 31>     H       15.5166211   15.1056885   14.1671672
| 32>     H       16.7413671   18.4662720   15.3295077
| 33>     H       16.2301548   19.8040461   16.3596263
| 34>     H       15.3643374   18.2645221   16.4316330
| 35>     H       17.3375010   20.1532723   18.1520424
| 36>     H       19.9604603   17.7889513   20.0736531
| 37>     H       19.5773630   16.0691087   18.3302039
| 38>     H       19.2130928   13.9938980   19.3378557
| 39>     H       18.1039081   12.5664942   21.0410256
| 40>     H       16.2711378   13.5129964   22.4482587
| 41>     H       15.0845995   15.2933765   22.9078618
| 42>     H       16.6761427   17.3024718   20.4615072
| 43> *
| 44>
| 45>                          ****END OF INPUT****

CARTESIAN COORDINATES (ANGSTROEM)
---------------------------------
  C     14.515323   14.454218   15.964525
  C     15.793640   14.818163   15.189473
  O     16.396563   15.945593   15.851371
  C     17.455195   15.763675   16.694948
  O     18.028775   14.692237   16.806165
  C     17.773663   16.941789   17.572903
  C     17.293568   18.202846   17.404329
  C     16.359166   18.715447   16.327222
  N     17.717612   19.226467   18.258809
  C     18.714923   19.108902   19.190336
  S     19.247037   20.406619   20.066968
  N     19.248980   17.856907   19.357374
  C     18.721675   16.627607   18.736524
  C     18.034738   15.753525   19.782910
  C     18.426521   14.413666   19.960215
  C     17.795497   13.603172   20.918771
  C     16.762548   14.136001   21.708498
  C     16.366561   15.468801   21.532791
  O     15.365129   15.984498   22.289500
  C     16.996282   16.272924   20.577652
  H     14.761747   14.141486   16.987340
  H     13.989149   13.627521   15.472028
  H     13.834730   15.312899   16.018284
  H     16.471291   13.955939   15.124721
  H     15.516621   15.105688   14.167167
  H     16.741367   18.466272   15.329508
  H     16.230155   19.804046   16.359626
  H     15.364337   18.264522   16.431633
  H     17.337501   20.153272   18.152042
  H     19.960460   17.788951   20.073653
  H     19.577363   16.069109   18.330204
  H     19.213093   13.993898   19.337856
  H     18.103908   12.566494   21.041026
  H     16.271138   13.512996   22.448259
  H     15.084599   15.293377   22.907862
  H     16.676143   17.302472   20.461507

 Total Charge           Charge          ....    0
 Multiplicity           Mult            ....    1
 Number of Electrons    NEL             ....  154
 Basis Dimension        Dim             ....  828

ORBITAL ENERGIES
----------------

  NO   OCC          E(Eh)            E(eV)
   0   2.0000     -91.888110     -2500.4026
   1   2.0000     -20.604380      -560.6737
   2   2.0000     -20.591318      -560.3182
   3   2.0000     -20.544819      -559.0529
   4   2.0000     -15.628615      -425.2762
   5   2.0000     -15.606616      -424.6776
   6   2.0000     -11.396645      -310.1185
   7   2.0000     -11.382895      -309.7443
   8   2.0000     -11.337054      -308.4969
   9   2.0000     -11.307118      -307.6823
  10   2.0000     -11.305170      -307.6293
  11   2.0000     -11.298758      -307.4548
  12   2.0000     -11.260803      -306.4220
  13   2.0000     -11.258949      -306.3716
  14   2.0000     -11.253016      -306.2101
  15   2.0000     -11.247213      -306.0522
  16   2.0000     -11.236902      -305.7716
  17   2.0000     -11.233050      -305.6668
  18   2.0000     -11.230158      -305.5881
  19   2.0000     -11.229930      -305.5819
  20   2.0000      -8.893170      -241.9955
  21   2.0000      -6.574746      -178.9079
  22   2.0000      -6.572741      -178.8534
  23   2.0000      -6.572154      -178.8374
  24   2.0000      -1.453975       -39.5647
  25   2.0000      -1.411058       -38.3968
  26   2.0000      -1.357376       -36.9361
  27   2.0000      -1.339491       -36.4494
  28   2.0000      -1.236986       -33.6601
  29   2.0000      -1.151792       -31.3418
  30   2.0000      -1.119355       -30.4592
  31   2.0000      -1.043099       -28.3842
  32   2.0000      -1.035757       -28.1844
  33   2.0000      -1.009133       -27.4599
  34   2.0000      -0.997545       -27.1446
  35   2.0000      -0.983023       -26.7494
  36   2.0000      -0.921066       -25.0635
  37   2.0000      -0.892605       -24.2890
  38   2.0000      -0.847433       -23.0598
  39   2.0000      -0.834795       -22.7159
  40   2.0000      -0.827438       -22.5157
  41   2.0000      -0.815304       -22.1856
  42   2.0000      -0.759185       -20.6585
  43   2.0000      -0.736251       -20.0344
  44   2.0000      -0.724516       -19.7151
  45   2.0000      -0.690783       -18.7972
  46   2.0000      -0.685381       -18.6502
  47   2.0000      -0.679409       -18.4876
  48   2.0000      -0.671153       -18.2630
  49   2.0000      -0.656650       -17.8684
  50   2.0000      -0.648934       -17.6584
  51   2.0000      -0.644231       -17.5304
  52   2.0000      -0.632130       -17.2011
  53   2.0000      -0.607479       -16.5303
  54   2.0000      -0.599943       -16.3253
  55   2.0000      -0.598559       -16.2876
  56   2.0000      -0.594456       -16.1760
  57   2.0000      -0.582993       -15.8640
  58   2.0000      -0.573633       -15.6093
  59   2.0000      -0.562587       -15.3088
  60   2.0000      -0.559088       -15.2136
  61   2.0000      -0.552290       -15.0286
  62   2.0000      -0.534559       -14.5461
  63   2.0000      -0.531707       -14.4685
  64   2.0000      -0.516790       -14.0626
  65   2.0000      -0.509286       -13.8584
  66   2.0000      -0.498523       -13.5655
  67   2.0000      -0.495246       -13.4763
  68   2.0000      -0.481522       -13.1029
  69   2.0000      -0.463491       -12.6122
  70   2.0000      -0.458161       -12.4672
  71   2.0000      -0.453354       -12.3364
  72   2.0000      -0.354428        -9.6445
  73   2.0000      -0.343707        -9.3527
  74   2.0000      -0.327200        -8.9036
  75   2.0000      -0.315608        -8.5881
  76   2.0000      -0.313389        -8.5277
  77   0.0000       0.075941         2.0665
  78   0.0000       0.113720         3.0945
  79   0.0000       0.120354         3.2750
  80   0.0000       0.136310         3.7092
  81   0.0000       0.140810         3.8316

MULLIKEN ATOMIC CHARGES
-----------------------
   0 C :   -0.275454
   1 C :    0.016072
   2 O :   -0.345681
   3 C :    0.454720
   4 O :   -0.433020
   5 C :   -0.179366
   6 C :    0.142619
   7 C :   -0.284359
   8 N :   -0.121178
   9 C :    0.201269
  10 S :   -0.438940
  11 N :   -0.196868
  12 C :    0.034271
  13 C :    0.058428
  14 C :   -0.160288
  15 C :   -0.134185
  16 C :   -0.279257
  17 C :    0.311639
  18 O :   -0.359171
  19 C :   -0.273395
  20 H :    0.107078
  21 H :    0.095046
  22 H :    0.090856
  23 H :    0.121993
  24 H :    0.102284
  25 H :    0.127148
  26 H :    0.101837
  27 H :    0.127541
  28 H :    0.196742
  29 H :    0.193552
  30 H :    0.153563
  31 H :    0.153210
  32 H :    0.158942
  33 H :    0.127998
  34 H :    0.240020
  35 H :    0.164334
Sum of atomic charges:   -0.0000000

LOEWDIN ATOMIC CHARGES
----------------------
   0 C :    0.104637
   1 C :   -0.014979
   2 O :    0.308662
   3 C :   -0.414883
   4 O :    0.101081
   5 C :   -0.091083
   6 C :   -0.064589
   7 C :    0.124947
   8 N :    0.404959
   9 C :   -0.459053
  10 S :   -0.035727
  11 N :    0.398015
  12 C :   -0.046674
  13 C :   -0.038823
  14 C :    0.022319
  15 C :    0.040754
  16 C :   -0.002464
  17 C :   -0.192747
  18 O :    0.392952
  19 C :    0.028297
  20 H :   -0.023522
  21 H :   -0.025753
  22 H :   -0.029542
  23 H :   -0.027292
  24 H :   -0.028772
  25 H :   -0.008306
  26 H :   -0.021221
  27 H :   -0.010074
  28 H :   -0.059227
  29 H :   -0.063599
  30 H :   -0.005107
  31 H :   -0.025296
  32 H :   -0.021278
  33 H :   -0.036443
  34 H :   -0.154956
  35 H :   -0.025214

  Mayer bond orders larger than 0.100000
B(  0-C ,  1-C ) :   0.9687 B(  0-C , 20-H ) :   0.9771 B(  0-C , 21-H ) :   0.9757
B(  0-C , 22-H ) :   0.9788 B(  1-C ,  2-O ) :   0.8854 B(  1-C , 23-H ) :   0.9735
B(  1-C , 24-H ) :   0.9839 B(  2-O ,  3-C ) :   1.1668 B(  3-C ,  4-O ) :   1.9760
B(  3-C ,  5-C ) :   1.0534 B(  5-C ,  6-C ) :   1.6444 B(  5-C , 12-C ) :   0.9670
B(  6-C ,  7-C ) :   0.9560 B(  6-C ,  8-N ) :   1.1507 B(  7-C , 25-H ) :   0.9653
B(  7-C , 26-H ) :   0.9912 B(  7-C , 27-H ) :   0.9638 B(  8-N ,  9-C ) :   1.1774
B(  8-N , 28-H ) :   0.9487 B(  9-C , 10-S ) :   1.6110 B(  9-C , 11-N ) :   1.3049
B( 11-N , 12-C ) :   0.9922 B( 11-N , 29-H ) :   0.9520 B( 12-C , 13-C ) :   0.9475
B( 12-C , 30-H ) :   1.0004 B( 13-C , 14-C ) :   1.3756 B( 13-C , 19-C ) :   1.3689
B( 14-C , 15-C ) :   1.3948 B( 14-C , 31-H ) :   0.9649 B( 15-C , 16-C ) :   1.3623
B( 15-C , 32-H ) :   0.9715 B( 16-C , 17-C ) :   1.3316 B( 16-C , 33-H ) :   0.9860
B( 17-C , 18-O ) :   1.1079 B( 17-C , 19-C ) :   1.3793 B( 18-O , 34-H ) :   0.9806
B( 19-C , 35-H ) :   0.9585

MP2 TOTAL ENERGY:    -1274.348836319 Eh
FINAL SINGLE POINT ENERGY     -1274.348836319088

DIPOLE MOMENT
-------------
                                X             Y             Z
Electronic contribution:     11.38692       9.39834       9.63839
Nuclear contribution   :    -12.85896     -10.65679     -10.72619
                        -----------------------------------------
Total Dipole Moment    :     -1.47203      -1.25845      -1.08780
                        -----------------------------------------
Magnitude (a.u.)       :      2.22123
Magnitude (Debye)      :      5.64592

Rotational constants in cm-1:     0.010541     0.009109     0.006026
Rotational constants in MHz :   316.006606   273.093573   180.654418

                             ****ORCA TERMINATED NORMALLY****
TOTAL RUN TIME: 0 days 1 hours 37 minutes 4 seconds 473 msec
