                         Program Version 5.0.0 -  RELEASE  -
|  1> ! ri-mp2 cc-pvtz cc-pvtz/c TightSCF NoKeepInts
|  2>
|  3> %scf
|  4>   MaxCore 4096
|  5> end
|  6> *xyz  0  1
|  7>     C       15.3870369   14.2047103   17.0966845
|  8>     C       15.3842023   15.4974096   16.2541120
|  9>     O       16.6822230   15.7433552   15.6697358
| 10>     C       17.8015125   15.7332248   16.4515024
| 11>     O       18.4662038   14.7209726   16.5854939
| 12>     C       17.9369865   16.9142787   17.3677282
| 13>     C       17.4784242   18.1596286   17.0809553
| 14>     C       16.8001076   18.6290663   15.8098991
| 15>     N       17.7020686   19.2065805   17.9801966
| 16>     C       18.4947811   19.1255019   19.0945420
| 17>     S       18.7971783   20.4445247   20.0449639
| 18>     N       19.0248607   17.8927664   19.3804925
| 19>     C       18.6855319   16.6416603   18.6763398
| 20>     C       17.8781083   15.7206719   19.5851105
| 21>     C       18.2969195   14.3964088   19.8097909
| 22>     C       17.5477533   13.5384799   20.6322794
| 23>     C       16.3682972   14.0075350   21.2353221
| 24>     C       15.9462521   15.3249824   21.0116654
| 25>     O       14.8019460   15.7778267   21.5827801
| 26>     C       16.6938278   16.1768936   20.1926695
| 27>     H       15.7656507   13.3600874   16.5070512
| 28>     H       14.3704100   13.9613106   17.4277202
| 29>     H       16.0121948   14.3061508   17.9902923
| 30>     H       14.6398388   15.4080704   15.4523896
| 31>     H       15.0902780   16.3381986   16.8955862
| 32>     H       17.2342402   18.1433522   14.9267452
| 33>     H       16.9120055   19.7095995   15.6562712
| 34>     H       15.7273582   18.4053397   15.8272061
| 35>     H       17.3291325   20.1219455   17.7837856
| 36>     H       19.5850427   17.8546459   20.2225658
| 37>     H       19.6283603   16.1351557   18.4227954
| 38>     H       19.1977385   14.0247655   19.3267982
| 39>     H       17.8790621   12.5138641   20.7922673
| 40>     H       15.7852270   13.3466823   21.8681594
| 41>     H       14.4654822   15.0726265   22.1562747
| 42>     H       16.3507566   17.1937270   20.0358277
| 43> *
| 44>
| 45>                          ****END OF INPUT****

CARTESIAN COORDINATES (ANGSTROEM)
---------------------------------
  C     15.387037   14.204710   17.096684
  C     15.384202   15.497410   16.254112
  O     16.682223   15.743355   15.669736
  C     17.801513   15.733225   16.451502
  O     18.466204   14.720973   16.585494
  C     17.936986   16.914279   17.367728
  C     17.478424   18.159629   17.080955
  C     16.800108   18.629066   15.809899
  N     17.702069   19.206581   17.980197
  C     18.494781   19.125502   19.094542
  S     18.797178   20.444525   20.044964
  N     19.024861   17.892766   19.380492
  C     18.685532   16.641660   18.676340
  C     17.878108   15.720672   19.585110
  C     18.296920   14.396409   19.809791
  C     17.547753   13.538480   20.632279
  C     16.368297   14.007535   21.235322
  C     15.946252   15.324982   21.011665
  O     14.801946   15.777827   21.582780
  C     16.693828   16.176894   20.192670
  H     15.765651   13.360087   16.507051
  H     14.370410   13.961311   17.427720
  H     16.012195   14.306151   17.990292
  H     14.639839   15.408070   15.452390
  H     15.090278   16.338199   16.895586
  H     17.234240   18.143352   14.926745
  H     16.912005   19.709599   15.656271
  H     15.727358   18.405340   15.827206
  H     17.329133   20.121945   17.783786
  H     19.585043   17.854646   20.222566
  H     19.628360   16.135156   18.422795
  H     19.197738   14.024766   19.326798
  H     17.879062   12.513864   20.792267
  H     15.785227   13.346682   21.868159
  H     14.465482   15.072627   22.156275
  H     16.350757   17.193727   20.035828

 Total Charge           Charge          ....    0
 Multiplicity           Mult            ....    1
 Number of Electrons    NEL             ....  154
 Basis Dimension        Dim             ....  828

ORBITAL ENERGIES
----------------

  NO   OCC          E(Eh)            E(eV)
   0   2.0000     -91.890707     -2500.4732
   1   2.0000     -20.597806      -560.4948
   2   2.0000     -20.585075      -560.1484
   3   2.0000     -20.553790      -559.2971
   4   2.0000     -15.630922      -425.3390
   5   2.0000     -15.609827      -424.7650
   6   2.0000     -11.395117      -310.0769
   7   2.0000     -11.386101      -309.8316
   8   2.0000     -11.338218      -308.5286
   9   2.0000     -11.314346      -307.8790
  10   2.0000     -11.309399      -307.7444
  11   2.0000     -11.306318      -307.6605
  12   2.0000     -11.263329      -306.4908
  13   2.0000     -11.262372      -306.4647
  14   2.0000     -11.259555      -306.3881
  15   2.0000     -11.254316      -306.2455
  16   2.0000     -11.243939      -305.9631
  17   2.0000     -11.239861      -305.8522
  18   2.0000     -11.236743      -305.7673
  19   2.0000     -11.222564      -305.3815
  20   2.0000      -8.895775      -242.0663
  21   2.0000      -6.577350      -178.9788
  22   2.0000      -6.575341      -178.9241
  23   2.0000      -6.574754      -178.9081
  24   2.0000      -1.447451       -39.3871
  25   2.0000      -1.417588       -38.5745
  26   2.0000      -1.357228       -36.9321
  27   2.0000      -1.342249       -36.5245
  28   2.0000      -1.240187       -33.7472
  29   2.0000      -1.158533       -31.5253
  30   2.0000      -1.122887       -30.5553
  31   2.0000      -1.045878       -28.4598
  32   2.0000      -1.031433       -28.0667
  33   2.0000      -1.016008       -27.6470
  34   2.0000      -1.002660       -27.2838
  35   2.0000      -0.987444       -26.8697
  36   2.0000      -0.925980       -25.1972
  37   2.0000      -0.890433       -24.2299
  38   2.0000      -0.852830       -23.2067
  39   2.0000      -0.841122       -22.8881
  40   2.0000      -0.834391       -22.7049
  41   2.0000      -0.827673       -22.5221
  42   2.0000      -0.745419       -20.2839
  43   2.0000      -0.731494       -19.9050
  44   2.0000      -0.729309       -19.8455
  45   2.0000      -0.695890       -18.9361
  46   2.0000      -0.686627       -18.6841
  47   2.0000      -0.680711       -18.5231
  48   2.0000      -0.676068       -18.3967
  49   2.0000      -0.665193       -18.1008
  50   2.0000      -0.651388       -17.7252
  51   2.0000      -0.648737       -17.6530
  52   2.0000      -0.638485       -17.3741
  53   2.0000      -0.618260       -16.8237
  54   2.0000      -0.606840       -16.5130
  55   2.0000      -0.604576       -16.4513
  56   2.0000      -0.600979       -16.3535
  57   2.0000      -0.580469       -15.7954
  58   2.0000      -0.575565       -15.6619
  59   2.0000      -0.567324       -15.4377
  60   2.0000      -0.554447       -15.0873
  61   2.0000      -0.550025       -14.9670
  62   2.0000      -0.538666       -14.6578
  63   2.0000      -0.529344       -14.4042
  64   2.0000      -0.520828       -14.1725
  65   2.0000      -0.512540       -13.9469
  66   2.0000      -0.501136       -13.6366
  67   2.0000      -0.489048       -13.3077
  68   2.0000      -0.486276       -13.2322
  69   2.0000      -0.467467       -12.7204
  70   2.0000      -0.458683       -12.4814
  71   2.0000      -0.448902       -12.2152
  72   2.0000      -0.357791        -9.7360
  73   2.0000      -0.350251        -9.5308
  74   2.0000      -0.329992        -8.9795
  75   2.0000      -0.321847        -8.7579
  76   2.0000      -0.318411        -8.6644
  77   0.0000       0.070609         1.9214
  78   0.0000       0.104037         2.8310
  79   0.0000       0.118720         3.2305
  80   0.0000       0.130506         3.5512
  81   0.0000       0.137545         3.7428

MULLIKEN ATOMIC CHARGES
-----------------------
   0 C :   -0.283025
   1 C :    0.020267
   2 O :   -0.372151
   3 C :    0.458897
   4 O :   -0.387530
   5 C :   -0.229687
   6 C :    0.155127
   7 C :   -0.296543
   8 N :   -0.125608
   9 C :    0.199346
  10 S :   -0.437336
  11 N :   -0.199725
  12 C :    0.055398
  13 C :    0.007828
  14 C :   -0.154112
  15 C :   -0.136250
  16 C :   -0.271975
  17 C :    0.302100
  18 O :   -0.359736
  19 C :   -0.249996
  20 H :    0.113624
  21 H :    0.097297
  22 H :    0.109357
  23 H :    0.118852
  24 H :    0.083156
  25 H :    0.138023
  26 H :    0.112732
  27 H :    0.120765
  28 H :    0.197385
  29 H :    0.194482
  30 H :    0.156571
  31 H :    0.158517
  32 H :    0.161200
  33 H :    0.131711
  34 H :    0.241392
  35 H :    0.169646
Sum of atomic charges:    0.0000000

LOEWDIN ATOMIC CHARGES
----------------------
   0 C :    0.110855
   1 C :   -0.021514
   2 O :    0.285589
   3 C :   -0.419960
   4 O :    0.130233
   5 C :   -0.094000
   6 C :   -0.073265
   7 C :    0.127369
   8 N :    0.404679
   9 C :   -0.458871
  10 S :   -0.034261
  11 N :    0.397593
  12 C :   -0.046240
  13 C :   -0.043955
  14 C :    0.021480
  15 C :    0.043057
  16 C :   -0.000823
  17 C :   -0.193412
  18 O :    0.394245
  19 C :    0.027280
  20 H :   -0.021530
  21 H :   -0.026285
  22 H :   -0.026418
  23 H :   -0.021734
  24 H :   -0.040383
  25 H :   -0.005871
  26 H :   -0.017530
  27 H :   -0.014150
  28 H :   -0.058118
  29 H :   -0.063491
  30 H :   -0.003873
  31 H :   -0.023706
  32 H :   -0.019567
  33 H :   -0.035059
  34 H :   -0.153471
  35 H :   -0.024892

  Mayer bond orders larger than 0.100000
B(  0-C ,  1-C ) :   0.9790 B(  0-C , 20-H ) :   0.9748 B(  0-C , 21-H ) :   0.9763
B(  0-C , 22-H ) :   0.9661 B(  1-C ,  2-O ) :   0.8982 B(  1-C , 23-H ) :   0.9783
B(  1-C , 24-H ) :   0.9707 B(  2-O ,  3-C ) :   1.1017 B(  3-C ,  4-O ) :   2.0621
B(  3-C ,  5-C ) :   0.9947 B(  5-C ,  6-C ) :   1.6629 B(  5-C , 12-C ) :   0.9647
B(  6-C ,  7-C ) :   0.9475 B(  6-C ,  8-N ) :   1.1432 B(  7-C , 25-H ) :   0.9671
B(  7-C , 26-H ) :   0.9869 B(  7-C , 27-H ) :   0.9659 B(  8-N ,  9-C ) :   1.1818
B(  8-N , 28-H ) :   0.9494 B(  9-C , 10-S ) :   1.6134 B(  9-C , 11-N ) :   1.3007
B( 11-N , 12-C ) :   0.9941 B( 11-N , 29-H ) :   0.9520 B( 12-C , 13-C ) :   0.9428
B( 12-C , 30-H ) :   0.9982 B( 13-C , 14-C ) :   1.3842 B( 13-C , 19-C ) :   1.3694
B( 14-C , 15-C ) :   1.3926 B( 14-C , 31-H ) :   0.9634 B( 15-C , 16-C ) :   1.3634
B( 15-C , 32-H ) :   0.9715 B( 16-C , 17-C ) :   1.3319 B( 16-C , 33-H ) :   0.9846
B( 17-C , 18-O ) :   1.1113 B( 17-C , 19-C ) :   1.3718 B( 18-O , 34-H ) :   0.9795
B( 19-C , 35-H ) :   0.9573

MP2 TOTAL ENERGY:    -1274.332777957 Eh
FINAL SINGLE POINT ENERGY     -1274.332777956665

DIPOLE MOMENT
-------------
                                X             Y             Z
Electronic contribution:      9.65719       8.84963       6.02840
Nuclear contribution   :    -11.12696      -9.81909      -6.48251
                        -----------------------------------------
Total Dipole Moment    :     -1.46977      -0.96946      -0.45411
                        -----------------------------------------
Magnitude (a.u.)       :      1.81832
Magnitude (Debye)      :      4.62181

Rotational constants in cm-1:     0.012010     0.009447     0.006738
Rotational constants in MHz :   360.054978   283.211588   201.991732

                             ****ORCA TERMINATED NORMALLY****
TOTAL RUN TIME: 0 days 2 hours 10 minutes 38 seconds 895 msec
