                         Program Version 4.2.0 -  RELEASE  -
|  1> ! ri-mp2 cc-pvtz cc-pvtz/c TightSCF  NoKeepInts
|  2>
|  3> %scf
|  4>   MaxCore 4096
|  5> end
|  6> *xyz  0  1
|  7>     C       14.2435299   15.6549430   16.1884355
|  8>     C       15.4184813   15.3996434   17.1493967
|  9>     O       16.5877028   15.1109310   16.3529159
| 10>     C       17.8309093   15.6697217   16.5287127
| 11>     O       18.8230686   15.0182191   16.2597673
| 12>     C       17.9238997   16.8545463   17.4333099
| 13>     C       17.3371447   18.0411621   17.1557784
| 14>     C       16.5453737   18.3972068   15.9182119
| 15>     N       17.5007982   19.1189589   18.0284689
| 16>     C       18.3035356   19.1072039   19.1397887
| 17>     S       18.4790880   20.4435758   20.0974305
| 18>     N       18.9493133   17.9282146   19.4229038
| 19>     C       18.7794578   16.6615526   18.6830763
| 20>     C       18.1759621   15.5748605   19.5670184
| 21>     C       18.7014975   14.2702646   19.5409948
| 22>     C       18.1315156   13.2530040   20.3243473
| 23>     C       17.0226359   13.5404471   21.1381840
| 24>     C       16.4909157   14.8366314   21.1606674
| 25>     O       15.4101261   15.1144167   21.9320310
| 26>     C       17.0600763   15.8476326   20.3799389
| 27>     H       13.3321409   15.8917680   16.7509219
| 28>     H       14.0465449   14.7608591   15.5834312
| 29>     H       14.4527161   16.4856966   15.5065427
| 30>     H       15.5426068   16.2711302   17.8008631
| 31>     H       15.1939903   14.5385452   17.7928531
| 32>     H       16.5928272   17.6111397   15.1546799
| 33>     H       16.9384855   19.3101444   15.4528970
| 34>     H       15.4905250   18.5711162   16.1623749
| 35>     H       17.0474942   19.9974626   17.8309056
| 36>     H       19.5175781   17.9433396   20.2605460
| 37>     H       19.7756787   16.3270030   18.3574136
| 38>     H       19.5458872   14.0397638   18.8945940
| 39>     H       18.5451409   12.2463716   20.2911160
| 40>     H       16.5773375   12.7560014   21.7412992
| 41>     H       15.2028508   14.3152938   22.4402059
| 42>     H       16.6301638   16.8432286   20.4119777
| 43> *
| 44>
| 45>                          ****END OF INPUT****

CARTESIAN COORDINATES (ANGSTROEM)
---------------------------------
  C     14.243530   15.654943   16.188436
  C     15.418481   15.399643   17.149397
  O     16.587703   15.110931   16.352916
  C     17.830909   15.669722   16.528713
  O     18.823069   15.018219   16.259767
  C     17.923900   16.854546   17.433310
  C     17.337145   18.041162   17.155778
  C     16.545374   18.397207   15.918212
  N     17.500798   19.118959   18.028469
  C     18.303536   19.107204   19.139789
  S     18.479088   20.443576   20.097431
  N     18.949313   17.928215   19.422904
  C     18.779458   16.661553   18.683076
  C     18.175962   15.574860   19.567018
  C     18.701497   14.270265   19.540995
  C     18.131516   13.253004   20.324347
  C     17.022636   13.540447   21.138184
  C     16.490916   14.836631   21.160667
  O     15.410126   15.114417   21.932031
  C     17.060076   15.847633   20.379939
  H     13.332141   15.891768   16.750922
  H     14.046545   14.760859   15.583431
  H     14.452716   16.485697   15.506543
  H     15.542607   16.271130   17.800863
  H     15.193990   14.538545   17.792853
  H     16.592827   17.611140   15.154680
  H     16.938485   19.310144   15.452897
  H     15.490525   18.571116   16.162375
  H     17.047494   19.997463   17.830906
  H     19.517578   17.943340   20.260546
  H     19.775679   16.327003   18.357414
  H     19.545887   14.039764   18.894594
  H     18.545141   12.246372   20.291116
  H     16.577337   12.756001   21.741299
  H     15.202851   14.315294   22.440206
  H     16.630164   16.843229   20.411978

 Total Charge           Charge          ....    0
 Multiplicity           Mult            ....    1
 Number of Electrons    NEL             ....  154
 Basis Dimension        Dim             ....  828

ORBITAL ENERGIES
----------------

  NO   OCC          E(Eh)            E(eV)
   0   2.0000     -91.890425     -2500.4656
   1   2.0000     -20.600290      -560.5624
   2   2.0000     -20.599756      -560.5479
   3   2.0000     -20.549969      -559.1931
   4   2.0000     -15.627693      -425.2511
   5   2.0000     -15.611941      -424.8225
   6   2.0000     -11.398191      -310.1606
   7   2.0000     -11.387240      -309.8626
   8   2.0000     -11.329840      -308.3006
   9   2.0000     -11.316934      -307.9494
  10   2.0000     -11.314728      -307.8894
  11   2.0000     -11.303870      -307.5939
  12   2.0000     -11.269032      -306.6460
  13   2.0000     -11.264884      -306.5331
  14   2.0000     -11.263478      -306.4948
  15   2.0000     -11.256847      -306.3144
  16   2.0000     -11.246356      -306.0289
  17   2.0000     -11.242608      -305.9269
  18   2.0000     -11.239581      -305.8445
  19   2.0000     -11.235528      -305.7343
  20   2.0000      -8.895537      -242.0599
  21   2.0000      -6.577123      -178.9726
  22   2.0000      -6.575099      -178.9175
  23   2.0000      -6.574522      -178.9019
  24   2.0000      -1.446740       -39.3678
  25   2.0000      -1.420088       -38.6426
  26   2.0000      -1.358600       -36.9694
  27   2.0000      -1.340907       -36.4879
  28   2.0000      -1.240477       -33.7551
  29   2.0000      -1.161789       -31.6139
  30   2.0000      -1.126277       -30.6476
  31   2.0000      -1.049487       -28.5580
  32   2.0000      -1.041296       -28.3351
  33   2.0000      -1.019059       -27.7300
  34   2.0000      -1.005598       -27.3637
  35   2.0000      -0.990060       -26.9409
  36   2.0000      -0.928169       -25.2568
  37   2.0000      -0.886802       -24.1311
  38   2.0000      -0.854373       -23.2487
  39   2.0000      -0.842536       -22.9266
  40   2.0000      -0.837291       -22.7838
  41   2.0000      -0.836535       -22.7633
  42   2.0000      -0.757402       -20.6100
  43   2.0000      -0.739118       -20.1124
  44   2.0000      -0.732405       -19.9298
  45   2.0000      -0.698001       -18.9936
  46   2.0000      -0.688513       -18.7354
  47   2.0000      -0.680991       -18.5307
  48   2.0000      -0.677024       -18.4227
  49   2.0000      -0.665985       -18.1224
  50   2.0000      -0.653370       -17.7791
  51   2.0000      -0.640968       -17.4416
  52   2.0000      -0.640215       -17.4211
  53   2.0000      -0.615887       -16.7591
  54   2.0000      -0.608743       -16.5647
  55   2.0000      -0.606889       -16.5143
  56   2.0000      -0.603747       -16.4288
  57   2.0000      -0.588482       -16.0134
  58   2.0000      -0.578842       -15.7511
  59   2.0000      -0.570085       -15.5128
  60   2.0000      -0.565185       -15.3795
  61   2.0000      -0.559574       -15.2268
  62   2.0000      -0.540648       -14.7118
  63   2.0000      -0.535429       -14.5698
  64   2.0000      -0.523901       -14.2561
  65   2.0000      -0.516589       -14.0571
  66   2.0000      -0.502808       -13.6821
  67   2.0000      -0.500110       -13.6087
  68   2.0000      -0.489292       -13.3143
  69   2.0000      -0.470838       -12.8122
  70   2.0000      -0.455246       -12.3879
  71   2.0000      -0.448657       -12.2086
  72   2.0000      -0.357116        -9.7176
  73   2.0000      -0.352280        -9.5860
  74   2.0000      -0.330068        -8.9816
  75   2.0000      -0.324735        -8.8365
  76   2.0000      -0.318831        -8.6758
  77   0.0000       0.083694         2.2774
  78   0.0000       0.104301         2.8382
  79   0.0000       0.114574         3.1177
  80   0.0000       0.128291         3.4910
  81   0.0000       0.131378         3.5750

MULLIKEN ATOMIC CHARGES
-----------------------
   0 C :   -0.269683
   1 C :    0.014470
   2 O :   -0.321409
   3 C :    0.401792
   4 O :   -0.381629
   5 C :   -0.188710
   6 C :    0.136252
   7 C :   -0.337380
   8 N :   -0.136237
   9 C :    0.203267
  10 S :   -0.440415
  11 N :   -0.211345
  12 C :    0.069194
  13 C :    0.031968
  14 C :   -0.191218
  15 C :   -0.128919
  16 C :   -0.277693
  17 C :    0.315021
  18 O :   -0.357977
  19 C :   -0.287019
  20 H :    0.094740
  21 H :    0.111413
  22 H :    0.089070
  23 H :    0.097557
  24 H :    0.129148
  25 H :    0.128225
  26 H :    0.144546
  27 H :    0.123825
  28 H :    0.196704
  29 H :    0.198002
  30 H :    0.163610
  31 H :    0.166531
  32 H :    0.163592
  33 H :    0.132599
  34 H :    0.241980
  35 H :    0.176131
Sum of atomic charges:   -0.0000000

LOEWDIN ATOMIC CHARGES
----------------------
   0 C :    0.105624
   1 C :   -0.015786
   2 O :    0.304768
   3 C :   -0.416038
   4 O :    0.124790
   5 C :   -0.083828
   6 C :   -0.102092
   7 C :    0.125480
   8 N :    0.401646
   9 C :   -0.456118
  10 S :   -0.037266
  11 N :    0.397254
  12 C :   -0.044873
  13 C :   -0.043896
  14 C :    0.023157
  15 C :    0.045845
  16 C :   -0.000105
  17 C :   -0.194210
  18 O :    0.394200
  19 C :    0.027927
  20 H :   -0.024740
  21 H :   -0.023457
  22 H :   -0.033541
  23 H :   -0.040754
  24 H :   -0.023165
  25 H :   -0.008720
  26 H :   -0.009576
  27 H :   -0.016245
  28 H :   -0.057605
  29 H :   -0.063539
  30 H :   -0.002517
  31 H :   -0.021869
  32 H :   -0.018424
  33 H :   -0.034544
  34 H :   -0.152807
  35 H :   -0.024976

  Mayer bond orders larger than 0.100000
B(  0-C ,  1-C ) :   0.9714 B(  0-C , 20-H ) :   0.9754 B(  0-C , 21-H ) :   0.9796
B(  0-C , 22-H ) :   0.9785 B(  1-C ,  2-O ) :   0.9001 B(  1-C , 23-H ) :   0.9617
B(  1-C , 24-H ) :   0.9787 B(  2-O ,  3-C ) :   1.1859 B(  3-C ,  4-O ) :   2.0957
B(  3-C ,  5-C ) :   0.9282 B(  5-C ,  6-C ) :   1.6859 B(  5-C , 12-C ) :   0.9591
B(  6-C ,  7-C ) :   0.9437 B(  6-C ,  8-N ) :   1.1162 B(  7-C , 25-H ) :   0.9802
B(  7-C , 26-H ) :   0.9716 B(  7-C , 27-H ) :   0.9651 B(  8-N ,  9-C ) :   1.1936
B(  8-N , 28-H ) :   0.9519 B(  9-C , 10-S ) :   1.6125 B(  9-C , 11-N ) :   1.2885
B( 11-N , 12-C ) :   0.9997 B( 11-N , 29-H ) :   0.9492 B( 12-C , 13-C ) :   0.9424
B( 12-C , 30-H ) :   0.9973 B( 13-C , 14-C ) :   1.3867 B( 13-C , 19-C ) :   1.3459
B( 14-C , 15-C ) :   1.3958 B( 14-C , 31-H ) :   0.9614 B( 15-C , 16-C ) :   1.3646
B( 15-C , 32-H ) :   0.9700 B( 16-C , 17-C ) :   1.3282 B( 16-C , 33-H ) :   0.9843
B( 17-C , 18-O ) :   1.1106 B( 17-C , 19-C ) :   1.3711 B( 18-O , 34-H ) :   0.9790
B( 19-C , 35-H ) :   0.9571

MP2 TOTAL ENERGY:    -1274.332171145 Eh
FINAL SINGLE POINT ENERGY     -1274.332171144629

DIPOLE MOMENT
-------------
                                X             Y             Z
Electronic contribution:     11.71258       5.58663       7.72998
Nuclear contribution   :    -13.24608      -6.59464      -7.97366
                        -----------------------------------------
Total Dipole Moment    :     -1.53350      -1.00801      -0.24369
                        -----------------------------------------
Magnitude (a.u.)       :      1.85124
Magnitude (Debye)      :      4.70548

Rotational constants in cm-1:     0.011370     0.009260     0.006855
Rotational constants in MHz :   340.869812   277.614053   205.495064

                             ****ORCA TERMINATED NORMALLY****
TOTAL RUN TIME: 0 days 1 hours 53 minutes 36 seconds 58 msec
