                         Program Version 5.0.0 -  RELEASE  -
|  1> ! ri-mp2 cc-pvtz cc-pvtz/c TightSCF NoKeepInts
|  2>
|  3> %scf
|  4>   MaxCore 4096
|  5> end
|  6> *xyz  0  1
|  7>     C       14.8355760   15.5602759   17.1683235
|  8>     C       15.8054360   14.7857560   16.2559583
|  9>     O       16.7788161   15.6857491   15.6898852
| 10>     C       17.9626155   15.8478893   16.3504037
| 11>     O       18.7158137   14.8982238   16.4778245
| 12>     C       17.9332294   16.9517628   17.3636657
| 13>     C       17.3181156   18.1407842   17.1482198
| 14>     C       16.6001081   18.5865479   15.8914544
| 15>     N       17.3987926   19.1493164   18.1128357
| 16>     C       18.2093330   19.1078953   19.2172375
| 17>     S       18.3506438   20.3976264   20.2425569
| 18>     N       18.8973814   17.9389368   19.4294234
| 19>     C       18.6962073   16.6907659   18.6673750
| 20>     C       17.9887139   15.6392533   19.5212341
| 21>     C       18.4561163   14.3120422   19.5438908
| 22>     C       17.8044295   13.3335571   20.3128238
| 23>     C       16.6735450   13.6832065   21.0695393
| 24>     C       16.2041935   15.0032351   21.0521067
| 25>     O       15.1067270   15.3429142   21.7738029
| 26>     C       16.8556950   15.9750455   20.2862716
| 27>     H       15.3644732   16.0564161   17.9877792
| 28>     H       14.1037720   14.8738133   17.6113322
| 29>     H       14.2850246   16.3168349   16.5972839
| 30>     H       16.2976766   13.9806509   16.8199423
| 31>     H       15.2302735   14.3218057   15.4444090
| 32>     H       15.5733646   18.2043350   15.8700503
| 33>     H       17.1119367   18.2200778   14.9927860
| 34>     H       16.5528384   19.6790365   15.8050761
| 35>     H       16.9051916   20.0163992   17.9715994
| 36>     H       19.4695480   17.9266282   20.2641391
| 37>     H       19.6898915   16.3011203   18.4020903
| 38>     H       19.3222003   14.0340093   18.9473844
| 39>     H       18.1748450   12.3098663   20.3152877
| 40>     H       16.1656402   12.9300781   21.6628215
| 41>     H       14.8367878   14.5604866   22.2778403
| 42>     H       16.4720472   16.9896581   20.2893457
| 43> *
| 44>
| 45>                          ****END OF INPUT****

CARTESIAN COORDINATES (ANGSTROEM)
---------------------------------
  C     14.835576   15.560276   17.168323
  C     15.805436   14.785756   16.255958
  O     16.778816   15.685749   15.689885
  C     17.962615   15.847889   16.350404
  O     18.715814   14.898224   16.477825
  C     17.933229   16.951763   17.363666
  C     17.318116   18.140784   17.148220
  C     16.600108   18.586548   15.891454
  N     17.398793   19.149316   18.112836
  C     18.209333   19.107895   19.217237
  S     18.350644   20.397626   20.242557
  N     18.897381   17.938937   19.429423
  C     18.696207   16.690766   18.667375
  C     17.988714   15.639253   19.521234
  C     18.456116   14.312042   19.543891
  C     17.804430   13.333557   20.312824
  C     16.673545   13.683207   21.069539
  C     16.204193   15.003235   21.052107
  O     15.106727   15.342914   21.773803
  C     16.855695   15.975046   20.286272
  H     15.364473   16.056416   17.987779
  H     14.103772   14.873813   17.611332
  H     14.285025   16.316835   16.597284
  H     16.297677   13.980651   16.819942
  H     15.230273   14.321806   15.444409
  H     15.573365   18.204335   15.870050
  H     17.111937   18.220078   14.992786
  H     16.552838   19.679036   15.805076
  H     16.905192   20.016399   17.971599
  H     19.469548   17.926628   20.264139
  H     19.689891   16.301120   18.402090
  H     19.322200   14.034009   18.947384
  H     18.174845   12.309866   20.315288
  H     16.165640   12.930078   21.662821
  H     14.836788   14.560487   22.277840
  H     16.472047   16.989658   20.289346

 Total Charge           Charge          ....    0
 Multiplicity           Mult            ....    1
 Number of Electrons    NEL             ....  154
 Basis Dimension        Dim             ....  828

ORBITAL ENERGIES
----------------

  NO   OCC          E(Eh)            E(eV)
   0   2.0000     -91.890625     -2500.4710
   1   2.0000     -20.596652      -560.4634
   2   2.0000     -20.582133      -560.0683
   3   2.0000     -20.555714      -559.3494
   4   2.0000     -15.630268      -425.3212
   5   2.0000     -15.609782      -424.7638
   6   2.0000     -11.394913      -310.0713
   7   2.0000     -11.386002      -309.8289
   8   2.0000     -11.335015      -308.4414
   9   2.0000     -11.313013      -307.8427
  10   2.0000     -11.310644      -307.7783
  11   2.0000     -11.301010      -307.5161
  12   2.0000     -11.261254      -306.4343
  13   2.0000     -11.261191      -306.4326
  14   2.0000     -11.259597      -306.3892
  15   2.0000     -11.253174      -306.2144
  16   2.0000     -11.242760      -305.9311
  17   2.0000     -11.238822      -305.8239
  18   2.0000     -11.235280      -305.7275
  19   2.0000     -11.227616      -305.5190
  20   2.0000      -8.895683      -242.0638
  21   2.0000      -6.577258      -178.9763
  22   2.0000      -6.575250      -178.9217
  23   2.0000      -6.574662      -178.9056
  24   2.0000      -1.451043       -39.4849
  25   2.0000      -1.416457       -38.5438
  26   2.0000      -1.355475       -36.8843
  27   2.0000      -1.341380       -36.5008
  28   2.0000      -1.239425       -33.7265
  29   2.0000      -1.157169       -31.4882
  30   2.0000      -1.122550       -30.5461
  31   2.0000      -1.045185       -28.4409
  32   2.0000      -1.033164       -28.1138
  33   2.0000      -1.015071       -27.6215
  34   2.0000      -1.001032       -27.2395
  35   2.0000      -0.987915       -26.8825
  36   2.0000      -0.925063       -25.1723
  37   2.0000      -0.888831       -24.1863
  38   2.0000      -0.849654       -23.1203
  39   2.0000      -0.839883       -22.8544
  40   2.0000      -0.833444       -22.6792
  41   2.0000      -0.822435       -22.3796
  42   2.0000      -0.755153       -20.5488
  43   2.0000      -0.735755       -20.0209
  44   2.0000      -0.728996       -19.8370
  45   2.0000      -0.695495       -18.9254
  46   2.0000      -0.686927       -18.6922
  47   2.0000      -0.677481       -18.4352
  48   2.0000      -0.675579       -18.3834
  49   2.0000      -0.660691       -17.9783
  50   2.0000      -0.654139       -17.8000
  51   2.0000      -0.646250       -17.5854
  52   2.0000      -0.638153       -17.3650
  53   2.0000      -0.608017       -16.5450
  54   2.0000      -0.604068       -16.4375
  55   2.0000      -0.600629       -16.3439
  56   2.0000      -0.591256       -16.0889
  57   2.0000      -0.587858       -15.9964
  58   2.0000      -0.575794       -15.6681
  59   2.0000      -0.570710       -15.5298
  60   2.0000      -0.562983       -15.3195
  61   2.0000      -0.551807       -15.0154
  62   2.0000      -0.545631       -14.8474
  63   2.0000      -0.522635       -14.2216
  64   2.0000      -0.518296       -14.1036
  65   2.0000      -0.512706       -13.9514
  66   2.0000      -0.501050       -13.6343
  67   2.0000      -0.496352       -13.5064
  68   2.0000      -0.483085       -13.1454
  69   2.0000      -0.464862       -12.6495
  70   2.0000      -0.456637       -12.4257
  71   2.0000      -0.452576       -12.3152
  72   2.0000      -0.355658        -9.6779
  73   2.0000      -0.348412        -9.4808
  74   2.0000      -0.329800        -8.9743
  75   2.0000      -0.320791        -8.7292
  76   2.0000      -0.317736        -8.6460
  77   0.0000       0.068820         1.8727
  78   0.0000       0.104751         2.8504
  79   0.0000       0.119751         3.2586
  80   0.0000       0.131115         3.5678
  81   0.0000       0.133969         3.6455

MULLIKEN ATOMIC CHARGES
-----------------------
   0 C :   -0.319441
   1 C :    0.045303
   2 O :   -0.380695
   3 C :    0.475622
   4 O :   -0.397748
   5 C :   -0.228879
   6 C :    0.159789
   7 C :   -0.283687
   8 N :   -0.125248
   9 C :    0.189944
  10 S :   -0.435620
  11 N :   -0.206374
  12 C :    0.061425
  13 C :    0.051504
  14 C :   -0.192149
  15 C :   -0.136174
  16 C :   -0.278344
  17 C :    0.325369
  18 O :   -0.358543
  19 C :   -0.301827
  20 H :    0.110659
  21 H :    0.118005
  22 H :    0.095971
  23 H :    0.105035
  24 H :    0.112252
  25 H :    0.125126
  26 H :    0.126455
  27 H :    0.108332
  28 H :    0.198083
  29 H :    0.195462
  30 H :    0.160071
  31 H :    0.167048
  32 H :    0.163037
  33 H :    0.131360
  34 H :    0.240653
  35 H :    0.178223
Sum of atomic charges:   -0.0000000

LOEWDIN ATOMIC CHARGES
----------------------
   0 C :    0.105181
   1 C :   -0.012486
   2 O :    0.281836
   3 C :   -0.417008
   4 O :    0.131039
   5 C :   -0.093949
   6 C :   -0.072999
   7 C :    0.127758
   8 N :    0.405372
   9 C :   -0.458865
  10 S :   -0.034169
  11 N :    0.397052
  12 C :   -0.044749
  13 C :   -0.041717
  14 C :    0.020777
  15 C :    0.040881
  16 C :   -0.002321
  17 C :   -0.193637
  18 O :    0.394561
  19 C :    0.028804
  20 H :   -0.033958
  21 H :   -0.022429
  22 H :   -0.033821
  23 H :   -0.025990
  24 H :   -0.023395
  25 H :   -0.012949
  26 H :   -0.007067
  27 H :   -0.018403
  28 H :   -0.058194
  29 H :   -0.063906
  30 H :   -0.003285
  31 H :   -0.023604
  32 H :   -0.019911
  33 H :   -0.035463
  34 H :   -0.153844
  35 H :   -0.025142

  Mayer bond orders larger than 0.100000
B(  0-C ,  1-C ) :   0.9617 B(  0-C , 20-H ) :   0.9702 B(  0-C , 21-H ) :   0.9785
B(  0-C , 22-H ) :   0.9795 B(  1-C ,  2-O ) :   0.8886 B(  1-C , 23-H ) :   0.9724
B(  1-C , 24-H ) :   0.9849 B(  2-O ,  3-C ) :   1.0957 B(  3-C ,  4-O ) :   2.0351
B(  3-C ,  5-C ) :   1.0083 B(  5-C ,  6-C ) :   1.6641 B(  5-C , 12-C ) :   0.9560
B(  6-C ,  7-C ) :   0.9539 B(  6-C ,  8-N ) :   1.1360 B(  7-C , 25-H ) :   0.9629
B(  7-C , 26-H ) :   0.9694 B(  7-C , 27-H ) :   0.9870 B(  8-N ,  9-C ) :   1.1825
B(  8-N , 28-H ) :   0.9497 B(  9-C , 10-S ) :   1.6168 B(  9-C , 11-N ) :   1.2950
B( 11-N , 12-C ) :   0.9862 B( 11-N , 29-H ) :   0.9514 B( 12-C , 13-C ) :   0.9491
B( 12-C , 30-H ) :   0.9980 B( 13-C , 14-C ) :   1.3840 B( 13-C , 19-C ) :   1.3421
B( 14-C , 15-C ) :   1.3981 B( 14-C , 31-H ) :   0.9595 B( 15-C , 16-C ) :   1.3615
B( 15-C , 32-H ) :   0.9703 B( 16-C , 17-C ) :   1.3313 B( 16-C , 33-H ) :   0.9847
B( 17-C , 18-O ) :   1.1111 B( 17-C , 19-C ) :   1.3671 B( 18-O , 34-H ) :   0.9802
B( 19-C , 35-H ) :   0.9568

MP2 TOTAL ENERGY:    -1274.324197056 Eh
FINAL SINGLE POINT ENERGY     -1274.324197056419

DIPOLE MOMENT
-------------
                                X             Y             Z
Electronic contribution:     10.10479       7.22250       6.16815
Nuclear contribution   :    -11.36323      -8.46634      -6.77832
                        -----------------------------------------
Total Dipole Moment    :     -1.25844      -1.24384      -0.61017
                        -----------------------------------------
Magnitude (a.u.)       :      1.87166
Magnitude (Debye)      :      4.75738

Rotational constants in cm-1:     0.011719     0.009688     0.006915
Rotational constants in MHz :   351.332850   290.449257   207.319420

                             ****ORCA TERMINATED NORMALLY****
TOTAL RUN TIME: 0 days 2 hours 52 minutes 38 seconds 1 msec
