                         Program Version 5.0.0 -  RELEASE  -
|  1> ! ri-mp2 cc-pvtz cc-pvtz/c TightSCF NoKeepInts
|  2>
|  3> %scf
|  4>   MaxCore 4096
|  5> end
|  6> *xyz  0  1
|  7>     C       14.6088477   14.4318934   17.0020744
|  8>     C       15.6001276   15.5906734   16.8115612
|  9>     O       16.8762318   15.0024509   16.4998268
| 10>     C       18.0790844   15.6607371   16.5632328
| 11>     O       19.1051843   15.0193108   16.4351732
| 12>     C       18.0782951   16.8977466   17.3978626
| 13>     C       17.5829634   18.0740133   16.9520627
| 14>     C       16.9944910   18.3518859   15.5860383
| 15>     N       17.6486481   19.2077591   17.7644964
| 16>     C       18.2692833   19.2553825   18.9863075
| 17>     S       18.3430511   20.6528306   19.8668895
| 18>     N       18.8203533   18.0838364   19.4466019
| 19>     C       18.7209712   16.7708488   18.7774004
| 20>     C       17.9575952   15.7602096   19.6284969
| 21>     C       18.4046422   14.4287386   19.7095774
| 22>     C       17.6909978   13.4773545   20.4570585
| 23>     C       16.5163302   13.8582653   21.1273425
| 24>     C       16.0635084   15.1815800   21.0437907
| 25>     O       14.9209181   15.5493960   21.6759700
| 26>     C       16.7764426   16.1273914   20.3002742
| 27>     H       14.9353827   13.7801501   17.8227526
| 28>     H       14.5378279   13.8280108   16.0887809
| 29>     H       13.6093068   14.8130950   17.2435580
| 30>     H       15.2614173   16.2427570   15.9975418
| 31>     H       15.6392435   16.1667905   17.7446308
| 32>     H       17.1125245   17.5042466   14.8997439
| 33>     H       17.4939210   19.2084669   15.1151381
| 34>     H       15.9245925   18.5835532   15.6559559
| 35>     H       17.2639677   20.0813157   17.4401031
| 36>     H       19.2532317   18.1452720   20.3596497
| 37>     H       19.7435385   16.3915454   18.6329242
| 38>     H       19.3003955   14.1252385   19.1715557
| 39>     H       18.0450368   12.4489489   20.5054290
| 40>     H       15.9597586   13.1247928   21.7013068
| 41>     H       14.6061094   14.7810701   22.1760991
| 42>     H       16.4027789   17.1444421   20.2467926
| 43> *
| 44>
| 45>                          ****END OF INPUT****

CARTESIAN COORDINATES (ANGSTROEM)
---------------------------------
  C     14.608848   14.431893   17.002074
  C     15.600128   15.590673   16.811561
  O     16.876232   15.002451   16.499827
  C     18.079084   15.660737   16.563233
  O     19.105184   15.019311   16.435173
  C     18.078295   16.897747   17.397863
  C     17.582963   18.074013   16.952063
  C     16.994491   18.351886   15.586038
  N     17.648648   19.207759   17.764496
  C     18.269283   19.255382   18.986307
  S     18.343051   20.652831   19.866889
  N     18.820353   18.083836   19.446602
  C     18.720971   16.770849   18.777400
  C     17.957595   15.760210   19.628497
  C     18.404642   14.428739   19.709577
  C     17.690998   13.477355   20.457058
  C     16.516330   13.858265   21.127343
  C     16.063508   15.181580   21.043791
  O     14.920918   15.549396   21.675970
  C     16.776443   16.127391   20.300274
  H     14.935383   13.780150   17.822753
  H     14.537828   13.828011   16.088781
  H     13.609307   14.813095   17.243558
  H     15.261417   16.242757   15.997542
  H     15.639243   16.166791   17.744631
  H     17.112524   17.504247   14.899744
  H     17.493921   19.208467   15.115138
  H     15.924592   18.583553   15.655956
  H     17.263968   20.081316   17.440103
  H     19.253232   18.145272   20.359650
  H     19.743538   16.391545   18.632924
  H     19.300395   14.125239   19.171556
  H     18.045037   12.448949   20.505429
  H     15.959759   13.124793   21.701307
  H     14.606109   14.781070   22.176099
  H     16.402779   17.144442   20.246793

 Total Charge           Charge          ....    0
 Multiplicity           Mult            ....    1
 Number of Electrons    NEL             ....  154
 Basis Dimension        Dim             ....  828

ORBITAL ENERGIES
----------------

  NO   OCC          E(Eh)            E(eV)
   0   2.0000     -91.889617     -2500.4436
   1   2.0000     -20.602649      -560.6266
   2   2.0000     -20.599941      -560.5529
   3   2.0000     -20.551196      -559.2265
   4   2.0000     -15.625886      -425.2020
   5   2.0000     -15.611812      -424.8190
   6   2.0000     -11.397197      -310.1335
   7   2.0000     -11.386615      -309.8455
   8   2.0000     -11.326857      -308.2195
   9   2.0000     -11.316746      -307.9443
  10   2.0000     -11.315976      -307.9234
  11   2.0000     -11.302934      -307.5685
  12   2.0000     -11.270775      -306.6934
  13   2.0000     -11.264663      -306.5271
  14   2.0000     -11.263717      -306.5013
  15   2.0000     -11.256522      -306.3055
  16   2.0000     -11.245833      -306.0147
  17   2.0000     -11.242261      -305.9175
  18   2.0000     -11.238946      -305.8273
  19   2.0000     -11.231296      -305.6191
  20   2.0000      -8.894743      -242.0383
  21   2.0000      -6.576334      -178.9512
  22   2.0000      -6.574305      -178.8959
  23   2.0000      -6.573733      -178.8804
  24   2.0000      -1.450139       -39.4603
  25   2.0000      -1.419753       -38.6335
  26   2.0000      -1.360367       -37.0175
  27   2.0000      -1.339580       -36.4518
  28   2.0000      -1.239690       -33.7337
  29   2.0000      -1.161307       -31.6008
  30   2.0000      -1.125691       -30.6316
  31   2.0000      -1.049288       -28.5526
  32   2.0000      -1.040088       -28.3022
  33   2.0000      -1.018895       -27.7255
  34   2.0000      -1.005278       -27.3550
  35   2.0000      -0.989272       -26.9195
  36   2.0000      -0.928044       -25.2534
  37   2.0000      -0.880771       -23.9670
  38   2.0000      -0.855556       -23.2809
  39   2.0000      -0.841667       -22.9029
  40   2.0000      -0.837051       -22.7773
  41   2.0000      -0.836687       -22.7674
  42   2.0000      -0.757206       -20.6046
  43   2.0000      -0.739754       -20.1297
  44   2.0000      -0.731529       -19.9059
  45   2.0000      -0.698179       -18.9984
  46   2.0000      -0.688756       -18.7420
  47   2.0000      -0.682008       -18.5584
  48   2.0000      -0.677426       -18.4337
  49   2.0000      -0.660651       -17.9772
  50   2.0000      -0.658750       -17.9255
  51   2.0000      -0.650089       -17.6898
  52   2.0000      -0.639902       -17.4126
  53   2.0000      -0.612264       -16.6605
  54   2.0000      -0.608222       -16.5506
  55   2.0000      -0.603732       -16.4284
  56   2.0000      -0.597608       -16.2617
  57   2.0000      -0.584416       -15.9028
  58   2.0000      -0.577667       -15.7191
  59   2.0000      -0.569953       -15.5092
  60   2.0000      -0.562952       -15.3187
  61   2.0000      -0.556520       -15.1437
  62   2.0000      -0.551967       -15.0198
  63   2.0000      -0.527885       -14.3645
  64   2.0000      -0.518173       -14.1002
  65   2.0000      -0.515455       -14.0262
  66   2.0000      -0.506013       -13.7693
  67   2.0000      -0.502286       -13.6679
  68   2.0000      -0.488055       -13.2806
  69   2.0000      -0.470301       -12.7975
  70   2.0000      -0.453378       -12.3370
  71   2.0000      -0.451193       -12.2776
  72   2.0000      -0.356494        -9.7007
  73   2.0000      -0.351663        -9.5692
  74   2.0000      -0.329367        -8.9625
  75   2.0000      -0.324281        -8.8241
  76   2.0000      -0.318080        -8.6554
  77   0.0000       0.088168         2.3992
  78   0.0000       0.104129         2.8335
  79   0.0000       0.110186         2.9983
  80   0.0000       0.127387         3.4664
  81   0.0000       0.132071         3.5938

MULLIKEN ATOMIC CHARGES
-----------------------
   0 C :   -0.259714
   1 C :    0.006398
   2 O :   -0.301785
   3 C :    0.391094
   4 O :   -0.379116
   5 C :   -0.181197
   6 C :    0.140087
   7 C :   -0.331374
   8 N :   -0.137581
   9 C :    0.206298
  10 S :   -0.441956
  11 N :   -0.217683
  12 C :    0.072515
  13 C :    0.033453
  14 C :   -0.192176
  15 C :   -0.129818
  16 C :   -0.278583
  17 C :    0.321040
  18 O :   -0.358041
  19 C :   -0.295012
  20 H :    0.108767
  21 H :    0.103660
  22 H :    0.087919
  23 H :    0.095976
  24 H :    0.105039
  25 H :    0.123191
  26 H :    0.140028
  27 H :    0.122491
  28 H :    0.195792
  29 H :    0.199445
  30 H :    0.165436
  31 H :    0.165837
  32 H :    0.163607
  33 H :    0.132781
  34 H :    0.241794
  35 H :    0.181387
Sum of atomic charges:    0.0000000

LOEWDIN ATOMIC CHARGES
----------------------
   0 C :    0.112885
   1 C :   -0.026792
   2 O :    0.315160
   3 C :   -0.418603
   4 O :    0.126412
   5 C :   -0.080599
   6 C :   -0.106559
   7 C :    0.123063
   8 N :    0.400585
   9 C :   -0.455494
  10 S :   -0.038704
  11 N :    0.397315
  12 C :   -0.043314
  13 C :   -0.042109
  14 C :    0.024578
  15 C :    0.046265
  16 C :   -0.000170
  17 C :   -0.193843
  18 O :    0.394667
  19 C :    0.026651
  20 H :   -0.022209
  21 H :   -0.025711
  22 H :   -0.025166
  23 H :   -0.038319
  24 H :   -0.036627
  25 H :   -0.009464
  26 H :   -0.009582
  27 H :   -0.017101
  28 H :   -0.058349
  29 H :   -0.063645
  30 H :   -0.002171
  31 H :   -0.021868
  32 H :   -0.018412
  33 H :   -0.034762
  34 H :   -0.152947
  35 H :   -0.025059

  Mayer bond orders larger than 0.100000
B(  0-C ,  1-C ) :   0.9842 B(  0-C , 20-H ) :   0.9768 B(  0-C , 21-H ) :   0.9797
B(  0-C , 22-H ) :   0.9767 B(  1-C ,  2-O ) :   0.9165 B(  1-C , 23-H ) :   0.9746
B(  1-C , 24-H ) :   0.9574 B(  2-O ,  3-C ) :   1.1719 B(  3-C ,  4-O ) :   2.0932
B(  3-C ,  5-C ) :   0.9177 B(  5-C ,  6-C ) :   1.6924 B(  5-C , 12-C ) :   0.9607
B(  6-C ,  7-C ) :   0.9421 B(  6-C ,  8-N ) :   1.1132 B(  7-C , 25-H ) :   0.9822
B(  7-C , 26-H ) :   0.9693 B(  7-C , 27-H ) :   0.9664 B(  8-N ,  9-C ) :   1.1975
B(  8-N , 28-H ) :   0.9529 B(  9-C , 10-S ) :   1.6099 B(  9-C , 11-N ) :   1.2859
B( 11-N , 12-C ) :   0.9961 B( 11-N , 29-H ) :   0.9484 B( 12-C , 13-C ) :   0.9436
B( 12-C , 30-H ) :   0.9972 B( 13-C , 14-C ) :   1.3881 B( 13-C , 19-C ) :   1.3389
B( 14-C , 15-C ) :   1.3980 B( 14-C , 31-H ) :   0.9622 B( 15-C , 16-C ) :   1.3623
B( 15-C , 32-H ) :   0.9700 B( 16-C , 17-C ) :   1.3298 B( 16-C , 33-H ) :   0.9843
B( 17-C , 18-O ) :   1.1094 B( 17-C , 19-C ) :   1.3651 B( 18-O , 34-H ) :   0.9792
B( 19-C , 35-H ) :   0.9559

MP2 TOTAL ENERGY:    -1274.330088864 Eh
FINAL SINGLE POINT ENERGY     -1274.330088864073

DIPOLE MOMENT
-------------
                                X             Y             Z
Electronic contribution:     10.58599       8.19192       6.64890
Nuclear contribution   :    -12.13089      -9.21768      -7.16298
                        -----------------------------------------
Total Dipole Moment    :     -1.54491      -1.02576      -0.51408
                        -----------------------------------------
Magnitude (a.u.)       :      1.92437
Magnitude (Debye)      :      4.89136

Rotational constants in cm-1:     0.012389     0.009002     0.006855
Rotational constants in MHz :   371.426610   269.871929   205.503971

                             ****ORCA TERMINATED NORMALLY****
TOTAL RUN TIME: 0 days 2 hours 9 minutes 46 seconds 488 msec
