                         Program Version 4.2.0 -  RELEASE  -
|  1> ! ri-mp2 cc-pvtz cc-pvtz/c TightSCF  NoKeepInts
|  2>
|  3> %scf
|  4>   MaxCore 4096
|  5> end
|  6> *xyz  0  1
|  7>     C       14.4847419   14.6003655   15.8528053
|  8>     C       15.7383683   14.6470547   16.7417617
|  9>     O       16.7054331   15.4785263   16.0812424
| 10>     C       17.9317805   15.5759291   16.6656585
| 11>     O       18.5538118   14.5717594   16.9685612
| 12>     C       18.0619181   16.8378293   17.4626574
| 13>     C       17.5605124   18.0328276   17.0626177
| 14>     C       16.8356649   18.3358409   15.7679720
| 15>     N       17.7592943   19.1693965   17.8520760
| 16>     C       18.5507397   19.2154346   18.9700013
| 17>     S       18.8214918   20.6274069   19.7874234
| 18>     N       19.1066855   18.0283658   19.3776822
| 19>     C       18.8011528   16.7067987   18.7968851
| 20>     C       17.9885472   15.8644542   19.7766811
| 21>     C       18.4312565   14.5833873   20.1540158
| 22>     C       17.6768011   13.7969853   21.0406830
| 23>     C       16.4672515   14.2944075   21.5546757
| 24>     C       16.0204707   15.5681014   21.1781173
| 25>     O       14.8476511   16.0472934   21.6635759
| 26>     C       16.7731941   16.3481938   20.2948802
| 27>     H       14.7269993   14.1861866   14.8660614
| 28>     H       14.0694219   15.6062154   15.7150745
| 29>     H       13.7130593   13.9691217   16.3099538
| 30>     H       15.4900439   15.0566313   17.7303860
| 31>     H       16.1327715   13.6300059   16.8744280
| 32>     H       17.3004598   17.8101972   14.9243811
| 33>     H       16.8451974   19.4049177   15.5229392
| 34>     H       15.7886051   18.0134197   15.8263390
| 35>     H       17.3606067   20.0504114   17.5688387
| 36>     H       19.6617901   18.0860085   20.2218653
| 37>     H       19.7552302   16.1945978   18.6052463
| 38>     H       19.3565068   14.1881984   19.7414247
| 39>     H       18.0281179   12.8051840   21.3200033
| 40>     H       15.8805186   13.6891236   22.2377187
| 41>     H       14.5107925   15.3991862   22.3005589
| 42>     H       16.4101119   17.3322364   20.0188082
| 43> *
| 44>
| 45>                          ****END OF INPUT****

CARTESIAN COORDINATES (ANGSTROEM)
---------------------------------
  C     14.484742   14.600365   15.852805
  C     15.738368   14.647055   16.741762
  O     16.705433   15.478526   16.081242
  C     17.931780   15.575929   16.665658
  O     18.553812   14.571759   16.968561
  C     18.061918   16.837829   17.462657
  C     17.560512   18.032828   17.062618
  C     16.835665   18.335841   15.767972
  N     17.759294   19.169397   17.852076
  C     18.550740   19.215435   18.970001
  S     18.821492   20.627407   19.787423
  N     19.106686   18.028366   19.377682
  C     18.801153   16.706799   18.796885
  C     17.988547   15.864454   19.776681
  C     18.431256   14.583387   20.154016
  C     17.676801   13.796985   21.040683
  C     16.467251   14.294408   21.554676
  C     16.020471   15.568101   21.178117
  O     14.847651   16.047293   21.663576
  C     16.773194   16.348194   20.294880
  H     14.726999   14.186187   14.866061
  H     14.069422   15.606215   15.715075
  H     13.713059   13.969122   16.309954
  H     15.490044   15.056631   17.730386
  H     16.132772   13.630006   16.874428
  H     17.300460   17.810197   14.924381
  H     16.845197   19.404918   15.522939
  H     15.788605   18.013420   15.826339
  H     17.360607   20.050411   17.568839
  H     19.661790   18.086008   20.221865
  H     19.755230   16.194598   18.605246
  H     19.356507   14.188198   19.741425
  H     18.028118   12.805184   21.320003
  H     15.880519   13.689124   22.237719
  H     14.510793   15.399186   22.300559
  H     16.410112   17.332236   20.018808

 Total Charge           Charge          ....    0
 Multiplicity           Mult            ....    1
 Number of Electrons    NEL             ....  154
 Basis Dimension        Dim             ....  828

ORBITAL ENERGIES
----------------

  NO   OCC          E(Eh)            E(eV)
   0   2.0000     -91.889027     -2500.4275
   1   2.0000     -20.596268      -560.4529
   2   2.0000     -20.584781      -560.1404
   3   2.0000     -20.555744      -559.3502
   4   2.0000     -15.628677      -425.2779
   5   2.0000     -15.608518      -424.7294
   6   2.0000     -11.393821      -310.0416
   7   2.0000     -11.384542      -309.7891
   8   2.0000     -11.333385      -308.3971
   9   2.0000     -11.312386      -307.8257
  10   2.0000     -11.308818      -307.7286
  11   2.0000     -11.297351      -307.4166
  12   2.0000     -11.260661      -306.4182
  13   2.0000     -11.259599      -306.3893
  14   2.0000     -11.257808      -306.3405
  15   2.0000     -11.252410      -306.1936
  16   2.0000     -11.242059      -305.9120
  17   2.0000     -11.237926      -305.7995
  18   2.0000     -11.235136      -305.7236
  19   2.0000     -11.231905      -305.6357
  20   2.0000      -8.894103      -242.0209
  21   2.0000      -6.575681      -178.9334
  22   2.0000      -6.573672      -178.8787
  23   2.0000      -6.573087      -178.8628
  24   2.0000      -1.453895       -39.5625
  25   2.0000      -1.416067       -38.5332
  26   2.0000      -1.357056       -36.9274
  27   2.0000      -1.339759       -36.4567
  28   2.0000      -1.238026       -33.6884
  29   2.0000      -1.156453       -31.4687
  30   2.0000      -1.121517       -30.5180
  31   2.0000      -1.045066       -28.4377
  32   2.0000      -1.035435       -28.1756
  33   2.0000      -1.013946       -27.5909
  34   2.0000      -0.999494       -27.1976
  35   2.0000      -0.985094       -26.8058
  36   2.0000      -0.923506       -25.1299
  37   2.0000      -0.880936       -23.9715
  38   2.0000      -0.848491       -23.0886
  39   2.0000      -0.838888       -22.8273
  40   2.0000      -0.832471       -22.6527
  41   2.0000      -0.826459       -22.4891
  42   2.0000      -0.757542       -20.6138
  43   2.0000      -0.735966       -20.0267
  44   2.0000      -0.728496       -19.8234
  45   2.0000      -0.694206       -18.8903
  46   2.0000      -0.686144       -18.6709
  47   2.0000      -0.681487       -18.5442
  48   2.0000      -0.675271       -18.3751
  49   2.0000      -0.656268       -17.8580
  50   2.0000      -0.650269       -17.6947
  51   2.0000      -0.641905       -17.4671
  52   2.0000      -0.632385       -17.2081
  53   2.0000      -0.620060       -16.8727
  54   2.0000      -0.604809       -16.4577
  55   2.0000      -0.603130       -16.4120
  56   2.0000      -0.599767       -16.3205
  57   2.0000      -0.578149       -15.7322
  58   2.0000      -0.575914       -15.6714
  59   2.0000      -0.564153       -15.3514
  60   2.0000      -0.557913       -15.1816
  61   2.0000      -0.547629       -14.9018
  62   2.0000      -0.537070       -14.6144
  63   2.0000      -0.522209       -14.2100
  64   2.0000      -0.521382       -14.1875
  65   2.0000      -0.512157       -13.9365
  66   2.0000      -0.503908       -13.7120
  67   2.0000      -0.497885       -13.5482
  68   2.0000      -0.482528       -13.1302
  69   2.0000      -0.465237       -12.6598
  70   2.0000      -0.459395       -12.5008
  71   2.0000      -0.451067       -12.2742
  72   2.0000      -0.354597        -9.6491
  73   2.0000      -0.348086        -9.4719
  74   2.0000      -0.328346        -8.9348
  75   2.0000      -0.319503        -8.6941
  76   2.0000      -0.315947        -8.5973
  77   0.0000       0.070459         1.9173
  78   0.0000       0.104396         2.8408
  79   0.0000       0.118808         3.2329
  80   0.0000       0.131897         3.5891
  81   0.0000       0.135350         3.6831

MULLIKEN ATOMIC CHARGES
-----------------------
   0 C :   -0.265882
   1 C :    0.038682
   2 O :   -0.369453
   3 C :    0.464114
   4 O :   -0.398325
   5 C :   -0.205721
   6 C :    0.135177
   7 C :   -0.281536
   8 N :   -0.124154
   9 C :    0.202569
  10 S :   -0.439376
  11 N :   -0.201232
  12 C :    0.055293
  13 C :    0.052554
  14 C :   -0.160681
  15 C :   -0.133175
  16 C :   -0.279524
  17 C :    0.320933
  18 O :   -0.360406
  19 C :   -0.299206
  20 H :    0.101738
  21 H :    0.089208
  22 H :    0.093744
  23 H :    0.093334
  24 H :    0.111202
  25 H :    0.124119
  26 H :    0.105539
  27 H :    0.124362
  28 H :    0.197250
  29 H :    0.194260
  30 H :    0.155363
  31 H :    0.156720
  32 H :    0.161022
  33 H :    0.130716
  34 H :    0.240998
  35 H :    0.169774
Sum of atomic charges:   -0.0000000

LOEWDIN ATOMIC CHARGES
----------------------
   0 C :    0.109333
   1 C :   -0.018388
   2 O :    0.291007
   3 C :   -0.416786
   4 O :    0.130012
   5 C :   -0.094429
   6 C :   -0.074934
   7 C :    0.126293
   8 N :    0.404106
   9 C :   -0.457445
  10 S :   -0.036089
  11 N :    0.397028
  12 C :   -0.045374
  13 C :   -0.040704
  14 C :    0.022056
  15 C :    0.042353
  16 C :   -0.002037
  17 C :   -0.194807
  18 O :    0.393436
  19 C :    0.027633
  20 H :   -0.024569
  21 H :   -0.030717
  22 H :   -0.023949
  23 H :   -0.032364
  24 H :   -0.026557
  25 H :   -0.007683
  26 H :   -0.019375
  27 H :   -0.010672
  28 H :   -0.058683
  29 H :   -0.064090
  30 H :   -0.004550
  31 H :   -0.024471
  32 H :   -0.020222
  33 H :   -0.035602
  34 H :   -0.153911
  35 H :   -0.024847

  Mayer bond orders larger than 0.100000
B(  0-C ,  1-C ) :   0.9772 B(  0-C , 20-H ) :   0.9781 B(  0-C , 21-H ) :   0.9789
B(  0-C , 22-H ) :   0.9766 B(  1-C ,  2-O ) :   0.8927 B(  1-C , 23-H ) :   0.9656
B(  1-C , 24-H ) :   0.9787 B(  2-O ,  3-C ) :   1.0948 B(  3-C ,  4-O ) :   2.0281
B(  3-C ,  5-C ) :   1.0242 B(  5-C ,  6-C ) :   1.6684 B(  5-C , 12-C ) :   0.9622
B(  6-C ,  7-C ) :   0.9522 B(  6-C ,  8-N ) :   1.1384 B(  7-C , 25-H ) :   0.9707
B(  7-C , 26-H ) :   0.9878 B(  7-C , 27-H ) :   0.9630 B(  8-N ,  9-C ) :   1.1841
B(  8-N , 28-H ) :   0.9499 B(  9-C , 10-S ) :   1.6114 B(  9-C , 11-N ) :   1.2997
B( 11-N , 12-C ) :   0.9930 B( 11-N , 29-H ) :   0.9518 B( 12-C , 13-C ) :   0.9453
B( 12-C , 30-H ) :   0.9986 B( 13-C , 14-C ) :   1.3790 B( 13-C , 19-C ) :   1.3590
B( 14-C , 15-C ) :   1.3941 B( 14-C , 31-H ) :   0.9634 B( 15-C , 16-C ) :   1.3641
B( 15-C , 32-H ) :   0.9708 B( 16-C , 17-C ) :   1.3313 B( 16-C , 33-H ) :   0.9848
B( 17-C , 18-O ) :   1.1087 B( 17-C , 19-C ) :   1.3685 B( 18-O , 34-H ) :   0.9798
B( 19-C , 35-H ) :   0.9594

MP2 TOTAL ENERGY:    -1274.325320086 Eh
FINAL SINGLE POINT ENERGY     -1274.325320085864

DIPOLE MOMENT
-------------
                                X             Y             Z
Electronic contribution:     11.29870       9.40755       8.09614
Nuclear contribution   :    -12.61374     -10.70779      -8.63114
                        -----------------------------------------
Total Dipole Moment    :     -1.31504      -1.30024      -0.53499
                        -----------------------------------------
Magnitude (a.u.)       :      1.92514
Magnitude (Debye)      :      4.89333

Rotational constants in cm-1:     0.011278     0.009169     0.006545
Rotational constants in MHz :   338.113398   274.885781   196.201025

                             ****ORCA TERMINATED NORMALLY****
TOTAL RUN TIME: 0 days 1 hours 50 minutes 40 seconds 382 msec
