                         Program Version 4.2.0 -  RELEASE  -
|  1> ! ri-mp2 cc-pvtz cc-pvtz/c TightSCF  NoKeepInts
|  2>
|  3> %scf
|  4>   MaxCore 4096
|  5> end
|  6> *xyz  0  1
|  7>     C       15.2342973   14.6634010   16.8489490
|  8>     C       16.6673943   14.1549104   16.5791659
|  9>     O       17.3990871   15.0854191   15.7564075
| 10>     C       17.3455696   16.4514943   15.8590143
| 11>     O       17.1350238   17.0961514   14.8487890
| 12>     C       17.6011851   17.0960823   17.2027062
| 13>     C       17.2945015   18.4038986   17.4163619
| 14>     C       16.4933627   19.3241344   16.5205209
| 15>     N       17.8109530   19.0666430   18.5358879
| 16>     C       18.8792791   18.6062765   19.2621607
| 17>     S       19.6624844   19.5467652   20.3747653
| 18>     N       19.2818691   17.3226383   18.9878066
| 19>     C       18.4405997   16.3543981   18.2622900
| 20>     C       17.6360115   15.5880189   19.3131627
| 21>     C       18.1551332   14.3909084   19.8445387
| 22>     C       17.4475881   13.6719917   20.8223157
| 23>     C       16.2149681   14.1596626   21.2870069
| 24>     C       15.7055449   15.3627537   20.7815282
| 25>     O       14.5197681   15.8427273   21.2329270
| 26>     C       16.4112759   16.0752695   19.8073740
| 27>     H       15.2255107   15.6042374   17.4083290
| 28>     H       14.6735164   13.9232265   17.4326831
| 29>     H       14.7009028   14.8230876   15.9031830
| 30>     H       17.1885714   13.9548392   17.5150926
| 31>     H       16.6073656   13.1956955   16.0487706
| 32>     H       15.6083240   18.8112145   16.1234248
| 33>     H       17.0975117   19.6441493   15.6614912
| 34>     H       16.1425866   20.2231243   17.0407026
| 35>     H       17.5417535   20.0203982   18.7183044
| 36>     H       20.0667504   17.0006182   19.5388725
| 37>     H       19.1026456   15.6487557   17.7404498
| 38>     H       19.1131299   14.0139641   19.4957029
| 39>     H       17.8574684   12.7457442   21.2221584
| 40>     H       15.6655414   13.6095776   22.0441993
| 41>     H       14.2214261   15.2592733   21.9473161
| 42>     H       15.9980989   17.0105497   19.4496413
| 43> *
| 44>
| 45>                          ****END OF INPUT****

CARTESIAN COORDINATES (ANGSTROEM)
---------------------------------
  C     15.234297   14.663401   16.848949
  C     16.667394   14.154910   16.579166
  O     17.399087   15.085419   15.756407
  C     17.345570   16.451494   15.859014
  O     17.135024   17.096151   14.848789
  C     17.601185   17.096082   17.202706
  C     17.294501   18.403899   17.416362
  C     16.493363   19.324134   16.520521
  N     17.810953   19.066643   18.535888
  C     18.879279   18.606276   19.262161
  S     19.662484   19.546765   20.374765
  N     19.281869   17.322638   18.987807
  C     18.440600   16.354398   18.262290
  C     17.636011   15.588019   19.313163
  C     18.155133   14.390908   19.844539
  C     17.447588   13.671992   20.822316
  C     16.214968   14.159663   21.287007
  C     15.705545   15.362754   20.781528
  O     14.519768   15.842727   21.232927
  C     16.411276   16.075270   19.807374
  H     15.225511   15.604237   17.408329
  H     14.673516   13.923227   17.432683
  H     14.700903   14.823088   15.903183
  H     17.188571   13.954839   17.515093
  H     16.607366   13.195695   16.048771
  H     15.608324   18.811214   16.123425
  H     17.097512   19.644149   15.661491
  H     16.142587   20.223124   17.040703
  H     17.541753   20.020398   18.718304
  H     20.066750   17.000618   19.538873
  H     19.102646   15.648756   17.740450
  H     19.113130   14.013964   19.495703
  H     17.857468   12.745744   21.222158
  H     15.665541   13.609578   22.044199
  H     14.221426   15.259273   21.947316
  H     15.998099   17.010550   19.449641

 Total Charge           Charge          ....    0
 Multiplicity           Mult            ....    1
 Number of Electrons    NEL             ....  154
 Basis Dimension        Dim             ....  828

ORBITAL ENERGIES
----------------

  NO   OCC          E(Eh)            E(eV)
   0   2.0000     -91.892446     -2500.5206
   1   2.0000     -20.604856      -560.6866
   2   2.0000     -20.587420      -560.2122
   3   2.0000     -20.541503      -558.9627
   4   2.0000     -15.632530      -425.3828
   5   2.0000     -15.611258      -424.8039
   6   2.0000     -11.393522      -310.0335
   7   2.0000     -11.386383      -309.8392
   8   2.0000     -11.337724      -308.5152
   9   2.0000     -11.322423      -308.0988
  10   2.0000     -11.318276      -307.9859
  11   2.0000     -11.299794      -307.4830
  12   2.0000     -11.269768      -306.6660
  13   2.0000     -11.264416      -306.5203
  14   2.0000     -11.261404      -306.4384
  15   2.0000     -11.253693      -306.2286
  16   2.0000     -11.250508      -306.1419
  17   2.0000     -11.247006      -306.0466
  18   2.0000     -11.245997      -306.0191
  19   2.0000     -11.229724      -305.5763
  20   2.0000      -8.897397      -242.1105
  21   2.0000      -6.578948      -179.0223
  22   2.0000      -6.576973      -178.9685
  23   2.0000      -6.576365      -178.9520
  24   2.0000      -1.441206       -39.2172
  25   2.0000      -1.424399       -38.7599
  26   2.0000      -1.350874       -36.7592
  27   2.0000      -1.344370       -36.5822
  28   2.0000      -1.242823       -33.8189
  29   2.0000      -1.165150       -31.7053
  30   2.0000      -1.121938       -30.5295
  31   2.0000      -1.048784       -28.5389
  32   2.0000      -1.032289       -28.0900
  33   2.0000      -1.024310       -27.8729
  34   2.0000      -1.001898       -27.2630
  35   2.0000      -0.987494       -26.8711
  36   2.0000      -0.927983       -25.2517
  37   2.0000      -0.897234       -24.4150
  38   2.0000      -0.850816       -23.1519
  39   2.0000      -0.849880       -23.1264
  40   2.0000      -0.841770       -22.9057
  41   2.0000      -0.826457       -22.4890
  42   2.0000      -0.751455       -20.4481
  43   2.0000      -0.738249       -20.0888
  44   2.0000      -0.714381       -19.4393
  45   2.0000      -0.704167       -19.1614
  46   2.0000      -0.695525       -18.9262
  47   2.0000      -0.676932       -18.4203
  48   2.0000      -0.672304       -18.2943
  49   2.0000      -0.661660       -18.0047
  50   2.0000      -0.654397       -17.8071
  51   2.0000      -0.652967       -17.7681
  52   2.0000      -0.637843       -17.3566
  53   2.0000      -0.625045       -17.0083
  54   2.0000      -0.616076       -16.7643
  55   2.0000      -0.606623       -16.5071
  56   2.0000      -0.602103       -16.3841
  57   2.0000      -0.585144       -15.9226
  58   2.0000      -0.574460       -15.6318
  59   2.0000      -0.566758       -15.4223
  60   2.0000      -0.549518       -14.9532
  61   2.0000      -0.543527       -14.7901
  62   2.0000      -0.539671       -14.6852
  63   2.0000      -0.537233       -14.6189
  64   2.0000      -0.534060       -14.5325
  65   2.0000      -0.517577       -14.0840
  66   2.0000      -0.510373       -13.8880
  67   2.0000      -0.496659       -13.5148
  68   2.0000      -0.481151       -13.0928
  69   2.0000      -0.466762       -12.7012
  70   2.0000      -0.450531       -12.2596
  71   2.0000      -0.442496       -12.0409
  72   2.0000      -0.363010        -9.8780
  73   2.0000      -0.357175        -9.7192
  74   2.0000      -0.333325        -9.0702
  75   2.0000      -0.328084        -8.9276
  76   2.0000      -0.318458        -8.6657
  77   0.0000       0.070914         1.9297
  78   0.0000       0.103226         2.8089
  79   0.0000       0.118026         3.2116
  80   0.0000       0.122335         3.3289
  81   0.0000       0.129129         3.5138

MULLIKEN ATOMIC CHARGES
-----------------------
   0 C :   -0.317922
   1 C :    0.023524
   2 O :   -0.345372
   3 C :    0.468193
   4 O :   -0.387162
   5 C :   -0.249692
   6 C :    0.123078
   7 C :   -0.272351
   8 N :   -0.122222
   9 C :    0.215377
  10 S :   -0.433789
  11 N :   -0.199942
  12 C :    0.036640
  13 C :    0.082065
  14 C :   -0.229117
  15 C :   -0.125554
  16 C :   -0.277414
  17 C :    0.329126
  18 O :   -0.357207
  19 C :   -0.289696
  20 H :    0.098776
  21 H :    0.107946
  22 H :    0.122795
  23 H :    0.093119
  24 H :    0.124831
  25 H :    0.124241
  26 H :    0.143460
  27 H :    0.093438
  28 H :    0.199464
  29 H :    0.189010
  30 H :    0.160450
  31 H :    0.154638
  32 H :    0.163147
  33 H :    0.133451
  34 H :    0.243200
  35 H :    0.177469
Sum of atomic charges:   -0.0000000

LOEWDIN ATOMIC CHARGES
----------------------
   0 C :    0.106947
   1 C :   -0.019340
   2 O :    0.292606
   3 C :   -0.424478
   4 O :    0.120511
   5 C :   -0.097309
   6 C :   -0.060644
   7 C :    0.129157
   8 N :    0.409054
   9 C :   -0.453197
  10 S :   -0.029146
  11 N :    0.395773
  12 C :   -0.052423
  13 C :   -0.038053
  14 C :    0.006341
  15 C :    0.043192
  16 C :   -0.000285
  17 C :   -0.187760
  18 O :    0.396694
  19 C :    0.032504
  20 H :   -0.035462
  21 H :   -0.022135
  22 H :   -0.023522
  23 H :   -0.044204
  24 H :   -0.020473
  25 H :   -0.006851
  26 H :   -0.001538
  27 H :   -0.022973
  28 H :   -0.057012
  29 H :   -0.067982
  30 H :   -0.003730
  31 H :   -0.031236
  32 H :   -0.018778
  33 H :   -0.033967
  34 H :   -0.151468
  35 H :   -0.028815

  Mayer bond orders larger than 0.100000
B(  0-C ,  1-C ) :   0.9630 B(  0-C , 20-H ) :   0.9705 B(  0-C , 21-H ) :   0.9754
B(  0-C , 22-H ) :   0.9748 B(  1-C ,  2-O ) :   0.9067 B(  1-C , 23-H ) :   0.9687
B(  1-C , 24-H ) :   0.9810 B(  2-O ,  3-C ) :   1.1505 B(  3-C ,  4-O ) :   2.0620
B(  3-C ,  5-C ) :   0.9916 B(  5-C ,  6-C ) :   1.6514 B(  5-C , 12-C ) :   0.9692
B(  6-C ,  7-C ) :   0.9797 B(  6-C ,  8-N ) :   1.1434 B(  7-C , 25-H ) :   0.9682
B(  7-C , 26-H ) :   0.9526 B(  7-C , 27-H ) :   0.9845 B(  8-N ,  9-C ) :   1.1815
B(  8-N , 28-H ) :   0.9496 B(  9-C , 10-S ) :   1.6186 B(  9-C , 11-N ) :   1.2935
B( 11-N , 12-C ) :   0.9539 B( 11-N , 29-H ) :   0.9545 B( 12-C , 13-C ) :   0.9607
B( 12-C , 30-H ) :   0.9952 B( 13-C , 14-C ) :   1.3316 B( 13-C , 19-C ) :   1.3656
B( 14-C , 15-C ) :   1.4016 B( 14-C , 31-H ) :   0.9757 B( 15-C , 16-C ) :   1.3653
B( 15-C , 32-H ) :   0.9697 B( 16-C , 17-C ) :   1.3326 B( 16-C , 33-H ) :   0.9835
B( 17-C , 18-O ) :   1.1177 B( 17-C , 19-C ) :   1.3634 B( 18-O , 34-H ) :   0.9785
B( 19-C , 35-H ) :   0.9494

MP2 TOTAL ENERGY:    -1274.330785345 Eh
FINAL SINGLE POINT ENERGY     -1274.330785345064

DIPOLE MOMENT
-------------
                                X             Y             Z
Electronic contribution:      9.38613       8.07304       4.27778
Nuclear contribution   :    -10.64831      -9.74979      -3.46124
                        -----------------------------------------
Total Dipole Moment    :     -1.26218      -1.67675       0.81654
                        -----------------------------------------
Magnitude (a.u.)       :      2.25197
Magnitude (Debye)      :      5.72405

Rotational constants in cm-1:     0.011161     0.010069     0.006799
Rotational constants in MHz :   334.595267   301.860001   203.830624

                             ****ORCA TERMINATED NORMALLY****
TOTAL RUN TIME: 0 days 1 hours 49 minutes 30 seconds 750 msec
