                         Program Version 5.0.0 -  RELEASE  -
|  1> ! ri-mp2 cc-pvtz cc-pvtz/c TightSCF NoKeepInts
|  2>
|  3> %scf
|  4>   MaxCore 4096
|  5> end
|  6> *xyz  0  1
|  7>     C       14.9214454   16.2318623   17.3295903
|  8>     C       15.5928231   14.8782264   17.0184851
|  9>     O       16.8504972   14.9223055   16.2927792
| 10>     C       17.9620725   15.7195735   16.4466656
| 11>     O       19.0432753   15.3242014   16.0536432
| 12>     C       17.8941871   16.8851528   17.3657794
| 13>     C       17.4615993   18.0920055   16.9388252
| 14>     C       16.9646395   18.4318099   15.5504681
| 15>     N       17.5071875   19.1910646   17.7986157
| 16>     C       18.0191054   19.1641211   19.0703138
| 17>     S       18.0254628   20.5084482   20.0330326
| 18>     N       18.5221027   17.9636631   19.5109380
| 19>     C       18.5290058   16.7009997   18.7443063
| 20>     C       17.8894913   15.5517110   19.5197220
| 21>     C       18.3968767   14.2468812   19.3757150
| 22>     C       17.8117788   13.1695305   20.0611832
| 23>     C       16.7084441   13.3965451   20.9008177
| 24>     C       16.1991683   14.6934288   21.0484027
| 25>     O       15.1269159   14.9149135   21.8490997
| 26>     C       16.7826368   15.7642989   20.3637598
| 27>     H       15.4233922   16.7752988   18.1351421
| 28>     H       13.8938080   16.0558211   17.6705268
| 29>     H       14.8611286   16.8589219   16.4341040
| 30>     H       15.7527309   14.3508204   17.9679604
| 31>     H       14.8897882   14.2681884   16.4367411
| 32>     H       16.7332147   17.5370238   14.9596551
| 33>     H       17.7273830   18.9951874   14.9979696
| 34>     H       16.0534779   19.0413279   15.5892455
| 35>     H       17.1654336   20.0864021   17.4862556
| 36>     H       18.8797378   17.9726939   20.4579663
| 37>     H       19.5820617   16.4314243   18.5742245
| 38>     H       19.2429620   14.0649782   18.7155937
| 39>     H       18.2127051   12.1647613   19.9365945
| 40>     H       16.2528021   12.5665570   21.4310457
| 41>     H       14.9040421   14.0746762   22.2780812
| 42>     H       16.3636165   16.7571744   20.4907513
| 43> *
| 44>
| 45>                          ****END OF INPUT****

CARTESIAN COORDINATES (ANGSTROEM)
---------------------------------
  C     14.921445   16.231862   17.329590
  C     15.592823   14.878226   17.018485
  O     16.850497   14.922306   16.292779
  C     17.962072   15.719573   16.446666
  O     19.043275   15.324201   16.053643
  C     17.894187   16.885153   17.365779
  C     17.461599   18.092005   16.938825
  C     16.964640   18.431810   15.550468
  N     17.507187   19.191065   17.798616
  C     18.019105   19.164121   19.070314
  S     18.025463   20.508448   20.033033
  N     18.522103   17.963663   19.510938
  C     18.529006   16.701000   18.744306
  C     17.889491   15.551711   19.519722
  C     18.396877   14.246881   19.375715
  C     17.811779   13.169531   20.061183
  C     16.708444   13.396545   20.900818
  C     16.199168   14.693429   21.048403
  O     15.126916   14.914913   21.849100
  C     16.782637   15.764299   20.363760
  H     15.423392   16.775299   18.135142
  H     13.893808   16.055821   17.670527
  H     14.861129   16.858922   16.434104
  H     15.752731   14.350820   17.967960
  H     14.889788   14.268188   16.436741
  H     16.733215   17.537024   14.959655
  H     17.727383   18.995187   14.997970
  H     16.053478   19.041328   15.589245
  H     17.165434   20.086402   17.486256
  H     18.879738   17.972694   20.457966
  H     19.582062   16.431424   18.574224
  H     19.242962   14.064978   18.715594
  H     18.212705   12.164761   19.936594
  H     16.252802   12.566557   21.431046
  H     14.904042   14.074676   22.278081
  H     16.363616   16.757174   20.490751

 Total Charge           Charge          ....    0
 Multiplicity           Mult            ....    1
 Number of Electrons    NEL             ....  154
 Basis Dimension        Dim             ....  828

ORBITAL ENERGIES
----------------

  NO   OCC          E(Eh)            E(eV)
   0   2.0000     -91.889581     -2500.4426
   1   2.0000     -20.603725      -560.6559
   2   2.0000     -20.596004      -560.4457
   3   2.0000     -20.550331      -559.2029
   4   2.0000     -15.624764      -425.1714
   5   2.0000     -15.612716      -424.8436
   6   2.0000     -11.398989      -310.1823
   7   2.0000     -11.386795      -309.8504
   8   2.0000     -11.322902      -308.1118
   9   2.0000     -11.321406      -308.0711
  10   2.0000     -11.318262      -307.9856
  11   2.0000     -11.306874      -307.6757
  12   2.0000     -11.269364      -306.6550
  13   2.0000     -11.265052      -306.5376
  14   2.0000     -11.261723      -306.4471
  15   2.0000     -11.260739      -306.4203
  16   2.0000     -11.250633      -306.1453
  17   2.0000     -11.246550      -306.0342
  18   2.0000     -11.243985      -305.9644
  19   2.0000     -11.234965      -305.7189
  20   2.0000      -8.894707      -242.0373
  21   2.0000      -6.576300      -178.9502
  22   2.0000      -6.574268      -178.8949
  23   2.0000      -6.573698      -178.8794
  24   2.0000      -1.441869       -39.2353
  25   2.0000      -1.423551       -38.7368
  26   2.0000      -1.355201       -36.8769
  27   2.0000      -1.338690       -36.4276
  28   2.0000      -1.239770       -33.7359
  29   2.0000      -1.165357       -31.7110
  30   2.0000      -1.125856       -30.6361
  31   2.0000      -1.051148       -28.6032
  32   2.0000      -1.038897       -28.2698
  33   2.0000      -1.023332       -27.8463
  34   2.0000      -1.005489       -27.3608
  35   2.0000      -0.990572       -26.9548
  36   2.0000      -0.929090       -25.2818
  37   2.0000      -0.899411       -24.4742
  38   2.0000      -0.852579       -23.1999
  39   2.0000      -0.843369       -22.9492
  40   2.0000      -0.840167       -22.8621
  41   2.0000      -0.831624       -22.6296
  42   2.0000      -0.749262       -20.3885
  43   2.0000      -0.736616       -20.0444
  44   2.0000      -0.727724       -19.8024
  45   2.0000      -0.701469       -19.0880
  46   2.0000      -0.689748       -18.7690
  47   2.0000      -0.678021       -18.4499
  48   2.0000      -0.675989       -18.3946
  49   2.0000      -0.662063       -18.0156
  50   2.0000      -0.656787       -17.8721
  51   2.0000      -0.650114       -17.6905
  52   2.0000      -0.639735       -17.4081
  53   2.0000      -0.615337       -16.7442
  54   2.0000      -0.609191       -16.5769
  55   2.0000      -0.608166       -16.5491
  56   2.0000      -0.605386       -16.4734
  57   2.0000      -0.588966       -16.0266
  58   2.0000      -0.582533       -15.8515
  59   2.0000      -0.579177       -15.7602
  60   2.0000      -0.568039       -15.4571
  61   2.0000      -0.556470       -15.1423
  62   2.0000      -0.540633       -14.7114
  63   2.0000      -0.533840       -14.5265
  64   2.0000      -0.522222       -14.2104
  65   2.0000      -0.514809       -14.0087
  66   2.0000      -0.504806       -13.7365
  67   2.0000      -0.501282       -13.6406
  68   2.0000      -0.489710       -13.3257
  69   2.0000      -0.466140       -12.6843
  70   2.0000      -0.452634       -12.3168
  71   2.0000      -0.447882       -12.1875
  72   2.0000      -0.356970        -9.7136
  73   2.0000      -0.352093        -9.5809
  74   2.0000      -0.329983        -8.9793
  75   2.0000      -0.328832        -8.9480
  76   2.0000      -0.317909        -8.6508
  77   0.0000       0.092610         2.5200
  78   0.0000       0.102653         2.7933
  79   0.0000       0.119008         3.2384
  80   0.0000       0.124611         3.3908
  81   0.0000       0.127233         3.4622

MULLIKEN ATOMIC CHARGES
-----------------------
   0 C :   -0.343472
   1 C :    0.043068
   2 O :   -0.334377
   3 C :    0.387071
   4 O :   -0.377825
   5 C :   -0.174690
   6 C :    0.133379
   7 C :   -0.326510
   8 N :   -0.139556
   9 C :    0.214272
  10 S :   -0.443828
  11 N :   -0.233407
  12 C :    0.111727
  13 C :   -0.006810
  14 C :   -0.204482
  15 C :   -0.130395
  16 C :   -0.278044
  17 C :    0.322296
  18 O :   -0.356235
  19 C :   -0.281082
  20 H :    0.116328
  21 H :    0.126753
  22 H :    0.103467
  23 H :    0.101654
  24 H :    0.126411
  25 H :    0.117836
  26 H :    0.150573
  27 H :    0.112159
  28 H :    0.195952
  29 H :    0.204043
  30 H :    0.164790
  31 H :    0.169100
  32 H :    0.166035
  33 H :    0.134203
  34 H :    0.242356
  35 H :    0.187240
Sum of atomic charges:    0.0000000

LOEWDIN ATOMIC CHARGES
----------------------
   0 C :    0.103053
   1 C :   -0.011063
   2 O :    0.292148
   3 C :   -0.418642
   4 O :    0.126071
   5 C :   -0.080890
   6 C :   -0.103818
   7 C :    0.124155
   8 N :    0.402240
   9 C :   -0.454292
  10 S :   -0.039520
  11 N :    0.397480
  12 C :   -0.044875
  13 C :   -0.043291
  14 C :    0.021865
  15 C :    0.045455
  16 C :   -0.000722
  17 C :   -0.194147
  18 O :    0.396571
  19 C :    0.026865
  20 H :   -0.034615
  21 H :   -0.020028
  22 H :   -0.030802
  23 H :   -0.027840
  24 H :   -0.019986
  25 H :   -0.010304
  26 H :   -0.007617
  27 H :   -0.017873
  28 H :   -0.058060
  29 H :   -0.064693
  30 H :   -0.003417
  31 H :   -0.021114
  32 H :   -0.017320
  33 H :   -0.033789
  34 H :   -0.152200
  35 H :   -0.024981

  Mayer bond orders larger than 0.100000
B(  0-C ,  1-C ) :   0.9582 B(  0-C , 20-H ) :   0.9682 B(  0-C , 21-H ) :   0.9775
B(  0-C , 22-H ) :   0.9767 B(  1-C ,  2-O ) :   0.9056 B(  1-C , 23-H ) :   0.9689
B(  1-C , 24-H ) :   0.9822 B(  2-O ,  3-C ) :   1.1832 B(  3-C ,  4-O ) :   2.1050
B(  3-C ,  5-C ) :   0.9151 B(  5-C ,  6-C ) :   1.7078 B(  5-C , 12-C ) :   0.9456
B(  6-C ,  7-C ) :   0.9508 B(  6-C ,  8-N ) :   1.1117 B(  7-C , 25-H ) :   0.9799
B(  7-C , 26-H ) :   0.9651 B(  7-C , 27-H ) :   0.9719 B(  8-N ,  9-C ) :   1.2048
B(  8-N , 28-H ) :   0.9524 B(  9-C , 10-S ) :   1.6054 B(  9-C , 11-N ) :   1.2830
B( 11-N , 12-C ) :   0.9941 B( 11-N , 29-H ) :   0.9452 B( 12-C , 13-C ) :   0.9426
B( 12-C , 30-H ) :   0.9977 B( 13-C , 14-C ) :   1.3887 B( 13-C , 19-C ) :   1.3382
B( 14-C , 15-C ) :   1.4021 B( 14-C , 31-H ) :   0.9628 B( 15-C , 16-C ) :   1.3564
B( 15-C , 32-H ) :   0.9693 B( 16-C , 17-C ) :   1.3314 B( 16-C , 33-H ) :   0.9843
B( 17-C , 18-O ) :   1.1118 B( 17-C , 19-C ) :   1.3631 B( 18-O , 34-H ) :   0.9784
B( 19-C , 35-H ) :   0.9504

MP2 TOTAL ENERGY:    -1274.324872575 Eh
FINAL SINGLE POINT ENERGY     -1274.324872574985

DIPOLE MOMENT
-------------
                                X             Y             Z
Electronic contribution:      9.03182       5.15250       5.92449
Nuclear contribution   :    -10.49662      -6.51926      -6.12664
                        -----------------------------------------
Total Dipole Moment    :     -1.46480      -1.36676      -0.20215
                        -----------------------------------------
Magnitude (a.u.)       :      2.01359
Magnitude (Debye)      :      5.11813

Rotational constants in cm-1:     0.012770     0.009163     0.006842
Rotational constants in MHz :   382.829512   274.692545   205.122068

                             ****ORCA TERMINATED NORMALLY****
TOTAL RUN TIME: 0 days 1 hours 59 minutes 7 seconds 30 msec
