                         Program Version 5.0.0 -  RELEASE  -
|  1> ! ri-mp2 cc-pvtz cc-pvtz/c TightSCF NoKeepInts
|  2>
|  3> %scf
|  4>   MaxCore 4096
|  5> end
|  6> *xyz  0  1
|  7>     C       14.9489908   16.0475155   17.2824754
|  8>     C       15.7183037   14.7148463   17.1492800
|  9>     O       16.9699161   14.8013744   16.4206064
| 10>     C       17.8855153   15.8235082   16.3312292
| 11>     O       18.6254672   15.8900766   15.3678069
| 12>     C       17.8415082   16.9326445   17.3282076
| 13>     C       17.5114457   18.1855938   16.9391349
| 14>     C       17.0362518   18.6046188   15.5648740
| 15>     N       17.6122507   19.2499456   17.8368936
| 16>     C       18.0945467   19.1486055   19.1149298
| 17>     S       18.1708094   20.4552823   20.1253254
| 18>     N       18.5074923   17.9040012   19.5215987
| 19>     C       18.4504997   16.6692713   18.7134260
| 20>     C       17.8076839   15.5285001   19.4955704
| 21>     C       18.3417409   14.2290751   19.4041875
| 22>     C       17.7711819   13.1675355   20.1261832
| 23>     C       16.6601391   13.4061662   20.9526271
| 24>     C       16.1297101   14.6991248   21.0539015
| 25>     O       15.0537096   14.9323991   21.8459297
| 26>     C       16.6983375   15.7542056   20.3331250
| 27>     H       15.3712347   16.6994318   18.0531335
| 28>     H       13.9123312   15.8440646   17.5776104
| 29>     H       14.9197958   16.5826324   16.3263601
| 30>     H       15.8911514   14.2991049   18.1474967
| 31>     H       15.0766364   13.9951211   16.6248240
| 32>     H       16.5920983   17.7685070   15.0111664
| 33>     H       17.8804324   18.9708703   14.9667677
| 34>     H       16.2813251   19.3983007   15.6162961
| 35>     H       17.3384036   20.1755079   17.5467680
| 36>     H       18.8402589   17.8587028   20.4767469
| 37>     H       19.4937240   16.3726282   18.5314200
| 38>     H       19.1987832   14.0380476   18.7623737
| 39>     H       18.1904997   12.1658781   20.0431931
| 40>     H       16.2165599   12.5885142   21.5117258
| 41>     H       14.8402121   14.1042924   22.3025062
| 42>     H       16.2680525   16.7461058   20.4282988
| 43> *
| 44>
| 45>                          ****END OF INPUT****

CARTESIAN COORDINATES (ANGSTROEM)
---------------------------------
  C     14.948991   16.047515   17.282475
  C     15.718304   14.714846   17.149280
  O     16.969916   14.801374   16.420606
  C     17.885515   15.823508   16.331229
  O     18.625467   15.890077   15.367807
  C     17.841508   16.932644   17.328208
  C     17.511446   18.185594   16.939135
  C     17.036252   18.604619   15.564874
  N     17.612251   19.249946   17.836894
  C     18.094547   19.148605   19.114930
  S     18.170809   20.455282   20.125325
  N     18.507492   17.904001   19.521599
  C     18.450500   16.669271   18.713426
  C     17.807684   15.528500   19.495570
  C     18.341741   14.229075   19.404187
  C     17.771182   13.167535   20.126183
  C     16.660139   13.406166   20.952627
  C     16.129710   14.699125   21.053901
  O     15.053710   14.932399   21.845930
  C     16.698338   15.754206   20.333125
  H     15.371235   16.699432   18.053134
  H     13.912331   15.844065   17.577610
  H     14.919796   16.582632   16.326360
  H     15.891151   14.299105   18.147497
  H     15.076636   13.995121   16.624824
  H     16.592098   17.768507   15.011166
  H     17.880432   18.970870   14.966768
  H     16.281325   19.398301   15.616296
  H     17.338404   20.175508   17.546768
  H     18.840259   17.858703   20.476747
  H     19.493724   16.372628   18.531420
  H     19.198783   14.038048   18.762374
  H     18.190500   12.165878   20.043193
  H     16.216560   12.588514   21.511726
  H     14.840212   14.104292   22.302506
  H     16.268052   16.746106   20.428299

 Total Charge           Charge          ....    0
 Multiplicity           Mult            ....    1
 Number of Electrons    NEL             ....  154
 Basis Dimension        Dim             ....  828

ORBITAL ENERGIES
----------------

  NO   OCC          E(Eh)            E(eV)
   0   2.0000     -91.889757     -2500.4474
   1   2.0000     -20.606268      -560.7251
   2   2.0000     -20.594006      -560.3914
   3   2.0000     -20.548926      -559.1647
   4   2.0000     -15.625196      -425.1832
   5   2.0000     -15.612523      -424.8384
   6   2.0000     -11.397152      -310.1323
   7   2.0000     -11.386327      -309.8377
   8   2.0000     -11.324616      -308.1585
   9   2.0000     -11.324523      -308.1559
  10   2.0000     -11.319978      -308.0323
  11   2.0000     -11.303408      -307.5814
  12   2.0000     -11.272382      -306.7371
  13   2.0000     -11.265630      -306.5534
  14   2.0000     -11.259693      -306.3918
  15   2.0000     -11.257806      -306.3405
  16   2.0000     -11.254301      -306.2451
  17   2.0000     -11.249474      -306.1137
  18   2.0000     -11.249152      -306.1050
  19   2.0000     -11.234140      -305.6965
  20   2.0000      -8.894877      -242.0419
  21   2.0000      -6.576467      -178.9548
  22   2.0000      -6.574439      -178.8996
  23   2.0000      -6.573866      -178.8840
  24   2.0000      -1.440564       -39.1998
  25   2.0000      -1.426099       -38.8061
  26   2.0000      -1.354217       -36.8501
  27   2.0000      -1.339165       -36.4405
  28   2.0000      -1.240473       -33.7550
  29   2.0000      -1.167971       -31.7821
  30   2.0000      -1.124467       -30.5983
  31   2.0000      -1.051973       -28.6256
  32   2.0000      -1.036666       -28.2091
  33   2.0000      -1.026183       -27.9239
  34   2.0000      -1.004181       -27.3252
  35   2.0000      -0.989738       -26.9321
  36   2.0000      -0.929083       -25.2816
  37   2.0000      -0.899605       -24.4795
  38   2.0000      -0.852132       -23.1877
  39   2.0000      -0.845923       -23.0187
  40   2.0000      -0.842607       -22.9285
  41   2.0000      -0.830574       -22.6011
  42   2.0000      -0.749512       -20.3953
  43   2.0000      -0.739577       -20.1249
  44   2.0000      -0.722863       -19.6701
  45   2.0000      -0.704902       -19.1814
  46   2.0000      -0.691841       -18.8259
  47   2.0000      -0.678175       -18.4541
  48   2.0000      -0.676047       -18.3962
  49   2.0000      -0.661198       -17.9921
  50   2.0000      -0.655715       -17.8429
  51   2.0000      -0.651451       -17.7269
  52   2.0000      -0.638808       -17.3828
  53   2.0000      -0.618701       -16.8357
  54   2.0000      -0.614398       -16.7186
  55   2.0000      -0.609282       -16.5794
  56   2.0000      -0.605831       -16.4855
  57   2.0000      -0.584494       -15.9049
  58   2.0000      -0.578894       -15.7525
  59   2.0000      -0.570310       -15.5189
  60   2.0000      -0.568321       -15.4648
  61   2.0000      -0.554731       -15.0950
  62   2.0000      -0.540226       -14.7003
  63   2.0000      -0.534608       -14.5474
  64   2.0000      -0.527406       -14.3514
  65   2.0000      -0.516815       -14.0633
  66   2.0000      -0.506110       -13.7720
  67   2.0000      -0.500052       -13.6071
  68   2.0000      -0.489776       -13.3275
  69   2.0000      -0.466868       -12.7041
  70   2.0000      -0.451280       -12.2800
  71   2.0000      -0.446306       -12.1446
  72   2.0000      -0.360260        -9.8032
  73   2.0000      -0.350817        -9.5462
  74   2.0000      -0.333157        -9.0657
  75   2.0000      -0.329288        -8.9604
  76   2.0000      -0.318111        -8.6563
  77   0.0000       0.089160         2.4262
  78   0.0000       0.096788         2.6337
  79   0.0000       0.119302         3.2464
  80   0.0000       0.125544         3.4162
  81   0.0000       0.127220         3.4618

MULLIKEN ATOMIC CHARGES
-----------------------
   0 C :   -0.338942
   1 C :    0.035094
   2 O :   -0.323574
   3 C :    0.381086
   4 O :   -0.372453
   5 C :   -0.203524
   6 C :    0.149993
   7 C :   -0.301149
   8 N :   -0.135902
   9 C :    0.214651
  10 S :   -0.443480
  11 N :   -0.231109
  12 C :    0.093331
  13 C :   -0.012319
  14 C :   -0.187349
  15 C :   -0.132946
  16 C :   -0.274062
  17 C :    0.319815
  18 O :   -0.355268
  19 C :   -0.275017
  20 H :    0.112642
  21 H :    0.124528
  22 H :    0.107030
  23 H :    0.101353
  24 H :    0.128189
  25 H :    0.116955
  26 H :    0.146867
  27 H :    0.104083
  28 H :    0.196798
  29 H :    0.204323
  30 H :    0.163789
  31 H :    0.155693
  32 H :    0.165153
  33 H :    0.135247
  34 H :    0.242583
  35 H :    0.187891
Sum of atomic charges:    0.0000000

LOEWDIN ATOMIC CHARGES
----------------------
   0 C :    0.102680
   1 C :   -0.012455
   2 O :    0.294924
   3 C :   -0.420454
   4 O :    0.127430
   5 C :   -0.083693
   6 C :   -0.090971
   7 C :    0.128232
   8 N :    0.403898
   9 C :   -0.455517
  10 S :   -0.038792
  11 N :    0.396686
  12 C :   -0.051675
  13 C :   -0.043807
  14 C :    0.019727
  15 C :    0.045399
  16 C :    0.000671
  17 C :   -0.193677
  18 O :    0.397805
  19 C :    0.029610
  20 H :   -0.035618
  21 H :   -0.021094
  22 H :   -0.029918
  23 H :   -0.032160
  24 H :   -0.021042
  25 H :   -0.010802
  26 H :   -0.004920
  27 H :   -0.019386
  28 H :   -0.057297
  29 H :   -0.064883
  30 H :   -0.008176
  31 H :   -0.025180
  32 H :   -0.017401
  33 H :   -0.033018
  34 H :   -0.151669
  35 H :   -0.023456

  Mayer bond orders larger than 0.100000
B(  0-C ,  1-C ) :   0.9566 B(  0-C , 20-H ) :   0.9696 B(  0-C , 21-H ) :   0.9766
B(  0-C , 22-H ) :   0.9756 B(  1-C ,  2-O ) :   0.9059 B(  1-C , 23-H ) :   0.9674
B(  1-C , 24-H ) :   0.9832 B(  2-O ,  3-C ) :   1.1953 B(  3-C ,  4-O ) :   2.1154
B(  3-C ,  5-C ) :   0.8940 B(  5-C ,  6-C ) :   1.7222 B(  5-C , 12-C ) :   0.9494
B(  6-C ,  7-C ) :   0.9516 B(  6-C ,  8-N ) :   1.1245 B(  7-C , 25-H ) :   0.9765
B(  7-C , 26-H ) :   0.9611 B(  7-C , 27-H ) :   0.9792 B(  8-N ,  9-C ) :   1.2064
B(  8-N , 28-H ) :   0.9513 B(  9-C , 10-S ) :   1.6048 B(  9-C , 11-N ) :   1.2838
B( 11-N , 12-C ) :   0.9906 B( 11-N , 29-H ) :   0.9443 B( 12-C , 13-C ) :   0.9370
B( 12-C , 30-H ) :   1.0018 B( 13-C , 14-C ) :   1.3785 B( 13-C , 19-C ) :   1.3444
B( 14-C , 15-C ) :   1.4027 B( 14-C , 31-H ) :   0.9710 B( 15-C , 16-C ) :   1.3578
B( 15-C , 32-H ) :   0.9697 B( 16-C , 17-C ) :   1.3305 B( 16-C , 33-H ) :   0.9838
B( 17-C , 18-O ) :   1.1128 B( 17-C , 19-C ) :   1.3606 B( 18-O , 34-H ) :   0.9781
B( 19-C , 35-H ) :   0.9505

MP2 TOTAL ENERGY:    -1274.324398571 Eh
FINAL SINGLE POINT ENERGY     -1274.324398570819

DIPOLE MOMENT
-------------
                                X             Y             Z
Electronic contribution:      8.73640       5.51067       5.79641
Nuclear contribution   :    -10.02742      -7.14278      -5.57369
                        -----------------------------------------
Total Dipole Moment    :     -1.29101      -1.63211       0.22272
                        -----------------------------------------
Magnitude (a.u.)       :      2.09287
Magnitude (Debye)      :      5.31965

Rotational constants in cm-1:     0.012705     0.009168     0.006588
Rotational constants in MHz :   380.899516   274.859113   197.492011

                             ****ORCA TERMINATED NORMALLY****
TOTAL RUN TIME: 0 days 2 hours 10 minutes 23 seconds 300 msec
