                         Program Version 4.2.0 -  RELEASE  -
|  1> ! ri-mp2 cc-pvtz cc-pvtz/c TightSCF  NoKeepInts
|  2>
|  3> %scf
|  4>   MaxCore 4096
|  5> end
|  6> *xyz  0  1
|  7>     C       15.3617999   14.6842792   17.2526072
|  8>     C       15.5079128   15.3296222   15.8576985
|  9>     O       16.8753107   15.6591070   15.5106274
| 10>     C       17.8920031   15.6943900   16.4232887
| 11>     O       18.6092442   14.7223490   16.5799561
| 12>     C       17.9066674   16.8655902   17.3657749
| 13>     C       17.3799986   18.0870580   17.0894780
| 14>     C       16.7088825   18.5539713   15.8137667
| 15>     N       17.5296450   19.1307795   18.0083426
| 16>     C       18.3503183   19.0956768   19.1045178
| 17>     S       18.5892440   20.4259899   20.0572073
| 18>     N       18.9623196   17.8971363   19.3698586
| 19>     C       18.6542731   16.6269310   18.6852937
| 20>     C       17.8816076   15.6877543   19.6097173
| 21>     C       18.2405857   14.3300544   19.7002702
| 22>     C       17.5298159   13.4532056   20.5364146
| 23>     C       16.4494046   13.9366838   21.2931755
| 24>     C       16.0879933   15.2877206   21.2083229
| 25>     O       15.0392390   15.7560946   21.9304138
| 26>     C       16.7969087   16.1583095   20.3744838
| 27>     H       16.0529491   13.8405017   17.3784776
| 28>     H       14.3425111   14.3029389   17.3875625
| 29>     H       15.5440385   15.4157393   18.0460622
| 30>     H       15.1175830   14.6343048   15.1031184
| 31>     H       14.8837870   16.2299155   15.8194509
| 32>     H       17.1465331   18.0755742   14.9290202
| 33>     H       16.8253084   19.6345788   15.6631086
| 34>     H       15.6352358   18.3384813   15.8295374
| 35>     H       17.0942983   20.0211776   17.8264264
| 36>     H       19.5459787   17.8893492   20.1966803
| 37>     H       19.6133056   16.1459954   18.4425979
| 38>     H       19.0672634   13.9485442   19.1048852
| 39>     H       17.8156556   12.4041487   20.5905305
| 40>     H       15.8963422   13.2621762   21.9383677
| 41>     H       14.7173560   15.0267319   22.4813626
| 42>     H       16.4956800   17.1991392   20.3255959
| 43> *
| 44>
| 45>                          ****END OF INPUT****

CARTESIAN COORDINATES (ANGSTROEM)
---------------------------------
  C     15.361800   14.684279   17.252607
  C     15.507913   15.329622   15.857698
  O     16.875311   15.659107   15.510627
  C     17.892003   15.694390   16.423289
  O     18.609244   14.722349   16.579956
  C     17.906667   16.865590   17.365775
  C     17.379999   18.087058   17.089478
  C     16.708883   18.553971   15.813767
  N     17.529645   19.130779   18.008343
  C     18.350318   19.095677   19.104518
  S     18.589244   20.425990   20.057207
  N     18.962320   17.897136   19.369859
  C     18.654273   16.626931   18.685294
  C     17.881608   15.687754   19.609717
  C     18.240586   14.330054   19.700270
  C     17.529816   13.453206   20.536415
  C     16.449405   13.936684   21.293175
  C     16.087993   15.287721   21.208323
  O     15.039239   15.756095   21.930414
  C     16.796909   16.158310   20.374484
  H     16.052949   13.840502   17.378478
  H     14.342511   14.302939   17.387563
  H     15.544038   15.415739   18.046062
  H     15.117583   14.634305   15.103118
  H     14.883787   16.229916   15.819451
  H     17.146533   18.075574   14.929020
  H     16.825308   19.634579   15.663109
  H     15.635236   18.338481   15.829537
  H     17.094298   20.021178   17.826426
  H     19.545979   17.889349   20.196680
  H     19.613306   16.145995   18.442598
  H     19.067263   13.948544   19.104885
  H     17.815656   12.404149   20.590530
  H     15.896342   13.262176   21.938368
  H     14.717356   15.026732   22.481363
  H     16.495680   17.199139   20.325596

 Total Charge           Charge          ....    0
 Multiplicity           Mult            ....    1
 Number of Electrons    NEL             ....  154
 Basis Dimension        Dim             ....  828

ORBITAL ENERGIES
----------------

  NO   OCC          E(Eh)            E(eV)
   0   2.0000     -91.890981     -2500.4807
   1   2.0000     -20.596044      -560.4468
   2   2.0000     -20.584619      -560.1359
   3   2.0000     -20.552775      -559.2695
   4   2.0000     -15.631070      -425.3431
   5   2.0000     -15.609437      -424.7544
   6   2.0000     -11.396725      -310.1207
   7   2.0000     -11.386000      -309.8288
   8   2.0000     -11.339460      -308.5624
   9   2.0000     -11.312403      -307.8261
  10   2.0000     -11.309197      -307.7389
  11   2.0000     -11.308203      -307.7119
  12   2.0000     -11.264469      -306.5218
  13   2.0000     -11.263730      -306.5017
  14   2.0000     -11.258436      -306.3576
  15   2.0000     -11.252381      -306.1929
  16   2.0000     -11.241982      -305.9099
  17   2.0000     -11.237688      -305.7930
  18   2.0000     -11.233764      -305.6863
  19   2.0000     -11.228074      -305.5314
  20   2.0000      -8.896039      -242.0735
  21   2.0000      -6.577614      -178.9860
  22   2.0000      -6.575606      -178.9313
  23   2.0000      -6.575017      -178.9153
  24   2.0000      -1.445763       -39.3412
  25   2.0000      -1.415867       -38.5277
  26   2.0000      -1.355655       -36.8893
  27   2.0000      -1.342661       -36.5357
  28   2.0000      -1.240145       -33.7461
  29   2.0000      -1.156392       -31.4670
  30   2.0000      -1.122245       -30.5378
  31   2.0000      -1.044637       -28.4260
  32   2.0000      -1.034114       -28.1397
  33   2.0000      -1.014652       -27.6101
  34   2.0000      -1.003030       -27.2938
  35   2.0000      -0.987901       -26.8821
  36   2.0000      -0.925796       -25.1922
  37   2.0000      -0.897056       -24.4101
  38   2.0000      -0.852656       -23.2020
  39   2.0000      -0.840362       -22.8674
  40   2.0000      -0.832444       -22.6519
  41   2.0000      -0.823405       -22.4060
  42   2.0000      -0.744105       -20.2481
  43   2.0000      -0.729177       -19.8419
  44   2.0000      -0.729035       -19.8380
  45   2.0000      -0.693813       -18.8796
  46   2.0000      -0.687182       -18.6992
  47   2.0000      -0.679822       -18.4989
  48   2.0000      -0.674800       -18.3622
  49   2.0000      -0.663256       -18.0481
  50   2.0000      -0.652113       -17.7449
  51   2.0000      -0.649950       -17.6860
  52   2.0000      -0.638533       -17.3754
  53   2.0000      -0.627478       -17.0745
  54   2.0000      -0.606318       -16.4988
  55   2.0000      -0.603903       -16.4330
  56   2.0000      -0.600005       -16.3270
  57   2.0000      -0.581653       -15.8276
  58   2.0000      -0.574601       -15.6357
  59   2.0000      -0.564592       -15.3633
  60   2.0000      -0.555564       -15.1177
  61   2.0000      -0.545227       -14.8364
  62   2.0000      -0.539149       -14.6710
  63   2.0000      -0.533724       -14.5234
  64   2.0000      -0.520059       -14.1515
  65   2.0000      -0.512420       -13.9437
  66   2.0000      -0.500000       -13.6057
  67   2.0000      -0.490605       -13.3500
  68   2.0000      -0.486004       -13.2248
  69   2.0000      -0.469676       -12.7805
  70   2.0000      -0.456105       -12.4113
  71   2.0000      -0.448856       -12.2140
  72   2.0000      -0.358235        -9.7481
  73   2.0000      -0.347431        -9.4541
  74   2.0000      -0.330154        -8.9839
  75   2.0000      -0.320808        -8.7296
  76   2.0000      -0.318037        -8.6542
  77   0.0000       0.070458         1.9173
  78   0.0000       0.106824         2.9068
  79   0.0000       0.118535         3.2255
  80   0.0000       0.132053         3.5933
  81   0.0000       0.136160         3.7051

MULLIKEN ATOMIC CHARGES
-----------------------
   0 C :   -0.331952
   1 C :    0.045376
   2 O :   -0.379817
   3 C :    0.502165
   4 O :   -0.395365
   5 C :   -0.249426
   6 C :    0.167281
   7 C :   -0.321250
   8 N :   -0.125271
   9 C :    0.188147
  10 S :   -0.435356
  11 N :   -0.204379
  12 C :    0.052837
  13 C :    0.035592
  14 C :   -0.190508
  15 C :   -0.137085
  16 C :   -0.274170
  17 C :    0.313215
  18 O :   -0.358591
  19 C :   -0.267600
  20 H :    0.123957
  21 H :    0.113918
  22 H :    0.108939
  23 H :    0.119417
  24 H :    0.084258
  25 H :    0.144415
  26 H :    0.118030
  27 H :    0.121348
  28 H :    0.197960
  29 H :    0.195609
  30 H :    0.160620
  31 H :    0.169075
  32 H :    0.163252
  33 H :    0.131170
  34 H :    0.240573
  35 H :    0.173615
Sum of atomic charges:   -0.0000000

LOEWDIN ATOMIC CHARGES
----------------------
   0 C :    0.108321
   1 C :   -0.014220
   2 O :    0.282621
   3 C :   -0.421248
   4 O :    0.127106
   5 C :   -0.091991
   6 C :   -0.071535
   7 C :    0.127874
   8 N :    0.405017
   9 C :   -0.460815
  10 S :   -0.033746
  11 N :    0.397598
  12 C :   -0.045099
  13 C :   -0.041069
  14 C :    0.022075
  15 C :    0.042302
  16 C :   -0.001935
  17 C :   -0.193772
  18 O :    0.394505
  19 C :    0.026775
  20 H :   -0.020455
  21 H :   -0.022894
  22 H :   -0.032026
  23 H :   -0.022702
  24 H :   -0.038177
  25 H :   -0.006468
  26 H :   -0.016185
  27 H :   -0.017095
  28 H :   -0.057957
  29 H :   -0.063413
  30 H :   -0.002954
  31 H :   -0.023679
  32 H :   -0.019877
  33 H :   -0.035513
  34 H :   -0.153954
  35 H :   -0.025417

  Mayer bond orders larger than 0.100000
B(  0-C ,  1-C ) :   0.9641 B(  0-C , 20-H ) :   0.9671 B(  0-C , 21-H ) :   0.9756
B(  0-C , 22-H ) :   0.9694 B(  1-C ,  2-O ) :   0.8973 B(  1-C , 23-H ) :   0.9824
B(  1-C , 24-H ) :   0.9763 B(  2-O ,  3-C ) :   1.1078 B(  3-C ,  4-O ) :   2.0464
B(  3-C ,  5-C ) :   0.9964 B(  5-C ,  6-C ) :   1.6542 B(  5-C , 12-C ) :   0.9588
B(  6-C ,  7-C ) :   0.9457 B(  6-C ,  8-N ) :   1.1360 B(  7-C , 25-H ) :   0.9656
B(  7-C , 26-H ) :   0.9862 B(  7-C , 27-H ) :   0.9675 B(  8-N ,  9-C ) :   1.1815
B(  8-N , 28-H ) :   0.9499 B(  9-C , 10-S ) :   1.6156 B(  9-C , 11-N ) :   1.2991
B( 11-N , 12-C ) :   0.9867 B( 11-N , 29-H ) :   0.9516 B( 12-C , 13-C ) :   0.9494
B( 12-C , 30-H ) :   0.9985 B( 13-C , 14-C ) :   1.3823 B( 13-C , 19-C ) :   1.3486
B( 14-C , 15-C ) :   1.3963 B( 14-C , 31-H ) :   0.9592 B( 15-C , 16-C ) :   1.3618
B( 15-C , 32-H ) :   0.9702 B( 16-C , 17-C ) :   1.3310 B( 16-C , 33-H ) :   0.9847
B( 17-C , 18-O ) :   1.1116 B( 17-C , 19-C ) :   1.3703 B( 18-O , 34-H ) :   0.9801
B( 19-C , 35-H ) :   0.9594

MP2 TOTAL ENERGY:    -1274.329403197 Eh
FINAL SINGLE POINT ENERGY     -1274.329403196763

DIPOLE MOMENT
-------------
                                X             Y             Z
Electronic contribution:      9.70893       8.02764       6.30117
Nuclear contribution   :    -11.26199      -9.05997      -6.87639
                        -----------------------------------------
Total Dipole Moment    :     -1.55306      -1.03233      -0.57522
                        -----------------------------------------
Magnitude (a.u.)       :      1.95156
Magnitude (Debye)      :      4.96047

Rotational constants in cm-1:     0.011369     0.009877     0.006675
Rotational constants in MHz :   340.846327   296.114849   200.121139

                             ****ORCA TERMINATED NORMALLY****
TOTAL RUN TIME: 0 days 2 hours 35 minutes 46 seconds 583 msec
