                         Program Version 4.2.0 -  RELEASE  -
|  1> ! ri-mp2 cc-pvtz cc-pvtz/c TightSCF  NoKeepInts
|  2>
|  3> %scf
|  4>   MaxCore 4096
|  5> end
|  6> *xyz  0  1
|  7>     C       15.0312381   14.1249446   15.5869995
|  8>     C       16.3174917   13.8877246   16.4063983
|  9>     O       17.1130863   15.0647992   16.7083527
| 10>     C       16.7458780   16.3841763   16.5992861
| 11>     O       15.8754593   16.7966626   15.8540259
| 12>     C       17.5395795   17.2640145   17.5284423
| 13>     C       17.4175282   18.6165478   17.5356024
| 14>     C       16.5161173   19.4634884   16.6624288
| 15>     N       18.2014654   19.3878882   18.3989116
| 16>     C       19.1888042   18.8986306   19.2112595
| 17>     S       20.1298508   19.8917525   20.1408780
| 18>     N       19.3605283   17.5383293   19.2140272
| 19>     C       18.4986111   16.5704216   18.5116902
| 20>     C       17.7515385   15.7144193   19.5307594
| 21>     C       18.0672854   14.3512817   19.6847324
| 22>     C       17.3780700   13.5587116   20.6180088
| 23>     C       16.3670191   14.1342639   21.4063578
| 24>     C       16.0540523   15.4926903   21.2597263
| 25>     O       15.0799002   16.0516875   22.0209732
| 26>     C       16.7414020   16.2787343   20.3298172
| 27>     H       14.3247822   14.7623515   16.1334650
| 28>     H       14.5295080   13.1710962   15.3850974
| 29>     H       15.2600502   14.5934557   14.6214567
| 30>     H       16.0275115   13.4196485   17.3562728
| 31>     H       16.9490394   13.1648665   15.8743683
| 32>     H       15.4628160   19.2075878   16.8348477
| 33>     H       16.7266077   19.2829010   15.6006057
| 34>     H       16.6293363   20.5388023   16.8429861
| 35>     H       18.0900738   20.3891138   18.4095521
| 36>     H       20.0702388   17.2043174   19.8531604
| 37>     H       19.1583477   15.9157279   17.9251335
| 38>     H       18.8464417   13.9034880   19.0737427
| 39>     H       17.6288366   12.5052455   20.7295212
| 40>     H       15.8325157   13.5268608   22.1293508
| 41>     H       14.7469888   15.3658043   22.6188964
| 42>     H       16.4889999   17.3295635   20.2368656
| 43> *
| 44>
| 45>                          ****END OF INPUT****

CARTESIAN COORDINATES (ANGSTROEM)
---------------------------------
  C     15.031238   14.124945   15.586999
  C     16.317492   13.887725   16.406398
  O     17.113086   15.064799   16.708353
  C     16.745878   16.384176   16.599286
  O     15.875459   16.796663   15.854026
  C     17.539579   17.264014   17.528442
  C     17.417528   18.616548   17.535602
  C     16.516117   19.463488   16.662429
  N     18.201465   19.387888   18.398912
  C     19.188804   18.898631   19.211260
  S     20.129851   19.891752   20.140878
  N     19.360528   17.538329   19.214027
  C     18.498611   16.570422   18.511690
  C     17.751538   15.714419   19.530759
  C     18.067285   14.351282   19.684732
  C     17.378070   13.558712   20.618009
  C     16.367019   14.134264   21.406358
  C     16.054052   15.492690   21.259726
  O     15.079900   16.051687   22.020973
  C     16.741402   16.278734   20.329817
  H     14.324782   14.762351   16.133465
  H     14.529508   13.171096   15.385097
  H     15.260050   14.593456   14.621457
  H     16.027511   13.419648   17.356273
  H     16.949039   13.164867   15.874368
  H     15.462816   19.207588   16.834848
  H     16.726608   19.282901   15.600606
  H     16.629336   20.538802   16.842986
  H     18.090074   20.389114   18.409552
  H     20.070239   17.204317   19.853160
  H     19.158348   15.915728   17.925133
  H     18.846442   13.903488   19.073743
  H     17.628837   12.505245   20.729521
  H     15.832516   13.526861   22.129351
  H     14.746989   15.365804   22.618896
  H     16.489000   17.329563   20.236866

 Total Charge           Charge          ....    0
 Multiplicity           Mult            ....    1
 Number of Electrons    NEL             ....  154
 Basis Dimension        Dim             ....  828

ORBITAL ENERGIES
----------------

  NO   OCC          E(Eh)            E(eV)
   0   2.0000     -91.887917     -2500.3973
   1   2.0000     -20.596854      -560.4689
   2   2.0000     -20.596579      -560.4614
   3   2.0000     -20.540188      -558.9269
   4   2.0000     -15.627902      -425.2568
   5   2.0000     -15.607202      -424.6936
   6   2.0000     -11.397650      -310.1458
   7   2.0000     -11.382936      -309.7454
   8   2.0000     -11.334685      -308.4325
   9   2.0000     -11.314064      -307.8713
  10   2.0000     -11.307588      -307.6951
  11   2.0000     -11.302400      -307.5540
  12   2.0000     -11.259760      -306.3936
  13   2.0000     -11.257670      -306.3368
  14   2.0000     -11.255652      -306.2819
  15   2.0000     -11.251091      -306.1578
  16   2.0000     -11.243276      -305.9451
  17   2.0000     -11.238430      -305.8132
  18   2.0000     -11.238350      -305.8111
  19   2.0000     -11.222135      -305.3698
  20   2.0000      -8.892992      -241.9906
  21   2.0000      -6.574570      -178.9031
  22   2.0000      -6.572563      -178.8485
  23   2.0000      -6.571979      -178.8326
  24   2.0000      -1.441622       -39.2285
  25   2.0000      -1.416496       -38.5448
  26   2.0000      -1.353761       -36.8377
  27   2.0000      -1.339032       -36.4369
  28   2.0000      -1.237567       -33.6759
  29   2.0000      -1.157487       -31.4968
  30   2.0000      -1.118933       -30.4477
  31   2.0000      -1.042171       -28.3589
  32   2.0000      -1.035841       -28.1867
  33   2.0000      -1.015274       -27.6270
  34   2.0000      -0.994653       -27.0659
  35   2.0000      -0.982879       -26.7455
  36   2.0000      -0.921744       -25.0819
  37   2.0000      -0.897209       -24.4143
  38   2.0000      -0.846560       -23.0361
  39   2.0000      -0.837857       -22.7993
  40   2.0000      -0.834170       -22.6989
  41   2.0000      -0.818338       -22.2681
  42   2.0000      -0.744289       -20.2531
  43   2.0000      -0.730294       -19.8723
  44   2.0000      -0.717378       -19.5208
  45   2.0000      -0.695688       -18.9306
  46   2.0000      -0.687188       -18.6993
  47   2.0000      -0.674709       -18.3598
  48   2.0000      -0.668519       -18.1913
  49   2.0000      -0.662788       -18.0354
  50   2.0000      -0.650517       -17.7015
  51   2.0000      -0.643921       -17.5220
  52   2.0000      -0.635231       -17.2855
  53   2.0000      -0.607084       -16.5196
  54   2.0000      -0.601222       -16.3601
  55   2.0000      -0.599961       -16.3258
  56   2.0000      -0.597957       -16.2712
  57   2.0000      -0.578893       -15.7525
  58   2.0000      -0.575112       -15.6496
  59   2.0000      -0.570019       -15.5110
  60   2.0000      -0.561117       -15.2688
  61   2.0000      -0.538791       -14.6613
  62   2.0000      -0.534850       -14.5540
  63   2.0000      -0.525161       -14.2904
  64   2.0000      -0.523469       -14.2443
  65   2.0000      -0.512496       -13.9457
  66   2.0000      -0.501038       -13.6339
  67   2.0000      -0.497869       -13.5477
  68   2.0000      -0.484926       -13.1955
  69   2.0000      -0.462770       -12.5926
  70   2.0000      -0.450389       -12.2557
  71   2.0000      -0.439974       -11.9723
  72   2.0000      -0.352925        -9.6036
  73   2.0000      -0.349421        -9.5082
  74   2.0000      -0.327485        -8.9113
  75   2.0000      -0.321674        -8.7532
  76   2.0000      -0.315279        -8.5792
  77   0.0000       0.077253         2.1022
  78   0.0000       0.106171         2.8891
  79   0.0000       0.125183         3.4064
  80   0.0000       0.133007         3.6193
  81   0.0000       0.138662         3.7732

MULLIKEN ATOMIC CHARGES
-----------------------
   0 C :   -0.285931
   1 C :    0.048909
   2 O :   -0.369764
   3 C :    0.455147
   4 O :   -0.427479
   5 C :   -0.208418
   6 C :    0.151605
   7 C :   -0.271694
   8 N :   -0.121272
   9 C :    0.212856
  10 S :   -0.441991
  11 N :   -0.205769
  12 C :    0.061414
  13 C :    0.069022
  14 C :   -0.197468
  15 C :   -0.128716
  16 C :   -0.281208
  17 C :    0.316798
  18 O :   -0.356368
  19 C :   -0.270024
  20 H :    0.107075
  21 H :    0.096392
  22 H :    0.111775
  23 H :    0.094283
  24 H :    0.093611
  25 H :    0.130954
  26 H :    0.130960
  27 H :    0.094847
  28 H :    0.197136
  29 H :    0.194742
  30 H :    0.149053
  31 H :    0.151401
  32 H :    0.161623
  33 H :    0.130331
  34 H :    0.240703
  35 H :    0.165464
Sum of atomic charges:   -0.0000000

LOEWDIN ATOMIC CHARGES
----------------------
   0 C :    0.102486
   1 C :   -0.009446
   2 O :    0.294170
   3 C :   -0.412207
   4 O :    0.108266
   5 C :   -0.094096
   6 C :   -0.059395
   7 C :    0.130642
   8 N :    0.406364
   9 C :   -0.456532
  10 S :   -0.036969
  11 N :    0.396368
  12 C :   -0.052736
  13 C :   -0.037896
  14 C :    0.014474
  15 C :    0.038321
  16 C :   -0.002626
  17 C :   -0.189505
  18 O :    0.395320
  19 C :    0.031164
  20 H :   -0.025841
  21 H :   -0.027920
  22 H :   -0.024623
  23 H :   -0.028836
  24 H :   -0.027140
  25 H :   -0.005098
  26 H :   -0.004207
  27 H :   -0.023714
  28 H :   -0.057787
  29 H :   -0.064784
  30 H :   -0.011492
  31 H :   -0.030117
  32 H :   -0.021423
  33 H :   -0.035655
  34 H :   -0.153892
  35 H :   -0.023641

  Mayer bond orders larger than 0.100000
B(  0-C ,  1-C ) :   0.9842 B(  0-C , 20-H ) :   0.9740 B(  0-C , 21-H ) :   0.9730
B(  0-C , 22-H ) :   0.9738 B(  1-C ,  2-O ) :   0.8968 B(  1-C , 23-H ) :   0.9718
B(  1-C , 24-H ) :   0.9797 B(  2-O ,  3-C ) :   1.1374 B(  3-C ,  4-O ) :   1.9838
B(  3-C ,  5-C ) :   1.0623 B(  5-C ,  6-C ) :   1.6546 B(  5-C , 12-C ) :   0.9757
B(  6-C ,  7-C ) :   0.9668 B(  6-C ,  8-N ) :   1.1604 B(  7-C , 25-H ) :   0.9603
B(  7-C , 26-H ) :   0.9604 B(  7-C , 27-H ) :   0.9910 B(  8-N ,  9-C ) :   1.1844
B(  8-N , 28-H ) :   0.9478 B(  9-C , 10-S ) :   1.6048 B(  9-C , 11-N ) :   1.3065
B( 11-N , 12-C ) :   0.9842 B( 11-N , 29-H ) :   0.9515 B( 12-C , 13-C ) :   0.9358
B( 12-C , 30-H ) :   1.0024 B( 13-C , 14-C ) :   1.3498 B( 13-C , 19-C ) :   1.3839
B( 14-C , 15-C ) :   1.3893 B( 14-C , 31-H ) :   0.9725 B( 15-C , 16-C ) :   1.3627
B( 15-C , 32-H ) :   0.9704 B( 16-C , 17-C ) :   1.3311 B( 16-C , 33-H ) :   0.9851
B( 17-C , 18-O ) :   1.1103 B( 17-C , 19-C ) :   1.3707 B( 18-O , 34-H ) :   0.9798
B( 19-C , 35-H ) :   0.9583

MP2 TOTAL ENERGY:    -1274.338186929 Eh
FINAL SINGLE POINT ENERGY     -1274.338186929365

DIPOLE MOMENT
-------------
                                X             Y             Z
Electronic contribution:     10.04874      10.14973       8.91842
Nuclear contribution   :    -11.06050     -11.96296      -9.25705
                        -----------------------------------------
Total Dipole Moment    :     -1.01176      -1.81324      -0.33863
                        -----------------------------------------
Magnitude (a.u.)       :      2.10384
Magnitude (Debye)      :      5.34754

Rotational constants in cm-1:     0.011634     0.008677     0.006110
Rotational constants in MHz :   348.770185   260.144840   183.186032

                             ****ORCA TERMINATED NORMALLY****
TOTAL RUN TIME: 0 days 1 hours 39 minutes 42 seconds 231 msec
