                         Program Version 4.2.0 -  RELEASE  -
|  1> ! ri-mp2 cc-pvtz cc-pvtz/c TightSCF  NoKeepInts
|  2>
|  3> %scf
|  4>   MaxCore 4096
|  5> end
|  6> *xyz  0  1
|  7>     C       15.1149689   15.2463941   17.2141045
|  8>     C       15.7344241   14.9117539   15.8429039
|  9>     O       16.8490388   15.7714143   15.5243327
| 10>     C       17.9387784   15.8209575   16.3455206
| 11>     O       18.6036127   14.8155057   16.5245595
| 12>     C       17.8956011   16.9190720   17.3711810
| 13>     C       17.2929218   18.1188657   17.1665443
| 14>     C       16.5683652   18.5913124   15.9221712
| 15>     N       17.4028202   19.1245389   18.1322715
| 16>     C       18.2587844   19.0866456   19.2016112
| 17>     S       18.4574877   20.3852652   20.2060294
| 18>     N       18.9425318   17.9125370   19.3943125
| 19>     C       18.6709827   16.6561066   18.6694154
| 20>     C       17.9418753   15.6624738   19.5715110
| 21>     C       18.3674969   14.3228719   19.6395545
| 22>     C       17.6984488   13.3973614   20.4576302
| 23>     C       16.5925139   13.8132397   21.2178365
| 24>     C       16.1636728   15.1456418   21.1538081
| 25>     O       15.0898431   15.5483467   21.8787229
| 26>     C       16.8312231   16.0646219   20.3380937
| 27>     H       15.7804419   14.9325397   18.0248127
| 28>     H       14.1690199   14.7065942   17.3426574
| 29>     H       14.9087020   16.3178441   17.3148374
| 30>     H       16.0611007   13.8628409   15.8377358
| 31>     H       14.9673415   15.0252141   15.0662011
| 32>     H       15.5775105   18.1288964   15.8438852
| 33>     H       17.1329033   18.3299373   15.0182602
| 34>     H       16.4288207   19.6791389   15.9048715
| 35>     H       16.9134336   19.9958076   18.0033750
| 36>     H       19.5494816   17.9002791   20.2040252
| 37>     H       19.6415619   16.2164736   18.3969745
| 38>     H       19.2134054   13.9937031   19.0401959
| 39>     H       18.0358838   12.3630499   20.4950507
| 40>     H       16.0716184   13.1010646   21.8491473
| 41>     H       14.8021848   14.7941792   22.4148817
| 42>     H       16.4781983   17.0895115   20.3049740
| 43> *
| 44>
| 45>                          ****END OF INPUT****

CARTESIAN COORDINATES (ANGSTROEM)
---------------------------------
  C     15.114969   15.246394   17.214105
  C     15.734424   14.911754   15.842904
  O     16.849039   15.771414   15.524333
  C     17.938778   15.820958   16.345521
  O     18.603613   14.815506   16.524559
  C     17.895601   16.919072   17.371181
  C     17.292922   18.118866   17.166544
  C     16.568365   18.591312   15.922171
  N     17.402820   19.124539   18.132271
  C     18.258784   19.086646   19.201611
  S     18.457488   20.385265   20.206029
  N     18.942532   17.912537   19.394313
  C     18.670983   16.656107   18.669415
  C     17.941875   15.662474   19.571511
  C     18.367497   14.322872   19.639554
  C     17.698449   13.397361   20.457630
  C     16.592514   13.813240   21.217837
  C     16.163673   15.145642   21.153808
  O     15.089843   15.548347   21.878723
  C     16.831223   16.064622   20.338094
  H     15.780442   14.932540   18.024813
  H     14.169020   14.706594   17.342657
  H     14.908702   16.317844   17.314837
  H     16.061101   13.862841   15.837736
  H     14.967341   15.025214   15.066201
  H     15.577511   18.128896   15.843885
  H     17.132903   18.329937   15.018260
  H     16.428821   19.679139   15.904872
  H     16.913434   19.995808   18.003375
  H     19.549482   17.900279   20.204025
  H     19.641562   16.216474   18.396974
  H     19.213405   13.993703   19.040196
  H     18.035884   12.363050   20.495051
  H     16.071618   13.101065   21.849147
  H     14.802185   14.794179   22.414882
  H     16.478198   17.089511   20.304974

 Total Charge           Charge          ....    0
 Multiplicity           Mult            ....    1
 Number of Electrons    NEL             ....  154
 Basis Dimension        Dim             ....  828

ORBITAL ENERGIES
----------------

  NO   OCC          E(Eh)            E(eV)
   0   2.0000     -91.890616     -2500.4708
   1   2.0000     -20.595180      -560.4233
   2   2.0000     -20.582350      -560.0742
   3   2.0000     -20.553550      -559.2905
   4   2.0000     -15.631005      -425.3413
   5   2.0000     -15.608949      -424.7411
   6   2.0000     -11.395237      -310.0802
   7   2.0000     -11.385475      -309.8145
   8   2.0000     -11.337376      -308.5057
   9   2.0000     -11.311496      -307.8014
  10   2.0000     -11.309036      -307.7345
  11   2.0000     -11.303156      -307.5745
  12   2.0000     -11.262208      -306.4603
  13   2.0000     -11.261708      -306.4467
  14   2.0000     -11.257639      -306.3359
  15   2.0000     -11.251921      -306.1803
  16   2.0000     -11.241530      -305.8976
  17   2.0000     -11.236954      -305.7731
  18   2.0000     -11.233861      -305.6889
  19   2.0000     -11.227624      -305.5192
  20   2.0000      -8.895662      -242.0633
  21   2.0000      -6.577235      -178.9757
  22   2.0000      -6.575231      -178.9211
  23   2.0000      -6.574639      -178.9050
  24   2.0000      -1.449242       -39.4359
  25   2.0000      -1.415008       -38.5043
  26   2.0000      -1.354253       -36.8511
  27   2.0000      -1.341882       -36.5145
  28   2.0000      -1.239315       -33.7235
  29   2.0000      -1.155707       -31.4484
  30   2.0000      -1.121510       -30.5178
  31   2.0000      -1.044057       -28.4102
  32   2.0000      -1.032945       -28.1079
  33   2.0000      -1.013618       -27.5820
  34   2.0000      -1.001002       -27.2387
  35   2.0000      -0.987444       -26.8697
  36   2.0000      -0.924605       -25.1598
  37   2.0000      -0.894077       -24.3291
  38   2.0000      -0.849968       -23.1288
  39   2.0000      -0.839347       -22.8398
  40   2.0000      -0.831785       -22.6340
  41   2.0000      -0.818290       -22.2668
  42   2.0000      -0.750143       -20.4124
  43   2.0000      -0.733830       -19.9685
  44   2.0000      -0.727913       -19.8075
  45   2.0000      -0.693884       -18.8815
  46   2.0000      -0.687339       -18.7035
  47   2.0000      -0.676096       -18.3975
  48   2.0000      -0.672831       -18.3087
  49   2.0000      -0.661282       -17.9944
  50   2.0000      -0.653616       -17.7858
  51   2.0000      -0.646692       -17.5974
  52   2.0000      -0.638721       -17.3805
  53   2.0000      -0.613388       -16.6911
  54   2.0000      -0.603006       -16.4086
  55   2.0000      -0.601680       -16.3725
  56   2.0000      -0.599117       -16.3028
  57   2.0000      -0.583001       -15.8643
  58   2.0000      -0.575124       -15.6499
  59   2.0000      -0.562503       -15.3065
  60   2.0000      -0.559028       -15.2119
  61   2.0000      -0.549047       -14.9403
  62   2.0000      -0.546071       -14.8594
  63   2.0000      -0.527083       -14.3427
  64   2.0000      -0.520500       -14.1635
  65   2.0000      -0.512916       -13.9572
  66   2.0000      -0.499647       -13.5961
  67   2.0000      -0.491816       -13.3830
  68   2.0000      -0.481001       -13.0887
  69   2.0000      -0.464417       -12.6374
  70   2.0000      -0.455803       -12.4030
  71   2.0000      -0.450838       -12.2679
  72   2.0000      -0.356738        -9.7073
  73   2.0000      -0.346742        -9.4353
  74   2.0000      -0.329695        -8.9714
  75   2.0000      -0.319956        -8.7065
  76   2.0000      -0.317407        -8.6371
  77   0.0000       0.068294         1.8584
  78   0.0000       0.107267         2.9189
  79   0.0000       0.119400         3.2490
  80   0.0000       0.133008         3.6193
  81   0.0000       0.134934         3.6717

MULLIKEN ATOMIC CHARGES
-----------------------
   0 C :   -0.338292
   1 C :    0.041760
   2 O :   -0.383560
   3 C :    0.469956
   4 O :   -0.399823
   5 C :   -0.198667
   6 C :    0.139420
   7 C :   -0.283900
   8 N :   -0.123909
   9 C :    0.187770
  10 S :   -0.434527
  11 N :   -0.199803
  12 C :    0.049339
  13 C :    0.025701
  14 C :   -0.172005
  15 C :   -0.139963
  16 C :   -0.275483
  17 C :    0.310091
  18 O :   -0.359027
  19 C :   -0.257899
  20 H :    0.126885
  21 H :    0.119024
  22 H :    0.098915
  23 H :    0.111385
  24 H :    0.111556
  25 H :    0.119017
  26 H :    0.132019
  27 H :    0.107006
  28 H :    0.197452
  29 H :    0.193937
  30 H :    0.158440
  31 H :    0.164180
  32 H :    0.161509
  33 H :    0.131003
  34 H :    0.240603
  35 H :    0.169890
Sum of atomic charges:   -0.0000000

LOEWDIN ATOMIC CHARGES
----------------------
   0 C :    0.105327
   1 C :   -0.017645
   2 O :    0.281561
   3 C :   -0.416901
   4 O :    0.125492
   5 C :   -0.093000
   6 C :   -0.069032
   7 C :    0.126179
   8 N :    0.405960
   9 C :   -0.460242
  10 S :   -0.033430
  11 N :    0.397400
  12 C :   -0.045043
  13 C :   -0.042285
  14 C :    0.019759
  15 C :    0.041074
  16 C :   -0.002260
  17 C :   -0.194202
  18 O :    0.394595
  19 C :    0.029466
  20 H :   -0.024496
  21 H :   -0.023040
  22 H :   -0.032398
  23 H :   -0.025763
  24 H :   -0.023376
  25 H :   -0.013888
  26 H :   -0.006097
  27 H :   -0.019410
  28 H :   -0.058705
  29 H :   -0.063847
  30 H :   -0.002984
  31 H :   -0.023798
  32 H :   -0.020018
  33 H :   -0.035555
  34 H :   -0.154215
  35 H :   -0.025181

  Mayer bond orders larger than 0.100000
B(  0-C ,  1-C ) :   0.9598 B(  0-C , 20-H ) :   0.9649 B(  0-C , 21-H ) :   0.9786
B(  0-C , 22-H ) :   0.9732 B(  1-C ,  2-O ) :   0.8929 B(  1-C , 23-H ) :   0.9838
B(  1-C , 24-H ) :   0.9831 B(  2-O ,  3-C ) :   1.0885 B(  3-C ,  4-O ) :   2.0215
B(  3-C ,  5-C ) :   1.0308 B(  5-C ,  6-C ) :   1.6619 B(  5-C , 12-C ) :   0.9592
B(  6-C ,  7-C ) :   0.9546 B(  6-C ,  8-N ) :   1.1338 B(  7-C , 25-H ) :   0.9642
B(  7-C , 26-H ) :   0.9664 B(  7-C , 27-H ) :   0.9898 B(  8-N ,  9-C ) :   1.1785
B(  8-N , 28-H ) :   0.9490 B(  9-C , 10-S ) :   1.6171 B(  9-C , 11-N ) :   1.2993
B( 11-N , 12-C ) :   0.9843 B( 11-N , 29-H ) :   0.9522 B( 12-C , 13-C ) :   0.9472
B( 12-C , 30-H ) :   0.9984 B( 13-C , 14-C ) :   1.3884 B( 13-C , 19-C ) :   1.3574
B( 14-C , 15-C ) :   1.3956 B( 14-C , 31-H ) :   0.9601 B( 15-C , 16-C ) :   1.3626
B( 15-C , 32-H ) :   0.9711 B( 16-C , 17-C ) :   1.3302 B( 16-C , 33-H ) :   0.9849
B( 17-C , 18-O ) :   1.1113 B( 17-C , 19-C ) :   1.3762 B( 18-O , 34-H ) :   0.9801
B( 19-C , 35-H ) :   0.9582

MP2 TOTAL ENERGY:    -1274.326415034 Eh
FINAL SINGLE POINT ENERGY     -1274.326415034030

DIPOLE MOMENT
-------------
                                X             Y             Z
Electronic contribution:      9.83913       7.73515       6.35007
Nuclear contribution   :    -11.20520      -8.91531      -7.03216
                        -----------------------------------------
Total Dipole Moment    :     -1.36607      -1.18016      -0.68209
                        -----------------------------------------
Magnitude (a.u.)       :      1.92981
Magnitude (Debye)      :      4.90520

Rotational constants in cm-1:     0.011314     0.009955     0.006771
Rotational constants in MHz :   339.181545   298.431273   202.979578

                             ****ORCA TERMINATED NORMALLY****
TOTAL RUN TIME: 0 days 1 hours 57 minutes 51 seconds 517 msec
