                         Program Version 4.2.0 -  RELEASE  -
|  1> ! ri-mp2 cc-pvtz cc-pvtz/c TightSCF  NoKeepInts
|  2>
|  3> %scf
|  4>   MaxCore 4096
|  5> end
|  6> *xyz  0  1
|  7>     C       15.3389427   13.7009385   15.8735389
|  8>     C       15.1748362   15.1183750   16.4610752
|  9>     O       16.2592339   15.9809169   16.0583395
| 10>     C       17.5095718   15.8252454   16.5887190
| 11>     O       18.0229688   14.7298703   16.7383313
| 12>     C       17.8871687   16.9796624   17.4675591
| 13>     C       17.5338251   18.2667279   17.2224498
| 14>     C       16.7545750   18.7986023   16.0375736
| 15>     N       17.9661245   19.2819668   18.0812370
| 16>     C       18.8515486   19.1099665   19.1127665
| 17>     S       19.3968169   20.3850422   20.0140347
| 18>     N       19.2622907   17.8240732   19.3601302
| 19>     C       18.7171515   16.6204420   18.7037254
| 20>     C       17.8870059   15.8014639   19.6887831
| 21>     C       18.1741903   14.4411360   19.9050490
| 22>     C       17.4036793   13.6794692   20.7994592
| 23>     C       16.3348867   14.2822080   21.4842916
| 24>     C       16.0425971   15.6356925   21.2685392
| 25>     O       15.0054299   16.2184657   21.9210273
| 26>     C       16.8107501   16.3909852   20.3770030
| 27>     H       15.5974987   13.7487213   14.8085210
| 28>     H       14.4035602   13.1375371   15.9734536
| 29>     H       16.1201628   13.1366114   16.3966451
| 30>     H       14.2334158   15.5430966   16.0899198
| 31>     H       15.1127404   15.0663126   17.5568307
| 32>     H       17.0737250   18.3121604   15.1072613
| 33>     H       16.8908711   19.8777422   15.8963394
| 34>     H       15.6813161   18.6096821   16.1638715
| 35>     H       17.6767320   20.2327620   17.9155567
| 36>     H       19.8918486   17.7217298   20.1457387
| 37>     H       19.5667826   16.0063100   18.3716714
| 38>     H       18.9881348   13.9678182   19.3610950
| 39>     H       17.6331335   12.6265026   20.9530205
| 40>     H       15.7361140   13.6969621   22.1742236
| 41>     H       14.6384722   15.5592510   22.5291765
| 42>     H       16.5688985   17.4375504   20.2270429
| 43> *
| 44>
| 45>                          ****END OF INPUT****

CARTESIAN COORDINATES (ANGSTROEM)
---------------------------------
  C     15.338943   13.700938   15.873539
  C     15.174836   15.118375   16.461075
  O     16.259234   15.980917   16.058339
  C     17.509572   15.825245   16.588719
  O     18.022969   14.729870   16.738331
  C     17.887169   16.979662   17.467559
  C     17.533825   18.266728   17.222450
  C     16.754575   18.798602   16.037574
  N     17.966124   19.281967   18.081237
  C     18.851549   19.109966   19.112766
  S     19.396817   20.385042   20.014035
  N     19.262291   17.824073   19.360130
  C     18.717151   16.620442   18.703725
  C     17.887006   15.801464   19.688783
  C     18.174190   14.441136   19.905049
  C     17.403679   13.679469   20.799459
  C     16.334887   14.282208   21.484292
  C     16.042597   15.635692   21.268539
  O     15.005430   16.218466   21.921027
  C     16.810750   16.390985   20.377003
  H     15.597499   13.748721   14.808521
  H     14.403560   13.137537   15.973454
  H     16.120163   13.136611   16.396645
  H     14.233416   15.543097   16.089920
  H     15.112740   15.066313   17.556831
  H     17.073725   18.312160   15.107261
  H     16.890871   19.877742   15.896339
  H     15.681316   18.609682   16.163871
  H     17.676732   20.232762   17.915557
  H     19.891849   17.721730   20.145739
  H     19.566783   16.006310   18.371671
  H     18.988135   13.967818   19.361095
  H     17.633133   12.626503   20.953020
  H     15.736114   13.696962   22.174224
  H     14.638472   15.559251   22.529176
  H     16.568898   17.437550   20.227043

 Total Charge           Charge          ....    0
 Multiplicity           Mult            ....    1
 Number of Electrons    NEL             ....  154
 Basis Dimension        Dim             ....  828

ORBITAL ENERGIES
----------------

  NO   OCC          E(Eh)            E(eV)
   0   2.0000     -91.888242     -2500.4062
   1   2.0000     -20.595230      -560.4247
   2   2.0000     -20.587819      -560.2230
   3   2.0000     -20.554580      -559.3186
   4   2.0000     -15.627665      -425.2504
   5   2.0000     -15.607724      -424.7078
   6   2.0000     -11.396757      -310.1215
   7   2.0000     -11.383633      -309.7644
   8   2.0000     -11.332694      -308.3783
   9   2.0000     -11.311459      -307.8005
  10   2.0000     -11.307856      -307.7024
  11   2.0000     -11.302447      -307.5552
  12   2.0000     -11.259204      -306.3785
  13   2.0000     -11.259004      -306.3731
  14   2.0000     -11.256998      -306.3185
  15   2.0000     -11.251602      -306.1716
  16   2.0000     -11.241200      -305.8886
  17   2.0000     -11.237079      -305.7765
  18   2.0000     -11.234338      -305.7019
  19   2.0000     -11.219214      -305.2903
  20   2.0000      -8.893323      -241.9996
  21   2.0000      -6.574903      -178.9122
  22   2.0000      -6.572892      -178.8575
  23   2.0000      -6.572309      -178.8416
  24   2.0000      -1.450270       -39.4639
  25   2.0000      -1.415008       -38.5043
  26   2.0000      -1.358181       -36.9580
  27   2.0000      -1.338927       -36.4341
  28   2.0000      -1.237228       -33.6667
  29   2.0000      -1.155498       -31.4427
  30   2.0000      -1.120460       -30.4893
  31   2.0000      -1.043548       -28.3964
  32   2.0000      -1.031070       -28.0569
  33   2.0000      -1.013000       -27.5651
  34   2.0000      -0.998021       -27.1575
  35   2.0000      -0.983270       -26.7561
  36   2.0000      -0.922758       -25.1095
  37   2.0000      -0.887548       -24.1514
  38   2.0000      -0.848371       -23.0853
  39   2.0000      -0.838140       -22.8069
  40   2.0000      -0.831626       -22.6297
  41   2.0000      -0.823428       -22.4066
  42   2.0000      -0.748013       -20.3545
  43   2.0000      -0.730590       -19.8804
  44   2.0000      -0.727561       -19.7979
  45   2.0000      -0.693654       -18.8753
  46   2.0000      -0.685659       -18.6577
  47   2.0000      -0.681372       -18.5411
  48   2.0000      -0.671667       -18.2770
  49   2.0000      -0.665445       -18.1077
  50   2.0000      -0.646539       -17.5932
  51   2.0000      -0.643163       -17.5014
  52   2.0000      -0.635301       -17.2874
  53   2.0000      -0.604528       -16.4501
  54   2.0000      -0.602724       -16.4009
  55   2.0000      -0.598934       -16.2978
  56   2.0000      -0.594180       -16.1685
  57   2.0000      -0.583523       -15.8785
  58   2.0000      -0.575439       -15.6585
  59   2.0000      -0.570949       -15.5363
  60   2.0000      -0.561223       -15.2717
  61   2.0000      -0.547721       -14.9042
  62   2.0000      -0.535070       -14.5600
  63   2.0000      -0.520624       -14.1669
  64   2.0000      -0.517980       -14.0949
  65   2.0000      -0.511093       -13.9076
  66   2.0000      -0.501179       -13.6378
  67   2.0000      -0.496423       -13.5084
  68   2.0000      -0.480572       -13.0770
  69   2.0000      -0.464760       -12.6468
  70   2.0000      -0.455292       -12.3891
  71   2.0000      -0.447920       -12.1885
  72   2.0000      -0.353498        -9.6192
  73   2.0000      -0.347264        -9.4495
  74   2.0000      -0.327583        -8.9140
  75   2.0000      -0.318592        -8.6693
  76   2.0000      -0.315165        -8.5761
  77   0.0000       0.072902         1.9838
  78   0.0000       0.106627         2.9015
  79   0.0000       0.120486         3.2786
  80   0.0000       0.132724         3.6116
  81   0.0000       0.137557         3.7431

MULLIKEN ATOMIC CHARGES
-----------------------
   0 C :   -0.279003
   1 C :    0.043451
   2 O :   -0.374377
   3 C :    0.444887
   4 O :   -0.406036
   5 C :   -0.169893
   6 C :    0.136277
   7 C :   -0.281332
   8 N :   -0.123773
   9 C :    0.202928
  10 S :   -0.440515
  11 N :   -0.200906
  12 C :    0.051910
  13 C :    0.046892
  14 C :   -0.165506
  15 C :   -0.132793
  16 C :   -0.280856
  17 C :    0.312806
  18 O :   -0.358724
  19 C :   -0.278668
  20 H :    0.094939
  21 H :    0.089504
  22 H :    0.119640
  23 H :    0.100182
  24 H :    0.094545
  25 H :    0.123769
  26 H :    0.102998
  27 H :    0.125269
  28 H :    0.196990
  29 H :    0.194153
  30 H :    0.155231
  31 H :    0.156551
  32 H :    0.160777
  33 H :    0.130272
  34 H :    0.240629
  35 H :    0.167783
Sum of atomic charges:   -0.0000000

LOEWDIN ATOMIC CHARGES
----------------------
   0 C :    0.105175
   1 C :   -0.014176
   2 O :    0.286769
   3 C :   -0.411883
   4 O :    0.130472
   5 C :   -0.093042
   6 C :   -0.073185
   7 C :    0.125785
   8 N :    0.404033
   9 C :   -0.457720
  10 S :   -0.036953
  11 N :    0.397132
  12 C :   -0.045623
  13 C :   -0.040434
  14 C :    0.020793
  15 C :    0.041077
  16 C :   -0.002396
  17 C :   -0.194015
  18 O :    0.393510
  19 C :    0.028161
  20 H :   -0.026614
  21 H :   -0.030495
  22 H :   -0.027252
  23 H :   -0.024573
  24 H :   -0.028738
  25 H :   -0.008182
  26 H :   -0.019888
  27 H :   -0.009849
  28 H :   -0.058839
  29 H :   -0.064094
  30 H :   -0.005109
  31 H :   -0.024897
  32 H :   -0.020581
  33 H :   -0.035791
  34 H :   -0.154254
  35 H :   -0.024325

  Mayer bond orders larger than 0.100000
B(  0-C ,  1-C ) :   0.9777 B(  0-C , 20-H ) :   0.9760 B(  0-C , 21-H ) :   0.9756
B(  0-C , 22-H ) :   0.9712 B(  1-C ,  2-O ) :   0.9020 B(  1-C , 23-H ) :   0.9831
B(  1-C , 24-H ) :   0.9720 B(  2-O ,  3-C ) :   1.0794 B(  3-C ,  4-O ) :   2.0036
B(  3-C ,  5-C ) :   1.0362 B(  5-C ,  6-C ) :   1.6692 B(  5-C , 12-C ) :   0.9620
B(  6-C ,  7-C ) :   0.9524 B(  6-C ,  8-N ) :   1.1388 B(  7-C , 25-H ) :   0.9699
B(  7-C , 26-H ) :   0.9887 B(  7-C , 27-H ) :   0.9632 B(  8-N ,  9-C ) :   1.1846
B(  8-N , 28-H ) :   0.9498 B(  9-C , 10-S ) :   1.6099 B(  9-C , 11-N ) :   1.3001
B( 11-N , 12-C ) :   0.9933 B( 11-N , 29-H ) :   0.9516 B( 12-C , 13-C ) :   0.9443
B( 12-C , 30-H ) :   0.9987 B( 13-C , 14-C ) :   1.3775 B( 13-C , 19-C ) :   1.3677
B( 14-C , 15-C ) :   1.3939 B( 14-C , 31-H ) :   0.9639 B( 15-C , 16-C ) :   1.3635
B( 15-C , 32-H ) :   0.9709 B( 16-C , 17-C ) :   1.3307 B( 16-C , 33-H ) :   0.9851
B( 17-C , 18-O ) :   1.1096 B( 17-C , 19-C ) :   1.3746 B( 18-O , 34-H ) :   0.9800
B( 19-C , 35-H ) :   0.9581

MP2 TOTAL ENERGY:    -1274.326727202 Eh
FINAL SINGLE POINT ENERGY     -1274.326727202193

DIPOLE MOMENT
-------------
                                X             Y             Z
Electronic contribution:     10.39587      10.55509       8.42745
Nuclear contribution   :    -11.92498     -11.71461      -9.06372
                        -----------------------------------------
Total Dipole Moment    :     -1.52911      -1.15952      -0.63627
                        -----------------------------------------
Magnitude (a.u.)       :      2.02176
Magnitude (Debye)      :      5.13890

Rotational constants in cm-1:     0.011680     0.009005     0.006281
Rotational constants in MHz :   350.146523   269.959956   188.291046

                             ****ORCA TERMINATED NORMALLY****
TOTAL RUN TIME: 0 days 1 hours 43 minutes 40 seconds 491 msec
