                         Program Version 5.0.0 -  RELEASE  -
|  1> ! ri-mp2 cc-pvtz cc-pvtz/c TightSCF NoKeepInts
|  2>
|  3> %scf
|  4>   MaxCore 4096
|  5> end
|  6> *xyz  0  1
|  7>     C       14.5998404   14.4134852   16.8282713
|  8>     C       15.5754580   15.5999376   16.7795068
|  9>     O       16.8326400   15.0886116   16.2962466
| 10>     C       18.0599769   15.6334545   16.5843931
| 11>     O       19.0550363   14.9359487   16.5176187
| 12>     C       18.0576789   16.8780161   17.4112122
| 13>     C       17.5557810   18.0536288   16.9675523
| 14>     C       16.9724541   18.3394801   15.6005645
| 15>     N       17.6324132   19.1905727   17.7747525
| 16>     C       18.2789615   19.2472068   18.9823731
| 17>     S       18.3709313   20.6505165   19.8517973
| 18>     N       18.8425628   18.0797654   19.4368172
| 19>     C       18.7242683   16.7619205   18.7809212
| 20>     C       17.9685282   15.7652330   19.6551433
| 21>     C       18.4137161   14.4341866   19.7520585
| 22>     C       17.7081035   13.4967518   20.5243792
| 23>     C       16.5435763   13.8913557   21.2043593
| 24>     C       16.0926735   15.2142785   21.1056963
| 25>     O       14.9602511   15.5954709   21.7481193
| 26>     C       16.7972387   16.1459300   20.3366822
| 27>     H       14.9778501   13.6337283   17.5019377
| 28>     H       14.4715974   13.9754933   15.8305056
| 29>     H       13.6171185   14.7354300   17.1935135
| 30>     H       15.1838203   16.3790187   16.1153695
| 31>     H       15.6700687   16.0042926   17.7952058
| 32>     H       17.0579617   17.4825368   14.9210364
| 33>     H       17.5013075   19.1730565   15.1206547
| 34>     H       15.9120324   18.6110147   15.6703272
| 35>     H       17.2411574   20.0619875   17.4524377
| 36>     H       19.2959671   18.1475666   20.3394159
| 37>     H       19.7421045   16.3747950   18.6239780
| 38>     H       19.3027504   14.1201018   19.2088646
| 39>     H       18.0610950   12.4686210   20.5855699
| 40>     H       15.9935776   13.1688136   21.7982485
| 41>     H       14.6508628   14.8365969   22.2657985
| 42>     H       16.4256386   17.1631958   20.2726715
| 43> *
| 44>
| 45>                          ****END OF INPUT****

CARTESIAN COORDINATES (ANGSTROEM)
---------------------------------
  C     14.599840   14.413485   16.828271
  C     15.575458   15.599938   16.779507
  O     16.832640   15.088612   16.296247
  C     18.059977   15.633454   16.584393
  O     19.055036   14.935949   16.517619
  C     18.057679   16.878016   17.411212
  C     17.555781   18.053629   16.967552
  C     16.972454   18.339480   15.600565
  N     17.632413   19.190573   17.774753
  C     18.278962   19.247207   18.982373
  S     18.370931   20.650516   19.851797
  N     18.842563   18.079765   19.436817
  C     18.724268   16.761920   18.780921
  C     17.968528   15.765233   19.655143
  C     18.413716   14.434187   19.752058
  C     17.708103   13.496752   20.524379
  C     16.543576   13.891356   21.204359
  C     16.092674   15.214279   21.105696
  O     14.960251   15.595471   21.748119
  C     16.797239   16.145930   20.336682
  H     14.977850   13.633728   17.501938
  H     14.471597   13.975493   15.830506
  H     13.617118   14.735430   17.193513
  H     15.183820   16.379019   16.115369
  H     15.670069   16.004293   17.795206
  H     17.057962   17.482537   14.921036
  H     17.501307   19.173057   15.120655
  H     15.912032   18.611015   15.670327
  H     17.241157   20.061987   17.452438
  H     19.295967   18.147567   20.339416
  H     19.742104   16.374795   18.623978
  H     19.302750   14.120102   19.208865
  H     18.061095   12.468621   20.585570
  H     15.993578   13.168814   21.798248
  H     14.650863   14.836597   22.265798
  H     16.425639   17.163196   20.272672

 Total Charge           Charge          ....    0
 Multiplicity           Mult            ....    1
 Number of Electrons    NEL             ....  154
 Basis Dimension        Dim             ....  828

ORBITAL ENERGIES
----------------

  NO   OCC          E(Eh)            E(eV)
   0   2.0000     -91.890457     -2500.4664
   1   2.0000     -20.601576      -560.5974
   2   2.0000     -20.600121      -560.5578
   3   2.0000     -20.549301      -559.1749
   4   2.0000     -15.627548      -425.2472
   5   2.0000     -15.611983      -424.8236
   6   2.0000     -11.397603      -310.1445
   7   2.0000     -11.387249      -309.8628
   8   2.0000     -11.330289      -308.3128
   9   2.0000     -11.317051      -307.9526
  10   2.0000     -11.315059      -307.8984
  11   2.0000     -11.303065      -307.5720
  12   2.0000     -11.270083      -306.6745
  13   2.0000     -11.265096      -306.5389
  14   2.0000     -11.263885      -306.5059
  15   2.0000     -11.256859      -306.3147
  16   2.0000     -11.246157      -306.0235
  17   2.0000     -11.242560      -305.9256
  18   2.0000     -11.239148      -305.8328
  19   2.0000     -11.231182      -305.6160
  20   2.0000      -8.895570      -242.0608
  21   2.0000      -6.577157      -178.9735
  22   2.0000      -6.575132      -178.9184
  23   2.0000      -6.574556      -178.9028
  24   2.0000      -1.448219       -39.4080
  25   2.0000      -1.419930       -38.6383
  26   2.0000      -1.359590       -36.9963
  27   2.0000      -1.340799       -36.4850
  28   2.0000      -1.240450       -33.7544
  29   2.0000      -1.161617       -31.6092
  30   2.0000      -1.125977       -30.6394
  31   2.0000      -1.049374       -28.5549
  32   2.0000      -1.039720       -28.2922
  33   2.0000      -1.019214       -27.7342
  34   2.0000      -1.005664       -27.3655
  35   2.0000      -0.989764       -26.9328
  36   2.0000      -0.928281       -25.2598
  37   2.0000      -0.880546       -23.9609
  38   2.0000      -0.856309       -23.3014
  39   2.0000      -0.842387       -22.9225
  40   2.0000      -0.837317       -22.7845
  41   2.0000      -0.836779       -22.7699
  42   2.0000      -0.756483       -20.5849
  43   2.0000      -0.740484       -20.1496
  44   2.0000      -0.731757       -19.9121
  45   2.0000      -0.698154       -18.9977
  46   2.0000      -0.688683       -18.7400
  47   2.0000      -0.681580       -18.5467
  48   2.0000      -0.677523       -18.4363
  49   2.0000      -0.661069       -17.9886
  50   2.0000      -0.658655       -17.9229
  51   2.0000      -0.650524       -17.7016
  52   2.0000      -0.640329       -17.4242
  53   2.0000      -0.612220       -16.6593
  54   2.0000      -0.608205       -16.5501
  55   2.0000      -0.603867       -16.4320
  56   2.0000      -0.595851       -16.2139
  57   2.0000      -0.582825       -15.8595
  58   2.0000      -0.577992       -15.7279
  59   2.0000      -0.571950       -15.5636
  60   2.0000      -0.563693       -15.3389
  61   2.0000      -0.558405       -15.1950
  62   2.0000      -0.551375       -15.0037
  63   2.0000      -0.527466       -14.3531
  64   2.0000      -0.517843       -14.0912
  65   2.0000      -0.516112       -14.0441
  66   2.0000      -0.503822       -13.7097
  67   2.0000      -0.502483       -13.6733
  68   2.0000      -0.489034       -13.3073
  69   2.0000      -0.471370       -12.8266
  70   2.0000      -0.453779       -12.3479
  71   2.0000      -0.450811       -12.2672
  72   2.0000      -0.357313        -9.7230
  73   2.0000      -0.352055        -9.5799
  74   2.0000      -0.330098        -8.9824
  75   2.0000      -0.324681        -8.8350
  76   2.0000      -0.319015        -8.6808
  77   0.0000       0.084288         2.2936
  78   0.0000       0.103978         2.8294
  79   0.0000       0.113438         3.0868
  80   0.0000       0.128063         3.4848
  81   0.0000       0.132798         3.6136

MULLIKEN ATOMIC CHARGES
-----------------------
   0 C :   -0.257279
   1 C :    0.012757
   2 O :   -0.305934
   3 C :    0.399590
   4 O :   -0.383873
   5 C :   -0.205480
   6 C :    0.157585
   7 C :   -0.333735
   8 N :   -0.138685
   9 C :    0.204001
  10 S :   -0.440237
  11 N :   -0.216359
  12 C :    0.078659
  13 C :    0.030372
  14 C :   -0.197474
  15 C :   -0.130601
  16 C :   -0.276216
  17 C :    0.324413
  18 O :   -0.357463
  19 C :   -0.298986
  20 H :    0.107934
  21 H :    0.102440
  22 H :    0.088061
  23 H :    0.090508
  24 H :    0.106954
  25 H :    0.128251
  26 H :    0.141426
  27 H :    0.121070
  28 H :    0.196616
  29 H :    0.199069
  30 H :    0.164845
  31 H :    0.168974
  32 H :    0.164173
  33 H :    0.132456
  34 H :    0.241685
  35 H :    0.180483
Sum of atomic charges:    0.0000000

LOEWDIN ATOMIC CHARGES
----------------------
   0 C :    0.112313
   1 C :   -0.024308
   2 O :    0.308562
   3 C :   -0.416262
   4 O :    0.122418
   5 C :   -0.082803
   6 C :   -0.099790
   7 C :    0.123370
   8 N :    0.401682
   9 C :   -0.456198
  10 S :   -0.037219
  11 N :    0.397226
  12 C :   -0.044172
  13 C :   -0.043583
  14 C :    0.023249
  15 C :    0.045930
  16 C :    0.000022
  17 C :   -0.193966
  18 O :    0.394674
  19 C :    0.026078
  20 H :   -0.021919
  21 H :   -0.026036
  22 H :   -0.025306
  23 H :   -0.038155
  24 H :   -0.034915
  25 H :   -0.008077
  26 H :   -0.009461
  27 H :   -0.017774
  28 H :   -0.057569
  29 H :   -0.063571
  30 H :   -0.002209
  31 H :   -0.021561
  32 H :   -0.018321
  33 H :   -0.034615
  34 H :   -0.152878
  35 H :   -0.024853

  Mayer bond orders larger than 0.100000
B(  0-C ,  1-C ) :   0.9854 B(  0-C , 20-H ) :   0.9779 B(  0-C , 21-H ) :   0.9797
B(  0-C , 22-H ) :   0.9770 B(  1-C ,  2-O ) :   0.9104 B(  1-C , 23-H ) :   0.9733
B(  1-C , 24-H ) :   0.9578 B(  2-O ,  3-C ) :   1.1933 B(  3-C ,  4-O ) :   2.0899
B(  3-C ,  5-C ) :   0.9226 B(  5-C ,  6-C ) :   1.6802 B(  5-C , 12-C ) :   0.9563
B(  6-C ,  7-C ) :   0.9435 B(  6-C ,  8-N ) :   1.1198 B(  7-C , 25-H ) :   0.9805
B(  7-C , 26-H ) :   0.9683 B(  7-C , 27-H ) :   0.9667 B(  8-N ,  9-C ) :   1.1945
B(  8-N , 28-H ) :   0.9522 B(  9-C , 10-S ) :   1.6117 B(  9-C , 11-N ) :   1.2879
B( 11-N , 12-C ) :   0.9964 B( 11-N , 29-H ) :   0.9489 B( 12-C , 13-C ) :   0.9427
B( 12-C , 30-H ) :   0.9972 B( 13-C , 14-C ) :   1.3891 B( 13-C , 19-C ) :   1.3403
B( 14-C , 15-C ) :   1.3970 B( 14-C , 31-H ) :   0.9604 B( 15-C , 16-C ) :   1.3631
B( 15-C , 32-H ) :   0.9698 B( 16-C , 17-C ) :   1.3300 B( 16-C , 33-H ) :   0.9843
B( 17-C , 18-O ) :   1.1104 B( 17-C , 19-C ) :   1.3634 B( 18-O , 34-H ) :   0.9793
B( 19-C , 35-H ) :   0.9569

MP2 TOTAL ENERGY:    -1274.334421504 Eh
FINAL SINGLE POINT ENERGY     -1274.334421504187

DIPOLE MOMENT
-------------
                                X             Y             Z
Electronic contribution:     10.60874       8.29368       6.87596
Nuclear contribution   :    -12.12679      -9.27277      -7.29779
                        -----------------------------------------
Total Dipole Moment    :     -1.51806      -0.97909      -0.42183
                        -----------------------------------------
Magnitude (a.u.)       :      1.85501
Magnitude (Debye)      :      4.71506

Rotational constants in cm-1:     0.012046     0.009063     0.006789
Rotational constants in MHz :   361.132815   271.705478   203.515492

                             ****ORCA TERMINATED NORMALLY****
TOTAL RUN TIME: 0 days 2 hours 9 minutes 32 seconds 751 msec
