                         Program Version 4.2.0 -  RELEASE  -
|  1> ! ri-mp2 cc-pvtz cc-pvtz/c TightSCF  NoKeepInts
|  2>
|  3> %scf
|  4>   MaxCore 4096
|  5> end
|  6> *xyz  0  1
|  7>     C       15.0720046   14.1066407   16.3592469
|  8>     C       15.6490532   14.9839519   15.2249219
|  9>     O       16.4356266   16.0725033   15.7541649
| 10>     C       17.4573781   15.8562556   16.6346035
| 11>     O       18.0311834   14.7826817   16.7193259
| 12>     C       17.7744162   17.0136878   17.5392948
| 13>     C       17.3227071   18.2861630   17.3803059
| 14>     C       16.4321223   18.8354489   16.2844835
| 15>     N       17.7353517   19.2847923   18.2691426
| 16>     C       18.6902378   19.1281739   19.2385854
| 17>     S       19.2080466   20.3964680   20.1653988
| 18>     N       19.1935445   17.8628796   19.4008717
| 19>     C       18.6769212   16.6576003   18.7262982
| 20>     C       17.9415405   15.7616482   19.7198954
| 21>     C       18.3083564   14.4113140   19.8686637
| 22>     C       17.6293341   13.5797801   20.7749237
| 23>     C       16.5729790   14.1019235   21.5404497
| 24>     C       16.2017961   15.4452242   21.3927994
| 25>     O       15.1775818   15.9506740   22.1254963
| 26>     C       16.8792106   16.2702702   20.4895549
| 27>     H       15.8515621   13.5159498   16.8555308
| 28>     H       14.3347853   13.4026736   15.9549381
| 29>     H       14.5719774   14.7259073   17.1142951
| 30>     H       16.2698859   14.3612094   14.5668269
| 31>     H       14.8260789   15.3932190   14.6251954
| 32>     H       15.4255070   18.4042386   16.3512837
| 33>     H       16.8395927   18.5943348   15.2947256
| 34>     H       16.3252001   19.9259415   16.3309538
| 35>     H       17.3778897   20.2210423   18.1665930
| 36>     H       19.8732868   17.7663882   20.1441958
| 37>     H       19.5410619   16.1013081   18.3350018
| 38>     H       19.1129917   14.0002896   19.2637188
| 39>     H       17.9191772   12.5354209   20.8754764
| 40>     H       16.0445649   13.4627334   22.2398155
| 41>     H       14.8668612   15.2458450   22.7132445
| 42>     H       16.5771854   17.3074173   20.3937776
| 43> *
| 44>
| 45>                          ****END OF INPUT****

CARTESIAN COORDINATES (ANGSTROEM)
---------------------------------
  C     15.072005   14.106641   16.359247
  C     15.649053   14.983952   15.224922
  O     16.435627   16.072503   15.754165
  C     17.457378   15.856256   16.634604
  O     18.031183   14.782682   16.719326
  C     17.774416   17.013688   17.539295
  C     17.322707   18.286163   17.380306
  C     16.432122   18.835449   16.284484
  N     17.735352   19.284792   18.269143
  C     18.690238   19.128174   19.238585
  S     19.208047   20.396468   20.165399
  N     19.193545   17.862880   19.400872
  C     18.676921   16.657600   18.726298
  C     17.941540   15.761648   19.719895
  C     18.308356   14.411314   19.868664
  C     17.629334   13.579780   20.774924
  C     16.572979   14.101923   21.540450
  C     16.201796   15.445224   21.392799
  O     15.177582   15.950674   22.125496
  C     16.879211   16.270270   20.489555
  H     15.851562   13.515950   16.855531
  H     14.334785   13.402674   15.954938
  H     14.571977   14.725907   17.114295
  H     16.269886   14.361209   14.566827
  H     14.826079   15.393219   14.625195
  H     15.425507   18.404239   16.351284
  H     16.839593   18.594335   15.294726
  H     16.325200   19.925942   16.330954
  H     17.377890   20.221042   18.166593
  H     19.873287   17.766388   20.144196
  H     19.541062   16.101308   18.335002
  H     19.112992   14.000290   19.263719
  H     17.919177   12.535421   20.875476
  H     16.044565   13.462733   22.239815
  H     14.866861   15.245845   22.713244
  H     16.577185   17.307417   20.393778

 Total Charge           Charge          ....    0
 Multiplicity           Mult            ....    1
 Number of Electrons    NEL             ....  154
 Basis Dimension        Dim             ....  828

ORBITAL ENERGIES
----------------

  NO   OCC          E(Eh)            E(eV)
   0   2.0000     -91.888187     -2500.4047
   1   2.0000     -20.600367      -560.5645
   2   2.0000     -20.592164      -560.3413
   3   2.0000     -20.545179      -559.0628
   4   2.0000     -15.628588      -425.2755
   5   2.0000     -15.606851      -424.6840
   6   2.0000     -11.396436      -310.1128
   7   2.0000     -11.383033      -309.7481
   8   2.0000     -11.336855      -308.4915
   9   2.0000     -11.308027      -307.7071
  10   2.0000     -11.305419      -307.6361
  11   2.0000     -11.303039      -307.5713
  12   2.0000     -11.260589      -306.4162
  13   2.0000     -11.258606      -306.3622
  14   2.0000     -11.253804      -306.2316
  15   2.0000     -11.248141      -306.0775
  16   2.0000     -11.237796      -305.7960
  17   2.0000     -11.233946      -305.6912
  18   2.0000     -11.230805      -305.6057
  19   2.0000     -11.225750      -305.4682
  20   2.0000      -8.893249      -241.9976
  21   2.0000      -6.574826      -178.9101
  22   2.0000      -6.572819      -178.8555
  23   2.0000      -6.572233      -178.8396
  24   2.0000      -1.451312       -39.4922
  25   2.0000      -1.411913       -38.4201
  26   2.0000      -1.356203       -36.9041
  27   2.0000      -1.339497       -36.4496
  28   2.0000      -1.237113       -33.6636
  29   2.0000      -1.152580       -31.3633
  30   2.0000      -1.119438       -30.4614
  31   2.0000      -1.041848       -28.3501
  32   2.0000      -1.033442       -28.1214
  33   2.0000      -1.009930       -27.4816
  34   2.0000      -0.997616       -27.1465
  35   2.0000      -0.983063       -26.7505
  36   2.0000      -0.921660       -25.0796
  37   2.0000      -0.896339       -24.3906
  38   2.0000      -0.847913       -23.0729
  39   2.0000      -0.835656       -22.7393
  40   2.0000      -0.828334       -22.5401
  41   2.0000      -0.815887       -22.2014
  42   2.0000      -0.748552       -20.3691
  43   2.0000      -0.734393       -19.9839
  44   2.0000      -0.725051       -19.7296
  45   2.0000      -0.690853       -18.7991
  46   2.0000      -0.685426       -18.6514
  47   2.0000      -0.678190       -18.4545
  48   2.0000      -0.671250       -18.2656
  49   2.0000      -0.656300       -17.8588
  50   2.0000      -0.652392       -17.7525
  51   2.0000      -0.644392       -17.5348
  52   2.0000      -0.631853       -17.1936
  53   2.0000      -0.616027       -16.7630
  54   2.0000      -0.600631       -16.3440
  55   2.0000      -0.599949       -16.3254
  56   2.0000      -0.595592       -16.2069
  57   2.0000      -0.579786       -15.7768
  58   2.0000      -0.573917       -15.6171
  59   2.0000      -0.564216       -15.3531
  60   2.0000      -0.556924       -15.1547
  61   2.0000      -0.544387       -14.8135
  62   2.0000      -0.537536       -14.6271
  63   2.0000      -0.526807       -14.3351
  64   2.0000      -0.517033       -14.0692
  65   2.0000      -0.509575       -13.8662
  66   2.0000      -0.500079       -13.6078
  67   2.0000      -0.495393       -13.4803
  68   2.0000      -0.479952       -13.0602
  69   2.0000      -0.463275       -12.6064
  70   2.0000      -0.458416       -12.4741
  71   2.0000      -0.450768       -12.2660
  72   2.0000      -0.354179        -9.6377
  73   2.0000      -0.344462        -9.3733
  74   2.0000      -0.327321        -8.9069
  75   2.0000      -0.315901        -8.5961
  76   2.0000      -0.314097        -8.5470
  77   0.0000       0.075304         2.0491
  78   0.0000       0.112098         3.0503
  79   0.0000       0.121098         3.2953
  80   0.0000       0.135559         3.6887
  81   0.0000       0.141415         3.8481

MULLIKEN ATOMIC CHARGES
-----------------------
   0 C :   -0.311967
   1 C :    0.039973
   2 O :   -0.355634
   3 C :    0.456124
   4 O :   -0.433114
   5 C :   -0.178909
   6 C :    0.145033
   7 C :   -0.282271
   8 N :   -0.121315
   9 C :    0.201887
  10 S :   -0.439070
  11 N :   -0.198577
  12 C :    0.039883
  13 C :    0.057134
  14 C :   -0.165296
  15 C :   -0.133901
  16 C :   -0.279243
  17 C :    0.312122
  18 O :   -0.359114
  19 C :   -0.274646
  20 H :    0.129592
  21 H :    0.097664
  22 H :    0.096269
  23 H :    0.103089
  24 H :    0.106951
  25 H :    0.124927
  26 H :    0.128292
  27 H :    0.101570
  28 H :    0.196766
  29 H :    0.193938
  30 H :    0.153952
  31 H :    0.154803
  32 H :    0.159583
  33 H :    0.128346
  34 H :    0.240162
  35 H :    0.164997
Sum of atomic charges:   -0.0000000

LOEWDIN ATOMIC CHARGES
----------------------
   0 C :    0.105914
   1 C :   -0.014569
   2 O :    0.299709
   3 C :   -0.414448
   4 O :    0.105725
   5 C :   -0.091288
   6 C :   -0.064739
   7 C :    0.125145
   8 N :    0.404964
   9 C :   -0.458898
  10 S :   -0.035827
  11 N :    0.398009
  12 C :   -0.046526
  13 C :   -0.039127
  14 C :    0.022061
  15 C :    0.040417
  16 C :   -0.002294
  17 C :   -0.192863
  18 O :    0.393013
  19 C :    0.028198
  20 H :   -0.024058
  21 H :   -0.026546
  22 H :   -0.028814
  23 H :   -0.028269
  24 H :   -0.025135
  25 H :   -0.010137
  26 H :   -0.007807
  27 H :   -0.021331
  28 H :   -0.059176
  29 H :   -0.063614
  30 H :   -0.005177
  31 H :   -0.025165
  32 H :   -0.021190
  33 H :   -0.036331
  34 H :   -0.154820
  35 H :   -0.025005

  Mayer bond orders larger than 0.100000
B(  0-C ,  1-C ) :   0.9596 B(  0-C , 20-H ) :   0.9713 B(  0-C , 21-H ) :   0.9764
B(  0-C , 22-H ) :   0.9750 B(  1-C ,  2-O ) :   0.8985 B(  1-C , 23-H ) :   0.9822
B(  1-C , 24-H ) :   0.9843 B(  2-O ,  3-C ) :   1.1467 B(  3-C ,  4-O ) :   1.9769
B(  3-C ,  5-C ) :   1.0561 B(  5-C ,  6-C ) :   1.6450 B(  5-C , 12-C ) :   0.9656
B(  6-C ,  7-C ) :   0.9558 B(  6-C ,  8-N ) :   1.1511 B(  7-C , 25-H ) :   0.9643
B(  7-C , 26-H ) :   0.9647 B(  7-C , 27-H ) :   0.9914 B(  8-N ,  9-C ) :   1.1782
B(  8-N , 28-H ) :   0.9486 B(  9-C , 10-S ) :   1.6108 B(  9-C , 11-N ) :   1.3047
B( 11-N , 12-C ) :   0.9918 B( 11-N , 29-H ) :   0.9518 B( 12-C , 13-C ) :   0.9463
B( 12-C , 30-H ) :   1.0003 B( 13-C , 14-C ) :   1.3755 B( 13-C , 19-C ) :   1.3685
B( 14-C , 15-C ) :   1.3941 B( 14-C , 31-H ) :   0.9643 B( 15-C , 16-C ) :   1.3623
B( 15-C , 32-H ) :   0.9712 B( 16-C , 17-C ) :   1.3319 B( 16-C , 33-H ) :   0.9858
B( 17-C , 18-O ) :   1.1082 B( 17-C , 19-C ) :   1.3778 B( 18-O , 34-H ) :   0.9805
B( 19-C , 35-H ) :   0.9584

MP2 TOTAL ENERGY:    -1274.345717620 Eh
FINAL SINGLE POINT ENERGY     -1274.345717619650

DIPOLE MOMENT
-------------
                                X             Y             Z
Electronic contribution:     10.31698      10.03644       8.86063
Nuclear contribution   :    -11.84758     -11.28137      -9.89284
                        -----------------------------------------
Total Dipole Moment    :     -1.53060      -1.24493      -1.03221
                        -----------------------------------------
Magnitude (a.u.)       :      2.22666
Magnitude (Debye)      :      5.65973

Rotational constants in cm-1:     0.010928     0.009242     0.006129
Rotational constants in MHz :   327.609908   277.081992   183.739117

                             ****ORCA TERMINATED NORMALLY****
TOTAL RUN TIME: 0 days 1 hours 40 minutes 30 seconds 198 msec
