                         Program Version 5.0.0 -  RELEASE  -
|  1> ! ri-mp2 cc-pvtz cc-pvtz/c TightSCF NoKeepInts
|  2>
|  3> %scf
|  4>   MaxCore 4096
|  5> end
|  6> *xyz  0  1
|  7>     C       14.8444936   14.0963640   15.9052901
|  8>     C       15.7473652   14.9767752   15.0163103
|  9>     O       16.3146695   16.0385685   15.8080591
| 10>     C       17.2789071   15.7715201   16.7384480
| 11>     O       17.8039236   14.6740446   16.8376806
| 12>     C       17.6924011   16.9411672   17.5889761
| 13>     C       17.2751076   18.2257955   17.4280740
| 14>     C       16.3164363   18.7820220   16.3947591
| 15>     N       17.7903246   19.2309613   18.2541334
| 16>     C       18.8150714   19.0653286   19.1476800
| 17>     S       19.4543300   20.3386100   19.9878015
| 18>     N       19.2820399   17.7862921   19.3093223
| 19>     C       18.6612600   16.5841082   18.7230423
| 20>     C       17.9629393   15.7621195   19.8036417
| 21>     C       18.2765449   14.4013587   19.9773688
| 22>     C       17.6347328   13.6384782   20.9673078
| 23>     C       16.6698010   14.2405323   21.7925155
| 24>     C       16.3516670   15.5945309   21.6207466
| 25>     O       15.4158572   16.1773412   22.4119480
| 26>     C       16.9918243   16.3511276   20.6342072
| 27>     H       15.4285895   13.5691607   16.6699438
| 28>     H       14.3304855   13.3418757   15.2977056
| 29>     H       14.0842317   14.7054828   16.4095447
| 30>     H       16.5395739   14.3687697   14.5582275
| 31>     H       15.1421483   15.4106829   14.2101504
| 32>     H       16.6753547   18.5727736   15.3793689
| 33>     H       16.1880308   19.8682072   16.4749285
| 34>     H       15.3232504   18.3287968   16.5043955
| 35>     H       17.4607280   20.1772678   18.1508101
| 36>     H       20.0159341   17.6839903   19.9983804
| 37>     H       19.4681685   15.9724891   18.2939893
| 38>     H       19.0097771   13.9287882   19.3282563
| 39>     H       17.8820846   12.5852144   21.0865530
| 40>     H       16.1702482   13.6545787   22.5566979
| 41>     H       15.1161503   15.5088057   23.0459489
| 42>     H       16.7325481   17.3980704   20.5217869
| 43> *
| 44>
| 45>                          ****END OF INPUT****

CARTESIAN COORDINATES (ANGSTROEM)
---------------------------------
  C     14.844494   14.096364   15.905290
  C     15.747365   14.976775   15.016310
  O     16.314670   16.038569   15.808059
  C     17.278907   15.771520   16.738448
  O     17.803924   14.674045   16.837681
  C     17.692401   16.941167   17.588976
  C     17.275108   18.225796   17.428074
  C     16.316436   18.782022   16.394759
  N     17.790325   19.230961   18.254133
  C     18.815071   19.065329   19.147680
  S     19.454330   20.338610   19.987801
  N     19.282040   17.786292   19.309322
  C     18.661260   16.584108   18.723042
  C     17.962939   15.762119   19.803642
  C     18.276545   14.401359   19.977369
  C     17.634733   13.638478   20.967308
  C     16.669801   14.240532   21.792515
  C     16.351667   15.594531   21.620747
  O     15.415857   16.177341   22.411948
  C     16.991824   16.351128   20.634207
  H     15.428589   13.569161   16.669944
  H     14.330485   13.341876   15.297706
  H     14.084232   14.705483   16.409545
  H     16.539574   14.368770   14.558227
  H     15.142148   15.410683   14.210150
  H     16.675355   18.572774   15.379369
  H     16.188031   19.868207   16.474929
  H     15.323250   18.328797   16.504396
  H     17.460728   20.177268   18.150810
  H     20.015934   17.683990   19.998380
  H     19.468169   15.972489   18.293989
  H     19.009777   13.928788   19.328256
  H     17.882085   12.585214   21.086553
  H     16.170248   13.654579   22.556698
  H     15.116150   15.508806   23.045949
  H     16.732548   17.398070   20.521787

 Total Charge           Charge          ....    0
 Multiplicity           Mult            ....    1
 Number of Electrons    NEL             ....  154
 Basis Dimension        Dim             ....  828

ORBITAL ENERGIES
----------------

  NO   OCC          E(Eh)            E(eV)
   0   2.0000     -91.888174     -2500.4043
   1   2.0000     -20.604309      -560.6717
   2   2.0000     -20.591069      -560.3115
   3   2.0000     -20.544493      -559.0441
   4   2.0000     -15.628771      -425.2805
   5   2.0000     -15.606619      -424.6777
   6   2.0000     -11.396883      -310.1250
   7   2.0000     -11.382851      -309.7431
   8   2.0000     -11.337604      -308.5119
   9   2.0000     -11.306862      -307.6754
  10   2.0000     -11.304921      -307.6226
  11   2.0000     -11.301505      -307.5296
  12   2.0000     -11.261099      -306.4301
  13   2.0000     -11.258719      -306.3653
  14   2.0000     -11.252828      -306.2050
  15   2.0000     -11.246991      -306.0462
  16   2.0000     -11.236655      -305.7649
  17   2.0000     -11.232857      -305.6616
  18   2.0000     -11.229698      -305.5756
  19   2.0000     -11.226101      -305.4777
  20   2.0000      -8.893231      -241.9971
  21   2.0000      -6.574807      -178.9096
  22   2.0000      -6.572802      -178.8550
  23   2.0000      -6.572215      -178.8391
  24   2.0000      -1.453629       -39.5553
  25   2.0000      -1.410808       -38.3900
  26   2.0000      -1.356870       -36.9223
  27   2.0000      -1.339615       -36.4528
  28   2.0000      -1.237039       -33.6615
  29   2.0000      -1.151595       -31.3365
  30   2.0000      -1.119155       -30.4537
  31   2.0000      -1.041717       -28.3466
  32   2.0000      -1.034146       -28.1405
  33   2.0000      -1.008921       -27.4541
  34   2.0000      -0.997175       -27.1345
  35   2.0000      -0.982637       -26.7389
  36   2.0000      -0.921107       -25.0646
  37   2.0000      -0.894808       -24.3490
  38   2.0000      -0.847785       -23.0694
  39   2.0000      -0.835032       -22.7224
  40   2.0000      -0.827238       -22.5103
  41   2.0000      -0.815755       -22.1978
  42   2.0000      -0.752900       -20.4875
  43   2.0000      -0.735453       -20.0127
  44   2.0000      -0.724349       -19.7105
  45   2.0000      -0.690429       -18.7875
  46   2.0000      -0.685590       -18.6559
  47   2.0000      -0.679138       -18.4803
  48   2.0000      -0.670888       -18.2558
  49   2.0000      -0.653125       -17.7724
  50   2.0000      -0.652073       -17.7438
  51   2.0000      -0.644156       -17.5284
  52   2.0000      -0.630490       -17.1565
  53   2.0000      -0.613196       -16.6859
  54   2.0000      -0.599935       -16.3251
  55   2.0000      -0.598961       -16.2986
  56   2.0000      -0.594473       -16.1764
  57   2.0000      -0.582499       -15.8506
  58   2.0000      -0.573221       -15.5981
  59   2.0000      -0.564576       -15.3629
  60   2.0000      -0.558581       -15.1998
  61   2.0000      -0.544597       -14.8192
  62   2.0000      -0.537798       -14.6342
  63   2.0000      -0.527015       -14.3408
  64   2.0000      -0.516243       -14.0477
  65   2.0000      -0.509126       -13.8540
  66   2.0000      -0.499222       -13.5845
  67   2.0000      -0.494983       -13.4692
  68   2.0000      -0.481163       -13.0931
  69   2.0000      -0.463581       -12.6147
  70   2.0000      -0.458214       -12.4686
  71   2.0000      -0.452152       -12.3037
  72   2.0000      -0.354411        -9.6440
  73   2.0000      -0.343556        -9.3486
  74   2.0000      -0.327239        -8.9046
  75   2.0000      -0.315591        -8.5877
  76   2.0000      -0.313093        -8.5197
  77   0.0000       0.075449         2.0531
  78   0.0000       0.114161         3.1065
  79   0.0000       0.121538         3.3072
  80   0.0000       0.136557         3.7159
  81   0.0000       0.141209         3.8425

MULLIKEN ATOMIC CHARGES
-----------------------
   0 C :   -0.297849
   1 C :    0.031679
   2 O :   -0.347018
   3 C :    0.458856
   4 O :   -0.439495
   5 C :   -0.178788
   6 C :    0.143797
   7 C :   -0.281702
   8 N :   -0.119723
   9 C :    0.201046
  10 S :   -0.438616
  11 N :   -0.196843
  12 C :    0.032873
  13 C :    0.060415
  14 C :   -0.162311
  15 C :   -0.134162
  16 C :   -0.278663
  17 C :    0.311774
  18 O :   -0.359247
  19 C :   -0.273861
  20 H :    0.123054
  21 H :    0.095355
  22 H :    0.093019
  23 H :    0.105123
  24 H :    0.107729
  25 H :    0.127705
  26 H :    0.100983
  27 H :    0.126382
  28 H :    0.196656
  29 H :    0.193515
  30 H :    0.153603
  31 H :    0.153561
  32 H :    0.158957
  33 H :    0.127837
  34 H :    0.240013
  35 H :    0.164346
Sum of atomic charges:    0.0000000

LOEWDIN ATOMIC CHARGES
----------------------
   0 C :    0.105801
   1 C :   -0.016714
   2 O :    0.304855
   3 C :   -0.413549
   4 O :    0.101508
   5 C :   -0.090705
   6 C :   -0.063220
   7 C :    0.125008
   8 N :    0.405114
   9 C :   -0.459272
  10 S :   -0.035504
  11 N :    0.398190
  12 C :   -0.046835
  13 C :   -0.038812
  14 C :    0.022187
  15 C :    0.040538
  16 C :   -0.002263
  17 C :   -0.192578
  18 O :    0.392940
  19 C :    0.028247
  20 H :   -0.023663
  21 H :   -0.026747
  22 H :   -0.029914
  23 H :   -0.027853
  24 H :   -0.025758
  25 H :   -0.008244
  26 H :   -0.021494
  27 H :   -0.009817
  28 H :   -0.059256
  29 H :   -0.063508
  30 H :   -0.005360
  31 H :   -0.025316
  32 H :   -0.021319
  33 H :   -0.036450
  34 H :   -0.154950
  35 H :   -0.025287

  Mayer bond orders larger than 0.100000
B(  0-C ,  1-C ) :   0.9629 B(  0-C , 20-H ) :   0.9731 B(  0-C , 21-H ) :   0.9761
B(  0-C , 22-H ) :   0.9768 B(  1-C ,  2-O ) :   0.8965 B(  1-C , 23-H ) :   0.9782
B(  1-C , 24-H ) :   0.9846 B(  2-O ,  3-C ) :   1.1614 B(  3-C ,  4-O ) :   1.9528
B(  3-C ,  5-C ) :   1.0740 B(  5-C ,  6-C ) :   1.6389 B(  5-C , 12-C ) :   0.9679
B(  6-C ,  7-C ) :   0.9572 B(  6-C ,  8-N ) :   1.1549 B(  7-C , 25-H ) :   0.9637
B(  7-C , 26-H ) :   0.9915 B(  7-C , 27-H ) :   0.9645 B(  8-N ,  9-C ) :   1.1760
B(  8-N , 28-H ) :   0.9485 B(  9-C , 10-S ) :   1.6114 B(  9-C , 11-N ) :   1.3055
B( 11-N , 12-C ) :   0.9925 B( 11-N , 29-H ) :   0.9519 B( 12-C , 13-C ) :   0.9461
B( 12-C , 30-H ) :   1.0012 B( 13-C , 14-C ) :   1.3746 B( 13-C , 19-C ) :   1.3690
B( 14-C , 15-C ) :   1.3945 B( 14-C , 31-H ) :   0.9649 B( 15-C , 16-C ) :   1.3621
B( 15-C , 32-H ) :   0.9715 B( 16-C , 17-C ) :   1.3318 B( 16-C , 33-H ) :   0.9861
B( 17-C , 18-O ) :   1.1079 B( 17-C , 19-C ) :   1.3793 B( 18-O , 34-H ) :   0.9806
B( 19-C , 35-H ) :   0.9584

MP2 TOTAL ENERGY:    -1274.349503762 Eh
FINAL SINGLE POINT ENERGY     -1274.349503761632

DIPOLE MOMENT
-------------
                                X             Y             Z
Electronic contribution:     10.85638       9.87293       9.80988
Nuclear contribution   :    -12.38793     -11.05635     -10.89288
                        -----------------------------------------
Total Dipole Moment    :     -1.53156      -1.18343      -1.08300
                        -----------------------------------------
Magnitude (a.u.)       :      2.21789
Magnitude (Debye)      :      5.63744

Rotational constants in cm-1:     0.010582     0.009089     0.005916
Rotational constants in MHz :   317.237312   272.481595   177.342861

                             ****ORCA TERMINATED NORMALLY****
TOTAL RUN TIME: 0 days 1 hours 53 minutes 4 seconds 760 msec
