                         Program Version 4.2.0 -  RELEASE  -
|  1> ! ri-mp2 cc-pvtz cc-pvtz/c TightSCF  NoKeepInts
|  2>
|  3> %scf
|  4>   MaxCore 4096
|  5> end
|  6> *xyz  0  1
|  7>     C       14.5681119   14.4200167   16.2635305
|  8>     C       15.6130503   15.3592366   16.8866680
|  9>     O       16.7867317   15.3059809   16.0542267
| 10>     C       18.0038399   15.5878091   16.6078562
| 11>     O       18.8453182   14.7150265   16.7176115
| 12>     C       18.0483602   16.8405527   17.4269112
| 13>     C       17.5200962   18.0179113   17.0130370
| 14>     C       16.8602212   18.3106114   15.6812876
| 15>     N       17.6418037   19.1541570   17.8169542
| 16>     C       18.3833110   19.2197083   18.9679431
| 17>     S       18.5510711   20.6302869   19.8141123
| 18>     N       18.9766764   18.0536655   19.3851287
| 19>     C       18.7699839   16.7276687   18.7701319
| 20>     C       17.9982812   15.8024314   19.7064610
| 21>     C       18.4377298   14.4834298   19.9211513
| 22>     C       17.7165600   13.6150183   20.7573015
| 23>     C       16.5427937   14.0673794   21.3834459
| 24>     C       16.0979394   15.3784263   21.1678606
| 25>     O       14.9570651   15.8144789   21.7582457
| 26>     C       16.8171417   16.2405003   20.3340740
| 27>     H       14.9607743   13.3972912   16.1979634
| 28>     H       14.3012749   14.7530367   15.2528889
| 29>     H       13.6561103   14.3991187   16.8723934
| 30>     H       15.2166430   16.3784354   16.9641137
| 31>     H       15.8474512   14.9959637   17.8969589
| 32>     H       17.1699626   17.5982213   14.9065079
| 33>     H       17.1315243   19.3071950   15.3106390
| 34>     H       15.7675937   18.2690964   15.7599896
| 35>     H       17.2229072   20.0225912   17.5229281
| 36>     H       19.4993809   18.1265277   20.2489248
| 37>     H       19.7600537   16.2852640   18.5850792
| 38>     H       19.3344045   14.1237990   19.4207908
| 39>     H       18.0653978   12.5950352   20.9102667
| 40>     H       15.9814238   13.3982243   22.0272461
| 41>     H       14.6431237   15.1069955   22.3418566
| 42>     H       16.4528877   17.2509087   20.1815141
| 43> *
| 44>
| 45>                          ****END OF INPUT****

CARTESIAN COORDINATES (ANGSTROEM)
---------------------------------
  C     14.568112   14.420017   16.263531
  C     15.613050   15.359237   16.886668
  O     16.786732   15.305981   16.054227
  C     18.003840   15.587809   16.607856
  O     18.845318   14.715027   16.717612
  C     18.048360   16.840553   17.426911
  C     17.520096   18.017911   17.013037
  C     16.860221   18.310611   15.681288
  N     17.641804   19.154157   17.816954
  C     18.383311   19.219708   18.967943
  S     18.551071   20.630287   19.814112
  N     18.976676   18.053666   19.385129
  C     18.769984   16.727669   18.770132
  C     17.998281   15.802431   19.706461
  C     18.437730   14.483430   19.921151
  C     17.716560   13.615018   20.757302
  C     16.542794   14.067379   21.383446
  C     16.097939   15.378426   21.167861
  O     14.957065   15.814479   21.758246
  C     16.817142   16.240500   20.334074
  H     14.960774   13.397291   16.197963
  H     14.301275   14.753037   15.252889
  H     13.656110   14.399119   16.872393
  H     15.216643   16.378435   16.964114
  H     15.847451   14.995964   17.896959
  H     17.169963   17.598221   14.906508
  H     17.131524   19.307195   15.310639
  H     15.767594   18.269096   15.759990
  H     17.222907   20.022591   17.522928
  H     19.499381   18.126528   20.248925
  H     19.760054   16.285264   18.585079
  H     19.334405   14.123799   19.420791
  H     18.065398   12.595035   20.910267
  H     15.981424   13.398224   22.027246
  H     14.643124   15.106996   22.341857
  H     16.452888   17.250909   20.181514

 Total Charge           Charge          ....    0
 Multiplicity           Mult            ....    1
 Number of Electrons    NEL             ....  154
 Basis Dimension        Dim             ....  828

ORBITAL ENERGIES
----------------

  NO   OCC          E(Eh)            E(eV)
   0   2.0000     -91.890927     -2500.4793
   1   2.0000     -20.599019      -560.5278
   2   2.0000     -20.590104      -560.2852
   3   2.0000     -20.554655      -559.3206
   4   2.0000     -15.629790      -425.3082
   5   2.0000     -15.610968      -424.7960
   6   2.0000     -11.395194      -310.0790
   7   2.0000     -11.387021      -309.8566
   8   2.0000     -11.334829      -308.4364
   9   2.0000     -11.315636      -307.9141
  10   2.0000     -11.311983      -307.8147
  11   2.0000     -11.302750      -307.5635
  12   2.0000     -11.265988      -306.5631
  13   2.0000     -11.262959      -306.4807
  14   2.0000     -11.261474      -306.4403
  15   2.0000     -11.255661      -306.2821
  16   2.0000     -11.245308      -306.0004
  17   2.0000     -11.241091      -305.8856
  18   2.0000     -11.238054      -305.8030
  19   2.0000     -11.231634      -305.6283
  20   2.0000      -8.896014      -242.0729
  21   2.0000      -6.577593      -178.9854
  22   2.0000      -6.575579      -178.9306
  23   2.0000      -6.574995      -178.9147
  24   2.0000      -1.450051       -39.4579
  25   2.0000      -1.418851       -38.6089
  26   2.0000      -1.359917       -37.0052
  27   2.0000      -1.341746       -36.5108
  28   2.0000      -1.240360       -33.7519
  29   2.0000      -1.160151       -31.5693
  30   2.0000      -1.124581       -30.6014
  31   2.0000      -1.047744       -28.5106
  32   2.0000      -1.037391       -28.2288
  33   2.0000      -1.017569       -27.6895
  34   2.0000      -1.003927       -27.3183
  35   2.0000      -0.988764       -26.9056
  36   2.0000      -0.926945       -25.2235
  37   2.0000      -0.877682       -23.8830
  38   2.0000      -0.854968       -23.2649
  39   2.0000      -0.842965       -22.9382
  40   2.0000      -0.836249       -22.7555
  41   2.0000      -0.835115       -22.7246
  42   2.0000      -0.756808       -20.5938
  43   2.0000      -0.738159       -20.0863
  44   2.0000      -0.731426       -19.9031
  45   2.0000      -0.696791       -18.9607
  46   2.0000      -0.688306       -18.7298
  47   2.0000      -0.682184       -18.5632
  48   2.0000      -0.676476       -18.4079
  49   2.0000      -0.662575       -18.0296
  50   2.0000      -0.652272       -17.7492
  51   2.0000      -0.648887       -17.6571
  52   2.0000      -0.641535       -17.4570
  53   2.0000      -0.610993       -16.6260
  54   2.0000      -0.607309       -16.5257
  55   2.0000      -0.603083       -16.4107
  56   2.0000      -0.601933       -16.3794
  57   2.0000      -0.584259       -15.8985
  58   2.0000      -0.577366       -15.7109
  59   2.0000      -0.566222       -15.4077
  60   2.0000      -0.559569       -15.2267
  61   2.0000      -0.558396       -15.1947
  62   2.0000      -0.544356       -14.8127
  63   2.0000      -0.525114       -14.2891
  64   2.0000      -0.517761       -14.0890
  65   2.0000      -0.515518       -14.0280
  66   2.0000      -0.502356       -13.6698
  67   2.0000      -0.498176       -13.5561
  68   2.0000      -0.490146       -13.3375
  69   2.0000      -0.468526       -12.7493
  70   2.0000      -0.459234       -12.4964
  71   2.0000      -0.452267       -12.3068
  72   2.0000      -0.358136        -9.7454
  73   2.0000      -0.350932        -9.5494
  74   2.0000      -0.330332        -8.9888
  75   2.0000      -0.323440        -8.8013
  76   2.0000      -0.318991        -8.6802
  77   0.0000       0.074815         2.0358
  78   0.0000       0.104335         2.8391
  79   0.0000       0.115686         3.1480
  80   0.0000       0.129713         3.5297
  81   0.0000       0.133579         3.6349

MULLIKEN ATOMIC CHARGES
-----------------------
   0 C :   -0.257674
   1 C :    0.021775
   2 O :   -0.340262
   3 C :    0.428357
   4 O :   -0.378051
   5 C :   -0.196128
   6 C :    0.126377
   7 C :   -0.306227
   8 N :   -0.130421
   9 C :    0.198116
  10 S :   -0.437638
  11 N :   -0.205470
  12 C :    0.059945
  13 C :    0.019943
  14 C :   -0.174119
  15 C :   -0.135182
  16 C :   -0.276978
  17 C :    0.317456
  18 O :   -0.358757
  19 C :   -0.276444
  20 H :    0.107893
  21 H :    0.096095
  22 H :    0.089746
  23 H :    0.086538
  24 H :    0.112013
  25 H :    0.136624
  26 H :    0.123156
  27 H :    0.119919
  28 H :    0.197184
  29 H :    0.195834
  30 H :    0.160921
  31 H :    0.166073
  32 H :    0.163115
  33 H :    0.132496
  34 H :    0.241559
  35 H :    0.172216
Sum of atomic charges:   -0.0000000

LOEWDIN ATOMIC CHARGES
----------------------
   0 C :    0.112221
   1 C :   -0.023549
   2 O :    0.293721
   3 C :   -0.419747
   4 O :    0.131348
   5 C :   -0.089345
   6 C :   -0.085311
   7 C :    0.127485
   8 N :    0.403333
   9 C :   -0.457599
  10 S :   -0.034970
  11 N :    0.397073
  12 C :   -0.045207
  13 C :   -0.044586
  14 C :    0.021275
  15 C :    0.043711
  16 C :   -0.001141
  17 C :   -0.195440
  18 O :    0.394240
  19 C :    0.027418
  20 H :   -0.021257
  21 H :   -0.027785
  22 H :   -0.025083
  23 H :   -0.039318
  24 H :   -0.025936
  25 H :   -0.006956
  26 H :   -0.013947
  27 H :   -0.016738
  28 H :   -0.057486
  29 H :   -0.063667
  30 H :   -0.003050
  31 H :   -0.022455
  32 H :   -0.018924
  33 H :   -0.034760
  34 H :   -0.153138
  35 H :   -0.024430

  Mayer bond orders larger than 0.100000
B(  0-C ,  1-C ) :   0.9841 B(  0-C , 20-H ) :   0.9778 B(  0-C , 21-H ) :   0.9798
B(  0-C , 22-H ) :   0.9762 B(  1-C ,  2-O ) :   0.8960 B(  1-C , 23-H ) :   0.9701
B(  1-C , 24-H ) :   0.9700 B(  2-O ,  3-C ) :   1.1483 B(  3-C ,  4-O ) :   2.0889
B(  3-C ,  5-C ) :   0.9557 B(  5-C ,  6-C ) :   1.6667 B(  5-C , 12-C ) :   0.9621
B(  6-C ,  7-C ) :   0.9459 B(  6-C ,  8-N ) :   1.1298 B(  7-C , 25-H ) :   0.9726
B(  7-C , 26-H ) :   0.9797 B(  7-C , 27-H ) :   0.9645 B(  8-N ,  9-C ) :   1.1870
B(  8-N , 28-H ) :   0.9511 B(  9-C , 10-S ) :   1.6140 B(  9-C , 11-N ) :   1.2943
B( 11-N , 12-C ) :   0.9952 B( 11-N , 29-H ) :   0.9510 B( 12-C , 13-C ) :   0.9408
B( 12-C , 30-H ) :   0.9980 B( 13-C , 14-C ) :   1.3868 B( 13-C , 19-C ) :   1.3554
B( 14-C , 15-C ) :   1.3956 B( 14-C , 31-H ) :   0.9602 B( 15-C , 16-C ) :   1.3644
B( 15-C , 32-H ) :   0.9704 B( 16-C , 17-C ) :   1.3285 B( 16-C , 33-H ) :   0.9844
B( 17-C , 18-O ) :   1.1111 B( 17-C , 19-C ) :   1.3697 B( 18-O , 34-H ) :   0.9792
B( 19-C , 35-H ) :   0.9588

MP2 TOTAL ENERGY:    -1274.331933265 Eh
FINAL SINGLE POINT ENERGY     -1274.331933265134

DIPOLE MOMENT
-------------
                                X             Y             Z
Electronic contribution:     10.99691       8.75494       7.36479
Nuclear contribution   :    -12.42384      -9.78043      -7.69527
                        -----------------------------------------
Total Dipole Moment    :     -1.42693      -1.02548      -0.33048
                        -----------------------------------------
Magnitude (a.u.)       :      1.78800
Magnitude (Debye)      :      4.54474

Rotational constants in cm-1:     0.011513     0.009237     0.006708
Rotational constants in MHz :   345.149893   276.914551   201.097269

                             ****ORCA TERMINATED NORMALLY****
TOTAL RUN TIME: 0 days 1 hours 45 minutes 8 seconds 473 msec
