                         Program Version 4.2.0 -  RELEASE  -
|  1> ! ri-mp2 cc-pvtz cc-pvtz/c TightSCF  NoKeepInts
|  2>
|  3> %scf
|  4>   MaxCore 4096
|  5> end
|  6> *xyz  0  1
|  7>     C       14.8517614   16.1971938   17.2542218
|  8>     C       15.6318004   14.8937957   16.9900049
|  9>     O       16.8105992   15.0274082   16.1555331
| 10>     C       17.9634729   15.7325658   16.4125666
| 11>     O       19.0381042   15.2259935   16.1493380
| 12>     C       17.8955019   16.8771408   17.3610204
| 13>     C       17.3977078   18.0765190   16.9849025
| 14>     C       16.8360475   18.4381261   15.6268441
| 15>     N       17.4495735   19.1584616   17.8658856
| 16>     C       18.0564355   19.1336872   19.0949530
| 17>     S       18.0935823   20.4669317   20.0722597
| 18>     N       18.6305844   17.9457461   19.4781162
| 19>     C       18.5892072   16.6852940   18.7091351
| 20>     C       17.9447691   15.5551943   19.5058962
| 21>     C       18.4559331   14.2480941   19.4053308
| 22>     C       17.8588286   13.1888442   20.1085554
| 23>     C       16.7385693   13.4367286   20.9196521
| 24>     C       16.2236575   14.7359762   21.0206597
| 25>     O       15.1338294   14.9766837   21.7915451
| 26>     C       16.8190578   15.7886475   20.3183984
| 27>     H       15.3268996   16.8169633   18.0205257
| 28>     H       13.8513164   15.9517539   17.6312949
| 29>     H       14.7196663   16.7736804   16.3323708
| 30>     H       15.9064556   14.4337902   17.9477528
| 31>     H       14.9516314   14.1926321   16.4893978
| 32>     H       16.6510124   17.5564473   15.0013233
| 33>     H       17.5383827   19.0798070   15.0797258
| 34>     H       15.8855407   18.9777964   15.7191754
| 35>     H       17.0562065   20.0456881   17.5936323
| 36>     H       19.0574887   17.9548307   20.3959538
| 37>     H       19.6291830   16.3931924   18.5000964
| 38>     H       19.3135363   14.0502997   18.7649549
| 39>     H       18.2631168   12.1817096   20.0190098
| 40>     H       16.2735202   12.6206208   21.4630744
| 41>     H       14.9068976   14.1493875   22.2429424
| 42>     H       16.3971228   16.7843685   20.4079508
| 43> *
| 44>
| 45>                          ****END OF INPUT****

CARTESIAN COORDINATES (ANGSTROEM)
---------------------------------
  C     14.851761   16.197194   17.254222
  C     15.631800   14.893796   16.990005
  O     16.810599   15.027408   16.155533
  C     17.963473   15.732566   16.412567
  O     19.038104   15.225993   16.149338
  C     17.895502   16.877141   17.361020
  C     17.397708   18.076519   16.984903
  C     16.836047   18.438126   15.626844
  N     17.449573   19.158462   17.865886
  C     18.056435   19.133687   19.094953
  S     18.093582   20.466932   20.072260
  N     18.630584   17.945746   19.478116
  C     18.589207   16.685294   18.709135
  C     17.944769   15.555194   19.505896
  C     18.455933   14.248094   19.405331
  C     17.858829   13.188844   20.108555
  C     16.738569   13.436729   20.919652
  C     16.223658   14.735976   21.020660
  O     15.133829   14.976684   21.791545
  C     16.819058   15.788647   20.318398
  H     15.326900   16.816963   18.020526
  H     13.851316   15.951754   17.631295
  H     14.719666   16.773680   16.332371
  H     15.906456   14.433790   17.947753
  H     14.951631   14.192632   16.489398
  H     16.651012   17.556447   15.001323
  H     17.538383   19.079807   15.079726
  H     15.885541   18.977796   15.719175
  H     17.056206   20.045688   17.593632
  H     19.057489   17.954831   20.395954
  H     19.629183   16.393192   18.500096
  H     19.313536   14.050300   18.764955
  H     18.263117   12.181710   20.019010
  H     16.273520   12.620621   21.463074
  H     14.906898   14.149387   22.242942
  H     16.397123   16.784368   20.407951

 Total Charge           Charge          ....    0
 Multiplicity           Mult            ....    1
 Number of Electrons    NEL             ....  154
 Basis Dimension        Dim             ....  828

ORBITAL ENERGIES
----------------

  NO   OCC          E(Eh)            E(eV)
   0   2.0000     -91.890191     -2500.4592
   1   2.0000     -20.603042      -560.6373
   2   2.0000     -20.592228      -560.3430
   3   2.0000     -20.551556      -559.2363
   4   2.0000     -15.626243      -425.2117
   5   2.0000     -15.612533      -424.8386
   6   2.0000     -11.397746      -310.1484
   7   2.0000     -11.387166      -309.8605
   8   2.0000     -11.326151      -308.2002
   9   2.0000     -11.320665      -308.0510
  10   2.0000     -11.316757      -307.9446
  11   2.0000     -11.304616      -307.6142
  12   2.0000     -11.267528      -306.6050
  13   2.0000     -11.265558      -306.5514
  14   2.0000     -11.261374      -306.4376
  15   2.0000     -11.260947      -306.4259
  16   2.0000     -11.250022      -306.1287
  17   2.0000     -11.245523      -306.0062
  18   2.0000     -11.242889      -305.9346
  19   2.0000     -11.233396      -305.6762
  20   2.0000      -8.895304      -242.0535
  21   2.0000      -6.576892      -178.9663
  22   2.0000      -6.574866      -178.9112
  23   2.0000      -6.574291      -178.8956
  24   2.0000      -1.442675       -39.2572
  25   2.0000      -1.422865       -38.7181
  26   2.0000      -1.354751       -36.8646
  27   2.0000      -1.339805       -36.4579
  28   2.0000      -1.240255       -33.7491
  29   2.0000      -1.164707       -31.6933
  30   2.0000      -1.126094       -30.6426
  31   2.0000      -1.050850       -28.5951
  32   2.0000      -1.037478       -28.2312
  33   2.0000      -1.022391       -27.8207
  34   2.0000      -1.005458       -27.3599
  35   2.0000      -0.990734       -26.9592
  36   2.0000      -0.929066       -25.2812
  37   2.0000      -0.895710       -24.3735
  38   2.0000      -0.852755       -23.2046
  39   2.0000      -0.842944       -22.9377
  40   2.0000      -0.840147       -22.8616
  41   2.0000      -0.831727       -22.6324
  42   2.0000      -0.750844       -20.4315
  43   2.0000      -0.736160       -20.0319
  44   2.0000      -0.729342       -19.8464
  45   2.0000      -0.700760       -19.0686
  46   2.0000      -0.689832       -18.7713
  47   2.0000      -0.678377       -18.4596
  48   2.0000      -0.675673       -18.3860
  49   2.0000      -0.662722       -18.0336
  50   2.0000      -0.655875       -17.8473
  51   2.0000      -0.645564       -17.5667
  52   2.0000      -0.640460       -17.4278
  53   2.0000      -0.615042       -16.7361
  54   2.0000      -0.608922       -16.5696
  55   2.0000      -0.607489       -16.5306
  56   2.0000      -0.604232       -16.4420
  57   2.0000      -0.590083       -16.0570
  58   2.0000      -0.582705       -15.8562
  59   2.0000      -0.578893       -15.7525
  60   2.0000      -0.567661       -15.4468
  61   2.0000      -0.556586       -15.1455
  62   2.0000      -0.539279       -14.6745
  63   2.0000      -0.533030       -14.5045
  64   2.0000      -0.523363       -14.2414
  65   2.0000      -0.514729       -14.0065
  66   2.0000      -0.504442       -13.7266
  67   2.0000      -0.497145       -13.5280
  68   2.0000      -0.489792       -13.3279
  69   2.0000      -0.464290       -12.6340
  70   2.0000      -0.455079       -12.3833
  71   2.0000      -0.447894       -12.1878
  72   2.0000      -0.355894        -9.6844
  73   2.0000      -0.354173        -9.6375
  74   2.0000      -0.330180        -8.9847
  75   2.0000      -0.328581        -8.9411
  76   2.0000      -0.318702        -8.6723
  77   0.0000       0.088732         2.4145
  78   0.0000       0.101672         2.7666
  79   0.0000       0.118379         3.2213
  80   0.0000       0.124327         3.3831
  81   0.0000       0.127853         3.4791

MULLIKEN ATOMIC CHARGES
-----------------------
   0 C :   -0.340236
   1 C :    0.039853
   2 O :   -0.342313
   3 C :    0.394136
   4 O :   -0.374606
   5 C :   -0.174405
   6 C :    0.128608
   7 C :   -0.330244
   8 N :   -0.136070
   9 C :    0.209855
  10 S :   -0.441523
  11 N :   -0.225766
  12 C :    0.095872
  13 C :   -0.001858
  14 C :   -0.201138
  15 C :   -0.132393
  16 C :   -0.276307
  17 C :    0.318224
  18 O :   -0.356541
  19 C :   -0.275689
  20 H :    0.112461
  21 H :    0.125435
  22 H :    0.105804
  23 H :    0.103052
  24 H :    0.126513
  25 H :    0.122282
  26 H :    0.150588
  27 H :    0.114088
  28 H :    0.196761
  29 H :    0.201622
  30 H :    0.165282
  31 H :    0.171402
  32 H :    0.165659
  33 H :    0.134116
  34 H :    0.242168
  35 H :    0.185307
Sum of atomic charges:    0.0000000

LOEWDIN ATOMIC CHARGES
----------------------
   0 C :    0.102889
   1 C :   -0.011885
   2 O :    0.286913
   3 C :   -0.416659
   4 O :    0.129034
   5 C :   -0.082619
   6 C :   -0.099656
   7 C :    0.124655
   8 N :    0.402734
   9 C :   -0.455214
  10 S :   -0.038007
  11 N :    0.397681
  12 C :   -0.044732
  13 C :   -0.044723
  14 C :    0.020648
  15 C :    0.044934
  16 C :   -0.000712
  17 C :   -0.194246
  18 O :    0.396426
  19 C :    0.027631
  20 H :   -0.035454
  21 H :   -0.020725
  22 H :   -0.030273
  23 H :   -0.029048
  24 H :   -0.019292
  25 H :   -0.010335
  26 H :   -0.008214
  27 H :   -0.017468
  28 H :   -0.057585
  29 H :   -0.064186
  30 H :   -0.002846
  31 H :   -0.021210
  32 H :   -0.017597
  33 H :   -0.033876
  34 H :   -0.152357
  35 H :   -0.024624

  Mayer bond orders larger than 0.100000
B(  0-C ,  1-C ) :   0.9560 B(  0-C , 20-H ) :   0.9704 B(  0-C , 21-H ) :   0.9783
B(  0-C , 22-H ) :   0.9759 B(  1-C ,  2-O ) :   0.9022 B(  1-C , 23-H ) :   0.9702
B(  1-C , 24-H ) :   0.9839 B(  2-O ,  3-C ) :   1.1690 B(  3-C ,  4-O ) :   2.1063
B(  3-C ,  5-C ) :   0.9164 B(  5-C ,  6-C ) :   1.7013 B(  5-C , 12-C ) :   0.9470
B(  6-C ,  7-C ) :   0.9516 B(  6-C ,  8-N ) :   1.1114 B(  7-C , 25-H ) :   0.9788
B(  7-C , 26-H ) :   0.9652 B(  7-C , 27-H ) :   0.9703 B(  8-N ,  9-C ) :   1.1990
B(  8-N , 28-H ) :   0.9518 B(  9-C , 10-S ) :   1.6097 B(  9-C , 11-N ) :   1.2834
B( 11-N , 12-C ) :   0.9966 B( 11-N , 29-H ) :   0.9473 B( 12-C , 13-C ) :   0.9399
B( 12-C , 30-H ) :   0.9978 B( 13-C , 14-C ) :   1.3900 B( 13-C , 19-C ) :   1.3405
B( 14-C , 15-C ) :   1.3997 B( 14-C , 31-H ) :   0.9610 B( 15-C , 16-C ) :   1.3588
B( 15-C , 32-H ) :   0.9696 B( 16-C , 17-C ) :   1.3300 B( 16-C , 33-H ) :   0.9841
B( 17-C , 18-O ) :   1.1127 B( 17-C , 19-C ) :   1.3655 B( 18-O , 34-H ) :   0.9786
B( 19-C , 35-H ) :   0.9513

MP2 TOTAL ENERGY:    -1274.325224446 Eh
FINAL SINGLE POINT ENERGY     -1274.325224446365

DIPOLE MOMENT
-------------
                                X             Y             Z
Electronic contribution:      9.44374       5.25215       5.86502
Nuclear contribution   :    -10.88285      -6.54100      -6.08153
                        -----------------------------------------
Total Dipole Moment    :     -1.43911      -1.28885      -0.21652
                        -----------------------------------------
Magnitude (a.u.)       :      1.94397
Magnitude (Debye)      :      4.94119

Rotational constants in cm-1:     0.012553     0.009261     0.006956
Rotational constants in MHz :   376.334776   277.652468   208.533397

                             ****ORCA TERMINATED NORMALLY****
TOTAL RUN TIME: 0 days 1 hours 58 minutes 20 seconds 549 msec
