                         Program Version 4.2.0 -  RELEASE  -
|  1> ! ri-mp2 cc-pvtz cc-pvtz/c TightSCF  NoKeepInts
|  2>
|  3> %scf
|  4>   MaxCore 4096
|  5> end
|  6> *xyz  0  1
|  7>     C       14.9223792   14.2775085   16.6420458
|  8>     C       16.4133564   13.9244661   16.4388384
|  9>     O       17.3148806   15.0513770   16.5666513
| 10>     C       16.9436063   16.3649881   16.4559537
| 11>     O       16.1277150   16.7533163   15.6382974
| 12>     C       17.6791946   17.2548064   17.4198163
| 13>     C       17.5641597   18.6070208   17.3964936
| 14>     C       16.7353906   19.4404041   16.4424856
| 15>     N       18.2789671   19.3881105   18.3092707
| 16>     C       19.1740670   18.9044029   19.2253402
| 17>     S       20.0252044   19.9056858   20.2298341
| 18>     N       19.3303444   17.5427710   19.2695521
| 19>     C       18.5515750   16.5683490   18.4841648
| 20>     C       17.7246352   15.6935537   19.4223301
| 21>     C       18.0777044   14.3479171   19.6364407
| 22>     C       17.3099910   13.5339159   20.4861970
| 23>     C       16.1816647   14.0703269   21.1296333
| 24>     C       15.8314129   15.4118407   20.9241444
| 25>     O       14.7430333   15.9328190   21.5443657
| 26>     C       16.5974390   16.2195562   20.0781595
| 27>     H       14.7784431   14.8657088   17.5573140
| 28>     H       14.3283351   13.3605985   16.7353244
| 29>     H       14.5214679   14.8401128   15.7901029
| 30>     H       16.7042674   13.1580504   17.1686826
| 31>     H       16.5297836   13.4861620   15.4391837
| 32>     H       17.0197884   19.2340813   15.4027551
| 33>     H       16.8456237   20.5186306   16.6068623
| 34>     H       15.6701639   19.1962350   16.5440819
| 35>     H       18.1771681   20.3902987   18.2922631
| 36>     H       19.9671954   17.2144586   19.9839921
| 37>     H       19.2711507   15.9268819   17.9561104
| 38>     H       18.9468616   13.9297428   19.1356954
| 39>     H       17.5902937   12.4939660   20.6447907
| 40>     H       15.5856523   13.4459712   21.7871795
| 41>     H       14.3712670   15.2411738   22.1121324
| 42>     H       16.3128174   17.2567916   19.9375146
| 43> *
| 44>
| 45>                          ****END OF INPUT****

CARTESIAN COORDINATES (ANGSTROEM)
---------------------------------
  C     14.922379   14.277508   16.642046
  C     16.413356   13.924466   16.438838
  O     17.314881   15.051377   16.566651
  C     16.943606   16.364988   16.455954
  O     16.127715   16.753316   15.638297
  C     17.679195   17.254806   17.419816
  C     17.564160   18.607021   17.396494
  C     16.735391   19.440404   16.442486
  N     18.278967   19.388110   18.309271
  C     19.174067   18.904403   19.225340
  S     20.025204   19.905686   20.229834
  N     19.330344   17.542771   19.269552
  C     18.551575   16.568349   18.484165
  C     17.724635   15.693554   19.422330
  C     18.077704   14.347917   19.636441
  C     17.309991   13.533916   20.486197
  C     16.181665   14.070327   21.129633
  C     15.831413   15.411841   20.924144
  O     14.743033   15.932819   21.544366
  C     16.597439   16.219556   20.078160
  H     14.778443   14.865709   17.557314
  H     14.328335   13.360599   16.735324
  H     14.521468   14.840113   15.790103
  H     16.704267   13.158050   17.168683
  H     16.529784   13.486162   15.439184
  H     17.019788   19.234081   15.402755
  H     16.845624   20.518631   16.606862
  H     15.670164   19.196235   16.544082
  H     18.177168   20.390299   18.292263
  H     19.967195   17.214459   19.983992
  H     19.271151   15.926882   17.956110
  H     18.946862   13.929743   19.135695
  H     17.590294   12.493966   20.644791
  H     15.585652   13.445971   21.787180
  H     14.371267   15.241174   22.112132
  H     16.312817   17.256792   19.937515

 Total Charge           Charge          ....    0
 Multiplicity           Mult            ....    1
 Number of Electrons    NEL             ....  154
 Basis Dimension        Dim             ....  828

ORBITAL ENERGIES
----------------

  NO   OCC          E(Eh)            E(eV)
   0   2.0000     -91.888747     -2500.4199
   1   2.0000     -20.599123      -560.5306
   2   2.0000     -20.592471      -560.3496
   3   2.0000     -20.541262      -558.9562
   4   2.0000     -15.628752      -425.2800
   5   2.0000     -15.608302      -424.7235
   6   2.0000     -11.394843      -310.0694
   7   2.0000     -11.383970      -309.7736
   8   2.0000     -11.335555      -308.4561
   9   2.0000     -11.316534      -307.9386
  10   2.0000     -11.308875      -307.7301
  11   2.0000     -11.300068      -307.4905
  12   2.0000     -11.262182      -306.4595
  13   2.0000     -11.258174      -306.3505
  14   2.0000     -11.257925      -306.3437
  15   2.0000     -11.251849      -306.1784
  16   2.0000     -11.245664      -306.0101
  17   2.0000     -11.240687      -305.8746
  18   2.0000     -11.240618      -305.8728
  19   2.0000     -11.223151      -305.3975
  20   2.0000      -8.893817      -242.0131
  21   2.0000      -6.575394      -178.9256
  22   2.0000      -6.573387      -178.8709
  23   2.0000      -6.572802      -178.8550
  24   2.0000      -1.443241       -39.2726
  25   2.0000      -1.418801       -38.6075
  26   2.0000      -1.351904       -36.7872
  27   2.0000      -1.339826       -36.4585
  28   2.0000      -1.238563       -33.7030
  29   2.0000      -1.159881       -31.5620
  30   2.0000      -1.120354       -30.4864
  31   2.0000      -1.043997       -28.4086
  32   2.0000      -1.033784       -28.1307
  33   2.0000      -1.017750       -27.6944
  34   2.0000      -0.995971       -27.1018
  35   2.0000      -0.984344       -26.7854
  36   2.0000      -0.923162       -25.1205
  37   2.0000      -0.897452       -24.4209
  38   2.0000      -0.847555       -23.0631
  39   2.0000      -0.839577       -22.8461
  40   2.0000      -0.836389       -22.7593
  41   2.0000      -0.817594       -22.2479
  42   2.0000      -0.744528       -20.2596
  43   2.0000      -0.732765       -19.9395
  44   2.0000      -0.720644       -19.6097
  45   2.0000      -0.697792       -18.9879
  46   2.0000      -0.688396       -18.7322
  47   2.0000      -0.674465       -18.3531
  48   2.0000      -0.671664       -18.2769
  49   2.0000      -0.658821       -17.9274
  50   2.0000      -0.652257       -17.7488
  51   2.0000      -0.642541       -17.4844
  52   2.0000      -0.636282       -17.3141
  53   2.0000      -0.616861       -16.7857
  54   2.0000      -0.609317       -16.5804
  55   2.0000      -0.602092       -16.3838
  56   2.0000      -0.599628       -16.3167
  57   2.0000      -0.579203       -15.7609
  58   2.0000      -0.570995       -15.5376
  59   2.0000      -0.567154       -15.4331
  60   2.0000      -0.555476       -15.1153
  61   2.0000      -0.541188       -14.7265
  62   2.0000      -0.534823       -14.5533
  63   2.0000      -0.526898       -14.3376
  64   2.0000      -0.520877       -14.1738
  65   2.0000      -0.514006       -13.9868
  66   2.0000      -0.501765       -13.6537
  67   2.0000      -0.498038       -13.5523
  68   2.0000      -0.487502       -13.2656
  69   2.0000      -0.463832       -12.6215
  70   2.0000      -0.453726       -12.3465
  71   2.0000      -0.441532       -12.0147
  72   2.0000      -0.353785        -9.6270
  73   2.0000      -0.351461        -9.5637
  74   2.0000      -0.328581        -8.9411
  75   2.0000      -0.323990        -8.8162
  76   2.0000      -0.316398        -8.6096
  77   0.0000       0.075937         2.0663
  78   0.0000       0.102668         2.7937
  79   0.0000       0.123902         3.3715
  80   0.0000       0.131712         3.5841
  81   0.0000       0.136990         3.7277

MULLIKEN ATOMIC CHARGES
-----------------------
   0 C :   -0.313609
   1 C :    0.040545
   2 O :   -0.373368
   3 C :    0.463902
   4 O :   -0.423794
   5 C :   -0.242317
   6 C :    0.161153
   7 C :   -0.271449
   8 N :   -0.121764
   9 C :    0.213999
  10 S :   -0.441458
  11 N :   -0.209302
  12 C :    0.078569
  13 C :    0.059795
  14 C :   -0.204286
  15 C :   -0.124567
  16 C :   -0.280388
  17 C :    0.321754
  18 O :   -0.357947
  19 C :   -0.277266
  20 H :    0.104224
  21 H :    0.098470
  22 H :    0.126447
  23 H :    0.103091
  24 H :    0.111544
  25 H :    0.131869
  26 H :    0.095179
  27 H :    0.130873
  28 H :    0.196911
  29 H :    0.195842
  30 H :    0.149364
  31 H :    0.154069
  32 H :    0.163616
  33 H :    0.131673
  34 H :    0.241219
  35 H :    0.167407
Sum of atomic charges:   -0.0000000

LOEWDIN ATOMIC CHARGES
----------------------
   0 C :    0.104860
   1 C :   -0.010599
   2 O :    0.294881
   3 C :   -0.416376
   4 O :    0.105514
   5 C :   -0.095891
   6 C :   -0.059339
   7 C :    0.131463
   8 N :    0.406623
   9 C :   -0.455599
  10 S :   -0.036381
  11 N :    0.396128
  12 C :   -0.051956
  13 C :   -0.038104
  14 C :    0.015435
  15 C :    0.039277
  16 C :   -0.002142
  17 C :   -0.189901
  18 O :    0.395942
  19 C :    0.030830
  20 H :   -0.027550
  21 H :   -0.026339
  22 H :   -0.025178
  23 H :   -0.028298
  24 H :   -0.028640
  25 H :   -0.003687
  26 H :   -0.023497
  27 H :   -0.004941
  28 H :   -0.057617
  29 H :   -0.064792
  30 H :   -0.011211
  31 H :   -0.029629
  32 H :   -0.020939
  33 H :   -0.035210
  34 H :   -0.153375
  35 H :   -0.023763

  Mayer bond orders larger than 0.100000
B(  0-C ,  1-C ) :   0.9628 B(  0-C , 20-H ) :   0.9726 B(  0-C , 21-H ) :   0.9761
B(  0-C , 22-H ) :   0.9723 B(  1-C ,  2-O ) :   0.8915 B(  1-C , 23-H ) :   0.9775
B(  1-C , 24-H ) :   0.9846 B(  2-O ,  3-C ) :   1.1464 B(  3-C ,  4-O ) :   1.9908
B(  3-C ,  5-C ) :   1.0460 B(  5-C ,  6-C ) :   1.6503 B(  5-C , 12-C ) :   0.9697
B(  6-C ,  7-C ) :   0.9658 B(  6-C ,  8-N ) :   1.1638 B(  7-C , 25-H ) :   0.9604
B(  7-C , 26-H ) :   0.9904 B(  7-C , 27-H ) :   0.9603 B(  8-N ,  9-C ) :   1.1849
B(  8-N , 28-H ) :   0.9478 B(  9-C , 10-S ) :   1.6042 B(  9-C , 11-N ) :   1.3075
B( 11-N , 12-C ) :   0.9832 B( 11-N , 29-H ) :   0.9511 B( 12-C , 13-C ) :   0.9376
B( 12-C , 30-H ) :   1.0016 B( 13-C , 14-C ) :   1.3497 B( 13-C , 19-C ) :   1.3781
B( 14-C , 15-C ) :   1.3858 B( 14-C , 31-H ) :   0.9721 B( 15-C , 16-C ) :   1.3639
B( 15-C , 32-H ) :   0.9698 B( 16-C , 17-C ) :   1.3311 B( 16-C , 33-H ) :   0.9844
B( 17-C , 18-O ) :   1.1090 B( 17-C , 19-C ) :   1.3663 B( 18-O , 34-H ) :   0.9794
B( 19-C , 35-H ) :   0.9590

MP2 TOTAL ENERGY:    -1274.341314378 Eh
FINAL SINGLE POINT ENERGY     -1274.341314378425

DIPOLE MOMENT
-------------
                                X             Y             Z
Electronic contribution:     10.18923       9.76285       6.78695
Nuclear contribution   :    -11.20480     -11.52656      -6.98026
                        -----------------------------------------
Total Dipole Moment    :     -1.01557      -1.76372      -0.19330
                        -----------------------------------------
Magnitude (a.u.)       :      2.04437
Magnitude (Debye)      :      5.19637

Rotational constants in cm-1:     0.012618     0.008646     0.006372
Rotational constants in MHz :   378.274049   259.185744   191.013831

                             ****ORCA TERMINATED NORMALLY****
TOTAL RUN TIME: 0 days 1 hours 48 minutes 9 seconds 797 msec
