                         Program Version 4.2.0 -  RELEASE  -
|  1> ! ri-mp2 cc-pvtz cc-pvtz/c TightSCF  NoKeepInts
|  2>
|  3> %scf
|  4>   MaxCore 4096
|  5> end
|  6> *xyz  0  1
|  7>     C       15.0923170   15.0478332   16.9570022
|  8>     C       16.3193186   14.1280409   16.7488074
|  9>     O       17.5485370   14.8322006   16.4341332
| 10>     C       17.5624927   16.1549129   16.0975650
| 11>     O       17.0920518   16.5182484   15.0342717
| 12>     C       17.7933762   17.0664769   17.2737545
| 13>     C       17.4401368   18.3773725   17.2586582
| 14>     C       16.6780321   19.1121800   16.1769113
| 15>     N       17.8283971   19.2173028   18.3071594
| 16>     C       18.7406927   18.8817246   19.2725199
| 17>     S       19.2963529   19.9827557   20.3744117
| 18>     N       19.1790015   17.5814892   19.2703993
| 19>     C       18.5809003   16.4979920   18.4686125
| 20>     C       17.7534470   15.6021702   19.3853683
| 21>     C       18.1491625   14.2722487   19.6236195
| 22>     C       17.4001461   13.4447465   20.4771061
| 23>     C       16.2505452   13.9530779   21.1052585
| 24>     C       15.8635668   15.2818815   20.8849356
| 25>     O       14.7560061   15.7772448   21.4917007
| 26>     C       16.6120201   16.1032717   20.0365131
| 27>     H       15.2706268   15.8000179   17.7314679
| 28>     H       14.2261148   14.4514013   17.2677086
| 29>     H       14.8212687   15.5611518   16.0257899
| 30>     H       16.4698254   13.5162493   17.6465442
| 31>     H       16.0923520   13.4389963   15.9249720
| 32>     H       17.2721317   19.1637746   15.2553962
| 33>     H       16.4123138   20.1371437   16.4607782
| 34>     H       15.7457757   18.5861387   15.9351449
| 35>     H       17.5282958   20.1791732   18.3111593
| 36>     H       19.8324511   17.3561216   20.0094916
| 37>     H       19.4056878   15.8972839   18.0598810
| 38>     H       19.0368187   13.8751899   19.1378613
| 39>     H       17.7122223   12.4161861   20.6510136
| 40>     H       15.6685802   13.3179234   21.7651970
| 41>     H       14.4148176   15.0902438   22.0840476
| 42>     H       16.3012172   17.1318334   19.8888387
| 43> *
| 44>
| 45>                          ****END OF INPUT****

CARTESIAN COORDINATES (ANGSTROEM)
---------------------------------
  C     15.092317   15.047833   16.957002
  C     16.319319   14.128041   16.748807
  O     17.548537   14.832201   16.434133
  C     17.562493   16.154913   16.097565
  O     17.092052   16.518248   15.034272
  C     17.793376   17.066477   17.273754
  C     17.440137   18.377372   17.258658
  C     16.678032   19.112180   16.176911
  N     17.828397   19.217303   18.307159
  C     18.740693   18.881725   19.272520
  S     19.296353   19.982756   20.374412
  N     19.179001   17.581489   19.270399
  C     18.580900   16.497992   18.468612
  C     17.753447   15.602170   19.385368
  C     18.149162   14.272249   19.623620
  C     17.400146   13.444746   20.477106
  C     16.250545   13.953078   21.105259
  C     15.863567   15.281882   20.884936
  O     14.756006   15.777245   21.491701
  C     16.612020   16.103272   20.036513
  H     15.270627   15.800018   17.731468
  H     14.226115   14.451401   17.267709
  H     14.821269   15.561152   16.025790
  H     16.469825   13.516249   17.646544
  H     16.092352   13.438996   15.924972
  H     17.272132   19.163775   15.255396
  H     16.412314   20.137144   16.460778
  H     15.745776   18.586139   15.935145
  H     17.528296   20.179173   18.311159
  H     19.832451   17.356122   20.009492
  H     19.405688   15.897284   18.059881
  H     19.036819   13.875190   19.137861
  H     17.712222   12.416186   20.651014
  H     15.668580   13.317923   21.765197
  H     14.414818   15.090244   22.084048
  H     16.301217   17.131833   19.888839

 Total Charge           Charge          ....    0
 Multiplicity           Mult            ....    1
 Number of Electrons    NEL             ....  154
 Basis Dimension        Dim             ....  828

ORBITAL ENERGIES
----------------

  NO   OCC          E(Eh)            E(eV)
   0   2.0000     -91.891099     -2500.4839
   1   2.0000     -20.601303      -560.5899
   2   2.0000     -20.578570      -559.9713
   3   2.0000     -20.548786      -559.1609
   4   2.0000     -15.631132      -425.3447
   5   2.0000     -15.609924      -424.7676
   6   2.0000     -11.393704      -310.0385
   7   2.0000     -11.385681      -309.8201
   8   2.0000     -11.336957      -308.4943
   9   2.0000     -11.318749      -307.9988
  10   2.0000     -11.312712      -307.8345
  11   2.0000     -11.299040      -307.4625
  12   2.0000     -11.263913      -306.5067
  13   2.0000     -11.259829      -306.3955
  14   2.0000     -11.259714      -306.3924
  15   2.0000     -11.253887      -306.2338
  16   2.0000     -11.248167      -306.0782
  17   2.0000     -11.243058      -305.9392
  18   2.0000     -11.242475      -305.9233
  19   2.0000     -11.225696      -305.4667
  20   2.0000      -8.896122      -242.0758
  21   2.0000      -6.577687      -178.9880
  22   2.0000      -6.575694      -178.9337
  23   2.0000      -6.575097      -178.9175
  24   2.0000      -1.443421       -39.2775
  25   2.0000      -1.421009       -38.6676
  26   2.0000      -1.349780       -36.7294
  27   2.0000      -1.342345       -36.5271
  28   2.0000      -1.240769       -33.7630
  29   2.0000      -1.161657       -31.6103
  30   2.0000      -1.121386       -30.5145
  31   2.0000      -1.046030       -28.4639
  32   2.0000      -1.030565       -28.0431
  33   2.0000      -1.020202       -27.7611
  34   2.0000      -0.999624       -27.2011
  35   2.0000      -0.986926       -26.8556
  36   2.0000      -0.925570       -25.1860
  37   2.0000      -0.896455       -24.3938
  38   2.0000      -0.849094       -23.1050
  39   2.0000      -0.843540       -22.9539
  40   2.0000      -0.838816       -22.8253
  41   2.0000      -0.819707       -22.3054
  42   2.0000      -0.744984       -20.2720
  43   2.0000      -0.735139       -20.0041
  44   2.0000      -0.720684       -19.6108
  45   2.0000      -0.700278       -19.0555
  46   2.0000      -0.691463       -18.8157
  47   2.0000      -0.672575       -18.3017
  48   2.0000      -0.671593       -18.2750
  49   2.0000      -0.660107       -17.9624
  50   2.0000      -0.654395       -17.8070
  51   2.0000      -0.645586       -17.5673
  52   2.0000      -0.636850       -17.3296
  53   2.0000      -0.627549       -17.0765
  54   2.0000      -0.611587       -16.6421
  55   2.0000      -0.603670       -16.4267
  56   2.0000      -0.601387       -16.3646
  57   2.0000      -0.581313       -15.8183
  58   2.0000      -0.572759       -15.5856
  59   2.0000      -0.565948       -15.4002
  60   2.0000      -0.545585       -14.8461
  61   2.0000      -0.544321       -14.8117
  62   2.0000      -0.534952       -14.5568
  63   2.0000      -0.531483       -14.4624
  64   2.0000      -0.529078       -14.3969
  65   2.0000      -0.516210       -14.0468
  66   2.0000      -0.504803       -13.7364
  67   2.0000      -0.494380       -13.4528
  68   2.0000      -0.483393       -13.1538
  69   2.0000      -0.465166       -12.6578
  70   2.0000      -0.453750       -12.3472
  71   2.0000      -0.443097       -12.0573
  72   2.0000      -0.357211        -9.7202
  73   2.0000      -0.352887        -9.6026
  74   2.0000      -0.330599        -8.9961
  75   2.0000      -0.326351        -8.8804
  76   2.0000      -0.318204        -8.6588
  77   0.0000       0.068096         1.8530
  78   0.0000       0.101953         2.7743
  79   0.0000       0.120995         3.2924
  80   0.0000       0.128167         3.4876
  81   0.0000       0.133042         3.6203

MULLIKEN ATOMIC CHARGES
-----------------------
   0 C :   -0.342717
   1 C :    0.041722
   2 O :   -0.399781
   3 C :    0.520349
   4 O :   -0.408612
   5 C :   -0.281587
   6 C :    0.161269
   7 C :   -0.272170
   8 N :   -0.124109
   9 C :    0.204973
  10 S :   -0.434550
  11 N :   -0.195902
  12 C :    0.049242
  13 C :    0.077524
  14 C :   -0.193447
  15 C :   -0.130891
  16 C :   -0.276115
  17 C :    0.325636
  18 O :   -0.357512
  19 C :   -0.308413
  20 H :    0.106434
  21 H :    0.112902
  22 H :    0.123596
  23 H :    0.113566
  24 H :    0.119972
  25 H :    0.137514
  26 H :    0.094817
  27 H :    0.127319
  28 H :    0.198141
  29 H :    0.192293
  30 H :    0.150085
  31 H :    0.152574
  32 H :    0.165856
  33 H :    0.133549
  34 H :    0.241574
  35 H :    0.174901
Sum of atomic charges:   -0.0000000

LOEWDIN ATOMIC CHARGES
----------------------
   0 C :    0.105944
   1 C :   -0.006576
   2 O :    0.276488
   3 C :   -0.422504
   4 O :    0.122226
   5 C :   -0.098619
   6 C :   -0.061152
   7 C :    0.130846
   8 N :    0.406707
   9 C :   -0.457838
  10 S :   -0.031945
  11 N :    0.396525
  12 C :   -0.052579
  13 C :   -0.038411
  14 C :    0.017039
  15 C :    0.039692
  16 C :   -0.001930
  17 C :   -0.190294
  18 O :    0.396377
  19 C :    0.033780
  20 H :   -0.035488
  21 H :   -0.022149
  22 H :   -0.027267
  23 H :   -0.028952
  24 H :   -0.027620
  25 H :   -0.002900
  26 H :   -0.023099
  27 H :   -0.006581
  28 H :   -0.057640
  29 H :   -0.064949
  30 H :   -0.006585
  31 H :   -0.028312
  32 H :   -0.020289
  33 H :   -0.034541
  34 H :   -0.152808
  35 H :   -0.024597

  Mayer bond orders larger than 0.100000
B(  0-C ,  1-C ) :   0.9594 B(  0-C , 20-H ) :   0.9698 B(  0-C , 21-H ) :   0.9762
B(  0-C , 22-H ) :   0.9720 B(  1-C ,  2-O ) :   0.8798 B(  1-C , 23-H ) :   0.9724
B(  1-C , 24-H ) :   0.9864 B(  2-O ,  3-C ) :   1.0996 B(  3-C ,  4-O ) :   2.0200
B(  3-C ,  5-C ) :   1.0455 B(  5-C ,  6-C ) :   1.6542 B(  5-C , 12-C ) :   0.9705
B(  6-C ,  7-C ) :   0.9676 B(  6-C ,  8-N ) :   1.1507 B(  7-C , 25-H ) :   0.9571
B(  7-C , 26-H ) :   0.9884 B(  7-C , 27-H ) :   0.9653 B(  8-N ,  9-C ) :   1.1790
B(  8-N , 28-H ) :   0.9484 B(  9-C , 10-S ) :   1.6169 B(  9-C , 11-N ) :   1.2998
B( 11-N , 12-C ) :   0.9844 B( 11-N , 29-H ) :   0.9536 B( 12-C , 13-C ) :   0.9406
B( 12-C , 30-H ) :   1.0038 B( 13-C , 14-C ) :   1.3505 B( 13-C , 19-C ) :   1.3595
B( 14-C , 15-C ) :   1.3863 B( 14-C , 31-H ) :   0.9736 B( 15-C , 16-C ) :   1.3625
B( 15-C , 32-H ) :   0.9696 B( 16-C , 17-C ) :   1.3291 B( 16-C , 33-H ) :   0.9837
B( 17-C , 18-O ) :   1.1133 B( 17-C , 19-C ) :   1.3686 B( 18-O , 34-H ) :   0.9794
B( 19-C , 35-H ) :   0.9573

MP2 TOTAL ENERGY:    -1274.325857783 Eh
FINAL SINGLE POINT ENERGY     -1274.325857783323

DIPOLE MOMENT
-------------
                                X             Y             Z
Electronic contribution:     10.09845       7.86416       5.57207
Nuclear contribution   :    -11.22046      -9.43382      -5.38687
                        -----------------------------------------
Total Dipole Moment    :     -1.12200      -1.56966       0.18521
                        -----------------------------------------
Magnitude (a.u.)       :      1.93830
Magnitude (Debye)      :      4.92678

Rotational constants in cm-1:     0.012035     0.009689     0.006710
Rotational constants in MHz :   360.786638   290.463766   201.158170

                             ****ORCA TERMINATED NORMALLY****
TOTAL RUN TIME: 0 days 2 hours 22 minutes 18 seconds 733 msec
