                         Program Version 4.2.0 -  RELEASE  -
|  1> ! ri-mp2 cc-pvtz cc-pvtz/c TightSCF  NoKeepInts
|  2>
|  3> %scf
|  4>   MaxCore 4096
|  5> end
|  6> *xyz  0  1
|  7>     C       15.4354462   14.1813751   17.3471380
|  8>     C       16.3794424   14.1558356   16.1334052
|  9>     O       17.5452511   14.9687775   16.3890659
| 10>     C       17.4880164   16.2990574   16.0804473
| 11>     O       16.9377748   16.6748305   15.0596340
| 12>     C       17.7097410   17.1870941   17.2749460
| 13>     C       17.3313613   18.4916992   17.2973131
| 14>     C       16.5463996   19.2436424   16.2436601
| 15>     N       17.7223076   19.3130465   18.3598812
| 16>     C       18.6689517   18.9759279   19.2911632
| 17>     S       19.2371527   20.0650907   20.3987230
| 18>     N       19.1347581   17.6862157   19.2442557
| 19>     C       18.5220906   16.6082425   18.4465324
| 20>     C       17.7117927   15.7131908   19.3778304
| 21>     C       18.1862941   14.4314946   19.7159143
| 22>     C       17.4733368   13.6181583   20.6132059
| 23>     C       16.2767823   14.0905214   21.1791983
| 24>     C       15.8053852   15.3690644   20.8509097
| 25>     O       14.6516686   15.8289599   21.3968144
| 26>     C       16.5189556   16.1777973   19.9610112
| 27>     H       15.9133894   13.7246137   18.2196743
| 28>     H       14.5221908   13.6143540   17.1307152
| 29>     H       15.1446970   15.2088217   17.5975220
| 30>     H       16.6979601   13.1192263   15.9647429
| 31>     H       15.8493742   14.4873812   15.2300257
| 32>     H       15.6091636   18.7210459   16.0139388
| 33>     H       17.1206266   19.3110347   15.3107434
| 34>     H       16.2865998   20.2638337   16.5494044
| 35>     H       17.4014052   20.2674486   18.3952506
| 36>     H       19.8130722   17.4571927   19.9592228
| 37>     H       19.3368963   16.0074013   18.0185435
| 38>     H       19.1126153   14.0643325   19.2822005
| 39>     H       17.8486824   12.6284042   20.8676670
| 40>     H       15.7223029   13.4660630   21.8720004
| 41>     H       14.3395840   15.1603393   22.0250053
| 42>     H       16.1455315   17.1704852   19.7362939
| 43> *
| 44>
| 45>                          ****END OF INPUT****

CARTESIAN COORDINATES (ANGSTROEM)
---------------------------------
  C     15.435446   14.181375   17.347138
  C     16.379442   14.155836   16.133405
  O     17.545251   14.968777   16.389066
  C     17.488016   16.299057   16.080447
  O     16.937775   16.674830   15.059634
  C     17.709741   17.187094   17.274946
  C     17.331361   18.491699   17.297313
  C     16.546400   19.243642   16.243660
  N     17.722308   19.313046   18.359881
  C     18.668952   18.975928   19.291163
  S     19.237153   20.065091   20.398723
  N     19.134758   17.686216   19.244256
  C     18.522091   16.608242   18.446532
  C     17.711793   15.713191   19.377830
  C     18.186294   14.431495   19.715914
  C     17.473337   13.618158   20.613206
  C     16.276782   14.090521   21.179198
  C     15.805385   15.369064   20.850910
  O     14.651669   15.828960   21.396814
  C     16.518956   16.177797   19.961011
  H     15.913389   13.724614   18.219674
  H     14.522191   13.614354   17.130715
  H     15.144697   15.208822   17.597522
  H     16.697960   13.119226   15.964743
  H     15.849374   14.487381   15.230026
  H     15.609164   18.721046   16.013939
  H     17.120627   19.311035   15.310743
  H     16.286600   20.263834   16.549404
  H     17.401405   20.267449   18.395251
  H     19.813072   17.457193   19.959223
  H     19.336896   16.007401   18.018543
  H     19.112615   14.064332   19.282200
  H     17.848682   12.628404   20.867667
  H     15.722303   13.466063   21.872000
  H     14.339584   15.160339   22.025005
  H     16.145532   17.170485   19.736294

 Total Charge           Charge          ....    0
 Multiplicity           Mult            ....    1
 Number of Electrons    NEL             ....  154
 Basis Dimension        Dim             ....  828

ORBITAL ENERGIES
----------------

  NO   OCC          E(Eh)            E(eV)
   0   2.0000     -91.890062     -2500.4557
   1   2.0000     -20.598871      -560.5238
   2   2.0000     -20.589599      -560.2715
   3   2.0000     -20.546613      -559.1018
   4   2.0000     -15.630569      -425.3294
   5   2.0000     -15.608573      -424.7309
   6   2.0000     -11.394608      -310.0630
   7   2.0000     -11.384543      -309.7892
   8   2.0000     -11.337024      -308.4961
   9   2.0000     -11.315884      -307.9209
  10   2.0000     -11.310797      -307.7824
  11   2.0000     -11.294336      -307.3345
  12   2.0000     -11.261181      -306.4323
  13   2.0000     -11.260361      -306.4100
  14   2.0000     -11.257387      -306.3291
  15   2.0000     -11.253189      -306.2148
  16   2.0000     -11.245198      -305.9974
  17   2.0000     -11.239845      -305.8517
  18   2.0000     -11.239420      -305.8402
  19   2.0000     -11.220142      -305.3156
  20   2.0000      -8.895081      -242.0475
  21   2.0000      -6.576646      -178.9596
  22   2.0000      -6.574653      -178.9054
  23   2.0000      -6.574058      -178.8892
  24   2.0000      -1.449178       -39.4341
  25   2.0000      -1.418520       -38.5999
  26   2.0000      -1.352322       -36.7986
  27   2.0000      -1.341595       -36.5067
  28   2.0000      -1.239724       -33.7346
  29   2.0000      -1.158969       -31.5371
  30   2.0000      -1.120690       -30.4955
  31   2.0000      -1.043732       -28.4014
  32   2.0000      -1.032800       -28.1039
  33   2.0000      -1.017137       -27.6777
  34   2.0000      -0.997643       -27.1473
  35   2.0000      -0.985165       -26.8077
  36   2.0000      -0.924025       -25.1440
  37   2.0000      -0.890485       -24.2313
  38   2.0000      -0.847729       -23.0679
  39   2.0000      -0.840647       -22.8752
  40   2.0000      -0.835566       -22.7369
  41   2.0000      -0.815325       -22.1861
  42   2.0000      -0.756511       -20.5857
  43   2.0000      -0.733724       -19.9656
  44   2.0000      -0.722175       -19.6514
  45   2.0000      -0.698247       -19.0003
  46   2.0000      -0.690090       -18.7783
  47   2.0000      -0.678492       -18.4627
  48   2.0000      -0.668441       -18.1892
  49   2.0000      -0.667112       -18.1530
  50   2.0000      -0.648820       -17.6553
  51   2.0000      -0.645252       -17.5582
  52   2.0000      -0.637300       -17.3418
  53   2.0000      -0.609571       -16.5873
  54   2.0000      -0.603250       -16.4153
  55   2.0000      -0.600005       -16.3270
  56   2.0000      -0.594931       -16.1889
  57   2.0000      -0.579461       -15.7679
  58   2.0000      -0.571782       -15.5590
  59   2.0000      -0.565325       -15.3833
  60   2.0000      -0.560481       -15.2515
  61   2.0000      -0.548199       -14.9173
  62   2.0000      -0.538192       -14.6450
  63   2.0000      -0.527084       -14.3427
  64   2.0000      -0.523043       -14.2327
  65   2.0000      -0.514257       -13.9936
  66   2.0000      -0.503629       -13.7044
  67   2.0000      -0.500196       -13.6110
  68   2.0000      -0.477272       -12.9872
  69   2.0000      -0.463285       -12.6066
  70   2.0000      -0.451710       -12.2917
  71   2.0000      -0.445482       -12.1222
  72   2.0000      -0.357331        -9.7235
  73   2.0000      -0.350869        -9.5476
  74   2.0000      -0.329405        -8.9636
  75   2.0000      -0.324090        -8.8189
  76   2.0000      -0.316825        -8.6212
  77   0.0000       0.070063         1.9065
  78   0.0000       0.104671         2.8482
  79   0.0000       0.121129         3.2961
  80   0.0000       0.130845         3.5605
  81   0.0000       0.135218         3.6795

MULLIKEN ATOMIC CHARGES
-----------------------
   0 C :   -0.317110
   1 C :    0.037638
   2 O :   -0.378559
   3 C :    0.474358
   4 O :   -0.418106
   5 C :   -0.231030
   6 C :    0.149412
   7 C :   -0.270429
   8 N :   -0.124480
   9 C :    0.210763
  10 S :   -0.436462
  11 N :   -0.197690
  12 C :    0.033106
  13 C :    0.093139
  14 C :   -0.187737
  15 C :   -0.132913
  16 C :   -0.280525
  17 C :    0.324109
  18 O :   -0.359376
  19 C :   -0.284375
  20 H :    0.108893
  21 H :    0.114498
  22 H :    0.103119
  23 H :    0.104901
  24 H :    0.115821
  25 H :    0.127357
  26 H :    0.135613
  27 H :    0.094277
  28 H :    0.198566
  29 H :    0.192207
  30 H :    0.149009
  31 H :    0.147268
  32 H :    0.162342
  33 H :    0.131571
  34 H :    0.241600
  35 H :    0.169227
Sum of atomic charges:   -0.0000000

LOEWDIN ATOMIC CHARGES
----------------------
   0 C :    0.104144
   1 C :   -0.014341
   2 O :    0.288189
   3 C :   -0.415757
   4 O :    0.111557
   5 C :   -0.097165
   6 C :   -0.059352
   7 C :    0.130292
   8 N :    0.406978
   9 C :   -0.456505
  10 S :   -0.032777
  11 N :    0.396597
  12 C :   -0.053025
  13 C :   -0.036029
  14 C :    0.012133
  15 C :    0.040083
  16 C :   -0.002067
  17 C :   -0.189199
  18 O :    0.396189
  19 C :    0.034432
  20 H :   -0.026009
  21 H :   -0.026259
  22 H :   -0.029648
  23 H :   -0.025494
  24 H :   -0.028948
  25 H :   -0.006167
  26 H :   -0.003266
  27 H :   -0.023277
  28 H :   -0.057722
  29 H :   -0.065513
  30 H :   -0.006874
  31 H :   -0.029883
  32 H :   -0.020729
  33 H :   -0.035233
  34 H :   -0.153232
  35 H :   -0.026123

  Mayer bond orders larger than 0.100000
B(  0-C ,  1-C ) :   0.9628 B(  0-C , 20-H ) :   0.9731 B(  0-C , 21-H ) :   0.9776
B(  0-C , 22-H ) :   0.9735 B(  1-C ,  2-O ) :   0.8840 B(  1-C , 23-H ) :   0.9863
B(  1-C , 24-H ) :   0.9779 B(  2-O ,  3-C ) :   1.1145 B(  3-C ,  4-O ) :   1.9930
B(  3-C ,  5-C ) :   1.0651 B(  5-C ,  6-C ) :   1.6542 B(  5-C , 12-C ) :   0.9748
B(  6-C ,  7-C ) :   0.9714 B(  6-C ,  8-N ) :   1.1518 B(  7-C , 25-H ) :   0.9643
B(  7-C , 26-H ) :   0.9571 B(  7-C , 27-H ) :   0.9888 B(  8-N ,  9-C ) :   1.1782
B(  8-N , 28-H ) :   0.9484 B(  9-C , 10-S ) :   1.6133 B(  9-C , 11-N ) :   1.3026
B( 11-N , 12-C ) :   0.9745 B( 11-N , 29-H ) :   0.9540 B( 12-C , 13-C ) :   0.9441
B( 12-C , 30-H ) :   1.0045 B( 13-C , 14-C ) :   1.3544 B( 13-C , 19-C ) :   1.3591
B( 14-C , 15-C ) :   1.3872 B( 14-C , 31-H ) :   0.9739 B( 15-C , 16-C ) :   1.3626
B( 15-C , 32-H ) :   0.9711 B( 16-C , 17-C ) :   1.3312 B( 16-C , 33-H ) :   0.9849
B( 17-C , 18-O ) :   1.1117 B( 17-C , 19-C ) :   1.3674 B( 18-O , 34-H ) :   0.9794
B( 19-C , 35-H ) :   0.9580

MP2 TOTAL ENERGY:    -1274.335679929 Eh
FINAL SINGLE POINT ENERGY     -1274.335679928560

DIPOLE MOMENT
-------------
                                X             Y             Z
Electronic contribution:      9.12992       9.81748       5.30105
Nuclear contribution   :    -10.11016     -11.48164      -5.36685
                        -----------------------------------------
Total Dipole Moment    :     -0.98024      -1.66417      -0.06580
                        -----------------------------------------
Magnitude (a.u.)       :      1.93253
Magnitude (Debye)      :      4.91209

Rotational constants in cm-1:     0.011922     0.009537     0.006563
Rotational constants in MHz :   357.409885   285.913404   196.759418

                             ****ORCA TERMINATED NORMALLY****
TOTAL RUN TIME: 0 days 1 hours 51 minutes 38 seconds 940 msec
