                         Program Version 4.2.0 -  RELEASE  -
|  1> ! ri-mp2 cc-pvtz cc-pvtz/c TightSCF  NoKeepInts
|  2>
|  3> %scf
|  4>   MaxCore 4096
|  5> end
|  6> *xyz  0  1
|  7>     C       15.0617021   15.7405372   17.3744616
|  8>     C       15.5223963   15.2494281   15.9854827
|  9>     O       16.9553274   15.1375273   15.7649727
| 10>     C       18.0466427   15.5916858   16.4726991
| 11>     O       19.0581696   14.9144550   16.4868230
| 12>     C       17.9097708   16.7595768   17.3977123
| 13>     C       17.3844718   17.9424322   16.9952906
| 14>     C       16.8375090   18.2853587   15.6245878
| 15>     N       17.4043730   19.0432297   17.8549724
| 16>     C       18.0849184   19.0912721   19.0430132
| 17>     S       18.1416911   20.4681235   19.9569043
| 18>     N       18.7214311   17.9394849   19.4335963
| 19>     C       18.6057837   16.6314947   18.7576516
| 20>     C       17.9153228   15.6023719   19.6497664
| 21>     C       18.3461780   14.2627921   19.6383894
| 22>     C       17.7157036   13.2986539   20.4421267
| 23>     C       16.6428305   13.6750411   21.2673930
| 24>     C       16.2082164   15.0069630   21.2821769
| 25>     O       15.1654124   15.3716163   22.0696758
| 26>     C       16.8373491   15.9650969   20.4808094
| 27>     H       15.5985278   15.2103120   18.1679669
| 28>     H       13.9967626   15.5124349   17.5047864
| 29>     H       15.1637962   16.8190519   17.5128555
| 30>     H       15.0849103   14.2570769   15.8142855
| 31>     H       15.0942679   15.9119178   15.2226741
| 32>     H       17.1881197   17.5881350   14.8539858
| 33>     H       17.1647178   19.2836299   15.3069720
| 34>     H       15.7413958   18.2763874   15.6194738
| 35>     H       16.9610859   19.9044023   17.5762818
| 36>     H       19.2059997   17.9991854   20.3202852
| 37>     H       19.6282594   16.2706346   18.5712079
| 38>     H       19.1700124   13.9648875   18.9928470
| 39>     H       18.0582221   12.2654416   20.4194120
| 40>     H       16.1519372   12.9327660   21.8880936
| 41>     H       14.8982710   14.5909933   22.5780593
| 42>     H       16.4755146   16.9876019   20.5063078
| 43> *
| 44>
| 45>                          ****END OF INPUT****

CARTESIAN COORDINATES (ANGSTROEM)
---------------------------------
  C     15.061702   15.740537   17.374462
  C     15.522396   15.249428   15.985483
  O     16.955327   15.137527   15.764973
  C     18.046643   15.591686   16.472699
  O     19.058170   14.914455   16.486823
  C     17.909771   16.759577   17.397712
  C     17.384472   17.942432   16.995291
  C     16.837509   18.285359   15.624588
  N     17.404373   19.043230   17.854972
  C     18.084918   19.091272   19.043013
  S     18.141691   20.468124   19.956904
  N     18.721431   17.939485   19.433596
  C     18.605784   16.631495   18.757652
  C     17.915323   15.602372   19.649766
  C     18.346178   14.262792   19.638389
  C     17.715704   13.298654   20.442127
  C     16.642830   13.675041   21.267393
  C     16.208216   15.006963   21.282177
  O     15.165412   15.371616   22.069676
  C     16.837349   15.965097   20.480809
  H     15.598528   15.210312   18.167967
  H     13.996763   15.512435   17.504786
  H     15.163796   16.819052   17.512855
  H     15.084910   14.257077   15.814286
  H     15.094268   15.911918   15.222674
  H     17.188120   17.588135   14.853986
  H     17.164718   19.283630   15.306972
  H     15.741396   18.276387   15.619474
  H     16.961086   19.904402   17.576282
  H     19.206000   17.999185   20.320285
  H     19.628259   16.270635   18.571208
  H     19.170012   13.964887   18.992847
  H     18.058222   12.265442   20.419412
  H     16.151937   12.932766   21.888094
  H     14.898271   14.590993   22.578059
  H     16.475515   16.987602   20.506308

 Total Charge           Charge          ....    0
 Multiplicity           Mult            ....    1
 Number of Electrons    NEL             ....  154
 Basis Dimension        Dim             ....  828

ORBITAL ENERGIES
----------------

  NO   OCC          E(Eh)            E(eV)
   0   2.0000     -91.890926     -2500.4792
   1   2.0000     -20.597796      -560.4945
   2   2.0000     -20.595513      -560.4324
   3   2.0000     -20.546143      -559.0890
   4   2.0000     -15.629499      -425.3003
   5   2.0000     -15.610946      -424.7954
   6   2.0000     -11.399957      -310.2086
   7   2.0000     -11.387035      -309.8570
   8   2.0000     -11.333287      -308.3944
   9   2.0000     -11.314526      -307.8839
  10   2.0000     -11.313513      -307.8563
  11   2.0000     -11.312442      -307.8272
  12   2.0000     -11.268636      -306.6352
  13   2.0000     -11.264946      -306.5348
  14   2.0000     -11.261659      -306.4453
  15   2.0000     -11.254905      -306.2615
  16   2.0000     -11.244024      -305.9654
  17   2.0000     -11.239621      -305.8456
  18   2.0000     -11.236299      -305.7552
  19   2.0000     -11.235725      -305.7396
  20   2.0000      -8.896015      -242.0729
  21   2.0000      -6.577598      -178.9855
  22   2.0000      -6.575578      -178.9306
  23   2.0000      -6.574997      -178.9148
  24   2.0000      -1.440832       -39.2070
  25   2.0000      -1.417611       -38.5751
  26   2.0000      -1.353433       -36.8288
  27   2.0000      -1.341882       -36.5145
  28   2.0000      -1.240494       -33.7556
  29   2.0000      -1.158990       -31.5377
  30   2.0000      -1.124775       -30.6067
  31   2.0000      -1.047248       -28.4971
  32   2.0000      -1.041504       -28.3408
  33   2.0000      -1.017203       -27.6795
  34   2.0000      -1.005184       -27.3525
  35   2.0000      -0.990377       -26.9495
  36   2.0000      -0.927946       -25.2507
  37   2.0000      -0.901720       -24.5370
  38   2.0000      -0.854272       -23.2459
  39   2.0000      -0.840963       -22.8838
  40   2.0000      -0.834534       -22.7088
  41   2.0000      -0.827167       -22.5084
  42   2.0000      -0.744988       -20.2722
  43   2.0000      -0.733541       -19.9607
  44   2.0000      -0.730591       -19.8804
  45   2.0000      -0.694989       -18.9116
  46   2.0000      -0.686676       -18.6854
  47   2.0000      -0.678784       -18.4706
  48   2.0000      -0.674319       -18.3492
  49   2.0000      -0.660457       -17.9719
  50   2.0000      -0.658829       -17.9277
  51   2.0000      -0.652016       -17.7423
  52   2.0000      -0.642177       -17.4745
  53   2.0000      -0.616610       -16.7788
  54   2.0000      -0.607254       -16.5242
  55   2.0000      -0.605019       -16.4634
  56   2.0000      -0.602171       -16.3859
  57   2.0000      -0.590666       -16.0728
  58   2.0000      -0.576433       -15.6855
  59   2.0000      -0.571090       -15.5402
  60   2.0000      -0.565338       -15.3836
  61   2.0000      -0.556770       -15.1505
  62   2.0000      -0.543983       -14.8025
  63   2.0000      -0.530967       -14.4483
  64   2.0000      -0.521981       -14.2038
  65   2.0000      -0.513928       -13.9847
  66   2.0000      -0.501223       -13.6390
  67   2.0000      -0.494915       -13.4673
  68   2.0000      -0.483279       -13.1507
  69   2.0000      -0.469176       -12.7669
  70   2.0000      -0.455915       -12.4061
  71   2.0000      -0.447770       -12.1844
  72   2.0000      -0.356545        -9.7021
  73   2.0000      -0.348899        -9.4940
  74   2.0000      -0.330396        -8.9905
  75   2.0000      -0.323089        -8.7917
  76   2.0000      -0.319081        -8.6826
  77   0.0000       0.080441         2.1889
  78   0.0000       0.107616         2.9284
  79   0.0000       0.115082         3.1315
  80   0.0000       0.129740         3.5304
  81   0.0000       0.131135         3.5684

MULLIKEN ATOMIC CHARGES
-----------------------
   0 C :   -0.348472
   1 C :    0.048026
   2 O :   -0.340225
   3 C :    0.432522
   4 O :   -0.386574
   5 C :   -0.210790
   6 C :    0.138835
   7 C :   -0.330952
   8 N :   -0.137675
   9 C :    0.199774
  10 S :   -0.438783
  11 N :   -0.221439
  12 C :    0.084640
  13 C :    0.016365
  14 C :   -0.209379
  15 C :   -0.135986
  16 C :   -0.276520
  17 C :    0.319115
  18 O :   -0.357703
  19 C :   -0.271383
  20 H :    0.132677
  21 H :    0.123408
  22 H :    0.107234
  23 H :    0.128312
  24 H :    0.087835
  25 H :    0.138657
  26 H :    0.133391
  27 H :    0.119875
  28 H :    0.197634
  29 H :    0.201055
  30 H :    0.166388
  31 H :    0.177144
  32 H :    0.163899
  33 H :    0.132018
  34 H :    0.241070
  35 H :    0.176007
Sum of atomic charges:   -0.0000000

LOEWDIN ATOMIC CHARGES
----------------------
   0 C :    0.105250
   1 C :   -0.013958
   2 O :    0.288341
   3 C :   -0.416565
   4 O :    0.119866
   5 C :   -0.083636
   6 C :   -0.091058
   7 C :    0.127140
   8 N :    0.403453
   9 C :   -0.458116
  10 S :   -0.036099
  11 N :    0.398129
  12 C :   -0.043006
  13 C :   -0.043950
  14 C :    0.019314
  15 C :    0.043530
  16 C :   -0.001697
  17 C :   -0.194088
  18 O :    0.395194
  19 C :    0.027567
  20 H :   -0.022663
  21 H :   -0.020643
  22 H :   -0.036007
  23 H :   -0.018466
  24 H :   -0.034354
  25 H :   -0.006599
  26 H :   -0.011124
  27 H :   -0.018368
  28 H :   -0.057675
  29 H :   -0.063428
  30 H :   -0.002116
  31 H :   -0.021768
  32 H :   -0.018693
  33 H :   -0.035062
  34 H :   -0.153597
  35 H :   -0.025046

  Mayer bond orders larger than 0.100000
B(  0-C ,  1-C ) :   0.9599 B(  0-C , 20-H ) :   0.9639 B(  0-C , 21-H ) :   0.9778
B(  0-C , 22-H ) :   0.9731 B(  1-C ,  2-O ) :   0.9027 B(  1-C , 23-H ) :   0.9787
B(  1-C , 24-H ) :   0.9761 B(  2-O ,  3-C ) :   1.1725 B(  3-C ,  4-O ) :   2.0709
B(  3-C ,  5-C ) :   0.9402 B(  5-C ,  6-C ) :   1.6938 B(  5-C , 12-C ) :   0.9525
B(  6-C ,  7-C ) :   0.9426 B(  6-C ,  8-N ) :   1.1048 B(  7-C , 25-H ) :   0.9750
B(  7-C , 26-H ) :   0.9781 B(  7-C , 27-H ) :   0.9638 B(  8-N ,  9-C ) :   1.1917
B(  8-N , 28-H ) :   0.9511 B(  9-C , 10-S ) :   1.6112 B(  9-C , 11-N ) :   1.2906
B( 11-N , 12-C ) :   0.9875 B( 11-N , 29-H ) :   0.9488 B( 12-C , 13-C ) :   0.9478
B( 12-C , 30-H ) :   0.9950 B( 13-C , 14-C ) :   1.3915 B( 13-C , 19-C ) :   1.3447
B( 14-C , 15-C ) :   1.3989 B( 14-C , 31-H ) :   0.9570 B( 15-C , 16-C ) :   1.3606
B( 15-C , 32-H ) :   0.9702 B( 16-C , 17-C ) :   1.3301 B( 16-C , 33-H ) :   0.9847
B( 17-C , 18-O ) :   1.1107 B( 17-C , 19-C ) :   1.3681 B( 18-O , 34-H ) :   0.9796
B( 19-C , 35-H ) :   0.9581

MP2 TOTAL ENERGY:    -1274.326177987 Eh
FINAL SINGLE POINT ENERGY     -1274.326177987211

DIPOLE MOMENT
-------------
                                X             Y             Z
Electronic contribution:      9.55839       5.81303       6.56799
Nuclear contribution   :    -11.19553      -6.85023      -7.13032
                        -----------------------------------------
Total Dipole Moment    :     -1.63714      -1.03720      -0.56233
                        -----------------------------------------
Magnitude (a.u.)       :      2.01798
Magnitude (Debye)      :      5.12929

Rotational constants in cm-1:     0.011426     0.009683     0.006771
Rotational constants in MHz :   342.544170   290.296512   202.976290

                             ****ORCA TERMINATED NORMALLY****
TOTAL RUN TIME: 0 days 1 hours 51 minutes 50 seconds 753 msec
