                         Program Version 4.2.0 -  RELEASE  -
|  1> ! ri-mp2 cc-pvtz cc-pvtz/c TightSCF  NoKeepInts
|  2>
|  3> %scf
|  4>   MaxCore 4096
|  5> end
|  6> *xyz  0  1
|  7>     C       15.6626442   14.0562985   14.6540547
|  8>     C       15.0619355   14.8532231   15.8315719
|  9>     O       15.9487547   15.9241120   16.2124169
| 10>     C       17.1193618   15.6728035   16.8733147
| 11>     O       17.5471481   14.5433796   17.0466737
| 12>     C       17.6440810   16.8463963   17.6511205
| 13>     C       17.3345789   18.1463203   17.4026282
| 14>     C       16.4371895   18.7014454   16.3153175
| 15>     N       17.9364551   19.1596026   18.1563479
| 16>     C       18.9571929   18.9707518   19.0501787
| 17>     S       19.7052613   20.2407527   19.8006460
| 18>     N       19.3269980   17.6716831   19.2888887
| 19>     C       18.6067092   16.4856878   18.7888659
| 20>     C       17.8715777   15.7877132   19.9304304
| 21>     C       18.0896042   14.4216093   20.1881135
| 22>     C       17.4147364   13.7731527   21.2359644
| 23>     C       16.5128253   14.4962415   22.0348846
| 24>     C       16.2896986   15.8560447   21.7794806
| 25>     O       15.4148111   16.5556129   22.5453908
| 26>     C       16.9625594   16.4985837   20.7355044
| 27>     H       15.9343050   14.7277238   13.8303474
| 28>     H       14.9329291   13.3304332   14.2755957
| 29>     H       16.5575186   13.4995668   14.9568750
| 30>     H       14.1002760   15.2791282   15.5180995
| 31>     H       14.8762354   14.1863144   16.6846876
| 32>     H       15.3853547   18.4733220   16.5283566
| 33>     H       16.6876955   18.2634915   15.3410839
| 34>     H       16.5243167   19.7895512   16.2090875
| 35>     H       17.6786148   20.1200759   17.9953256
| 36>     H       20.0604605   17.5568567   19.9764388
| 37>     H       19.3557176   15.7887996   18.3857494
| 38>     H       18.7735406   13.8558831   19.5600838
| 39>     H       17.5879374   12.7144882   21.4203264
| 40>     H       15.9881122   13.9989574   22.8437391
| 41>     H       15.0824127   15.9536678   23.2279394
| 42>     H       16.7774504   17.5523253   20.5584702
| 43> *
| 44>
| 45>                          ****END OF INPUT****

CARTESIAN COORDINATES (ANGSTROEM)
---------------------------------
  C     15.662644   14.056299   14.654055
  C     15.061935   14.853223   15.831572
  O     15.948755   15.924112   16.212417
  C     17.119362   15.672804   16.873315
  O     17.547148   14.543380   17.046674
  C     17.644081   16.846396   17.651121
  C     17.334579   18.146320   17.402628
  C     16.437189   18.701445   16.315317
  N     17.936455   19.159603   18.156348
  C     18.957193   18.970752   19.050179
  S     19.705261   20.240753   19.800646
  N     19.326998   17.671683   19.288889
  C     18.606709   16.485688   18.788866
  C     17.871578   15.787713   19.930430
  C     18.089604   14.421609   20.188114
  C     17.414736   13.773153   21.235964
  C     16.512825   14.496241   22.034885
  C     16.289699   15.856045   21.779481
  O     15.414811   16.555613   22.545391
  C     16.962559   16.498584   20.735504
  H     15.934305   14.727724   13.830347
  H     14.932929   13.330433   14.275596
  H     16.557519   13.499567   14.956875
  H     14.100276   15.279128   15.518099
  H     14.876235   14.186314   16.684688
  H     15.385355   18.473322   16.528357
  H     16.687696   18.263492   15.341084
  H     16.524317   19.789551   16.209087
  H     17.678615   20.120076   17.995326
  H     20.060460   17.556857   19.976439
  H     19.355718   15.788800   18.385749
  H     18.773541   13.855883   19.560084
  H     17.587937   12.714488   21.420326
  H     15.988112   13.998957   22.843739
  H     15.082413   15.953668   23.227939
  H     16.777450   17.552325   20.558470

 Total Charge           Charge          ....    0
 Multiplicity           Mult            ....    1
 Number of Electrons    NEL             ....  154
 Basis Dimension        Dim             ....  828

ORBITAL ENERGIES
----------------

  NO   OCC          E(Eh)            E(eV)
   0   2.0000     -91.887700     -2500.3914
   1   2.0000     -20.602338      -560.6181
   2   2.0000     -20.591223      -560.3157
   3   2.0000     -20.547099      -559.1150
   4   2.0000     -15.627815      -425.2545
   5   2.0000     -15.606428      -424.6725
   6   2.0000     -11.397293      -310.1361
   7   2.0000     -11.382621      -309.7369
   8   2.0000     -11.335277      -308.4486
   9   2.0000     -11.307070      -307.6810
  10   2.0000     -11.305527      -307.6390
  11   2.0000     -11.302206      -307.5487
  12   2.0000     -11.260266      -306.4074
  13   2.0000     -11.258554      -306.3608
  14   2.0000     -11.253070      -306.2116
  15   2.0000     -11.247289      -306.0543
  16   2.0000     -11.236895      -305.7715
  17   2.0000     -11.232955      -305.6642
  18   2.0000     -11.230067      -305.5857
  19   2.0000     -11.224241      -305.4271
  20   2.0000      -8.892768      -241.9845
  21   2.0000      -6.574346      -178.8971
  22   2.0000      -6.572339      -178.8424
  23   2.0000      -6.571754      -178.8265
  24   2.0000      -1.452887       -39.5351
  25   2.0000      -1.410955       -38.3940
  26   2.0000      -1.357924       -36.9510
  27   2.0000      -1.338875       -36.4326
  28   2.0000      -1.236556       -33.6484
  29   2.0000      -1.151696       -31.3392
  30   2.0000      -1.119145       -30.4535
  31   2.0000      -1.041742       -28.3472
  32   2.0000      -1.033866       -28.1329
  33   2.0000      -1.009038       -27.4573
  34   2.0000      -0.996690       -27.1213
  35   2.0000      -0.982225       -26.7277
  36   2.0000      -0.921001       -25.0617
  37   2.0000      -0.893330       -24.3088
  38   2.0000      -0.847374       -23.0582
  39   2.0000      -0.835200       -22.7270
  40   2.0000      -0.827490       -22.5171
  41   2.0000      -0.817764       -22.2525
  42   2.0000      -0.751649       -20.4534
  43   2.0000      -0.733456       -19.9583
  44   2.0000      -0.724579       -19.7168
  45   2.0000      -0.690509       -18.7897
  46   2.0000      -0.684797       -18.6343
  47   2.0000      -0.679709       -18.4958
  48   2.0000      -0.670875       -18.2554
  49   2.0000      -0.661050       -17.9881
  50   2.0000      -0.645807       -17.5733
  51   2.0000      -0.641247       -17.4492
  52   2.0000      -0.631286       -17.1782
  53   2.0000      -0.609856       -16.5950
  54   2.0000      -0.599652       -16.3174
  55   2.0000      -0.599013       -16.3000
  56   2.0000      -0.594376       -16.1738
  57   2.0000      -0.585815       -15.9408
  58   2.0000      -0.572615       -15.5816
  59   2.0000      -0.566832       -15.4243
  60   2.0000      -0.559998       -15.2383
  61   2.0000      -0.545424       -14.8417
  62   2.0000      -0.535665       -14.5762
  63   2.0000      -0.522399       -14.2152
  64   2.0000      -0.516662       -14.0591
  65   2.0000      -0.510704       -13.8970
  66   2.0000      -0.501023       -13.6335
  67   2.0000      -0.495151       -13.4737
  68   2.0000      -0.479775       -13.0554
  69   2.0000      -0.461696       -12.5634
  70   2.0000      -0.457247       -12.4423
  71   2.0000      -0.453309       -12.3352
  72   2.0000      -0.353706        -9.6248
  73   2.0000      -0.343552        -9.3485
  74   2.0000      -0.326846        -8.8939
  75   2.0000      -0.315228        -8.5778
  76   2.0000      -0.313427        -8.5288
  77   0.0000       0.076485         2.0813
  78   0.0000       0.113451         3.0871
  79   0.0000       0.121494         3.3060
  80   0.0000       0.136315         3.7093
  81   0.0000       0.141046         3.8381

MULLIKEN ATOMIC CHARGES
-----------------------
   0 C :   -0.301322
   1 C :    0.042165
   2 O :   -0.347653
   3 C :    0.438007
   4 O :   -0.433327
   5 C :   -0.153035
   6 C :    0.142361
   7 C :   -0.285533
   8 N :   -0.121423
   9 C :    0.201476
  10 S :   -0.439939
  11 N :   -0.196535
  12 C :    0.034119
  13 C :    0.056545
  14 C :   -0.161355
  15 C :   -0.134202
  16 C :   -0.279019
  17 C :    0.311461
  18 O :   -0.359006
  19 C :   -0.270660
  20 H :    0.089845
  21 H :    0.095490
  22 H :    0.124878
  23 H :    0.104604
  24 H :    0.099308
  25 H :    0.128730
  26 H :    0.124401
  27 H :    0.101772
  28 H :    0.196723
  29 H :    0.193316
  30 H :    0.153502
  31 H :    0.153146
  32 H :    0.158879
  33 H :    0.127899
  34 H :    0.239931
  35 H :    0.164451
Sum of atomic charges:   -0.0000000

LOEWDIN ATOMIC CHARGES
----------------------
   0 C :    0.104476
   1 C :   -0.014369
   2 O :    0.301591
   3 C :   -0.411930
   4 O :    0.108027
   5 C :   -0.090157
   6 C :   -0.066845
   7 C :    0.124892
   8 N :    0.404621
   9 C :   -0.458845
  10 S :   -0.036478
  11 N :    0.397750
  12 C :   -0.046179
  13 C :   -0.038743
  14 C :    0.021636
  15 C :    0.040631
  16 C :   -0.002359
  17 C :   -0.192439
  18 O :    0.393065
  19 C :    0.028907
  20 H :   -0.030892
  21 H :   -0.027848
  22 H :   -0.025501
  23 H :   -0.025221
  24 H :   -0.026902
  25 H :   -0.009370
  26 H :   -0.009203
  27 H :   -0.020937
  28 H :   -0.059180
  29 H :   -0.063743
  30 H :   -0.005151
  31 H :   -0.025508
  32 H :   -0.021348
  33 H :   -0.036461
  34 H :   -0.154987
  35 H :   -0.024997

  Mayer bond orders larger than 0.100000
B(  0-C ,  1-C ) :   0.9672 B(  0-C , 20-H ) :   0.9761 B(  0-C , 21-H ) :   0.9772
B(  0-C , 22-H ) :   0.9720 B(  1-C ,  2-O ) :   0.9049 B(  1-C , 23-H ) :   0.9847
B(  1-C , 24-H ) :   0.9772 B(  2-O ,  3-C ) :   1.1473 B(  3-C ,  4-O ) :   1.9558
B(  3-C ,  5-C ) :   1.0600 B(  5-C ,  6-C ) :   1.6486 B(  5-C , 12-C ) :   0.9651
B(  6-C ,  7-C ) :   0.9549 B(  6-C ,  8-N ) :   1.1470 B(  7-C , 25-H ) :   0.9629
B(  7-C , 26-H ) :   0.9669 B(  7-C , 27-H ) :   0.9912 B(  8-N ,  9-C ) :   1.1792
B(  8-N , 28-H ) :   0.9491 B(  9-C , 10-S ) :   1.6102 B(  9-C , 11-N ) :   1.3035
B( 11-N , 12-C ) :   0.9938 B( 11-N , 29-H ) :   0.9519 B( 12-C , 13-C ) :   0.9470
B( 12-C , 30-H ) :   0.9997 B( 13-C , 14-C ) :   1.3752 B( 13-C , 19-C ) :   1.3703
B( 14-C , 15-C ) :   1.3946 B( 14-C , 31-H ) :   0.9652 B( 15-C , 16-C ) :   1.3627
B( 15-C , 32-H ) :   0.9715 B( 16-C , 17-C ) :   1.3313 B( 16-C , 33-H ) :   0.9861
B( 17-C , 18-O ) :   1.1080 B( 17-C , 19-C ) :   1.3791 B( 18-O , 34-H ) :   0.9807
B( 19-C , 35-H ) :   0.9584

MP2 TOTAL ENERGY:    -1274.344220116 Eh
FINAL SINGLE POINT ENERGY     -1274.344220115779

DIPOLE MOMENT
-------------
                                X             Y             Z
Electronic contribution:      9.79189       9.77757      11.68489
Nuclear contribution   :    -11.44742     -10.93637     -12.59168
                        -----------------------------------------
Total Dipole Moment    :     -1.65553      -1.15880      -0.90678
                        -----------------------------------------
Magnitude (a.u.)       :      2.21492
Magnitude (Debye)      :      5.62988

Rotational constants in cm-1:     0.010591     0.008874     0.005807
Rotational constants in MHz :   317.524231   266.025918   174.102986

                             ****ORCA TERMINATED NORMALLY****
TOTAL RUN TIME: 0 days 1 hours 37 minutes 19 seconds 254 msec
