                         Program Version 4.2.0 -  RELEASE  -
|  1> ! ri-mp2 cc-pvtz cc-pvtz/c TightSCF  NoKeepInts
|  2>
|  3> %scf
|  4>   MaxCore 4096
|  5> end
|  6> *xyz  0  1
|  7>     C       15.0512919   15.7142108   17.4498031
|  8>     C       15.5634390   15.2602575   16.0661003
|  9>     O       16.9764812   14.9413159   16.0208885
| 10>     C       18.0951356   15.6066370   16.4741394
| 11>     O       19.1578873   15.0136518   16.4475740
| 12>     C       17.9346800   16.7724925   17.3931703
| 13>     C       17.4148514   17.9493750   16.9714874
| 14>     C       16.8903976   18.2733365   15.5890334
| 15>     N       17.4101974   19.0556010   17.8239913
| 16>     C       18.0528682   19.1085964   19.0330448
| 17>     S       18.0770017   20.4884721   19.9437844
| 18>     N       18.6796113   17.9595097   19.4479034
| 19>     C       18.5964515   16.6501114   18.7692282
| 20>     C       17.8946115   15.6087541   19.6379752
| 21>     C       18.3157151   14.2666173   19.5980680
| 22>     C       17.6765818   13.2896392   20.3790733
| 23>     C       16.6048212   13.6556145   21.2104028
| 24>     C       16.1796068   14.9899495   21.2532670
| 25>     O       15.1373750   15.3445639   22.0460940
| 26>     C       16.8169757   15.9609299   20.4741107
| 27>     H       15.4626643   15.0719851   18.2370328
| 28>     H       13.9599181   15.6123935   17.4880690
| 29>     H       15.2742665   16.7580826   17.6800710
| 30>     H       15.0099620   14.3580379   15.7745439
| 31>     H       15.3255882   16.0285043   15.3211527
| 32>     H       17.1778396   17.5178159   14.8477780
| 33>     H       17.2958199   19.2283878   15.2307833
| 34>     H       15.7967167   18.3536818   15.5904390
| 35>     H       16.9746302   19.9150666   17.5282032
| 36>     H       19.1366155   18.0235651   20.3488135
| 37>     H       19.6273153   16.3009470   18.6083018
| 38>     H       19.1384028   13.9770317   18.9472260
| 39>     H       18.0113883   12.2546636   20.3338236
| 40>     H       16.1071895   12.9034191   21.8135099
| 41>     H       14.8619069   14.5541584   22.5345124
| 42>     H       16.4607948   16.9846235   20.5206005
| 43> *
| 44>
| 45>                          ****END OF INPUT****

CARTESIAN COORDINATES (ANGSTROEM)
---------------------------------
  C     15.051292   15.714211   17.449803
  C     15.563439   15.260257   16.066100
  O     16.976481   14.941316   16.020889
  C     18.095136   15.606637   16.474139
  O     19.157887   15.013652   16.447574
  C     17.934680   16.772492   17.393170
  C     17.414851   17.949375   16.971487
  C     16.890398   18.273336   15.589033
  N     17.410197   19.055601   17.823991
  C     18.052868   19.108596   19.033045
  S     18.077002   20.488472   19.943784
  N     18.679611   17.959510   19.447903
  C     18.596452   16.650111   18.769228
  C     17.894611   15.608754   19.637975
  C     18.315715   14.266617   19.598068
  C     17.676582   13.289639   20.379073
  C     16.604821   13.655615   21.210403
  C     16.179607   14.989949   21.253267
  O     15.137375   15.344564   22.046094
  C     16.816976   15.960930   20.474111
  H     15.462664   15.071985   18.237033
  H     13.959918   15.612393   17.488069
  H     15.274266   16.758083   17.680071
  H     15.009962   14.358038   15.774544
  H     15.325588   16.028504   15.321153
  H     17.177840   17.517816   14.847778
  H     17.295820   19.228388   15.230783
  H     15.796717   18.353682   15.590439
  H     16.974630   19.915067   17.528203
  H     19.136615   18.023565   20.348813
  H     19.627315   16.300947   18.608302
  H     19.138403   13.977032   18.947226
  H     18.011388   12.254664   20.333824
  H     16.107190   12.903419   21.813510
  H     14.861907   14.554158   22.534512
  H     16.460795   16.984624   20.520600

 Total Charge           Charge          ....    0
 Multiplicity           Mult            ....    1
 Number of Electrons    NEL             ....  154
 Basis Dimension        Dim             ....  828

ORBITAL ENERGIES
----------------

  NO   OCC          E(Eh)            E(eV)
   0   2.0000     -91.890442     -2500.4660
   1   2.0000     -20.598414      -560.5113
   2   2.0000     -20.597547      -560.4877
   3   2.0000     -20.547445      -559.1244
   4   2.0000     -15.628213      -425.2653
   5   2.0000     -15.611212      -424.8027
   6   2.0000     -11.400416      -310.2211
   7   2.0000     -11.386900      -309.8533
   8   2.0000     -11.330229      -308.3112
   9   2.0000     -11.314213      -307.8754
  10   2.0000     -11.313946      -307.8681
  11   2.0000     -11.311865      -307.8115
  12   2.0000     -11.271632      -306.7167
  13   2.0000     -11.265757      -306.5568
  14   2.0000     -11.261781      -306.4486
  15   2.0000     -11.254756      -306.2575
  16   2.0000     -11.243801      -305.9594
  17   2.0000     -11.239302      -305.8370
  18   2.0000     -11.236252      -305.7540
  19   2.0000     -11.231924      -305.6362
  20   2.0000      -8.895541      -242.0600
  21   2.0000      -6.577129      -178.9728
  22   2.0000      -6.575104      -178.9177
  23   2.0000      -6.574527      -178.9020
  24   2.0000      -1.443471       -39.2788
  25   2.0000      -1.417366       -38.5685
  26   2.0000      -1.354937       -36.8697
  27   2.0000      -1.341164       -36.4949
  28   2.0000      -1.240248       -33.7489
  29   2.0000      -1.159043       -31.5392
  30   2.0000      -1.125431       -30.6245
  31   2.0000      -1.047987       -28.5172
  32   2.0000      -1.040099       -28.3025
  33   2.0000      -1.017250       -27.6808
  34   2.0000      -1.005637       -27.3648
  35   2.0000      -0.990405       -26.9503
  36   2.0000      -0.928083       -25.2544
  37   2.0000      -0.899521       -24.4772
  38   2.0000      -0.854754       -23.2590
  39   2.0000      -0.840747       -22.8779
  40   2.0000      -0.834364       -22.7042
  41   2.0000      -0.828830       -22.5536
  42   2.0000      -0.746157       -20.3040
  43   2.0000      -0.737887       -20.0789
  44   2.0000      -0.730557       -19.8795
  45   2.0000      -0.694956       -18.9107
  46   2.0000      -0.687120       -18.6975
  47   2.0000      -0.678409       -18.4604
  48   2.0000      -0.674436       -18.3523
  49   2.0000      -0.662825       -18.0364
  50   2.0000      -0.653370       -17.7791
  51   2.0000      -0.652076       -17.7439
  52   2.0000      -0.641229       -17.4487
  53   2.0000      -0.614973       -16.7343
  54   2.0000      -0.608908       -16.5692
  55   2.0000      -0.605209       -16.4686
  56   2.0000      -0.602093       -16.3838
  57   2.0000      -0.591688       -16.1006
  58   2.0000      -0.579311       -15.7638
  59   2.0000      -0.573676       -15.6105
  60   2.0000      -0.565609       -15.3910
  61   2.0000      -0.557401       -15.1677
  62   2.0000      -0.542431       -14.7603
  63   2.0000      -0.529170       -14.3994
  64   2.0000      -0.519215       -14.1286
  65   2.0000      -0.513535       -13.9740
  66   2.0000      -0.501361       -13.6427
  67   2.0000      -0.501191       -13.6381
  68   2.0000      -0.483589       -13.1591
  69   2.0000      -0.465050       -12.6547
  70   2.0000      -0.453787       -12.3482
  71   2.0000      -0.450257       -12.2521
  72   2.0000      -0.356427        -9.6989
  73   2.0000      -0.348638        -9.4869
  74   2.0000      -0.330020        -8.9803
  75   2.0000      -0.322964        -8.7883
  76   2.0000      -0.318581        -8.6690
  77   0.0000       0.084368         2.2958
  78   0.0000       0.107250         2.9184
  79   0.0000       0.113227         3.0811
  80   0.0000       0.129795         3.5319
  81   0.0000       0.131144         3.5686

MULLIKEN ATOMIC CHARGES
-----------------------
   0 C :   -0.335984
   1 C :    0.032411
   2 O :   -0.326252
   3 C :    0.412879
   4 O :   -0.383624
   5 C :   -0.186138
   6 C :    0.133570
   7 C :   -0.334830
   8 N :   -0.137588
   9 C :    0.202877
  10 S :   -0.440232
  11 N :   -0.225093
  12 C :    0.081509
  13 C :    0.020170
  14 C :   -0.211295
  15 C :   -0.135937
  16 C :   -0.276233
  17 C :    0.316711
  18 O :   -0.358210
  19 C :   -0.269662
  20 H :    0.130549
  21 H :    0.117061
  22 H :    0.107903
  23 H :    0.133753
  24 H :    0.084820
  25 H :    0.128274
  26 H :    0.138958
  27 H :    0.123195
  28 H :    0.196832
  29 H :    0.202030
  30 H :    0.168654
  31 H :    0.175543
  32 H :    0.163781
  33 H :    0.132027
  34 H :    0.241060
  35 H :    0.176512
Sum of atomic charges:   -0.0000000

LOEWDIN ATOMIC CHARGES
----------------------
   0 C :    0.104593
   1 C :   -0.017180
   2 O :    0.297288
   3 C :   -0.416434
   4 O :    0.122372
   5 C :   -0.078947
   6 C :   -0.100258
   7 C :    0.124813
   8 N :    0.402353
   9 C :   -0.457394
  10 S :   -0.037252
  11 N :    0.398465
  12 C :   -0.042157
  13 C :   -0.042726
  14 C :    0.020469
  15 C :    0.044066
  16 C :   -0.001921
  17 C :   -0.194166
  18 O :    0.395355
  19 C :    0.028042
  20 H :   -0.020420
  21 H :   -0.023469
  22 H :   -0.037459
  23 H :   -0.016384
  24 H :   -0.039312
  25 H :   -0.008316
  26 H :   -0.009289
  27 H :   -0.017527
  28 H :   -0.057977
  29 H :   -0.063477
  30 H :   -0.001535
  31 H :   -0.021617
  32 H :   -0.018555
  33 H :   -0.035051
  34 H :   -0.153600
  35 H :   -0.025395

  Mayer bond orders larger than 0.100000
B(  0-C ,  1-C ) :   0.9533 B(  0-C , 20-H ) :   0.9668 B(  0-C , 21-H ) :   0.9778
B(  0-C , 22-H ) :   0.9743 B(  1-C ,  2-O ) :   0.9110 B(  1-C , 23-H ) :   0.9801
B(  1-C , 24-H ) :   0.9748 B(  2-O ,  3-C ) :   1.1697 B(  3-C ,  4-O ) :   2.0753
B(  3-C ,  5-C ) :   0.9240 B(  5-C ,  6-C ) :   1.7001 B(  5-C , 12-C ) :   0.9563
B(  6-C ,  7-C ) :   0.9434 B(  6-C ,  8-N ) :   1.0985 B(  7-C , 25-H ) :   0.9800
B(  7-C , 26-H ) :   0.9733 B(  7-C , 27-H ) :   0.9643 B(  8-N ,  9-C ) :   1.1950
B(  8-N , 28-H ) :   0.9522 B(  9-C , 10-S ) :   1.6096 B(  9-C , 11-N ) :   1.2884
B( 11-N , 12-C ) :   0.9862 B( 11-N , 29-H ) :   0.9479 B( 12-C , 13-C ) :   0.9481
B( 12-C , 30-H ) :   0.9944 B( 13-C , 14-C ) :   1.3904 B( 13-C , 19-C ) :   1.3436
B( 14-C , 15-C ) :   1.4007 B( 14-C , 31-H ) :   0.9582 B( 15-C , 16-C ) :   1.3592
B( 15-C , 32-H ) :   0.9702 B( 16-C , 17-C ) :   1.3302 B( 16-C , 33-H ) :   0.9848
B( 17-C , 18-O ) :   1.1105 B( 17-C , 19-C ) :   1.3692 B( 18-O , 34-H ) :   0.9796
B( 19-C , 35-H ) :   0.9576

MP2 TOTAL ENERGY:    -1274.324088612 Eh
FINAL SINGLE POINT ENERGY     -1274.324088612019

DIPOLE MOMENT
-------------
                                X             Y             Z
Electronic contribution:      9.46623       5.72423       6.53575
Nuclear contribution   :    -11.08213      -6.74980      -7.22770
                        -----------------------------------------
Total Dipole Moment    :     -1.61590      -1.02557      -0.69196
                        -----------------------------------------
Magnitude (a.u.)       :      2.03513
Magnitude (Debye)      :      5.17288

Rotational constants in cm-1:     0.011690     0.009624     0.006822
Rotational constants in MHz :   350.442412   288.515710   204.517739

                             ****ORCA TERMINATED NORMALLY****
TOTAL RUN TIME: 0 days 1 hours 49 minutes 55 seconds 792 msec
