                         Program Version 4.2.0 -  RELEASE  -
|  1> ! ri-mp2 cc-pvtz cc-pvtz/c TightSCF  NoKeepInts
|  2>
|  3> %scf
|  4>   MaxCore 4096
|  5> end
|  6> *xyz  0  1
|  7>     C       14.5273904   14.5363488   16.0523191
|  8>     C       15.6890904   15.0390177   16.9245156
|  9>     O       16.7620220   15.4100889   16.0431600
| 10>     C       17.9863324   15.5779550   16.6151301
| 11>     O       18.6775462   14.6073000   16.8678483
| 12>     C       18.0715344   16.8340644   17.4273231
| 13>     C       17.5351751   18.0147949   17.0325870
| 14>     C       16.8139950   18.3010130   15.7322915
| 15>     N       17.6887990   19.1499692   17.8336004
| 16>     C       18.4674166   19.2104669   18.9600815
| 17>     S       18.6812745   20.6218734   19.7947378
| 18>     N       19.0578898   18.0380323   19.3626390
| 19>     C       18.8037867   16.7127380   18.7651500
| 20>     C       18.0075863   15.8307783   19.7231967
| 21>     C       18.4607477   14.5386345   20.0459307
| 22>     C       17.7173147   13.7123827   20.9051472
| 23>     C       16.5077867   14.1803839   21.4460155
| 24>     C       16.0503070   15.4649452   21.1236107
| 25>     O       14.8761702   15.9156029   21.6323031
| 26>     C       16.7921102   16.2849164   20.2676876
| 27>     H       14.8430102   13.6744144   15.4509392
| 28>     H       14.1826083   15.3253365   15.3727084
| 29>     H       13.6819580   14.2266284   16.6786120
| 30>     H       15.3696104   15.8942904   17.5345079
| 31>     H       16.0114329   14.2317624   17.5977058
| 32>     H       17.2833690   17.7686081   14.8952835
| 33>     H       16.8244824   19.3676343   15.4762979
| 34>     H       15.7670499   17.9785457   15.7877964
| 35>     H       17.2667829   20.0211504   17.5531936
| 36>     H       19.6048519   18.1060678   20.2115139
| 37>     H       19.7763804   16.2348276   18.5771395
| 38>     H       19.3850577   14.1655972   19.6106765
| 39>     H       18.0767176   12.7122569   21.1415288
| 40>     H       15.9291933   13.5437253   22.1072306
| 41>     H       14.5502196   15.2433318   22.2498948
| 42>     H       16.4200005   17.2765163   20.0336964
| 43> *
| 44>
| 45>                          ****END OF INPUT****

CARTESIAN COORDINATES (ANGSTROEM)
---------------------------------
  C     14.527390   14.536349   16.052319
  C     15.689090   15.039018   16.924516
  O     16.762022   15.410089   16.043160
  C     17.986332   15.577955   16.615130
  O     18.677546   14.607300   16.867848
  C     18.071534   16.834064   17.427323
  C     17.535175   18.014795   17.032587
  C     16.813995   18.301013   15.732291
  N     17.688799   19.149969   17.833600
  C     18.467417   19.210467   18.960081
  S     18.681274   20.621873   19.794738
  N     19.057890   18.038032   19.362639
  C     18.803787   16.712738   18.765150
  C     18.007586   15.830778   19.723197
  C     18.460748   14.538635   20.045931
  C     17.717315   13.712383   20.905147
  C     16.507787   14.180384   21.446016
  C     16.050307   15.464945   21.123611
  O     14.876170   15.915603   21.632303
  C     16.792110   16.284916   20.267688
  H     14.843010   13.674414   15.450939
  H     14.182608   15.325336   15.372708
  H     13.681958   14.226628   16.678612
  H     15.369610   15.894290   17.534508
  H     16.011433   14.231762   17.597706
  H     17.283369   17.768608   14.895283
  H     16.824482   19.367634   15.476298
  H     15.767050   17.978546   15.787796
  H     17.266783   20.021150   17.553194
  H     19.604852   18.106068   20.211514
  H     19.776380   16.234828   18.577140
  H     19.385058   14.165597   19.610676
  H     18.076718   12.712257   21.141529
  H     15.929193   13.543725   22.107231
  H     14.550220   15.243332   22.249895
  H     16.420001   17.276516   20.033696

 Total Charge           Charge          ....    0
 Multiplicity           Mult            ....    1
 Number of Electrons    NEL             ....  154
 Basis Dimension        Dim             ....  828

ORBITAL ENERGIES
----------------

  NO   OCC          E(Eh)            E(eV)
   0   2.0000     -91.890393     -2500.4647
   1   2.0000     -20.597711      -560.4922
   2   2.0000     -20.582647      -560.0823
   3   2.0000     -20.557324      -559.3932
   4   2.0000     -15.630155      -425.3181
   5   2.0000     -15.609843      -424.7654
   6   2.0000     -11.393450      -310.0315
   7   2.0000     -11.386020      -309.8293
   8   2.0000     -11.334845      -308.4368
   9   2.0000     -11.313807      -307.8643
  10   2.0000     -11.310062      -307.7624
  11   2.0000     -11.300255      -307.4956
  12   2.0000     -11.263347      -306.4912
  13   2.0000     -11.260313      -306.4087
  14   2.0000     -11.259275      -306.3805
  15   2.0000     -11.253803      -306.2315
  16   2.0000     -11.243581      -305.9534
  17   2.0000     -11.239416      -305.8401
  18   2.0000     -11.236441      -305.7591
  19   2.0000     -11.231724      -305.6307
  20   2.0000      -8.895462      -242.0578
  21   2.0000      -6.577038      -178.9703
  22   2.0000      -6.575029      -178.9156
  23   2.0000      -6.574443      -178.8997
  24   2.0000      -1.452810       -39.5330
  25   2.0000      -1.417508       -38.5724
  26   2.0000      -1.358196       -36.9584
  27   2.0000      -1.341180       -36.4954
  28   2.0000      -1.239376       -33.7251
  29   2.0000      -1.158094       -31.5133
  30   2.0000      -1.122940       -30.5567
  31   2.0000      -1.046186       -28.4682
  32   2.0000      -1.035597       -28.1800
  33   2.0000      -1.015540       -27.6342
  34   2.0000      -1.001479       -27.2516
  35   2.0000      -0.987058       -26.8592
  36   2.0000      -0.925138       -25.1743
  37   2.0000      -0.877724       -23.8841
  38   2.0000      -0.851646       -23.1745
  39   2.0000      -0.841545       -22.8996
  40   2.0000      -0.834074       -22.6963
  41   2.0000      -0.832226       -22.6460
  42   2.0000      -0.757195       -20.6043
  43   2.0000      -0.736337       -20.0367
  44   2.0000      -0.730114       -19.8674
  45   2.0000      -0.695629       -18.9290
  46   2.0000      -0.687945       -18.7199
  47   2.0000      -0.682014       -18.5586
  48   2.0000      -0.675361       -18.3775
  49   2.0000      -0.659240       -17.9388
  50   2.0000      -0.649914       -17.6851
  51   2.0000      -0.642771       -17.4907
  52   2.0000      -0.635680       -17.2977
  53   2.0000      -0.619644       -16.8614
  54   2.0000      -0.606193       -16.4953
  55   2.0000      -0.604881       -16.4597
  56   2.0000      -0.601301       -16.3622
  57   2.0000      -0.580953       -15.8085
  58   2.0000      -0.577145       -15.7049
  59   2.0000      -0.565153       -15.3786
  60   2.0000      -0.558162       -15.1884
  61   2.0000      -0.552121       -15.0240
  62   2.0000      -0.537021       -14.6131
  63   2.0000      -0.523553       -14.2466
  64   2.0000      -0.519841       -14.1456
  65   2.0000      -0.514260       -13.9937
  66   2.0000      -0.503095       -13.6899
  67   2.0000      -0.498408       -13.5624
  68   2.0000      -0.483414       -13.1544
  69   2.0000      -0.466105       -12.6834
  70   2.0000      -0.459396       -12.5008
  71   2.0000      -0.454082       -12.3562
  72   2.0000      -0.356405        -9.6983
  73   2.0000      -0.349487        -9.5100
  74   2.0000      -0.329662        -8.9706
  75   2.0000      -0.321177        -8.7397
  76   2.0000      -0.317621        -8.6429
  77   0.0000       0.069518         1.8917
  78   0.0000       0.103248         2.8095
  79   0.0000       0.116988         3.1834
  80   0.0000       0.130796         3.5591
  81   0.0000       0.134168         3.6509

MULLIKEN ATOMIC CHARGES
-----------------------
   0 C :   -0.256420
   1 C :    0.015245
   2 O :   -0.366868
   3 C :    0.469180
   4 O :   -0.385353
   5 C :   -0.236725
   6 C :    0.151254
   7 C :   -0.284280
   8 N :   -0.125105
   9 C :    0.199829
  10 S :   -0.437373
  11 N :   -0.201545
  12 C :    0.048507
  13 C :    0.047589
  14 C :   -0.165414
  15 C :   -0.133918
  16 C :   -0.279768
  17 C :    0.313816
  18 O :   -0.359165
  19 C :   -0.292213
  20 H :    0.106235
  21 H :    0.091391
  22 H :    0.090793
  23 H :    0.095895
  24 H :    0.117904
  25 H :    0.129119
  26 H :    0.110062
  27 H :    0.121149
  28 H :    0.197285
  29 H :    0.194378
  30 H :    0.157083
  31 H :    0.160012
  32 H :    0.161902
  33 H :    0.131540
  34 H :    0.241488
  35 H :    0.172489
Sum of atomic charges:   -0.0000000

LOEWDIN ATOMIC CHARGES
----------------------
   0 C :    0.111765
   1 C :   -0.022718
   2 O :    0.289139
   3 C :   -0.421449
   4 O :    0.136042
   5 C :   -0.094950
   6 C :   -0.077609
   7 C :    0.127198
   8 N :    0.404189
   9 C :   -0.457618
  10 S :   -0.034666
  11 N :    0.397031
  12 C :   -0.045756
  13 C :   -0.041649
  14 C :    0.021831
  15 C :    0.042359
  16 C :   -0.001850
  17 C :   -0.195144
  18 O :    0.393439
  19 C :    0.028676
  20 H :   -0.022430
  21 H :   -0.029869
  22 H :   -0.024389
  23 H :   -0.038242
  24 H :   -0.023475
  25 H :   -0.006522
  26 H :   -0.018072
  27 H :   -0.011518
  28 H :   -0.058491
  29 H :   -0.063913
  30 H :   -0.003925
  31 H :   -0.023767
  32 H :   -0.019723
  33 H :   -0.035219
  34 H :   -0.153416
  35 H :   -0.025286

  Mayer bond orders larger than 0.100000
B(  0-C ,  1-C ) :   0.9787 B(  0-C , 20-H ) :   0.9788 B(  0-C , 21-H ) :   0.9791
B(  0-C , 22-H ) :   0.9763 B(  1-C ,  2-O ) :   0.8874 B(  1-C , 23-H ) :   0.9681
B(  1-C , 24-H ) :   0.9728 B(  2-O ,  3-C ) :   1.1090 B(  3-C ,  4-O ) :   2.0657
B(  3-C ,  5-C ) :   0.9858 B(  5-C ,  6-C ) :   1.6634 B(  5-C , 12-C ) :   0.9675
B(  6-C ,  7-C ) :   0.9515 B(  6-C ,  8-N ) :   1.1374 B(  7-C , 25-H ) :   0.9704
B(  7-C , 26-H ) :   0.9863 B(  7-C , 27-H ) :   0.9636 B(  8-N ,  9-C ) :   1.1832
B(  8-N , 28-H ) :   0.9497 B(  9-C , 10-S ) :   1.6138 B(  9-C , 11-N ) :   1.2982
B( 11-N , 12-C ) :   0.9944 B( 11-N , 29-H ) :   0.9519 B( 12-C , 13-C ) :   0.9460
B( 12-C , 30-H ) :   0.9988 B( 13-C , 14-C ) :   1.3819 B( 13-C , 19-C ) :   1.3522
B( 14-C , 15-C ) :   1.3946 B( 14-C , 31-H ) :   0.9621 B( 15-C , 16-C ) :   1.3644
B( 15-C , 32-H ) :   0.9707 B( 16-C , 17-C ) :   1.3299 B( 16-C , 33-H ) :   0.9846
B( 17-C , 18-O ) :   1.1110 B( 17-C , 19-C ) :   1.3726 B( 18-O , 34-H ) :   0.9796
B( 19-C , 35-H ) :   0.9587

MP2 TOTAL ENERGY:    -1274.324677551 Eh
FINAL SINGLE POINT ENERGY     -1274.324677551404

DIPOLE MOMENT
-------------
                                X             Y             Z
Electronic contribution:     11.24821       9.01688       7.46063
Nuclear contribution   :    -12.57974     -10.14463      -7.85918
                        -----------------------------------------
Total Dipole Moment    :     -1.33153      -1.12776      -0.39855
                        -----------------------------------------
Magnitude (a.u.)       :      1.78988
Magnitude (Debye)      :      4.54951

Rotational constants in cm-1:     0.011503     0.009246     0.006712
Rotational constants in MHz :   344.852172   277.192836   201.210365

                             ****ORCA TERMINATED NORMALLY****
TOTAL RUN TIME: 0 days 1 hours 49 minutes 40 seconds 495 msec
