                         Program Version 4.2.0 -  RELEASE  -
|  1> ! ri-mp2 cc-pvtz cc-pvtz/c TightSCF  NoKeepInts
|  2>
|  3> %scf
|  4>   MaxCore 4096
|  5> end
|  6> *xyz  0  1
|  7>     C       14.1855429   14.9607406   15.3964564
|  8>     C       15.5557954   14.6148238   16.0027537
|  9>     O       16.3253302   15.8264254   16.0487004
| 10>     C       17.5459620   15.7895164   16.6554899
| 11>     O       18.1859056   14.7538560   16.7394414
| 12>     C       17.8021313   16.9588902   17.5611260
| 13>     C       17.2341627   18.1845643   17.4178505
| 14>     C       16.2708608   18.6429030   16.3421013
| 15>     N       17.5885630   19.2200713   18.2887660
| 16>     C       18.5963746   19.1545995   19.2145032
| 17>     S       19.0361656   20.4679023   20.1185982
| 18>     N       19.2227447   17.9417424   19.3516162
| 19>     C       18.7885835   16.6901452   18.7029035
| 20>     C       18.1866324   15.7367405   19.7320241
| 21>     C       18.6903768   14.4305201   19.8737701
| 22>     C       18.1368986   13.5472434   20.8157981
| 23>     C       17.0692957   13.9725911   21.6244529
| 24>     C       16.5619120   15.2713918   21.4839706
| 25>     O       15.5266569   15.6830001   22.2586678
| 26>     C       17.1145081   16.1480374   20.5450545
| 27>     H       13.6666065   15.7055242   16.0124641
| 28>     H       13.5551429   14.0651852   15.3364909
| 29>     H       14.3023299   15.3669689   14.3840317
| 30>     H       15.4241753   14.2077914   17.0147398
| 31>     H       16.0636719   13.8611618   15.3855424
| 32>     H       16.6161497   18.3298311   15.3488363
| 33>     H       16.1581170   19.7334400   16.3126845
| 34>     H       15.2757823   18.2101111   16.5043097
| 35>     H       17.1406810   20.1184712   18.2032302
| 36>     H       19.9412547   17.9115544   20.0635024
| 37>     H       19.6798483   16.2126841   18.2706092
| 38>     H       19.5045006   14.0933465   19.2367696
| 39>     H       18.5322535   12.5375596   20.9111258
| 40>     H       16.6378055   13.2931320   22.3518393
| 41>     H       15.3154379   14.9597068   22.8678022
| 42>     H       16.7088399   17.1498269   20.4559772
| 43> *
| 44>
| 45>                          ****END OF INPUT****

CARTESIAN COORDINATES (ANGSTROEM)
---------------------------------
  C     14.185543   14.960741   15.396456
  C     15.555795   14.614824   16.002754
  O     16.325330   15.826425   16.048700
  C     17.545962   15.789516   16.655490
  O     18.185906   14.753856   16.739441
  C     17.802131   16.958890   17.561126
  C     17.234163   18.184564   17.417851
  C     16.270861   18.642903   16.342101
  N     17.588563   19.220071   18.288766
  C     18.596375   19.154599   19.214503
  S     19.036166   20.467902   20.118598
  N     19.222745   17.941742   19.351616
  C     18.788583   16.690145   18.702904
  C     18.186632   15.736740   19.732024
  C     18.690377   14.430520   19.873770
  C     18.136899   13.547243   20.815798
  C     17.069296   13.972591   21.624453
  C     16.561912   15.271392   21.483971
  O     15.526657   15.683000   22.258668
  C     17.114508   16.148037   20.545054
  H     13.666607   15.705524   16.012464
  H     13.555143   14.065185   15.336491
  H     14.302330   15.366969   14.384032
  H     15.424175   14.207791   17.014740
  H     16.063672   13.861162   15.385542
  H     16.616150   18.329831   15.348836
  H     16.158117   19.733440   16.312684
  H     15.275782   18.210111   16.504310
  H     17.140681   20.118471   18.203230
  H     19.941255   17.911554   20.063502
  H     19.679848   16.212684   18.270609
  H     19.504501   14.093347   19.236770
  H     18.532253   12.537560   20.911126
  H     16.637805   13.293132   22.351839
  H     15.315438   14.959707   22.867802
  H     16.708840   17.149827   20.455977

 Total Charge           Charge          ....    0
 Multiplicity           Mult            ....    1
 Number of Electrons    NEL             ....  154
 Basis Dimension        Dim             ....  828

ORBITAL ENERGIES
----------------

  NO   OCC          E(Eh)            E(eV)
   0   2.0000     -91.888175     -2500.4044
   1   2.0000     -20.598024      -560.5007
   2   2.0000     -20.592698      -560.3558
   3   2.0000     -20.548785      -559.1609
   4   2.0000     -15.628307      -425.2678
   5   2.0000     -15.607040      -424.6892
   6   2.0000     -11.394640      -310.0639
   7   2.0000     -11.383243      -309.7538
   8   2.0000     -11.335167      -308.4456
   9   2.0000     -11.308566      -307.7217
  10   2.0000     -11.306417      -307.6633
  11   2.0000     -11.298998      -307.4614
  12   2.0000     -11.260274      -306.4076
  13   2.0000     -11.259281      -306.3806
  14   2.0000     -11.254383      -306.2473
  15   2.0000     -11.248653      -306.0914
  16   2.0000     -11.238331      -305.8105
  17   2.0000     -11.234693      -305.7115
  18   2.0000     -11.234401      -305.7036
  19   2.0000     -11.231409      -305.6222
  20   2.0000      -8.893241      -241.9974
  21   2.0000      -6.574819      -178.9099
  22   2.0000      -6.572811      -178.8553
  23   2.0000      -6.572226      -178.8394
  24   2.0000      -1.455172       -39.5972
  25   2.0000      -1.412442       -38.4345
  26   2.0000      -1.357218       -36.9318
  27   2.0000      -1.339278       -36.4436
  28   2.0000      -1.237081       -33.6627
  29   2.0000      -1.153015       -31.3751
  30   2.0000      -1.120005       -30.4769
  31   2.0000      -1.044500       -28.4223
  32   2.0000      -1.037066       -28.2200
  33   2.0000      -1.010402       -27.4944
  34   2.0000      -0.998011       -27.1573
  35   2.0000      -0.983679       -26.7673
  36   2.0000      -0.921536       -25.0763
  37   2.0000      -0.886777       -24.1304
  38   2.0000      -0.847086       -23.0504
  39   2.0000      -0.835714       -22.7409
  40   2.0000      -0.828815       -22.5532
  41   2.0000      -0.819805       -22.3080
  42   2.0000      -0.760642       -20.6981
  43   2.0000      -0.735902       -20.0249
  44   2.0000      -0.725638       -19.7456
  45   2.0000      -0.691216       -18.8089
  46   2.0000      -0.683576       -18.6010
  47   2.0000      -0.681962       -18.5571
  48   2.0000      -0.676259       -18.4019
  49   2.0000      -0.657251       -17.8847
  50   2.0000      -0.651271       -17.7220
  51   2.0000      -0.643541       -17.5116
  52   2.0000      -0.635026       -17.2799
  53   2.0000      -0.603996       -16.4356
  54   2.0000      -0.601252       -16.3609
  55   2.0000      -0.600799       -16.3486
  56   2.0000      -0.596073       -16.2200
  57   2.0000      -0.576857       -15.6971
  58   2.0000      -0.574092       -15.6218
  59   2.0000      -0.563864       -15.3435
  60   2.0000      -0.561068       -15.2674
  61   2.0000      -0.550529       -14.9807
  62   2.0000      -0.542621       -14.7655
  63   2.0000      -0.519790       -14.1442
  64   2.0000      -0.517478       -14.0813
  65   2.0000      -0.510445       -13.8899
  66   2.0000      -0.506371       -13.7790
  67   2.0000      -0.496189       -13.5020
  68   2.0000      -0.481329       -13.0976
  69   2.0000      -0.462950       -12.5975
  70   2.0000      -0.461156       -12.5487
  71   2.0000      -0.453959       -12.3528
  72   2.0000      -0.354023        -9.6335
  73   2.0000      -0.344853        -9.3839
  74   2.0000      -0.327346        -8.9075
  75   2.0000      -0.316018        -8.5993
  76   2.0000      -0.314589        -8.5604
  77   0.0000       0.074661         2.0316
  78   0.0000       0.110825         3.0157
  79   0.0000       0.120034         3.2663
  80   0.0000       0.135099         3.6762
  81   0.0000       0.138580         3.7710

MULLIKEN ATOMIC CHARGES
-----------------------
   0 C :   -0.276861
   1 C :    0.052080
   2 O :   -0.346609
   3 C :    0.432606
   4 O :   -0.414624
   5 C :   -0.174164
   6 C :    0.142486
   7 C :   -0.286976
   8 N :   -0.123916
   9 C :    0.202230
  10 S :   -0.439607
  11 N :   -0.198394
  12 C :    0.041938
  13 C :    0.053943
  14 C :   -0.160920
  15 C :   -0.133716
  16 C :   -0.279994
  17 C :    0.311266
  18 O :   -0.358996
  19 C :   -0.274015
  20 H :    0.092476
  21 H :    0.100225
  22 H :    0.097726
  23 H :    0.090067
  24 H :    0.102545
  25 H :    0.126115
  26 H :    0.104255
  27 H :    0.126499
  28 H :    0.197009
  29 H :    0.193825
  30 H :    0.153972
  31 H :    0.153843
  32 H :    0.159559
  33 H :    0.128610
  34 H :    0.240219
  35 H :    0.165299
Sum of atomic charges:    0.0000000

LOEWDIN ATOMIC CHARGES
----------------------
   0 C :    0.107593
   1 C :   -0.018106
   2 O :    0.301731
   3 C :   -0.414797
   4 O :    0.111955
   5 C :   -0.092065
   6 C :   -0.068844
   7 C :    0.125388
   8 N :    0.404528
   9 C :   -0.458380
  10 S :   -0.036237
  11 N :    0.397555
  12 C :   -0.045993
  13 C :   -0.039186
  14 C :    0.022008
  15 C :    0.040974
  16 C :   -0.002510
  17 C :   -0.193089
  18 O :    0.392993
  19 C :    0.028053
  20 H :   -0.029216
  21 H :   -0.022932
  22 H :   -0.026635
  23 H :   -0.027765
  24 H :   -0.028009
  25 H :   -0.008305
  26 H :   -0.020453
  27 H :   -0.010474
  28 H :   -0.059010
  29 H :   -0.063820
  30 H :   -0.004781
  31 H :   -0.025148
  32 H :   -0.021031
  33 H :   -0.036285
  34 H :   -0.154777
  35 H :   -0.024930

  Mayer bond orders larger than 0.100000
B(  0-C ,  1-C ) :   0.9704 B(  0-C , 20-H ) :   0.9783 B(  0-C , 21-H ) :   0.9783
B(  0-C , 22-H ) :   0.9770 B(  1-C ,  2-O ) :   0.9056 B(  1-C , 23-H ) :   0.9730
B(  1-C , 24-H ) :   0.9798 B(  2-O ,  3-C ) :   1.1342 B(  3-C ,  4-O ) :   2.0043
B(  3-C ,  5-C ) :   1.0402 B(  5-C ,  6-C ) :   1.6552 B(  5-C , 12-C ) :   0.9663
B(  6-C ,  7-C ) :   0.9532 B(  6-C ,  8-N ) :   1.1407 B(  7-C , 25-H ) :   0.9676
B(  7-C , 26-H ) :   0.9909 B(  7-C , 27-H ) :   0.9627 B(  8-N ,  9-C ) :   1.1811
B(  8-N , 28-H ) :   0.9492 B(  9-C , 10-S ) :   1.6105 B(  9-C , 11-N ) :   1.3028
B( 11-N , 12-C ) :   0.9912 B( 11-N , 29-H ) :   0.9519 B( 12-C , 13-C ) :   0.9467
B( 12-C , 30-H ) :   0.9992 B( 13-C , 14-C ) :   1.3765 B( 13-C , 19-C ) :   1.3691
B( 14-C , 15-C ) :   1.3947 B( 14-C , 31-H ) :   0.9646 B( 15-C , 16-C ) :   1.3628
B( 15-C , 32-H ) :   0.9713 B( 16-C , 17-C ) :   1.3312 B( 16-C , 33-H ) :   0.9858
B( 17-C , 18-O ) :   1.1083 B( 17-C , 19-C ) :   1.3784 B( 18-O , 34-H ) :   0.9804
B( 19-C , 35-H ) :   0.9583

MP2 TOTAL ENERGY:    -1274.340824303 Eh
FINAL SINGLE POINT ENERGY     -1274.340824303240

DIPOLE MOMENT
-------------
                                X             Y             Z
Electronic contribution:     12.12223       8.72630       9.93275
Nuclear contribution   :    -13.58643     -10.06337     -10.77634
                        -----------------------------------------
Total Dipole Moment    :     -1.46420      -1.33708      -0.84359
                        -----------------------------------------
Magnitude (a.u.)       :      2.15483
Magnitude (Debye)      :      5.47714

Rotational constants in cm-1:     0.010430     0.009111     0.006100
Rotational constants in MHz :   312.687616   273.139323   182.881813

                             ****ORCA TERMINATED NORMALLY****
TOTAL RUN TIME: 0 days 2 hours 7 minutes 28 seconds 243 msec
