                         Program Version 4.2.0 -  RELEASE  -
|  1> ! ri-mp2 cc-pvtz cc-pvtz/c TightSCF  NoKeepInts
|  2>
|  3> %scf
|  4>   MaxCore 4096
|  5> end
|  6> *xyz  0  1
|  7>     C       14.6379622   14.3654340   17.1462025
|  8>     C       15.5984323   15.3807842   16.5064119
|  9>     O       16.9279978   14.9807918   16.8593027
| 10>     C       17.9882348   15.7603714   16.5052940
| 11>     O       19.0276285   15.2046195   16.2048143
| 12>     C       18.0608194   16.9475814   17.4002099
| 13>     C       17.5921742   18.1522536   17.0098124
| 14>     C       16.9508366   18.4789899   15.6784273
| 15>     N       17.7139424   19.2541770   17.8589531
| 16>     C       18.3721787   19.2395088   19.0618616
| 17>     S       18.5194135   20.6036804   19.9850176
| 18>     N       18.8971370   18.0353599   19.4656523
| 19>     C       18.7276697   16.7483432   18.7609522
| 20>     C       17.9500312   15.7552698   19.6175724
| 21>     C       18.4434722   14.4531242   19.8179263
| 22>     C       17.7191381   13.5238802   20.5832014
| 23>     C       16.4886569   13.8978601   21.1497025
| 24>     C       15.9910092   15.1919562   20.9458182
| 25>     O       14.7956752   15.5510536   21.4780843
| 26>     C       16.7147936   16.1160462   20.1860977
| 27>     H       14.8379499   13.3545271   16.7693259
| 28>     H       13.5958919   14.6193831   16.9178602
| 29>     H       14.7592175   14.3556593   18.2368973
| 30>     H       15.4743045   15.3869868   15.4154106
| 31>     H       15.3738438   16.3799440   16.9001949
| 32>     H       17.2089360   17.7452767   14.9048164
| 33>     H       17.2891038   19.4548264   15.3068052
| 34>     H       15.8580961   18.5140079   15.7653962
| 35>     H       17.3435587   20.1488219   17.5791900
| 36>     H       19.3526835   18.0503259   20.3692740
| 37>     H       19.7289493   16.3322921   18.5765315
| 38>     H       19.3840985   14.1546771   19.3612312
| 39>     H       18.1080712   12.5171823   20.7253436
| 40>     H       15.9238696   13.1809428   21.7361707
| 41>     H       14.4801281   14.8042889   22.0091455
| 42>     H       16.3110941   17.1117722   20.0390924
| 43> *
| 44>
| 45>                          ****END OF INPUT****

CARTESIAN COORDINATES (ANGSTROEM)
---------------------------------
  C     14.637962   14.365434   17.146203
  C     15.598432   15.380784   16.506412
  O     16.927998   14.980792   16.859303
  C     17.988235   15.760371   16.505294
  O     19.027628   15.204619   16.204814
  C     18.060819   16.947581   17.400210
  C     17.592174   18.152254   17.009812
  C     16.950837   18.478990   15.678427
  N     17.713942   19.254177   17.858953
  C     18.372179   19.239509   19.061862
  S     18.519413   20.603680   19.985018
  N     18.897137   18.035360   19.465652
  C     18.727670   16.748343   18.760952
  C     17.950031   15.755270   19.617572
  C     18.443472   14.453124   19.817926
  C     17.719138   13.523880   20.583201
  C     16.488657   13.897860   21.149703
  C     15.991009   15.191956   20.945818
  O     14.795675   15.551054   21.478084
  C     16.714794   16.116046   20.186098
  H     14.837950   13.354527   16.769326
  H     13.595892   14.619383   16.917860
  H     14.759218   14.355659   18.236897
  H     15.474304   15.386987   15.415411
  H     15.373844   16.379944   16.900195
  H     17.208936   17.745277   14.904816
  H     17.289104   19.454826   15.306805
  H     15.858096   18.514008   15.765396
  H     17.343559   20.148822   17.579190
  H     19.352684   18.050326   20.369274
  H     19.728949   16.332292   18.576531
  H     19.384099   14.154677   19.361231
  H     18.108071   12.517182   20.725344
  H     15.923870   13.180943   21.736171
  H     14.480128   14.804289   22.009145
  H     16.311094   17.111772   20.039092

 Total Charge           Charge          ....    0
 Multiplicity           Mult            ....    1
 Number of Electrons    NEL             ....  154
 Basis Dimension        Dim             ....  828

ORBITAL ENERGIES
----------------

  NO   OCC          E(Eh)            E(eV)
   0   2.0000     -91.885658     -2500.3359
   1   2.0000     -20.598131      -560.5036
   2   2.0000     -20.597989      -560.4998
   3   2.0000     -20.564572      -559.5905
   4   2.0000     -15.620443      -425.0539
   5   2.0000     -15.608881      -424.7392
   6   2.0000     -11.393742      -310.0395
   7   2.0000     -11.382701      -309.7390
   8   2.0000     -11.318555      -307.9935
   9   2.0000     -11.315119      -307.9000
  10   2.0000     -11.313970      -307.8688
  11   2.0000     -11.305972      -307.6511
  12   2.0000     -11.268199      -306.6233
  13   2.0000     -11.262474      -306.4675
  14   2.0000     -11.260419      -306.4116
  15   2.0000     -11.254432      -306.2487
  16   2.0000     -11.243445      -305.9497
  17   2.0000     -11.238648      -305.8192
  18   2.0000     -11.237292      -305.7823
  19   2.0000     -11.231922      -305.6361
  20   2.0000      -8.890817      -241.9314
  21   2.0000      -6.572419      -178.8446
  22   2.0000      -6.570381      -178.7892
  23   2.0000      -6.569821      -178.7739
  24   2.0000      -1.460137       -39.7323
  25   2.0000      -1.417844       -38.5815
  26   2.0000      -1.366454       -37.1831
  27   2.0000      -1.335125       -36.3306
  28   2.0000      -1.235955       -33.6320
  29   2.0000      -1.158076       -31.5129
  30   2.0000      -1.122701       -30.5503
  31   2.0000      -1.046584       -28.4790
  32   2.0000      -1.041400       -28.3379
  33   2.0000      -1.015758       -27.6402
  34   2.0000      -1.002165       -27.2703
  35   2.0000      -0.985427       -26.8148
  36   2.0000      -0.925263       -25.1777
  37   2.0000      -0.882416       -24.0118
  38   2.0000      -0.851318       -23.1656
  39   2.0000      -0.838521       -22.8173
  40   2.0000      -0.834880       -22.7183
  41   2.0000      -0.833976       -22.6936
  42   2.0000      -0.760426       -20.6923
  43   2.0000      -0.735300       -20.0085
  44   2.0000      -0.729355       -19.8468
  45   2.0000      -0.697140       -18.9701
  46   2.0000      -0.691355       -18.8127
  47   2.0000      -0.683602       -18.6018
  48   2.0000      -0.676513       -18.4089
  49   2.0000      -0.662031       -18.0148
  50   2.0000      -0.653374       -17.7792
  51   2.0000      -0.644418       -17.5355
  52   2.0000      -0.636901       -17.3310
  53   2.0000      -0.617622       -16.8064
  54   2.0000      -0.609460       -16.5843
  55   2.0000      -0.605315       -16.4715
  56   2.0000      -0.601280       -16.3617
  57   2.0000      -0.586528       -15.9602
  58   2.0000      -0.576657       -15.6916
  59   2.0000      -0.564763       -15.3680
  60   2.0000      -0.560027       -15.2391
  61   2.0000      -0.549300       -14.9472
  62   2.0000      -0.541134       -14.7250
  63   2.0000      -0.529449       -14.4070
  64   2.0000      -0.521601       -14.1935
  65   2.0000      -0.512144       -13.9361
  66   2.0000      -0.500947       -13.6315
  67   2.0000      -0.499146       -13.5824
  68   2.0000      -0.490735       -13.3536
  69   2.0000      -0.466146       -12.6845
  70   2.0000      -0.460382       -12.5276
  71   2.0000      -0.454423       -12.3655
  72   2.0000      -0.353151        -9.6097
  73   2.0000      -0.347999        -9.4695
  74   2.0000      -0.325839        -8.8665
  75   2.0000      -0.321636        -8.7522
  76   2.0000      -0.313579        -8.5329
  77   0.0000       0.089862         2.4453
  78   0.0000       0.098216         2.6726
  79   0.0000       0.108480         2.9519
  80   0.0000       0.125010         3.4017
  81   0.0000       0.128156         3.4873

MULLIKEN ATOMIC CHARGES
-----------------------
   0 C :   -0.263214
   1 C :    0.005362
   2 O :   -0.304044
   3 C :    0.379833
   4 O :   -0.349801
   5 C :   -0.137988
   6 C :    0.114020
   7 C :   -0.322001
   8 N :   -0.133263
   9 C :    0.210521
  10 S :   -0.448562
  11 N :   -0.205374
  12 C :    0.030359
  13 C :    0.052732
  14 C :   -0.176128
  15 C :   -0.131591
  16 C :   -0.267692
  17 C :    0.291705
  18 O :   -0.364542
  19 C :   -0.260537
  20 H :    0.102862
  21 H :    0.085610
  22 H :    0.115639
  23 H :    0.106895
  24 H :    0.083455
  25 H :    0.118748
  26 H :    0.127321
  27 H :    0.123130
  28 H :    0.193659
  29 H :    0.195860
  30 H :    0.164324
  31 H :    0.155184
  32 H :    0.160980
  33 H :    0.131617
  34 H :    0.241332
  35 H :    0.173585
Sum of atomic charges:   -0.0000000

LOEWDIN ATOMIC CHARGES
----------------------
   0 C :    0.113713
   1 C :   -0.036309
   2 O :    0.330493
   3 C :   -0.426832
   4 O :    0.153263
   5 C :   -0.078793
   6 C :   -0.118755
   7 C :    0.122092
   8 N :    0.398406
   9 C :   -0.454458
  10 S :   -0.043693
  11 N :    0.397290
  12 C :   -0.040543
  13 C :   -0.038712
  14 C :    0.022419
  15 C :    0.045926
  16 C :   -0.000951
  17 C :   -0.193831
  18 O :    0.393949
  19 C :    0.029348
  20 H :   -0.024126
  21 H :   -0.026416
  22 H :   -0.022243
  23 H :   -0.034327
  24 H :   -0.038407
  25 H :   -0.011376
  26 H :   -0.012037
  27 H :   -0.018114
  28 H :   -0.060737
  29 H :   -0.063927
  30 H :   -0.003593
  31 H :   -0.025433
  32 H :   -0.019550
  33 H :   -0.035452
  34 H :   -0.153639
  35 H :   -0.024645

  Mayer bond orders larger than 0.100000
B(  0-C ,  1-C ) :   0.9836 B(  0-C , 20-H ) :   0.9804 B(  0-C , 21-H ) :   0.9762
B(  0-C , 22-H ) :   0.9728 B(  1-C ,  2-O ) :   0.9249 B(  1-C , 23-H ) :   0.9781
B(  1-C , 24-H ) :   0.9656 B(  2-O ,  3-C ) :   1.0877 B(  3-C ,  4-O ) :   2.1103
B(  3-C ,  5-C ) :   0.9324 B(  5-C ,  6-C ) :   1.7256 B(  5-C , 12-C ) :   0.9728
B(  6-C ,  7-C ) :   0.9384 B(  6-C ,  8-N ) :   1.1022 B(  7-C , 25-H ) :   0.9815
B(  7-C , 26-H ) :   0.9768 B(  7-C , 27-H ) :   0.9667 B(  8-N ,  9-C ) :   1.2035
B(  8-N , 28-H ) :   0.9542 B(  9-C , 10-S ) :   1.6030 B(  9-C , 11-N ) :   1.2862
B( 11-N , 12-C ) :   1.0006 B( 11-N , 29-H ) :   0.9490 B( 12-C , 13-C ) :   0.9487
B( 12-C , 30-H ) :   0.9991 B( 13-C , 14-C ) :   1.3779 B( 13-C , 19-C ) :   1.3540
B( 14-C , 15-C ) :   1.3932 B( 14-C , 31-H ) :   0.9669 B( 15-C , 16-C ) :   1.3682
B( 15-C , 32-H ) :   0.9709 B( 16-C , 17-C ) :   1.3283 B( 16-C , 33-H ) :   0.9848
B( 17-C , 18-O ) :   1.0987 B( 17-C , 19-C ) :   1.3714 B( 18-O , 34-H ) :   0.9796
B( 19-C , 35-H ) :   0.9571

MP2 TOTAL ENERGY:    -1274.310753008 Eh
FINAL SINGLE POINT ENERGY     -1274.310753007869

DIPOLE MOMENT
-------------
                                X             Y             Z
Electronic contribution:     10.76571       8.30130       6.78583
Nuclear contribution   :    -12.39202      -9.58607      -7.57085
                        -----------------------------------------
Total Dipole Moment    :     -1.62631      -1.28477      -0.78503
                        -----------------------------------------
Magnitude (a.u.)       :      2.21625
Magnitude (Debye)      :      5.63327

Rotational constants in cm-1:     0.012505     0.008934     0.006833
Rotational constants in MHz :   374.900071   267.832482   204.859003

                             ****ORCA TERMINATED NORMALLY****
TOTAL RUN TIME: 0 days 1 hours 49 minutes 23 seconds 99 msec
