                         Program Version 4.2.0 -  RELEASE  -
|  1> ! ri-mp2 cc-pvtz cc-pvtz/c TightSCF  NoKeepInts
|  2>
|  3> %scf
|  4>   MaxCore 4096
|  5> end
|  6> *xyz  0  1
|  7>     C       15.3774717   14.4080623   17.3777840
|  8>     C       16.3219100   14.2407215   16.1761407
|  9>     O       17.5830842   14.9033223   16.4167969
| 10>     C       17.6890048   16.2204618   16.0713067
| 11>     O       17.2952320   16.5951447   14.9803507
| 12>     C       17.7656314   17.1290527   17.2673799
| 13>     C       17.3266402   18.4140260   17.2425368
| 14>     C       16.5687591   19.1086748   16.1315486
| 15>     N       17.6197345   19.2706123   18.3086625
| 16>     C       18.5401463   18.9987019   19.2868304
| 17>     S       19.0014515   20.1341560   20.3973988
| 18>     N       19.0697232   17.7324974   19.2876180
| 19>     C       18.5416421   16.6096961   18.4901903
| 20>     C       17.7340789   15.6947051   19.4047775
| 21>     C       18.1802844   14.3858525   19.6698736
| 22>     C       17.4726406   13.5535792   20.5538984
| 23>     C       16.3102610   14.0340372   21.1810051
| 24>     C       15.8662718   15.3385542   20.9246070
| 25>     O       14.7443535   15.8054356   21.5277731
| 26>     C       16.5739957   16.1654844   20.0467482
| 27>     H       15.7822702   13.9040129   18.2610756
| 28>     H       14.4006821   13.9609490   17.1578179
| 29>     H       15.2188918   15.4677266   17.6109088
| 30>     H       16.5065302   13.1688376   16.0295389
| 31>     H       15.8432916   14.6179311   15.2619436
| 32>     H       15.7073429   18.5068938   15.8154923
| 33>     H       17.2129279   19.2443426   15.2532679
| 34>     H       16.1893390   20.0945738   16.4244615
| 35>     H       17.2528318   20.2089982   18.3084208
| 36>     H       19.7264165   17.5507010   20.0357222
| 37>     H       19.4019677   16.0385574   18.1138581
| 38>     H       19.0798109   14.0114153   19.1884708
| 39>     H       17.8259536   12.5428426   20.7509793
| 40>     H       15.7602357   13.3950156   21.8640202
| 41>     H       14.4344068   15.1197109   22.1383144
| 42>     H       16.2217842   17.1767134   19.8764807
| 43> *
| 44>
| 45>                          ****END OF INPUT****

CARTESIAN COORDINATES (ANGSTROEM)
---------------------------------
  C     15.377472   14.408062   17.377784
  C     16.321910   14.240721   16.176141
  O     17.583084   14.903322   16.416797
  C     17.689005   16.220462   16.071307
  O     17.295232   16.595145   14.980351
  C     17.765631   17.129053   17.267380
  C     17.326640   18.414026   17.242537
  C     16.568759   19.108675   16.131549
  N     17.619734   19.270612   18.308662
  C     18.540146   18.998702   19.286830
  S     19.001452   20.134156   20.397399
  N     19.069723   17.732497   19.287618
  C     18.541642   16.609696   18.490190
  C     17.734079   15.694705   19.404778
  C     18.180284   14.385853   19.669874
  C     17.472641   13.553579   20.553898
  C     16.310261   14.034037   21.181005
  C     15.866272   15.338554   20.924607
  O     14.744353   15.805436   21.527773
  C     16.573996   16.165484   20.046748
  H     15.782270   13.904013   18.261076
  H     14.400682   13.960949   17.157818
  H     15.218892   15.467727   17.610909
  H     16.506530   13.168838   16.029539
  H     15.843292   14.617931   15.261944
  H     15.707343   18.506894   15.815492
  H     17.212928   19.244343   15.253268
  H     16.189339   20.094574   16.424461
  H     17.252832   20.208998   18.308421
  H     19.726416   17.550701   20.035722
  H     19.401968   16.038557   18.113858
  H     19.079811   14.011415   19.188471
  H     17.825954   12.542843   20.750979
  H     15.760236   13.395016   21.864020
  H     14.434407   15.119711   22.138314
  H     16.221784   17.176713   19.876481

 Total Charge           Charge          ....    0
 Multiplicity           Mult            ....    1
 Number of Electrons    NEL             ....  154
 Basis Dimension        Dim             ....  828

ORBITAL ENERGIES
----------------

  NO   OCC          E(Eh)            E(eV)
   0   2.0000     -91.890383     -2500.4644
   1   2.0000     -20.598458      -560.5125
   2   2.0000     -20.586013      -560.1739
   3   2.0000     -20.550417      -559.2053
   4   2.0000     -15.630434      -425.3257
   5   2.0000     -15.608895      -424.7396
   6   2.0000     -11.394743      -310.0667
   7   2.0000     -11.384835      -309.7971
   8   2.0000     -11.336343      -308.4776
   9   2.0000     -11.315524      -307.9111
  10   2.0000     -11.311814      -307.8101
  11   2.0000     -11.295542      -307.3673
  12   2.0000     -11.260981      -306.4269
  13   2.0000     -11.260677      -306.4186
  14   2.0000     -11.256994      -306.3184
  15   2.0000     -11.253773      -306.2307
  16   2.0000     -11.245176      -305.9968
  17   2.0000     -11.239660      -305.8467
  18   2.0000     -11.239410      -305.8399
  19   2.0000     -11.220490      -305.3250
  20   2.0000      -8.895397      -242.0560
  21   2.0000      -6.576961      -178.9682
  22   2.0000      -6.574969      -178.9140
  23   2.0000      -6.574372      -178.8978
  24   2.0000      -1.449879       -39.4532
  25   2.0000      -1.418158       -38.5900
  26   2.0000      -1.352597       -36.8060
  27   2.0000      -1.341630       -36.5076
  28   2.0000      -1.239814       -33.7371
  29   2.0000      -1.158695       -31.5297
  30   2.0000      -1.120799       -30.4985
  31   2.0000      -1.043817       -28.4037
  32   2.0000      -1.032623       -28.0991
  33   2.0000      -1.016878       -27.6707
  34   2.0000      -0.998470       -27.1698
  35   2.0000      -0.985593       -26.8194
  36   2.0000      -0.924310       -25.1518
  37   2.0000      -0.890048       -24.2194
  38   2.0000      -0.847697       -23.0670
  39   2.0000      -0.840924       -22.8827
  40   2.0000      -0.835616       -22.7383
  41   2.0000      -0.816530       -22.2189
  42   2.0000      -0.756251       -20.5786
  43   2.0000      -0.733600       -19.9623
  44   2.0000      -0.722919       -19.6716
  45   2.0000      -0.698008       -18.9938
  46   2.0000      -0.690282       -18.7835
  47   2.0000      -0.679123       -18.4799
  48   2.0000      -0.669093       -18.2069
  49   2.0000      -0.667044       -18.1512
  50   2.0000      -0.649290       -17.6681
  51   2.0000      -0.646088       -17.5810
  52   2.0000      -0.637330       -17.3426
  53   2.0000      -0.608964       -16.5708
  54   2.0000      -0.603465       -16.4211
  55   2.0000      -0.600199       -16.3322
  56   2.0000      -0.593564       -16.1517
  57   2.0000      -0.579168       -15.7600
  58   2.0000      -0.572778       -15.5861
  59   2.0000      -0.564873       -15.3710
  60   2.0000      -0.563624       -15.3370
  61   2.0000      -0.548529       -14.9262
  62   2.0000      -0.539458       -14.6794
  63   2.0000      -0.526532       -14.3277
  64   2.0000      -0.520149       -14.1540
  65   2.0000      -0.514548       -14.0016
  66   2.0000      -0.503451       -13.6996
  67   2.0000      -0.502013       -13.6605
  68   2.0000      -0.476355       -12.9623
  69   2.0000      -0.463468       -12.6116
  70   2.0000      -0.452227       -12.3057
  71   2.0000      -0.445992       -12.1361
  72   2.0000      -0.357542        -9.7292
  73   2.0000      -0.350019        -9.5245
  74   2.0000      -0.329549        -8.9675
  75   2.0000      -0.324038        -8.8175
  76   2.0000      -0.317080        -8.6282
  77   0.0000       0.068485         1.8636
  78   0.0000       0.104860         2.8534
  79   0.0000       0.119368         3.2482
  80   0.0000       0.130544         3.5523
  81   0.0000       0.133764         3.6399

MULLIKEN ATOMIC CHARGES
-----------------------
   0 C :   -0.317457
   1 C :    0.041280
   2 O :   -0.380072
   3 C :    0.476448
   4 O :   -0.409253
   5 C :   -0.232633
   6 C :    0.154506
   7 C :   -0.272357
   8 N :   -0.124923
   9 C :    0.203757
  10 S :   -0.434565
  11 N :   -0.192065
  12 C :    0.026246
  13 C :    0.085582
  14 C :   -0.182070
  15 C :   -0.132595
  16 C :   -0.281019
  17 C :    0.319988
  18 O :   -0.359112
  19 C :   -0.281268
  20 H :    0.110320
  21 H :    0.116106
  22 H :    0.100352
  23 H :    0.105537
  24 H :    0.113136
  25 H :    0.124715
  26 H :    0.137502
  27 H :    0.094226
  28 H :    0.198351
  29 H :    0.191098
  30 H :    0.148002
  31 H :    0.147749
  32 H :    0.161959
  33 H :    0.131669
  34 H :    0.241291
  35 H :    0.169568
Sum of atomic charges:   -0.0000000

LOEWDIN ATOMIC CHARGES
----------------------
   0 C :    0.104164
   1 C :   -0.013992
   2 O :    0.284333
   3 C :   -0.416450
   4 O :    0.120314
   5 C :   -0.096936
   6 C :   -0.062333
   7 C :    0.129635
   8 N :    0.406509
   9 C :   -0.457712
  10 S :   -0.032028
  11 N :    0.396718
  12 C :   -0.052641
  13 C :   -0.037258
  14 C :    0.013664
  15 C :    0.039392
  16 C :   -0.002307
  17 C :   -0.190175
  18 O :    0.396288
  19 C :    0.035046
  20 H :   -0.025412
  21 H :   -0.026070
  22 H :   -0.031292
  23 H :   -0.024561
  24 H :   -0.029099
  25 H :   -0.007178
  26 H :   -0.003410
  27 H :   -0.023043
  28 H :   -0.057901
  29 H :   -0.065286
  30 H :   -0.006609
  31 H :   -0.029438
  32 H :   -0.020744
  33 H :   -0.035224
  34 H :   -0.153395
  35 H :   -0.025568

  Mayer bond orders larger than 0.100000
B(  0-C ,  1-C ) :   0.9638 B(  0-C , 20-H ) :   0.9733 B(  0-C , 21-H ) :   0.9774
B(  0-C , 22-H ) :   0.9724 B(  1-C ,  2-O ) :   0.8825 B(  1-C , 23-H ) :   0.9865
B(  1-C , 24-H ) :   0.9782 B(  2-O ,  3-C ) :   1.1093 B(  3-C ,  4-O ) :   2.0040
B(  3-C ,  5-C ) :   1.0535 B(  5-C ,  6-C ) :   1.6591 B(  5-C , 12-C ) :   0.9736
B(  6-C ,  7-C ) :   0.9701 B(  6-C ,  8-N ) :   1.1429 B(  7-C , 25-H ) :   0.9666
B(  7-C , 26-H ) :   0.9570 B(  7-C , 27-H ) :   0.9878 B(  8-N ,  9-C ) :   1.1784
B(  8-N , 28-H ) :   0.9488 B(  9-C , 10-S ) :   1.6177 B(  9-C , 11-N ) :   1.2987
B( 11-N , 12-C ) :   0.9852 B( 11-N , 29-H ) :   0.9542 B( 12-C , 13-C ) :   0.9415
B( 12-C , 30-H ) :   1.0061 B( 13-C , 14-C ) :   1.3595 B( 13-C , 19-C ) :   1.3585
B( 14-C , 15-C ) :   1.3875 B( 14-C , 31-H ) :   0.9723 B( 15-C , 16-C ) :   1.3620
B( 15-C , 32-H ) :   0.9713 B( 16-C , 17-C ) :   1.3310 B( 16-C , 33-H ) :   0.9849
B( 17-C , 18-O ) :   1.1121 B( 17-C , 19-C ) :   1.3705 B( 18-O , 34-H ) :   0.9795
B( 19-C , 35-H ) :   0.9577

MP2 TOTAL ENERGY:    -1274.328237949 Eh
FINAL SINGLE POINT ENERGY     -1274.328237949171

DIPOLE MOMENT
-------------
                                X             Y             Z
Electronic contribution:      9.35288       9.35866       5.42633
Nuclear contribution   :    -10.38721     -11.01588      -5.50340
                        -----------------------------------------
Total Dipole Moment    :     -1.03433      -1.65722      -0.07708
                        -----------------------------------------
Magnitude (a.u.)       :      1.95504
Magnitude (Debye)      :      4.96931

Rotational constants in cm-1:     0.011773     0.009787     0.006576
Rotational constants in MHz :   352.960376   293.406281   197.138582

                             ****ORCA TERMINATED NORMALLY****
TOTAL RUN TIME: 0 days 1 hours 49 minutes 59 seconds 275 msec
