                         Program Version 5.0.0 -  RELEASE  -
|  1> ! ri-mp2 cc-pvtz cc-pvtz/c TightSCF NoKeepInts
|  2>
|  3> %scf
|  4>   MaxCore 4096
|  5> end
|  6> *xyz  0  1
|  7>     C       14.1926352   15.5263576   16.1688669
|  8>     C       15.3979978   15.4621736   17.1221032
|  9>     O       16.5626971   15.1640071   16.3232085
| 10>     C       17.8175965   15.6834920   16.5283518
| 11>     O       18.7965754   15.0080647   16.2702632
| 12>     C       17.9243056   16.8635271   17.4379478
| 13>     C       17.3379049   18.0527527   17.1683088
| 14>     C       16.5213024   18.4068563   15.9445957
| 15>     N       17.5151263   19.1289729   18.0402415
| 16>     C       18.3324168   19.1134850   19.1409542
| 17>     S       18.5240060   20.4482317   20.0977911
| 18>     N       18.9783893   17.9322048   19.4145093
| 19>     C       18.7950093   16.6665638   18.6760910
| 20>     C       18.1946823   15.5836154   19.5663841
| 21>     C       18.7268469   14.2815617   19.5531890
| 22>     C       18.1589462   13.2681544   20.3430679
| 23>     C       17.0454329   13.5569127   21.1501393
| 24>     C       16.5069664   14.8504947   21.1593709
| 25>     O       15.4216728   15.1293602   21.9240252
| 26>     C       17.0741464   15.8576595   20.3723016
| 27>     H       13.2711977   15.7335935   16.7266131
| 28>     H       14.0672358   14.5702223   15.6450296
| 29>     H       14.3259597   16.3140031   15.4178852
| 30>     H       15.4685498   16.4118216   17.6610673
| 31>     H       15.2505764   14.6685518   17.8668543
| 32>     H       16.5973080   17.6436220   15.1602455
| 33>     H       16.8679224   19.3486699   15.5004142
| 34>     H       15.4607542   18.5234865   16.1984285
| 35>     H       17.0609347   20.0087144   17.8503324
| 36>     H       19.5567525   17.9446371   20.2452492
| 37>     H       19.7855530   16.3269388   18.3386467
| 38>     H       19.5745722   14.0498511   18.9116961
| 39>     H       18.5775741   12.2633222   20.3198828
| 40>     H       16.6016660   12.7753514   21.7580951
| 41>     H       15.2161340   14.3332777   22.4376514
| 42>     H       16.6396529   16.8514889   20.3941976
| 43> *
| 44>
| 45>                          ****END OF INPUT****

CARTESIAN COORDINATES (ANGSTROEM)
---------------------------------
  C     14.192635   15.526358   16.168867
  C     15.397998   15.462174   17.122103
  O     16.562697   15.164007   16.323208
  C     17.817597   15.683492   16.528352
  O     18.796575   15.008065   16.270263
  C     17.924306   16.863527   17.437948
  C     17.337905   18.052753   17.168309
  C     16.521302   18.406856   15.944596
  N     17.515126   19.128973   18.040242
  C     18.332417   19.113485   19.140954
  S     18.524006   20.448232   20.097791
  N     18.978389   17.932205   19.414509
  C     18.795009   16.666564   18.676091
  C     18.194682   15.583615   19.566384
  C     18.726847   14.281562   19.553189
  C     18.158946   13.268154   20.343068
  C     17.045433   13.556913   21.150139
  C     16.506966   14.850495   21.159371
  O     15.421673   15.129360   21.924025
  C     17.074146   15.857659   20.372302
  H     13.271198   15.733593   16.726613
  H     14.067236   14.570222   15.645030
  H     14.325960   16.314003   15.417885
  H     15.468550   16.411822   17.661067
  H     15.250576   14.668552   17.866854
  H     16.597308   17.643622   15.160246
  H     16.867922   19.348670   15.500414
  H     15.460754   18.523487   16.198428
  H     17.060935   20.008714   17.850332
  H     19.556753   17.944637   20.245249
  H     19.785553   16.326939   18.338647
  H     19.574572   14.049851   18.911696
  H     18.577574   12.263322   20.319883
  H     16.601666   12.775351   21.758095
  H     15.216134   14.333278   22.437651
  H     16.639653   16.851489   20.394198

 Total Charge           Charge          ....    0
 Multiplicity           Mult            ....    1
 Number of Electrons    NEL             ....  154
 Basis Dimension        Dim             ....  828

ORBITAL ENERGIES
----------------

  NO   OCC          E(Eh)            E(eV)
   0   2.0000     -91.890489     -2500.4673
   1   2.0000     -20.600067      -560.5563
   2   2.0000     -20.599864      -560.5508
   3   2.0000     -20.549890      -559.1909
   4   2.0000     -15.628086      -425.2619
   5   2.0000     -15.611831      -424.8195
   6   2.0000     -11.397749      -310.1485
   7   2.0000     -11.387288      -309.8639
   8   2.0000     -11.330441      -308.3170
   9   2.0000     -11.316633      -307.9412
  10   2.0000     -11.314271      -307.8770
  11   2.0000     -11.303949      -307.5961
  12   2.0000     -11.269377      -306.6553
  13   2.0000     -11.264511      -306.5229
  14   2.0000     -11.263064      -306.4836
  15   2.0000     -11.256561      -306.3066
  16   2.0000     -11.246128      -306.0227
  17   2.0000     -11.242326      -305.9192
  18   2.0000     -11.239359      -305.8385
  19   2.0000     -11.235699      -305.7389
  20   2.0000      -8.895598      -242.0615
  21   2.0000      -6.577184      -178.9743
  22   2.0000      -6.575160      -178.9192
  23   2.0000      -6.574583      -178.9035
  24   2.0000      -1.447070       -39.3768
  25   2.0000      -1.419864       -38.6365
  26   2.0000      -1.358831       -36.9757
  27   2.0000      -1.340964       -36.4895
  28   2.0000      -1.240417       -33.7535
  29   2.0000      -1.161528       -31.6068
  30   2.0000      -1.126145       -30.6440
  31   2.0000      -1.049275       -28.5522
  32   2.0000      -1.041843       -28.3500
  33   2.0000      -1.018743       -27.7214
  34   2.0000      -1.005379       -27.3578
  35   2.0000      -0.989989       -26.9390
  36   2.0000      -0.928047       -25.2534
  37   2.0000      -0.884944       -24.0806
  38   2.0000      -0.854824       -23.2609
  39   2.0000      -0.842537       -22.9266
  40   2.0000      -0.837152       -22.7801
  41   2.0000      -0.836406       -22.7598
  42   2.0000      -0.757939       -20.6246
  43   2.0000      -0.739877       -20.1331
  44   2.0000      -0.732184       -19.9237
  45   2.0000      -0.697722       -18.9860
  46   2.0000      -0.688334       -18.7305
  47   2.0000      -0.681513       -18.5449
  48   2.0000      -0.676807       -18.4169
  49   2.0000      -0.665464       -18.1082
  50   2.0000      -0.653045       -17.7702
  51   2.0000      -0.643666       -17.5150
  52   2.0000      -0.640613       -17.4320
  53   2.0000      -0.614250       -16.7146
  54   2.0000      -0.608428       -16.5562
  55   2.0000      -0.605411       -16.4741
  56   2.0000      -0.603398       -16.4193
  57   2.0000      -0.587882       -15.9971
  58   2.0000      -0.578686       -15.7468
  59   2.0000      -0.569247       -15.4900
  60   2.0000      -0.563735       -15.3400
  61   2.0000      -0.559690       -15.2299
  62   2.0000      -0.541850       -14.7445
  63   2.0000      -0.534007       -14.5311
  64   2.0000      -0.524188       -14.2639
  65   2.0000      -0.516465       -14.0537
  66   2.0000      -0.502693       -13.6790
  67   2.0000      -0.501326       -13.6418
  68   2.0000      -0.489454       -13.3187
  69   2.0000      -0.470583       -12.8052
  70   2.0000      -0.455887       -12.4053
  71   2.0000      -0.448774       -12.2117
  72   2.0000      -0.357197        -9.7198
  73   2.0000      -0.352086        -9.5807
  74   2.0000      -0.330105        -8.9826
  75   2.0000      -0.324428        -8.8281
  76   2.0000      -0.318696        -8.6722
  77   0.0000       0.082606         2.2478
  78   0.0000       0.104412         2.8412
  79   0.0000       0.114351         3.1117
  80   0.0000       0.128380         3.4934
  81   0.0000       0.132094         3.5945

MULLIKEN ATOMIC CHARGES
-----------------------
   0 C :   -0.265902
   1 C :    0.012439
   2 O :   -0.320738
   3 C :    0.404115
   4 O :   -0.382138
   5 C :   -0.197028
   6 C :    0.137432
   7 C :   -0.331903
   8 N :   -0.135827
   9 C :    0.204156
  10 S :   -0.440129
  11 N :   -0.209916
  12 C :    0.066137
  13 C :    0.033313
  14 C :   -0.189707
  15 C :   -0.128898
  16 C :   -0.277615
  17 C :    0.314516
  18 O :   -0.358626
  19 C :   -0.283547
  20 H :    0.093298
  21 H :    0.111396
  22 H :    0.089499
  23 H :    0.095887
  24 H :    0.129916
  25 H :    0.130538
  26 H :    0.141218
  27 H :    0.123265
  28 H :    0.196809
  29 H :    0.197504
  30 H :    0.163115
  31 H :    0.165855
  32 H :    0.163413
  33 H :    0.132511
  34 H :    0.241975
  35 H :    0.173668
Sum of atomic charges:    0.0000000

LOEWDIN ATOMIC CHARGES
----------------------
   0 C :    0.106538
   1 C :   -0.017132
   2 O :    0.305226
   3 C :   -0.416273
   4 O :    0.124791
   5 C :   -0.084842
   6 C :   -0.101417
   7 C :    0.126079
   8 N :    0.401573
   9 C :   -0.455949
  10 S :   -0.036981
  11 N :    0.397196
  12 C :   -0.044975
  13 C :   -0.043920
  14 C :    0.023118
  15 C :    0.045685
  16 C :   -0.000211
  17 C :   -0.194395
  18 O :    0.394043
  19 C :    0.028210
  20 H :   -0.024658
  21 H :   -0.023021
  22 H :   -0.031999
  23 H :   -0.040805
  24 H :   -0.024513
  25 H :   -0.008052
  26 H :   -0.010227
  27 H :   -0.016326
  28 H :   -0.057672
  29 H :   -0.063554
  30 H :   -0.002706
  31 H :   -0.021996
  32 H :   -0.018524
  33 H :   -0.034580
  34 H :   -0.152856
  35 H :   -0.024873

  Mayer bond orders larger than 0.100000
B(  0-C ,  1-C ) :   0.9731 B(  0-C , 20-H ) :   0.9756 B(  0-C , 21-H ) :   0.9792
B(  0-C , 22-H ) :   0.9786 B(  1-C ,  2-O ) :   0.9009 B(  1-C , 23-H ) :   0.9636
B(  1-C , 24-H ) :   0.9765 B(  2-O ,  3-C ) :   1.1851 B(  3-C ,  4-O ) :   2.0977
B(  3-C ,  5-C ) :   0.9313 B(  5-C ,  6-C ) :   1.6844 B(  5-C , 12-C ) :   0.9591
B(  6-C ,  7-C ) :   0.9432 B(  6-C ,  8-N ) :   1.1176 B(  7-C , 25-H ) :   0.9787
B(  7-C , 26-H ) :   0.9737 B(  7-C , 27-H ) :   0.9645 B(  8-N ,  9-C ) :   1.1922
B(  8-N , 28-H ) :   0.9516 B(  9-C , 10-S ) :   1.6125 B(  9-C , 11-N ) :   1.2893
B( 11-N , 12-C ) :   1.0012 B( 11-N , 29-H ) :   0.9494 B( 12-C , 13-C ) :   0.9438
B( 12-C , 30-H ) :   0.9972 B( 13-C , 14-C ) :   1.3860 B( 13-C , 19-C ) :   1.3489
B( 14-C , 15-C ) :   1.3950 B( 14-C , 31-H ) :   0.9615 B( 15-C , 16-C ) :   1.3650
B( 15-C , 32-H ) :   0.9701 B( 16-C , 17-C ) :   1.3279 B( 16-C , 33-H ) :   0.9843
B( 17-C , 18-O ) :   1.1098 B( 17-C , 19-C ) :   1.3715 B( 18-O , 34-H ) :   0.9790
B( 19-C , 35-H ) :   0.9581

MP2 TOTAL ENERGY:    -1274.333080456 Eh
FINAL SINGLE POINT ENERGY     -1274.333080456339

DIPOLE MOMENT
-------------
                                X             Y             Z
Electronic contribution:     11.91534       5.83685       7.72580
Nuclear contribution   :    -13.45521      -6.82450      -7.96969
                        -----------------------------------------
Total Dipole Moment    :     -1.53987      -0.98765      -0.24389
                        -----------------------------------------
Magnitude (a.u.)       :      1.84557
Magnitude (Debye)      :      4.69107

Rotational constants in cm-1:     0.011285     0.009252     0.006826
Rotational constants in MHz :   338.321786   277.365146   204.631878

                             ****ORCA TERMINATED NORMALLY****
TOTAL RUN TIME: 0 days 1 hours 52 minutes 49 seconds 622 msec
