                         Program Version 4.2.0 -  RELEASE  -
|  1> ! ri-mp2 cc-pvtz cc-pvtz/c TightSCF  NoKeepInts
|  2>
|  3> %scf
|  4>   MaxCore 4096
|  5> end
|  6> *xyz  0  1
|  7>     C       15.1503220   15.3409029   17.2527056
|  8>     C       15.6990619   14.9852734   15.8565875
|  9>     O       16.9087392   15.6936504   15.4995578
| 10>     C       17.9775521   15.7889357   16.3467971
| 11>     O       18.6828651   14.8122531   16.5266223
| 12>     C       17.8949239   16.8882757   17.3688277
| 13>     C       17.2906618   18.0817304   17.1353495
| 14>     C       16.6025764   18.5357672   15.8634288
| 15>     N       17.3689021   19.0988234   18.0918309
| 16>     C       18.2029101   19.0816339   19.1788232
| 17>     S       18.3659072   20.3927568   20.1732882
| 18>     N       18.8968270   17.9179830   19.3972803
| 19>     C       18.6551023   16.6501254   18.6813719
| 20>     C       17.9348020   15.6511809   19.5846516
| 21>     C       18.3648349   14.3125369   19.6434599
| 22>     C       17.7049425   13.3813401   20.4624754
| 23>     C       16.6037644   13.7904064   21.2331627
| 24>     C       16.1706243   15.1218158   21.1787310
| 25>     O       15.1013033   15.5179617   21.9138245
| 26>     C       16.8290926   16.0465940   20.3621463
| 27>     H       15.8098397   14.9531794   18.0354056
| 28>     H       14.1689916   14.8735199   17.3988322
| 29>     H       15.0264807   16.4208694   17.3844847
| 30>     H       15.8975070   13.9053732   15.8266182
| 31>     H       14.9301807   15.1972556   15.1026174
| 32>     H       15.6088804   18.0836035   15.7667593
| 33>     H       17.1875763   18.2518003   14.9795140
| 34>     H       16.4766145   19.6246383   15.8215002
| 35>     H       16.8739029   19.9637223   17.9427657
| 36>     H       19.4886900   17.9219371   20.2182196
| 37>     H       19.6368353   16.2249455   18.4262762
| 38>     H       19.2077458   13.9886078   19.0369223
| 39>     H       18.0459850   12.3479535   20.4927229
| 40>     H       16.0899691   13.0737728   21.8652640
| 41>     H       14.8200060   14.7604952   22.4487350
| 42>     H       16.4720799   17.0703796   20.3364406
| 43> *
| 44>
| 45>                          ****END OF INPUT****

CARTESIAN COORDINATES (ANGSTROEM)
---------------------------------
  C     15.150322   15.340903   17.252706
  C     15.699062   14.985273   15.856587
  O     16.908739   15.693650   15.499558
  C     17.977552   15.788936   16.346797
  O     18.682865   14.812253   16.526622
  C     17.894924   16.888276   17.368828
  C     17.290662   18.081730   17.135350
  C     16.602576   18.535767   15.863429
  N     17.368902   19.098823   18.091831
  C     18.202910   19.081634   19.178823
  S     18.365907   20.392757   20.173288
  N     18.896827   17.917983   19.397280
  C     18.655102   16.650125   18.681372
  C     17.934802   15.651181   19.584652
  C     18.364835   14.312537   19.643460
  C     17.704943   13.381340   20.462475
  C     16.603764   13.790406   21.233163
  C     16.170624   15.121816   21.178731
  O     15.101303   15.517962   21.913824
  C     16.829093   16.046594   20.362146
  H     15.809840   14.953179   18.035406
  H     14.168992   14.873520   17.398832
  H     15.026481   16.420869   17.384485
  H     15.897507   13.905373   15.826618
  H     14.930181   15.197256   15.102617
  H     15.608880   18.083603   15.766759
  H     17.187576   18.251800   14.979514
  H     16.476615   19.624638   15.821500
  H     16.873903   19.963722   17.942766
  H     19.488690   17.921937   20.218220
  H     19.636835   16.224946   18.426276
  H     19.207746   13.988608   19.036922
  H     18.045985   12.347953   20.492723
  H     16.089969   13.073773   21.865264
  H     14.820006   14.760495   22.448735
  H     16.472080   17.070380   20.336441

 Total Charge           Charge          ....    0
 Multiplicity           Mult            ....    1
 Number of Electrons    NEL             ....  154
 Basis Dimension        Dim             ....  828

ORBITAL ENERGIES
----------------

  NO   OCC          E(Eh)            E(eV)
   0   2.0000     -91.891020     -2500.4818
   1   2.0000     -20.595556      -560.4336
   2   2.0000     -20.580772      -560.0313
   3   2.0000     -20.553446      -559.2877
   4   2.0000     -15.631411      -425.3523
   5   2.0000     -15.609329      -424.7514
   6   2.0000     -11.395399      -310.0846
   7   2.0000     -11.385931      -309.8269
   8   2.0000     -11.337517      -308.5095
   9   2.0000     -11.311915      -307.8129
  10   2.0000     -11.309496      -307.7470
  11   2.0000     -11.305718      -307.6442
  12   2.0000     -11.262783      -306.4759
  13   2.0000     -11.262467      -306.4673
  14   2.0000     -11.258121      -306.3490
  15   2.0000     -11.252316      -306.1911
  16   2.0000     -11.241905      -305.9078
  17   2.0000     -11.237290      -305.7822
  18   2.0000     -11.234084      -305.6950
  19   2.0000     -11.229399      -305.5675
  20   2.0000      -8.896067      -242.0743
  21   2.0000      -6.577640      -178.9867
  22   2.0000      -6.575635      -178.9321
  23   2.0000      -6.575043      -178.9160
  24   2.0000      -1.446676       -39.3661
  25   2.0000      -1.415387       -38.5146
  26   2.0000      -1.353234       -36.8234
  27   2.0000      -1.342318       -36.5263
  28   2.0000      -1.239741       -33.7351
  29   2.0000      -1.156081       -31.4586
  30   2.0000      -1.121942       -30.5296
  31   2.0000      -1.044451       -28.4210
  32   2.0000      -1.034262       -28.1437
  33   2.0000      -1.014090       -27.5948
  34   2.0000      -1.001762       -27.2593
  35   2.0000      -0.988259       -26.8919
  36   2.0000      -0.925227       -25.1767
  37   2.0000      -0.895317       -24.3628
  38   2.0000      -0.850842       -23.1526
  39   2.0000      -0.839894       -22.8547
  40   2.0000      -0.832172       -22.6445
  41   2.0000      -0.819705       -22.3053
  42   2.0000      -0.748394       -20.3648
  43   2.0000      -0.732899       -19.9432
  44   2.0000      -0.728076       -19.8119
  45   2.0000      -0.694016       -18.8851
  46   2.0000      -0.687617       -18.7110
  47   2.0000      -0.675446       -18.3798
  48   2.0000      -0.672758       -18.3067
  49   2.0000      -0.661867       -18.0103
  50   2.0000      -0.653171       -17.7737
  51   2.0000      -0.647609       -17.6223
  52   2.0000      -0.640425       -17.4269
  53   2.0000      -0.616015       -16.7626
  54   2.0000      -0.603383       -16.4189
  55   2.0000      -0.602416       -16.3926
  56   2.0000      -0.599704       -16.3188
  57   2.0000      -0.583791       -15.8857
  58   2.0000      -0.575251       -15.6534
  59   2.0000      -0.562930       -15.3181
  60   2.0000      -0.560079       -15.2405
  61   2.0000      -0.548883       -14.9359
  62   2.0000      -0.547118       -14.8878
  63   2.0000      -0.528531       -14.3820
  64   2.0000      -0.520778       -14.1711
  65   2.0000      -0.513169       -13.9640
  66   2.0000      -0.499871       -13.6022
  67   2.0000      -0.490399       -13.3444
  68   2.0000      -0.481566       -13.1041
  69   2.0000      -0.465729       -12.6731
  70   2.0000      -0.454596       -12.3702
  71   2.0000      -0.450338       -12.2543
  72   2.0000      -0.357023        -9.7151
  73   2.0000      -0.346883        -9.4392
  74   2.0000      -0.330109        -8.9827
  75   2.0000      -0.320534        -8.7222
  76   2.0000      -0.317899        -8.6505
  77   0.0000       0.068344         1.8597
  78   0.0000       0.107015         2.9120
  79   0.0000       0.118668         3.2291
  80   0.0000       0.132679         3.6104
  81   0.0000       0.133472         3.6320

MULLIKEN ATOMIC CHARGES
-----------------------
   0 C :   -0.344178
   1 C :    0.041938
   2 O :   -0.385823
   3 C :    0.470037
   4 O :   -0.393323
   5 C :   -0.204746
   6 C :    0.137567
   7 C :   -0.287139
   8 N :   -0.124886
   9 C :    0.187072
  10 S :   -0.434146
  11 N :   -0.201951
  12 C :    0.053630
  13 C :    0.025579
  14 C :   -0.178414
  15 C :   -0.139010
  16 C :   -0.276210
  17 C :    0.310342
  18 O :   -0.358645
  19 C :   -0.257966
  20 H :    0.128800
  21 H :    0.122312
  22 H :    0.100840
  23 H :    0.111858
  24 H :    0.112413
  25 H :    0.117353
  26 H :    0.135068
  27 H :    0.109166
  28 H :    0.197585
  29 H :    0.194628
  30 H :    0.159594
  31 H :    0.166016
  32 H :    0.161908
  33 H :    0.131181
  34 H :    0.240667
  35 H :    0.170882
Sum of atomic charges:   -0.0000000

LOEWDIN ATOMIC CHARGES
----------------------
   0 C :    0.105180
   1 C :   -0.016522
   2 O :    0.276977
   3 C :   -0.417444
   4 O :    0.127545
   5 C :   -0.092567
   6 C :   -0.070763
   7 C :    0.126763
   8 N :    0.405929
   9 C :   -0.460303
  10 S :   -0.033217
  11 N :    0.397426
  12 C :   -0.044750
  13 C :   -0.042509
  14 C :    0.019561
  15 C :    0.041318
  16 C :   -0.002199
  17 C :   -0.194232
  18 O :    0.394670
  19 C :    0.029361
  20 H :   -0.023977
  21 H :   -0.021803
  22 H :   -0.033682
  23 H :   -0.025190
  24 H :   -0.023600
  25 H :   -0.014236
  26 H :   -0.005650
  27 H :   -0.018742
  28 H :   -0.058674
  29 H :   -0.063719
  30 H :   -0.002764
  31 H :   -0.023527
  32 H :   -0.019816
  33 H :   -0.035474
  34 H :   -0.154143
  35 H :   -0.025228

  Mayer bond orders larger than 0.100000
B(  0-C ,  1-C ) :   0.9608 B(  0-C , 20-H ) :   0.9641 B(  0-C , 21-H ) :   0.9779
B(  0-C , 22-H ) :   0.9722 B(  1-C ,  2-O ) :   0.8928 B(  1-C , 23-H ) :   0.9851
B(  1-C , 24-H ) :   0.9820 B(  2-O ,  3-C ) :   1.0900 B(  3-C ,  4-O ) :   2.0336
B(  3-C ,  5-C ) :   1.0184 B(  5-C ,  6-C ) :   1.6643 B(  5-C , 12-C ) :   0.9577
B(  6-C ,  7-C ) :   0.9542 B(  6-C ,  8-N ) :   1.1289 B(  7-C , 25-H ) :   0.9648
B(  7-C , 26-H ) :   0.9658 B(  7-C , 27-H ) :   0.9893 B(  8-N ,  9-C ) :   1.1786
B(  8-N , 28-H ) :   0.9489 B(  9-C , 10-S ) :   1.6173 B(  9-C , 11-N ) :   1.2984
B( 11-N , 12-C ) :   0.9832 B( 11-N , 29-H ) :   0.9520 B( 12-C , 13-C ) :   0.9480
B( 12-C , 30-H ) :   0.9981 B( 13-C , 14-C ) :   1.3898 B( 13-C , 19-C ) :   1.3545
B( 14-C , 15-C ) :   1.3960 B( 14-C , 31-H ) :   0.9596 B( 15-C , 16-C ) :   1.3625
B( 15-C , 32-H ) :   0.9709 B( 16-C , 17-C ) :   1.3300 B( 16-C , 33-H ) :   0.9849
B( 17-C , 18-O ) :   1.1116 B( 17-C , 19-C ) :   1.3759 B( 18-O , 34-H ) :   0.9801
B( 19-C , 35-H ) :   0.9581

MP2 TOTAL ENERGY:    -1274.323608639 Eh
FINAL SINGLE POINT ENERGY     -1274.323608638976

DIPOLE MOMENT
-------------
                                X             Y             Z
Electronic contribution:      9.71399       7.42636       6.32759
Nuclear contribution   :    -11.11445      -8.56168      -6.96429
                        -----------------------------------------
Total Dipole Moment    :     -1.40046      -1.13532      -0.63671
                        -----------------------------------------
Magnitude (a.u.)       :      1.91197
Magnitude (Debye)      :      4.85984

Rotational constants in cm-1:     0.011259     0.010005     0.006780
Rotational constants in MHz :   337.522147   299.929265   203.260104

                             ****ORCA TERMINATED NORMALLY****
TOTAL RUN TIME: 0 days 1 hours 48 minutes 56 seconds 99 msec
