                         Program Version 5.0.0 -  RELEASE  -
|  1> ! ri-mp2 cc-pvtz cc-pvtz/c TightSCF NoKeepInts
|  2>
|  3> %scf
|  4>   MaxCore 4096
|  5> end
|  6> *xyz  0  1
|  7>     C       14.5932306   14.4188954   16.9860606
|  8>     C       15.6036311   15.5676295   16.8406798
|  9>     O       16.8913857   14.9679255   16.6168424
| 10>     C       18.0652912   15.6737148   16.5533603
| 11>     O       19.1020482   15.0605598   16.3814184
| 12>     C       18.0763664   16.9053691   17.3945526
| 13>     C       17.5894388   18.0858315   16.9519488
| 14>     C       16.9939245   18.3669900   15.5897264
| 15>     N       17.6632344   19.2170644   17.7671586
| 16>     C       18.2836127   19.2567073   18.9894251
| 17>     S       18.3661245   20.6509601   19.8743446
| 18>     N       18.8261638   18.0799572   19.4467470
| 19>     C       18.7190180   16.7695765   18.7734780
| 20>     C       17.9553392   15.7594234   19.6246705
| 21>     C       18.3995246   14.4267644   19.7019586
| 22>     C       17.6863357   13.4759819   20.4506531
| 23>     C       16.5151741   13.8588000   21.1259954
| 24>     C       16.0653079   15.1833746   21.0461687
| 25>     O       14.9260867   15.5529987   21.6833966
| 26>     C       16.7778423   16.1286695   20.3016350
| 27>     H       14.8619585   13.7786959   17.8362133
| 28>     H       14.5759988   13.8003747   16.0799802
| 29>     H       13.5832869   14.8106410   17.1570427
| 30>     H       15.3187219   16.2029058   15.9933958
| 31>     H       15.5960884   16.1662045   17.7605950
| 32>     H       17.1315041   17.5308378   14.8930964
| 33>     H       17.4727078   19.2406129   15.1287712
| 34>     H       15.9189901   18.5727933   15.6633793
| 35>     H       17.2838962   20.0939774   17.4456123
| 36>     H       19.2586007   18.1356740   20.3603473
| 37>     H       19.7396629   16.3866555   18.6252439
| 38>     H       19.2921417   14.1219601   19.1595976
| 39>     H       18.0377713   12.4465693   20.4958103
| 40>     H       15.9588744   13.1257932   21.7007769
| 41>     H       14.6109875   14.7843318   22.1827818
| 42>     H       16.4067281   17.1467790   20.2511355
| 43> *
| 44>
| 45>                          ****END OF INPUT****

CARTESIAN COORDINATES (ANGSTROEM)
---------------------------------
  C     14.593231   14.418895   16.986061
  C     15.603631   15.567630   16.840680
  O     16.891386   14.967925   16.616842
  C     18.065291   15.673715   16.553360
  O     19.102048   15.060560   16.381418
  C     18.076366   16.905369   17.394553
  C     17.589439   18.085831   16.951949
  C     16.993924   18.366990   15.589726
  N     17.663234   19.217064   17.767159
  C     18.283613   19.256707   18.989425
  S     18.366125   20.650960   19.874345
  N     18.826164   18.079957   19.446747
  C     18.719018   16.769576   18.773478
  C     17.955339   15.759423   19.624671
  C     18.399525   14.426764   19.701959
  C     17.686336   13.475982   20.450653
  C     16.515174   13.858800   21.125995
  C     16.065308   15.183375   21.046169
  O     14.926087   15.552999   21.683397
  C     16.777842   16.128670   20.301635
  H     14.861959   13.778696   17.836213
  H     14.575999   13.800375   16.079980
  H     13.583287   14.810641   17.157043
  H     15.318722   16.202906   15.993396
  H     15.596088   16.166204   17.760595
  H     17.131504   17.530838   14.893096
  H     17.472708   19.240613   15.128771
  H     15.918990   18.572793   15.663379
  H     17.283896   20.093977   17.445612
  H     19.258601   18.135674   20.360347
  H     19.739663   16.386655   18.625244
  H     19.292142   14.121960   19.159598
  H     18.037771   12.446569   20.495810
  H     15.958874   13.125793   21.700777
  H     14.610988   14.784332   22.182782
  H     16.406728   17.146779   20.251135

 Total Charge           Charge          ....    0
 Multiplicity           Mult            ....    1
 Number of Electrons    NEL             ....  154
 Basis Dimension        Dim             ....  828

ORBITAL ENERGIES
----------------

  NO   OCC          E(Eh)            E(eV)
   0   2.0000     -91.888940     -2500.4252
   1   2.0000     -20.602626      -560.6259
   2   2.0000     -20.599625      -560.5443
   3   2.0000     -20.553408      -559.2867
   4   2.0000     -15.624730      -425.1705
   5   2.0000     -15.611470      -424.8097
   6   2.0000     -11.396735      -310.1209
   7   2.0000     -11.385991      -309.8286
   8   2.0000     -11.324975      -308.1682
   9   2.0000     -11.316344      -307.9334
  10   2.0000     -11.316266      -307.9312
  11   2.0000     -11.302970      -307.5695
  12   2.0000     -11.270648      -306.6899
  13   2.0000     -11.264472      -306.5219
  14   2.0000     -11.263323      -306.4906
  15   2.0000     -11.256130      -306.2949
  16   2.0000     -11.245453      -306.0043
  17   2.0000     -11.241804      -305.9051
  18   2.0000     -11.238635      -305.8188
  19   2.0000     -11.231830      -305.6336
  20   2.0000      -8.894075      -242.0201
  21   2.0000      -6.575669      -178.9330
  22   2.0000      -6.573637      -178.8777
  23   2.0000      -6.573067      -178.8623
  24   2.0000      -1.452083       -39.5132
  25   2.0000      -1.419436       -38.6248
  26   2.0000      -1.361477       -37.0477
  27   2.0000      -1.338737       -36.4289
  28   2.0000      -1.239081       -33.7171
  29   2.0000      -1.160814       -31.5873
  30   2.0000      -1.125208       -30.6185
  31   2.0000      -1.048924       -28.5427
  32   2.0000      -1.040387       -28.3104
  33   2.0000      -1.018473       -27.7141
  34   2.0000      -1.004826       -27.3427
  35   2.0000      -0.988687       -26.9035
  36   2.0000      -0.927666       -25.2431
  37   2.0000      -0.880788       -23.9675
  38   2.0000      -0.855064       -23.2675
  39   2.0000      -0.841158       -22.8891
  40   2.0000      -0.836865       -22.7722
  41   2.0000      -0.836351       -22.7583
  42   2.0000      -0.757674       -20.6174
  43   2.0000      -0.739046       -20.1105
  44   2.0000      -0.731288       -19.8994
  45   2.0000      -0.697928       -18.9916
  46   2.0000      -0.688714       -18.7409
  47   2.0000      -0.682255       -18.5651
  48   2.0000      -0.677389       -18.4327
  49   2.0000      -0.661014       -17.9871
  50   2.0000      -0.658647       -17.9227
  51   2.0000      -0.650014       -17.6878
  52   2.0000      -0.639552       -17.4031
  53   2.0000      -0.612032       -16.6542
  54   2.0000      -0.608117       -16.5477
  55   2.0000      -0.603394       -16.4192
  56   2.0000      -0.598066       -16.2742
  57   2.0000      -0.585450       -15.9309
  58   2.0000      -0.577377       -15.7112
  59   2.0000      -0.568607       -15.4726
  60   2.0000      -0.562790       -15.3143
  61   2.0000      -0.556380       -15.1399
  62   2.0000      -0.551546       -15.0083
  63   2.0000      -0.527513       -14.3543
  64   2.0000      -0.518262       -14.1026
  65   2.0000      -0.514917       -14.0116
  66   2.0000      -0.507540       -13.8109
  67   2.0000      -0.501898       -13.6573
  68   2.0000      -0.487609       -13.2685
  69   2.0000      -0.469133       -12.7658
  70   2.0000      -0.454201       -12.3594
  71   2.0000      -0.451753       -12.2928
  72   2.0000      -0.356040        -9.6884
  73   2.0000      -0.351133        -9.5548
  74   2.0000      -0.328760        -8.9460
  75   2.0000      -0.323751        -8.8097
  76   2.0000      -0.317395        -8.6368
  77   0.0000       0.090236         2.4555
  78   0.0000       0.103457         2.8152
  79   0.0000       0.108528         2.9532
  80   0.0000       0.127341         3.4651
  81   0.0000       0.130819         3.5598

MULLIKEN ATOMIC CHARGES
-----------------------
   0 C :   -0.260281
   1 C :    0.005019
   2 O :   -0.299980
   3 C :    0.387931
   4 O :   -0.374376
   5 C :   -0.173052
   6 C :    0.136995
   7 C :   -0.330966
   8 N :   -0.137621
   9 C :    0.207720
  10 S :   -0.443204
  11 N :   -0.217822
  12 C :    0.067078
  13 C :    0.036180
  14 C :   -0.188466
  15 C :   -0.129974
  16 C :   -0.278863
  17 C :    0.320731
  18 O :   -0.358103
  19 C :   -0.294796
  20 H :    0.108501
  21 H :    0.103347
  22 H :    0.087599
  23 H :    0.095297
  24 H :    0.105179
  25 H :    0.121229
  26 H :    0.138277
  27 H :    0.123033
  28 H :    0.195308
  29 H :    0.199523
  30 H :    0.165715
  31 H :    0.163622
  32 H :    0.163114
  33 H :    0.132706
  34 H :    0.241715
  35 H :    0.181684
Sum of atomic charges:    0.0000000

LOEWDIN ATOMIC CHARGES
----------------------
   0 C :    0.113112
   1 C :   -0.028721
   2 O :    0.318536
   3 C :   -0.420064
   4 O :    0.130561
   5 C :   -0.079395
   6 C :   -0.109543
   7 C :    0.122511
   8 N :    0.400036
   9 C :   -0.455267
  10 S :   -0.039723
  11 N :    0.397379
  12 C :   -0.042699
  13 C :   -0.041462
  14 C :    0.025019
  15 C :    0.046287
  16 C :   -0.000325
  17 C :   -0.193870
  18 O :    0.394577
  19 C :    0.026943
  20 H :   -0.022541
  21 H :   -0.025373
  22 H :   -0.025253
  23 H :   -0.038305
  24 H :   -0.036519
  25 H :   -0.010361
  26 H :   -0.009889
  27 H :   -0.017082
  28 H :   -0.058808
  29 H :   -0.063664
  30 H :   -0.002278
  31 H :   -0.022261
  32 H :   -0.018576
  33 H :   -0.034864
  34 H :   -0.153046
  35 H :   -0.025075

  Mayer bond orders larger than 0.100000
B(  0-C ,  1-C ) :   0.9841 B(  0-C , 20-H ) :   0.9773 B(  0-C , 21-H ) :   0.9794
B(  0-C , 22-H ) :   0.9767 B(  1-C ,  2-O ) :   0.9184 B(  1-C , 23-H ) :   0.9755
B(  1-C , 24-H ) :   0.9577 B(  2-O ,  3-C ) :   1.1554 B(  3-C ,  4-O ) :   2.0965
B(  3-C ,  5-C ) :   0.9173 B(  5-C ,  6-C ) :   1.6989 B(  5-C , 12-C ) :   0.9627
B(  6-C ,  7-C ) :   0.9410 B(  6-C ,  8-N ) :   1.1106 B(  7-C , 25-H ) :   0.9825
B(  7-C , 26-H ) :   0.9703 B(  7-C , 27-H ) :   0.9663 B(  8-N ,  9-C ) :   1.1993
B(  8-N , 28-H ) :   0.9533 B(  9-C , 10-S ) :   1.6085 B(  9-C , 11-N ) :   1.2851
B( 11-N , 12-C ) :   0.9958 B( 11-N , 29-H ) :   0.9481 B( 12-C , 13-C ) :   0.9440
B( 12-C , 30-H ) :   0.9975 B( 13-C , 14-C ) :   1.3873 B( 13-C , 19-C ) :   1.3387
B( 14-C , 15-C ) :   1.3983 B( 14-C , 31-H ) :   0.9633 B( 15-C , 16-C ) :   1.3621
B( 15-C , 32-H ) :   0.9701 B( 16-C , 17-C ) :   1.3300 B( 16-C , 33-H ) :   0.9844
B( 17-C , 18-O ) :   1.1093 B( 17-C , 19-C ) :   1.3643 B( 18-O , 34-H ) :   0.9792
B( 19-C , 35-H ) :   0.9558

MP2 TOTAL ENERGY:    -1274.326818370 Eh
FINAL SINGLE POINT ENERGY     -1274.326818369902

DIPOLE MOMENT
-------------
                                X             Y             Z
Electronic contribution:     10.65331       8.18433       6.72604
Nuclear contribution   :    -12.22245      -9.25562      -7.28717
                        -----------------------------------------
Total Dipole Moment    :     -1.56914      -1.07130      -0.56113
                        -----------------------------------------
Magnitude (a.u.)       :      1.98109
Magnitude (Debye)      :      5.03554

Rotational constants in cm-1:     0.012443     0.008982     0.006845
Rotational constants in MHz :   373.035825   269.270983   205.217791

                             ****ORCA TERMINATED NORMALLY****
TOTAL RUN TIME: 0 days 2 hours 16 minutes 24 seconds 85 msec
