                         Program Version 4.2.0 -  RELEASE  -
|  1> ! ri-mp2 cc-pvtz cc-pvtz/c TightSCF  NoKeepInts
|  2>
|  3> %scf
|  4>   MaxCore 4096
|  5> end
|  6> *xyz  0  1
|  7>     C       14.9128825   14.2905023   16.2055045
|  8>     C       16.3225461   14.0084707   16.7675155
|  9>     O       17.2897227   15.0674292   16.5451534
| 10>     C       16.9701348   16.3919204   16.3999568
| 11>     O       16.1787659   16.7920302   15.5644386
| 12>     C       17.6461214   17.2704483   17.4185803
| 13>     C       17.4765699   18.6176509   17.4433250
| 14>     C       16.6179063   19.4534619   16.5179980
| 15>     N       18.1596703   19.3943847   18.3837750
| 16>     C       19.1016701   18.9207510   19.2567805
| 17>     S       19.9330984   19.9229147   20.2767704
| 18>     N       19.3265012   17.5683835   19.2391933
| 19>     C       18.5521223   16.5873326   18.4581918
| 20>     C       17.7764190   15.6832539   19.4114406
| 21>     C       18.2529838   14.3917404   19.7054827
| 22>     C       17.5427494   13.5487371   20.5767165
| 23>     C       16.3484670   14.0020639   21.1623924
| 24>     C       15.8764552   15.2912280   20.8800160
| 25>     O       14.7254870   15.7330039   21.4461846
| 26>     C       16.5850030   16.1278397   20.0122547
| 27>     H       14.4490999   15.1493390   16.7067637
| 28>     H       14.2615031   13.4224094   16.3618880
| 29>     H       14.9541132   14.4902831   15.1271789
| 30>     H       16.2223636   13.8418092   17.8474822
| 31>     H       16.7078619   13.0780224   16.3314250
| 32>     H       15.5669922   19.1436762   16.5825548
| 33>     H       16.9335955   19.3217209   15.4751155
| 34>     H       16.6609317   20.5255367   16.7428872
| 35>     H       18.0106632   20.3905154   18.4077709
| 36>     H       20.0014701   17.2454295   19.9202452
| 37>     H       19.2726645   15.9672017   17.9062548
| 38>     H       19.1754666   14.0382663   19.2522309
| 39>     H       17.9190792   12.5511659   20.7976096
| 40>     H       15.7970507   13.3553654   21.8372064
| 41>     H       14.4124306   15.0426359   22.0499804
| 42>     H       16.2064379   17.1250754   19.8157358
| 43> *
| 44>
| 45>                          ****END OF INPUT****

CARTESIAN COORDINATES (ANGSTROEM)
---------------------------------
  C     14.912882   14.290502   16.205504
  C     16.322546   14.008471   16.767515
  O     17.289723   15.067429   16.545153
  C     16.970135   16.391920   16.399957
  O     16.178766   16.792030   15.564439
  C     17.646121   17.270448   17.418580
  C     17.476570   18.617651   17.443325
  C     16.617906   19.453462   16.517998
  N     18.159670   19.394385   18.383775
  C     19.101670   18.920751   19.256781
  S     19.933098   19.922915   20.276770
  N     19.326501   17.568383   19.239193
  C     18.552122   16.587333   18.458192
  C     17.776419   15.683254   19.411441
  C     18.252984   14.391740   19.705483
  C     17.542749   13.548737   20.576716
  C     16.348467   14.002064   21.162392
  C     15.876455   15.291228   20.880016
  O     14.725487   15.733004   21.446185
  C     16.585003   16.127840   20.012255
  H     14.449100   15.149339   16.706764
  H     14.261503   13.422409   16.361888
  H     14.954113   14.490283   15.127179
  H     16.222364   13.841809   17.847482
  H     16.707862   13.078022   16.331425
  H     15.566992   19.143676   16.582555
  H     16.933595   19.321721   15.475115
  H     16.660932   20.525537   16.742887
  H     18.010663   20.390515   18.407771
  H     20.001470   17.245430   19.920245
  H     19.272665   15.967202   17.906255
  H     19.175467   14.038266   19.252231
  H     17.919079   12.551166   20.797610
  H     15.797051   13.355365   21.837206
  H     14.412431   15.042636   22.049980
  H     16.206438   17.125075   19.815736

 Total Charge           Charge          ....    0
 Multiplicity           Mult            ....    1
 Number of Electrons    NEL             ....  154
 Basis Dimension        Dim             ....  828

ORBITAL ENERGIES
----------------

  NO   OCC          E(Eh)            E(eV)
   0   2.0000     -91.889203     -2500.4323
   1   2.0000     -20.601165      -560.5862
   2   2.0000     -20.587622      -560.2177
   3   2.0000     -20.542777      -558.9974
   4   2.0000     -15.629387      -425.2972
   5   2.0000     -15.608707      -424.7345
   6   2.0000     -11.394782      -310.0678
   7   2.0000     -11.384258      -309.7814
   8   2.0000     -11.336215      -308.4741
   9   2.0000     -11.318968      -308.0048
  10   2.0000     -11.309736      -307.7536
  11   2.0000     -11.298272      -307.4416
  12   2.0000     -11.263783      -306.5031
  13   2.0000     -11.260144      -306.4041
  14   2.0000     -11.257962      -306.3447
  15   2.0000     -11.252354      -306.1921
  16   2.0000     -11.247562      -306.0617
  17   2.0000     -11.242432      -305.9221
  18   2.0000     -11.242082      -305.9126
  19   2.0000     -11.220921      -305.3368
  20   2.0000      -8.894268      -242.0253
  21   2.0000      -6.575844      -178.9378
  22   2.0000      -6.573838      -178.8832
  23   2.0000      -6.573252      -178.8673
  24   2.0000      -1.441007       -39.2118
  25   2.0000      -1.420812       -38.6623
  26   2.0000      -1.351492       -36.7760
  27   2.0000      -1.340580       -36.4790
  28   2.0000      -1.239330       -33.7239
  29   2.0000      -1.161512       -31.6063
  30   2.0000      -1.120574       -30.4924
  31   2.0000      -1.045186       -28.4410
  32   2.0000      -1.032147       -28.0862
  33   2.0000      -1.019704       -27.7476
  34   2.0000      -0.996593       -27.1187
  35   2.0000      -0.984560       -26.7912
  36   2.0000      -0.924149       -25.1474
  37   2.0000      -0.893143       -24.3037
  38   2.0000      -0.848554       -23.0903
  39   2.0000      -0.841302       -22.8930
  40   2.0000      -0.837711       -22.7953
  41   2.0000      -0.820889       -22.3375
  42   2.0000      -0.745503       -20.2862
  43   2.0000      -0.733785       -19.9673
  44   2.0000      -0.717074       -19.5126
  45   2.0000      -0.699498       -19.0343
  46   2.0000      -0.688958       -18.7475
  47   2.0000      -0.675276       -18.3752
  48   2.0000      -0.667442       -18.1620
  49   2.0000      -0.663600       -18.0575
  50   2.0000      -0.651687       -17.7333
  51   2.0000      -0.645916       -17.5763
  52   2.0000      -0.637645       -17.3512
  53   2.0000      -0.611580       -16.6419
  54   2.0000      -0.610023       -16.5996
  55   2.0000      -0.603035       -16.4094
  56   2.0000      -0.600635       -16.3441
  57   2.0000      -0.580792       -15.8041
  58   2.0000      -0.571569       -15.5532
  59   2.0000      -0.568351       -15.4656
  60   2.0000      -0.557233       -15.1631
  61   2.0000      -0.539318       -14.6756
  62   2.0000      -0.534353       -14.5405
  63   2.0000      -0.528617       -14.3844
  64   2.0000      -0.523091       -14.2340
  65   2.0000      -0.514252       -13.9935
  66   2.0000      -0.503294       -13.6953
  67   2.0000      -0.493771       -13.4362
  68   2.0000      -0.487264       -13.2591
  69   2.0000      -0.463030       -12.5997
  70   2.0000      -0.450853       -12.2683
  71   2.0000      -0.440908       -11.9977
  72   2.0000      -0.355088        -9.6624
  73   2.0000      -0.353274        -9.6131
  74   2.0000      -0.329647        -8.9702
  75   2.0000      -0.325715        -8.8632
  76   2.0000      -0.317000        -8.6260
  77   0.0000       0.073923         2.0116
  78   0.0000       0.101784         2.7697
  79   0.0000       0.122990         3.3467
  80   0.0000       0.130283         3.5452
  81   0.0000       0.133820         3.6414

MULLIKEN ATOMIC CHARGES
-----------------------
   0 C :   -0.287502
   1 C :    0.037199
   2 O :   -0.384589
   3 C :    0.470533
   4 O :   -0.412845
   5 C :   -0.259476
   6 C :    0.166678
   7 C :   -0.268350
   8 N :   -0.124535
   9 C :    0.216315
  10 S :   -0.441575
  11 N :   -0.210615
  12 C :    0.080708
  13 C :    0.033134
  14 C :   -0.188785
  15 C :   -0.130639
  16 C :   -0.277876
  17 C :    0.309440
  18 O :   -0.355788
  19 C :   -0.248613
  20 H :    0.099248
  21 H :    0.097545
  22 H :    0.116635
  23 H :    0.100713
  24 H :    0.105265
  25 H :    0.129474
  26 H :    0.133251
  27 H :    0.095154
  28 H :    0.197297
  29 H :    0.195559
  30 H :    0.149138
  31 H :    0.152109
  32 H :    0.162487
  33 H :    0.132754
  34 H :    0.241778
  35 H :    0.168772
Sum of atomic charges:    0.0000000

LOEWDIN ATOMIC CHARGES
----------------------
   0 C :    0.103638
   1 C :   -0.012405
   2 O :    0.287275
   3 C :   -0.414889
   4 O :    0.114250
   5 C :   -0.097586
   6 C :   -0.058569
   7 C :    0.131193
   8 N :    0.406948
   9 C :   -0.455324
  10 S :   -0.036061
  11 N :    0.396092
  12 C :   -0.052525
  13 C :   -0.036680
  14 C :    0.012997
  15 C :    0.040565
  16 C :   -0.002757
  17 C :   -0.189946
  18 O :    0.396424
  19 C :    0.029665
  20 H :   -0.028422
  21 H :   -0.027290
  22 H :   -0.023811
  23 H :   -0.030737
  24 H :   -0.025589
  25 H :   -0.005426
  26 H :   -0.003371
  27 H :   -0.023472
  28 H :   -0.057526
  29 H :   -0.065181
  30 H :   -0.009994
  31 H :   -0.029453
  32 H :   -0.020100
  33 H :   -0.034786
  34 H :   -0.152841
  35 H :   -0.024306

  Mayer bond orders larger than 0.100000
B(  0-C ,  1-C ) :   0.9802 B(  0-C , 20-H ) :   0.9744 B(  0-C , 21-H ) :   0.9734
B(  0-C , 22-H ) :   0.9734 B(  1-C ,  2-O ) :   0.8936 B(  1-C , 23-H ) :   0.9685
B(  1-C , 24-H ) :   0.9811 B(  2-O ,  3-C ) :   1.1100 B(  3-C ,  4-O ) :   2.0087
B(  3-C ,  5-C ) :   1.0608 B(  5-C ,  6-C ) :   1.6473 B(  5-C , 12-C ) :   0.9721
B(  6-C ,  7-C ) :   0.9657 B(  6-C ,  8-N ) :   1.1609 B(  7-C , 25-H ) :   0.9609
B(  7-C , 26-H ) :   0.9591 B(  7-C , 27-H ) :   0.9906 B(  8-N ,  9-C ) :   1.1848
B(  8-N , 28-H ) :   0.9476 B(  9-C , 10-S ) :   1.6024 B(  9-C , 11-N ) :   1.3089
B( 11-N , 12-C ) :   0.9720 B( 11-N , 29-H ) :   0.9515 B( 12-C , 13-C ) :   0.9397
B( 12-C , 30-H ) :   1.0013 B( 13-C , 14-C ) :   1.3521 B( 13-C , 19-C ) :   1.3776
B( 14-C , 15-C ) :   1.3946 B( 14-C , 31-H ) :   0.9732 B( 15-C , 16-C ) :   1.3605
B( 15-C , 32-H ) :   0.9706 B( 16-C , 17-C ) :   1.3302 B( 16-C , 33-H ) :   0.9845
B( 17-C , 18-O ) :   1.1132 B( 17-C , 19-C ) :   1.3699 B( 18-O , 34-H ) :   0.9790
B( 19-C , 35-H ) :   0.9577

MP2 TOTAL ENERGY:    -1274.335849786 Eh
FINAL SINGLE POINT ENERGY     -1274.335849785773

DIPOLE MOMENT
-------------
                                X             Y             Z
Electronic contribution:     10.21139       9.61960       6.92306
Nuclear contribution   :    -11.19989     -11.32540      -6.89467
                        -----------------------------------------
Total Dipole Moment    :     -0.98850      -1.70581       0.02839
                        -----------------------------------------
Magnitude (a.u.)       :      1.97173
Magnitude (Debye)      :      5.01174

Rotational constants in cm-1:     0.012389     0.008751     0.006353
Rotational constants in MHz :   371.413488   262.335900   190.453960

                             ****ORCA TERMINATED NORMALLY****
TOTAL RUN TIME: 0 days 1 hours 42 minutes 48 seconds 957 msec
