                         Program Version 4.2.0 -  RELEASE  -
|  1> ! ri-mp2 cc-pvtz cc-pvtz/c TightSCF  NoKeepInts
|  2>
|  3> %scf
|  4>   MaxCore 4096
|  5> end
|  6> *xyz  0  1
|  7>     C       14.9832294   15.5512337   17.1885044
|  8>     C       15.7681652   14.8592259   16.0569235
|  9>     O       16.8765361   15.6470832   15.5676691
| 10>     C       17.9956746   15.8258547   16.3334433
| 11>     O       18.7625823   14.8913151   16.4820447
| 12>     C       17.8948218   16.9101341   17.3650546
| 13>     C       17.2885063   18.0988623   17.1214904
| 14>     C       16.6525006   18.5548097   15.8233255
| 15>     N       17.3344931   19.1116840   18.0838601
| 16>     C       18.1378011   19.0926864   19.1939307
| 17>     S       18.2586447   20.3960998   20.2043703
| 18>     N       18.8399651   17.9352379   19.4216928
| 19>     C       18.6396837   16.6705451   18.6865978
| 20>     C       17.9393877   15.6340187   19.5659137
| 21>     C       18.3598488   14.2909565   19.5464377
| 22>     C       17.7232296   13.3257434   20.3441130
| 23>     C       16.6556954   13.7044389   21.1749366
| 24>     C       16.2342690   15.0402446   21.2025610
| 25>     O       15.1986962   15.4084344   21.9979728
| 26>     C       16.8700611   15.9989855   20.4073513
| 27>     H       15.5962370   15.6775994   18.0830822
| 28>     H       14.1204998   14.9364491   17.4726353
| 29>     H       14.6029236   16.5283746   16.8744933
| 30>     H       16.1361023   13.8857591   16.4096375
| 31>     H       15.0802343   14.6671011   15.2235443
| 32>     H       15.6286087   18.1799437   15.7241654
| 33>     H       17.2235198   18.1964208   14.9576225
| 34>     H       16.6151745   19.6481793   15.7423433
| 35>     H       16.8345351   19.9725140   17.9275914
| 36>     H       19.4108843   17.9403473   20.2573887
| 37>     H       19.6361401   16.2763135   18.4387394
| 38>     H       19.1805899   13.9905669   18.8988415
| 39>     H       18.0576869   12.2902018   20.3131942
| 40>     H       16.1601115   12.9618258   21.7914332
| 41>     H       14.9292306   14.6275776   22.5045890
| 42>     H       16.5207301   17.0252320   20.4465057
| 43> *
| 44>
| 45>                          ****END OF INPUT****

CARTESIAN COORDINATES (ANGSTROEM)
---------------------------------
  C     14.983229   15.551234   17.188504
  C     15.768165   14.859226   16.056923
  O     16.876536   15.647083   15.567669
  C     17.995675   15.825855   16.333443
  O     18.762582   14.891315   16.482045
  C     17.894822   16.910134   17.365055
  C     17.288506   18.098862   17.121490
  C     16.652501   18.554810   15.823325
  N     17.334493   19.111684   18.083860
  C     18.137801   19.092686   19.193931
  S     18.258645   20.396100   20.204370
  N     18.839965   17.935238   19.421693
  C     18.639684   16.670545   18.686598
  C     17.939388   15.634019   19.565914
  C     18.359849   14.290956   19.546438
  C     17.723230   13.325743   20.344113
  C     16.655695   13.704439   21.174937
  C     16.234269   15.040245   21.202561
  O     15.198696   15.408434   21.997973
  C     16.870061   15.998985   20.407351
  H     15.596237   15.677599   18.083082
  H     14.120500   14.936449   17.472635
  H     14.602924   16.528375   16.874493
  H     16.136102   13.885759   16.409637
  H     15.080234   14.667101   15.223544
  H     15.628609   18.179944   15.724165
  H     17.223520   18.196421   14.957622
  H     16.615174   19.648179   15.742343
  H     16.834535   19.972514   17.927591
  H     19.410884   17.940347   20.257389
  H     19.636140   16.276314   18.438739
  H     19.180590   13.990567   18.898841
  H     18.057687   12.290202   20.313194
  H     16.160111   12.961826   21.791433
  H     14.929231   14.627578   22.504589
  H     16.520730   17.025232   20.446506

 Total Charge           Charge          ....    0
 Multiplicity           Mult            ....    1
 Number of Electrons    NEL             ....  154
 Basis Dimension        Dim             ....  828

ORBITAL ENERGIES
----------------

  NO   OCC          E(Eh)            E(eV)
   0   2.0000     -91.891039     -2500.4823
   1   2.0000     -20.596161      -560.4500
   2   2.0000     -20.581112      -560.0405
   3   2.0000     -20.555202      -559.3355
   4   2.0000     -15.630664      -425.3320
   5   2.0000     -15.609812      -424.7646
   6   2.0000     -11.395180      -310.0786
   7   2.0000     -11.386255      -309.8358
   8   2.0000     -11.336005      -308.4684
   9   2.0000     -11.312789      -307.8366
  10   2.0000     -11.311104      -307.7908
  11   2.0000     -11.304080      -307.5996
  12   2.0000     -11.262254      -306.4615
  13   2.0000     -11.262151      -306.4587
  14   2.0000     -11.259906      -306.3976
  15   2.0000     -11.253044      -306.2109
  16   2.0000     -11.242413      -305.9216
  17   2.0000     -11.238353      -305.8111
  18   2.0000     -11.234632      -305.7099
  19   2.0000     -11.228149      -305.5335
  20   2.0000      -8.896095      -242.0750
  21   2.0000      -6.577670      -178.9875
  22   2.0000      -6.575662      -178.9329
  23   2.0000      -6.575072      -178.9168
  24   2.0000      -1.448289       -39.4100
  25   2.0000      -1.415995       -38.5312
  26   2.0000      -1.353908       -36.8417
  27   2.0000      -1.341886       -36.5146
  28   2.0000      -1.239749       -33.7353
  29   2.0000      -1.156674       -31.4747
  30   2.0000      -1.122498       -30.5447
  31   2.0000      -1.044975       -28.4352
  32   2.0000      -1.033696       -28.1283
  33   2.0000      -1.014957       -27.6184
  34   2.0000      -1.001608       -27.2551
  35   2.0000      -0.988637       -26.9022
  36   2.0000      -0.925437       -25.1824
  37   2.0000      -0.892380       -24.2829
  38   2.0000      -0.850572       -23.1452
  39   2.0000      -0.840213       -22.8634
  40   2.0000      -0.832919       -22.6649
  41   2.0000      -0.821723       -22.3602
  42   2.0000      -0.751646       -20.4533
  43   2.0000      -0.734336       -19.9823
  44   2.0000      -0.728708       -19.8291
  45   2.0000      -0.694849       -18.9078
  46   2.0000      -0.687419       -18.7056
  47   2.0000      -0.675546       -18.3825
  48   2.0000      -0.674079       -18.3426
  49   2.0000      -0.661818       -18.0090
  50   2.0000      -0.653272       -17.7764
  51   2.0000      -0.647050       -17.6071
  52   2.0000      -0.639563       -17.4034
  53   2.0000      -0.611008       -16.6264
  54   2.0000      -0.603562       -16.4238
  55   2.0000      -0.600621       -16.3437
  56   2.0000      -0.598001       -16.2724
  57   2.0000      -0.586648       -15.9635
  58   2.0000      -0.574917       -15.6443
  59   2.0000      -0.567618       -15.4457
  60   2.0000      -0.562785       -15.3141
  61   2.0000      -0.552635       -15.0380
  62   2.0000      -0.546036       -14.8584
  63   2.0000      -0.525419       -14.2974
  64   2.0000      -0.520041       -14.1510
  65   2.0000      -0.513288       -13.9673
  66   2.0000      -0.500447       -13.6179
  67   2.0000      -0.490948       -13.3594
  68   2.0000      -0.482772       -13.1369
  69   2.0000      -0.465075       -12.6553
  70   2.0000      -0.454995       -12.3810
  71   2.0000      -0.453056       -12.3283
  72   2.0000      -0.356893        -9.7115
  73   2.0000      -0.347390        -9.4530
  74   2.0000      -0.330225        -8.9859
  75   2.0000      -0.321216        -8.7407
  76   2.0000      -0.318163        -8.6577
  77   0.0000       0.068962         1.8765
  78   0.0000       0.105798         2.8789
  79   0.0000       0.119591         3.2542
  80   0.0000       0.131073         3.5667
  81   0.0000       0.132465         3.6046

MULLIKEN ATOMIC CHARGES
-----------------------
   0 C :   -0.331721
   1 C :    0.047613
   2 O :   -0.382303
   3 C :    0.476396
   4 O :   -0.393970
   5 C :   -0.251797
   6 C :    0.180598
   7 C :   -0.285088
   8 N :   -0.130481
   9 C :    0.188505
  10 S :   -0.434506
  11 N :   -0.211162
  12 C :    0.070346
  13 C :    0.027410
  14 C :   -0.197482
  15 C :   -0.138870
  16 C :   -0.274667
  17 C :    0.318266
  18 O :   -0.357704
  19 C :   -0.271644
  20 H :    0.123766
  21 H :    0.121123
  22 H :    0.093546
  23 H :    0.103215
  24 H :    0.112377
  25 H :    0.121464
  26 H :    0.129367
  27 H :    0.109152
  28 H :    0.198041
  29 H :    0.197105
  30 H :    0.161560
  31 H :    0.171911
  32 H :    0.162982
  33 H :    0.131402
  34 H :    0.240438
  35 H :    0.174814
Sum of atomic charges:    0.0000000

LOEWDIN ATOMIC CHARGES
----------------------
   0 C :    0.107005
   1 C :   -0.014313
   2 O :    0.275925
   3 C :   -0.415985
   4 O :    0.131437
   5 C :   -0.092299
   6 C :   -0.070977
   7 C :    0.127610
   8 N :    0.405783
   9 C :   -0.459561
  10 S :   -0.033799
  11 N :    0.396947
  12 C :   -0.043746
  13 C :   -0.041886
  14 C :    0.019778
  15 C :    0.041596
  16 C :   -0.001973
  17 C :   -0.193744
  18 O :    0.395027
  19 C :    0.027357
  20 H :   -0.032928
  21 H :   -0.021537
  22 H :   -0.034761
  23 H :   -0.026723
  24 H :   -0.021492
  25 H :   -0.016059
  26 H :   -0.006517
  27 H :   -0.017884
  28 H :   -0.058261
  29 H :   -0.063874
  30 H :   -0.002633
  31 H :   -0.023499
  32 H :   -0.019665
  33 H :   -0.035437
  34 H :   -0.153960
  35 H :   -0.024955

  Mayer bond orders larger than 0.100000
B(  0-C ,  1-C ) :   0.9628 B(  0-C , 20-H ) :   0.9664 B(  0-C , 21-H ) :   0.9790
B(  0-C , 22-H ) :   0.9769 B(  1-C ,  2-O ) :   0.8952 B(  1-C , 23-H ) :   0.9782
B(  1-C , 24-H ) :   0.9833 B(  2-O ,  3-C ) :   1.0934 B(  3-C ,  4-O ) :   2.0334
B(  3-C ,  5-C ) :   1.0132 B(  5-C ,  6-C ) :   1.6561 B(  5-C , 12-C ) :   0.9512
B(  6-C ,  7-C ) :   0.9514 B(  6-C ,  8-N ) :   1.1335 B(  7-C , 25-H ) :   0.9638
B(  7-C , 26-H ) :   0.9687 B(  7-C , 27-H ) :   0.9874 B(  8-N ,  9-C ) :   1.1830
B(  8-N , 28-H ) :   0.9499 B(  9-C , 10-S ) :   1.6161 B(  9-C , 11-N ) :   1.2939
B( 11-N , 12-C ) :   0.9805 B( 11-N , 29-H ) :   0.9510 B( 12-C , 13-C ) :   0.9537
B( 12-C , 30-H ) :   0.9968 B( 13-C , 14-C ) :   1.3877 B( 13-C , 19-C ) :   1.3433
B( 14-C , 15-C ) :   1.3998 B( 14-C , 31-H ) :   0.9577 B( 15-C , 16-C ) :   1.3609
B( 15-C , 32-H ) :   0.9704 B( 16-C , 17-C ) :   1.3313 B( 16-C , 33-H ) :   0.9846
B( 17-C , 18-O ) :   1.1110 B( 17-C , 19-C ) :   1.3722 B( 18-O , 34-H ) :   0.9801
B( 19-C , 35-H ) :   0.9603

MP2 TOTAL ENERGY:    -1274.322288143 Eh
FINAL SINGLE POINT ENERGY     -1274.322288142521

DIPOLE MOMENT
-------------
                                X             Y             Z
Electronic contribution:      9.71232       7.14316       6.42175
Nuclear contribution   :    -11.03159      -8.33937      -7.04532
                        -----------------------------------------
Total Dipole Moment    :     -1.31928      -1.19621      -0.62357
                        -----------------------------------------
Magnitude (a.u.)       :      1.88686
Magnitude (Debye)      :      4.79602

Rotational constants in cm-1:     0.011338     0.009921     0.006770
Rotational constants in MHz :   339.913693   297.423631   202.956048

                             ****ORCA TERMINATED NORMALLY****
TOTAL RUN TIME: 0 days 1 hours 57 minutes 11 seconds 925 msec
