                         Program Version 4.2.0 -  RELEASE  -
|  1> ! ri-mp2 cc-pvtz cc-pvtz/c TightSCF  NoKeepInts
|  2>
|  3> %scf
|  4>   MaxCore 4096
|  5> end
|  6> *xyz  0  1
|  7>     C       14.4717039   14.6544022   16.2094732
|  8>     C       15.6277091   15.3271523   16.9667693
|  9>     O       16.8214791   15.1313953   16.1839126
| 10>     C       18.0431798   15.5290165   16.6571773
| 11>     O       18.9646245   14.7358272   16.7149843
| 12>     C       18.0548425   16.8038998   17.4397596
| 13>     C       17.5147876   17.9576324   16.9796065
| 14>     C       16.8648311   18.1897987   15.6313323
| 15>     N       17.6037446   19.1209539   17.7475987
| 16>     C       18.3114665   19.2313856   18.9164594
| 17>     S       18.4276651   20.6668878   19.7286171
| 18>     N       18.9150566   18.0888900   19.3822708
| 19>     C       18.7663933   16.7444536   18.7903665
| 20>     C       18.0206430   15.8044528   19.7324448
| 21>     C       18.4971706   14.4997046   19.9546777
| 22>     C       17.7993145   13.6155678   20.7941132
| 23>     C       16.6114666   14.0374159   21.4150468
| 24>     C       16.1293301   15.3337781   21.1909064
| 25>     O       14.9744378   15.7397339   21.7754151
| 26>     C       16.8254315   16.2116725   20.3540161
| 27>     H       14.6780086   13.5866554   16.0621543
| 28>     H       14.3309788   15.1179564   15.2252017
| 29>     H       13.5351623   14.7483189   16.7725379
| 30>     H       15.3977302   16.3875252   17.1175564
| 31>     H       15.7433996   14.8524250   17.9509417
| 32>     H       17.1177509   17.4024522   14.9104322
| 33>     H       17.2000496   19.1359213   15.1877121
| 34>     H       15.7723127   18.2278727   15.7172624
| 35>     H       17.1786283   19.9732156   17.4171938
| 36>     H       19.4122598   18.1957369   20.2575560
| 37>     H       19.7746257   16.3375759   18.6222711
| 38>     H       19.4048927   14.1632630   19.4579594
| 39>     H       18.1768595   12.6068149   20.9534411
| 40>     H       16.0679769   13.3558206   22.0611631
| 41>     H       14.6789779   15.0263977   22.3616081
| 42>     H       16.4321088   17.2100272   20.1940611
| 43> *
| 44>
| 45>                          ****END OF INPUT****

CARTESIAN COORDINATES (ANGSTROEM)
---------------------------------
  C     14.471704   14.654402   16.209473
  C     15.627709   15.327152   16.966769
  O     16.821479   15.131395   16.183913
  C     18.043180   15.529016   16.657177
  O     18.964624   14.735827   16.714984
  C     18.054842   16.803900   17.439760
  C     17.514788   17.957632   16.979606
  C     16.864831   18.189799   15.631332
  N     17.603745   19.120954   17.747599
  C     18.311467   19.231386   18.916459
  S     18.427665   20.666888   19.728617
  N     18.915057   18.088890   19.382271
  C     18.766393   16.744454   18.790367
  C     18.020643   15.804453   19.732445
  C     18.497171   14.499705   19.954678
  C     17.799314   13.615568   20.794113
  C     16.611467   14.037416   21.415047
  C     16.129330   15.333778   21.190906
  O     14.974438   15.739734   21.775415
  C     16.825432   16.211672   20.354016
  H     14.678009   13.586655   16.062154
  H     14.330979   15.117956   15.225202
  H     13.535162   14.748319   16.772538
  H     15.397730   16.387525   17.117556
  H     15.743400   14.852425   17.950942
  H     17.117751   17.402452   14.910432
  H     17.200050   19.135921   15.187712
  H     15.772313   18.227873   15.717262
  H     17.178628   19.973216   17.417194
  H     19.412260   18.195737   20.257556
  H     19.774626   16.337576   18.622271
  H     19.404893   14.163263   19.457959
  H     18.176859   12.606815   20.953441
  H     16.067977   13.355821   22.061163
  H     14.678978   15.026398   22.361608
  H     16.432109   17.210027   20.194061

 Total Charge           Charge          ....    0
 Multiplicity           Mult            ....    1
 Number of Electrons    NEL             ....  154
 Basis Dimension        Dim             ....  828

ORBITAL ENERGIES
----------------

  NO   OCC          E(Eh)            E(eV)
   0   2.0000     -91.890825     -2500.4765
   1   2.0000     -20.599598      -560.5436
   2   2.0000     -20.594557      -560.4064
   3   2.0000     -20.553032      -559.2764
   4   2.0000     -15.629179      -425.2916
   5   2.0000     -15.611370      -424.8070
   6   2.0000     -11.395902      -310.0982
   7   2.0000     -11.387222      -309.8621
   8   2.0000     -11.333225      -308.3927
   9   2.0000     -11.316222      -307.9301
  10   2.0000     -11.312901      -307.8397
  11   2.0000     -11.302886      -307.5672
  12   2.0000     -11.267315      -306.5992
  13   2.0000     -11.263457      -306.4942
  14   2.0000     -11.262259      -306.4616
  15   2.0000     -11.256289      -306.2992
  16   2.0000     -11.245897      -306.0164
  17   2.0000     -11.241681      -305.9017
  18   2.0000     -11.238764      -305.8223
  19   2.0000     -11.233514      -305.6794
  20   2.0000      -8.895922      -242.0703
  21   2.0000      -6.577503      -178.9830
  22   2.0000      -6.575485      -178.9281
  23   2.0000      -6.574904      -178.9122
  24   2.0000      -1.449100       -39.4320
  25   2.0000      -1.419427       -38.6246
  26   2.0000      -1.360010       -37.0078
  27   2.0000      -1.341472       -36.5033
  28   2.0000      -1.240430       -33.7538
  29   2.0000      -1.160906       -31.5898
  30   2.0000      -1.125276       -30.6203
  31   2.0000      -1.048428       -28.5292
  32   2.0000      -1.039247       -28.2794
  33   2.0000      -1.018248       -27.7079
  34   2.0000      -1.004620       -27.3371
  35   2.0000      -0.989343       -26.9214
  36   2.0000      -0.927481       -25.2380
  37   2.0000      -0.878830       -23.9142
  38   2.0000      -0.855312       -23.2742
  39   2.0000      -0.842943       -22.9377
  40   2.0000      -0.836911       -22.7735
  41   2.0000      -0.835868       -22.7451
  42   2.0000      -0.757446       -20.6111
  43   2.0000      -0.739352       -20.1188
  44   2.0000      -0.731917       -19.9165
  45   2.0000      -0.697228       -18.9725
  46   2.0000      -0.688184       -18.7264
  47   2.0000      -0.682896       -18.5825
  48   2.0000      -0.676586       -18.4108
  49   2.0000      -0.663140       -18.0449
  50   2.0000      -0.652589       -17.7579
  51   2.0000      -0.648495       -17.6465
  52   2.0000      -0.641310       -17.4509
  53   2.0000      -0.611880       -16.6501
  54   2.0000      -0.607835       -16.5400
  55   2.0000      -0.604118       -16.4389
  56   2.0000      -0.603226       -16.4146
  57   2.0000      -0.585431       -15.9304
  58   2.0000      -0.577766       -15.7218
  59   2.0000      -0.567214       -15.4347
  60   2.0000      -0.559970       -15.2376
  61   2.0000      -0.557405       -15.1678
  62   2.0000      -0.544631       -14.8202
  63   2.0000      -0.525540       -14.3007
  64   2.0000      -0.523990       -14.2585
  65   2.0000      -0.515894       -14.0382
  66   2.0000      -0.502511       -13.6740
  67   2.0000      -0.499480       -13.5915
  68   2.0000      -0.490876       -13.3574
  69   2.0000      -0.468739       -12.7550
  70   2.0000      -0.459123       -12.4934
  71   2.0000      -0.450952       -12.2710
  72   2.0000      -0.357938        -9.7400
  73   2.0000      -0.351515        -9.5652
  74   2.0000      -0.330316        -8.9883
  75   2.0000      -0.324136        -8.8202
  76   2.0000      -0.318950        -8.6791
  77   0.0000       0.077517         2.1093
  78   0.0000       0.104324         2.8388
  79   0.0000       0.114288         3.1099
  80   0.0000       0.129101         3.5130
  81   0.0000       0.132547         3.6068

MULLIKEN ATOMIC CHARGES
-----------------------
   0 C :   -0.259697
   1 C :    0.017454
   2 O :   -0.328823
   3 C :    0.418342
   4 O :   -0.378883
   5 C :   -0.201433
   6 C :    0.132751
   7 C :   -0.313155
   8 N :   -0.131192
   9 C :    0.200823
  10 S :   -0.438543
  11 N :   -0.207875
  12 C :    0.059363
  13 C :    0.024028
  14 C :   -0.181815
  15 C :   -0.133522
  16 C :   -0.276984
  17 C :    0.317566
  18 O :   -0.358865
  19 C :   -0.278665
  20 H :    0.107901
  21 H :    0.094601
  22 H :    0.091042
  23 H :    0.088371
  24 H :    0.119166
  25 H :    0.136345
  26 H :    0.129269
  27 H :    0.119476
  28 H :    0.196953
  29 H :    0.196522
  30 H :    0.161973
  31 H :    0.166972
  32 H :    0.163466
  33 H :    0.132658
  34 H :    0.241732
  35 H :    0.172682
Sum of atomic charges:   -0.0000000

LOEWDIN ATOMIC CHARGES
----------------------
   0 C :    0.111988
   1 C :   -0.023785
   2 O :    0.297416
   3 C :   -0.417075
   4 O :    0.129208
   5 C :   -0.087481
   6 C :   -0.092066
   7 C :    0.126929
   8 N :    0.402634
   9 C :   -0.456871
  10 S :   -0.035684
  11 N :    0.397118
  12 C :   -0.045180
  13 C :   -0.044636
  14 C :    0.021677
  15 C :    0.044302
  16 C :   -0.000965
  17 C :   -0.195350
  18 O :    0.394294
  19 C :    0.027765
  20 H :   -0.022204
  21 H :   -0.028256
  22 H :   -0.024312
  23 H :   -0.039890
  24 H :   -0.026281
  25 H :   -0.007125
  26 H :   -0.012390
  27 H :   -0.016959
  28 H :   -0.057386
  29 H :   -0.063638
  30 H :   -0.002899
  31 H :   -0.022139
  32 H :   -0.018686
  33 H :   -0.034632
  34 H :   -0.152984
  35 H :   -0.024459

  Mayer bond orders larger than 0.100000
B(  0-C ,  1-C ) :   0.9818 B(  0-C , 20-H ) :   0.9787 B(  0-C , 21-H ) :   0.9787
B(  0-C , 22-H ) :   0.9765 B(  1-C ,  2-O ) :   0.8996 B(  1-C , 23-H ) :   0.9675
B(  1-C , 24-H ) :   0.9718 B(  2-O ,  3-C ) :   1.1658 B(  3-C ,  4-O ) :   2.0983
B(  3-C ,  5-C ) :   0.9354 B(  5-C ,  6-C ) :   1.6769 B(  5-C , 12-C ) :   0.9632
B(  6-C ,  7-C ) :   0.9446 B(  6-C ,  8-N ) :   1.1241 B(  7-C , 25-H ) :   0.9749
B(  7-C , 26-H ) :   0.9767 B(  7-C , 27-H ) :   0.9643 B(  8-N ,  9-C ) :   1.1887
B(  8-N , 28-H ) :   0.9513 B(  9-C , 10-S ) :   1.6134 B(  9-C , 11-N ) :   1.2923
B( 11-N , 12-C ) :   0.9976 B( 11-N , 29-H ) :   0.9504 B( 12-C , 13-C ) :   0.9416
B( 12-C , 30-H ) :   0.9978 B( 13-C , 14-C ) :   1.3867 B( 13-C , 19-C ) :   1.3536
B( 14-C , 15-C ) :   1.3953 B( 14-C , 31-H ) :   0.9604 B( 15-C , 16-C ) :   1.3643
B( 15-C , 32-H ) :   0.9703 B( 16-C , 17-C ) :   1.3277 B( 16-C , 33-H ) :   0.9844
B( 17-C , 18-O ) :   1.1107 B( 17-C , 19-C ) :   1.3695 B( 18-O , 34-H ) :   0.9791
B( 19-C , 35-H ) :   0.9586

MP2 TOTAL ENERGY:    -1274.334058072 Eh
FINAL SINGLE POINT ENERGY     -1274.334058072161

DIPOLE MOMENT
-------------
                                X             Y             Z
Electronic contribution:     11.02689       8.25603       7.52300
Nuclear contribution   :    -12.48019      -9.29420      -7.82212
                        -----------------------------------------
Total Dipole Moment    :     -1.45329      -1.03817      -0.29912
                        -----------------------------------------
Magnitude (a.u.)       :      1.81089
Magnitude (Debye)      :      4.60292

Rotational constants in cm-1:     0.011414     0.009220     0.006764
Rotational constants in MHz :   342.195215   276.418500   202.776024

                             ****ORCA TERMINATED NORMALLY****
TOTAL RUN TIME: 0 days 1 hours 47 minutes 29 seconds 262 msec
