                         Program Version 5.0.0 -  RELEASE  -
|  1> ! ri-mp2 cc-pvtz cc-pvtz/c TightSCF NoKeepInts
|  2>
|  3> %scf
|  4>   MaxCore 4096
|  5> end
|  6> *xyz  0  1
|  7>     C       15.0976138   15.1620706   16.8774438
|  8>     C       16.3211969   14.2161011   16.8238155
|  9>     O       17.5455249   14.8518185   16.3710358
| 10>     C       17.6190300   16.1835496   16.0769238
| 11>     O       17.2527785   16.5792885   14.9850218
| 12>     C       17.7816480   17.0731730   17.2808370
| 13>     C       17.3793645   18.3698361   17.2832625
| 14>     C       16.6021403   19.0927242   16.2043757
| 15>     N       17.7200875   19.2045494   18.3520430
| 16>     C       18.6391476   18.8891179   19.3178275
| 17>     S       19.1425476   19.9917559   20.4429689
| 18>     N       19.1328023   17.6089875   19.2933517
| 19>     C       18.5797702   16.5152747   18.4735068
| 20>     C       17.7858727   15.5809545   19.3795259
| 21>     C       18.2762333   14.2940633   19.6727871
| 22>     C       17.5586505   13.4310906   20.5182073
| 23>     C       16.3454832   13.8607550   21.0825089
| 24>     C       15.8640815   15.1479914   20.8081385
| 25>     O       14.6951575   15.5679543   21.3534147
| 26>     C       16.5812290   16.0050949   19.9681532
| 27>     H       15.2480069   15.9913045   17.5761700
| 28>     H       14.2115683   14.6082612   17.2105330
| 29>     H       14.8766219   15.5740713   15.8844535
| 30>     H       16.4745016   13.7729643   17.8140232
| 31>     H       16.0888570   13.3889360   16.1407176
| 32>     H       15.7213304   18.5109837   15.9045655
| 33>     H       17.2232211   19.2283649   15.3094879
| 34>     H       16.2495990   20.0813301   16.5208084
| 35>     H       17.3823835   20.1537581   18.3695297
| 36>     H       19.7922782   17.3983447   20.0314477
| 37>     H       19.4271273   15.9494174   18.0610920
| 38>     H       19.2137628   13.9578255   19.2373712
| 39>     H       17.9437722   12.4359111   20.7350667
| 40>     H       15.7876422   13.1976580   21.7358510
| 41>     H       14.3876503   14.8743256   21.9565728
| 42>     H       16.1983175   17.0023924   19.7811603
| 43> *
| 44>
| 45>                          ****END OF INPUT****

CARTESIAN COORDINATES (ANGSTROEM)
---------------------------------
  C     15.097614   15.162071   16.877444
  C     16.321197   14.216101   16.823815
  O     17.545525   14.851819   16.371036
  C     17.619030   16.183550   16.076924
  O     17.252778   16.579289   14.985022
  C     17.781648   17.073173   17.280837
  C     17.379365   18.369836   17.283262
  C     16.602140   19.092724   16.204376
  N     17.720088   19.204549   18.352043
  C     18.639148   18.889118   19.317827
  S     19.142548   19.991756   20.442969
  N     19.132802   17.608988   19.293352
  C     18.579770   16.515275   18.473507
  C     17.785873   15.580955   19.379526
  C     18.276233   14.294063   19.672787
  C     17.558650   13.431091   20.518207
  C     16.345483   13.860755   21.082509
  C     15.864081   15.147991   20.808138
  O     14.695158   15.567954   21.353415
  C     16.581229   16.005095   19.968153
  H     15.248007   15.991304   17.576170
  H     14.211568   14.608261   17.210533
  H     14.876622   15.574071   15.884453
  H     16.474502   13.772964   17.814023
  H     16.088857   13.388936   16.140718
  H     15.721330   18.510984   15.904566
  H     17.223221   19.228365   15.309488
  H     16.249599   20.081330   16.520808
  H     17.382383   20.153758   18.369530
  H     19.792278   17.398345   20.031448
  H     19.427127   15.949417   18.061092
  H     19.213763   13.957826   19.237371
  H     17.943772   12.435911   20.735067
  H     15.787642   13.197658   21.735851
  H     14.387650   14.874326   21.956573
  H     16.198318   17.002392   19.781160

 Total Charge           Charge          ....    0
 Multiplicity           Mult            ....    1
 Number of Electrons    NEL             ....  154
 Basis Dimension        Dim             ....  828

ORBITAL ENERGIES
----------------

  NO   OCC          E(Eh)            E(eV)
   0   2.0000     -91.891282     -2500.4889
   1   2.0000     -20.602908      -560.6336
   2   2.0000     -20.577282      -559.9363
   3   2.0000     -20.549817      -559.1889
   4   2.0000     -15.631140      -425.3450
   5   2.0000     -15.610349      -424.7792
   6   2.0000     -11.393438      -310.0312
   7   2.0000     -11.385905      -309.8262
   8   2.0000     -11.336569      -308.4837
   9   2.0000     -11.320548      -308.0478
  10   2.0000     -11.313796      -307.8640
  11   2.0000     -11.298588      -307.4502
  12   2.0000     -11.265185      -306.5413
  13   2.0000     -11.261378      -306.4377
  14   2.0000     -11.259597      -306.3892
  15   2.0000     -11.254207      -306.2425
  16   2.0000     -11.249733      -306.1208
  17   2.0000     -11.244533      -305.9793
  18   2.0000     -11.243907      -305.9623
  19   2.0000     -11.227425      -305.5138
  20   2.0000      -8.896305      -242.0808
  21   2.0000      -6.577870      -178.9929
  22   2.0000      -6.575877      -178.9387
  23   2.0000      -6.575280      -178.9225
  24   2.0000      -1.442235       -39.2452
  25   2.0000      -1.422590       -38.7106
  26   2.0000      -1.349499       -36.7217
  27   2.0000      -1.342599       -36.5340
  28   2.0000      -1.241265       -33.7765
  29   2.0000      -1.163176       -31.6516
  30   2.0000      -1.121841       -30.5269
  31   2.0000      -1.047256       -28.4973
  32   2.0000      -1.030389       -28.0383
  33   2.0000      -1.021607       -27.7993
  34   2.0000      -1.000672       -27.2297
  35   2.0000      -0.987365       -26.8676
  36   2.0000      -0.926456       -25.2102
  37   2.0000      -0.895998       -24.3813
  38   2.0000      -0.849662       -23.1205
  39   2.0000      -0.844860       -22.9898
  40   2.0000      -0.840010       -22.8578
  41   2.0000      -0.822079       -22.3699
  42   2.0000      -0.745626       -20.2895
  43   2.0000      -0.736324       -20.0364
  44   2.0000      -0.718832       -19.5604
  45   2.0000      -0.701684       -19.0938
  46   2.0000      -0.691938       -18.8286
  47   2.0000      -0.673805       -18.3352
  48   2.0000      -0.671527       -18.2732
  49   2.0000      -0.658744       -17.9253
  50   2.0000      -0.656644       -17.8682
  51   2.0000      -0.647427       -17.6174
  52   2.0000      -0.637266       -17.3409
  53   2.0000      -0.628545       -17.1036
  54   2.0000      -0.613110       -16.6836
  55   2.0000      -0.604877       -16.4595
  56   2.0000      -0.602137       -16.3850
  57   2.0000      -0.582504       -15.8508
  58   2.0000      -0.573652       -15.6099
  59   2.0000      -0.566513       -15.4156
  60   2.0000      -0.544887       -14.8271
  61   2.0000      -0.543767       -14.7966
  62   2.0000      -0.536925       -14.6105
  63   2.0000      -0.532607       -14.4930
  64   2.0000      -0.530541       -14.4368
  65   2.0000      -0.516634       -14.0583
  66   2.0000      -0.506022       -13.7695
  67   2.0000      -0.493202       -13.4207
  68   2.0000      -0.482371       -13.1260
  69   2.0000      -0.468179       -12.7398
  70   2.0000      -0.451352       -12.2819
  71   2.0000      -0.443143       -12.0585
  72   2.0000      -0.357846        -9.7375
  73   2.0000      -0.354726        -9.6526
  74   2.0000      -0.331417        -9.0183
  75   2.0000      -0.327678        -8.9166
  76   2.0000      -0.318397        -8.6640
  77   0.0000       0.068146         1.8543
  78   0.0000       0.102036         2.7766
  79   0.0000       0.120667         3.2835
  80   0.0000       0.126908         3.4533
  81   0.0000       0.132083         3.5941

MULLIKEN ATOMIC CHARGES
-----------------------
   0 C :   -0.345051
   1 C :    0.041507
   2 O :   -0.395029
   3 C :    0.513090
   4 O :   -0.398491
   5 C :   -0.296754
   6 C :    0.166303
   7 C :   -0.273424
   8 N :   -0.124876
   9 C :    0.208085
  10 S :   -0.434922
  11 N :   -0.196359
  12 C :    0.049817
  13 C :    0.058689
  14 C :   -0.168635
  15 C :   -0.134072
  16 C :   -0.274904
  17 C :    0.321842
  18 O :   -0.357606
  19 C :   -0.303318
  20 H :    0.103399
  21 H :    0.116345
  22 H :    0.124872
  23 H :    0.111864
  24 H :    0.121370
  25 H :    0.126250
  26 H :    0.139916
  27 H :    0.094579
  28 H :    0.198136
  29 H :    0.192144
  30 H :    0.148704
  31 H :    0.149033
  32 H :    0.164004
  33 H :    0.133892
  34 H :    0.242232
  35 H :    0.177371
Sum of atomic charges:    0.0000000

LOEWDIN ATOMIC CHARGES
----------------------
   0 C :    0.105040
   1 C :   -0.005948
   2 O :    0.274296
   3 C :   -0.423613
   4 O :    0.126873
   5 C :   -0.098396
   6 C :   -0.063358
   7 C :    0.130472
   8 N :    0.406744
   9 C :   -0.457006
  10 S :   -0.031941
  11 N :    0.396531
  12 C :   -0.052986
  13 C :   -0.038828
  14 C :    0.014989
  15 C :    0.040866
  16 C :   -0.001408
  17 C :   -0.190292
  18 O :    0.396612
  19 C :    0.034301
  20 H :   -0.036479
  21 H :   -0.021447
  22 H :   -0.026499
  23 H :   -0.031087
  24 H :   -0.026054
  25 H :   -0.007176
  26 H :   -0.002694
  27 H :   -0.022945
  28 H :   -0.057590
  29 H :   -0.065179
  30 H :   -0.006156
  31 H :   -0.028592
  32 H :   -0.019667
  33 H :   -0.034126
  34 H :   -0.152339
  35 H :   -0.024920

  Mayer bond orders larger than 0.100000
B(  0-C ,  1-C ) :   0.9641 B(  0-C , 20-H ) :   0.9687 B(  0-C , 21-H ) :   0.9756
B(  0-C , 22-H ) :   0.9717 B(  1-C ,  2-O ) :   0.8832 B(  1-C , 23-H ) :   0.9695
B(  1-C , 24-H ) :   0.9851 B(  2-O ,  3-C ) :   1.1065 B(  3-C ,  4-O ) :   2.0391
B(  3-C ,  5-C ) :   1.0293 B(  5-C ,  6-C ) :   1.6576 B(  5-C , 12-C ) :   0.9736
B(  6-C ,  7-C ) :   0.9663 B(  6-C ,  8-N ) :   1.1512 B(  7-C , 25-H ) :   0.9664
B(  7-C , 26-H ) :   0.9567 B(  7-C , 27-H ) :   0.9875 B(  8-N ,  9-C ) :   1.1798
B(  8-N , 28-H ) :   0.9487 B(  9-C , 10-S ) :   1.6158 B(  9-C , 11-N ) :   1.2998
B( 11-N , 12-C ) :   0.9786 B( 11-N , 29-H ) :   0.9539 B( 12-C , 13-C ) :   0.9436
B( 12-C , 30-H ) :   1.0041 B( 13-C , 14-C ) :   1.3494 B( 13-C , 19-C ) :   1.3591
B( 14-C , 15-C ) :   1.3932 B( 14-C , 31-H ) :   0.9743 B( 15-C , 16-C ) :   1.3635
B( 15-C , 32-H ) :   0.9702 B( 16-C , 17-C ) :   1.3285 B( 16-C , 33-H ) :   0.9836
B( 17-C , 18-O ) :   1.1135 B( 17-C , 19-C ) :   1.3706 B( 18-O , 34-H ) :   0.9790
B( 19-C , 35-H ) :   0.9540

MP2 TOTAL ENERGY:    -1274.324196223 Eh
FINAL SINGLE POINT ENERGY     -1274.324196223269

DIPOLE MOMENT
-------------
                                X             Y             Z
Electronic contribution:      9.91177       7.53854       5.54681
Nuclear contribution   :    -11.03654      -9.10893      -5.24763
                        -----------------------------------------
Total Dipole Moment    :     -1.12478      -1.57039       0.29918
                        -----------------------------------------
Magnitude (a.u.)       :      1.95467
Magnitude (Debye)      :      4.96838

Rotational constants in cm-1:     0.011969     0.009748     0.006768
Rotational constants in MHz :   358.827044   292.242977   202.890457

                             ****ORCA TERMINATED NORMALLY****
TOTAL RUN TIME: 0 days 2 hours 29 minutes 33 seconds 362 msec
