                         Program Version 4.2.0 -  RELEASE  -
|  1> ! ri-mp2 cc-pvtz cc-pvtz/c TightSCF  NoKeepInts
|  2>
|  3> %scf
|  4>   MaxCore 4096
|  5> end
|  6> *xyz  0  1
|  7>     C       14.8756312   16.0672561   17.2865710
|  8>     C       15.6760070   14.8777202   16.7182879
|  9>     O       16.8100649   15.2472704   15.8955937
| 10>     C       17.9960149   15.7301919   16.3893737
| 11>     O       18.9736720   15.0048452   16.3702854
| 12>     C       17.9212497   16.8741015   17.3452952
| 13>     C       17.3584976   18.0606377   17.0148933
| 14>     C       16.7470249   18.4519433   15.6859504
| 15>     N       17.3992244   19.1242486   17.9190518
| 16>     C       18.0822907   19.1131404   19.1072556
| 17>     S       18.1370054   20.4415301   20.0903555
| 18>     N       18.7202582   17.9438771   19.4415350
| 19>     C       18.6336743   16.6778294   18.6864429
| 20>     C       17.9643642   15.5788370   19.5103109
| 21>     C       18.4514330   14.2597487   19.4529596
| 22>     C       17.8319100   13.2323866   20.1835473
| 23>     C       16.7134364   13.5240484   20.9820287
| 24>     C       16.2247819   14.8355810   21.0448196
| 25>     O       15.1390059   15.1198346   21.8067669
| 26>     C       16.8438342   15.8562047   20.3163776
| 27>     H       15.4065190   16.5845185   18.0896065
| 28>     H       13.9346420   15.7028543   17.7166846
| 29>     H       14.6193281   16.7810267   16.4960919
| 30>     H       16.0120293   14.2345975   17.5434196
| 31>     H       14.9942243   14.2783351   16.1012317
| 32>     H       16.6585679   17.6085069   14.9922180
| 33>     H       17.3641538   19.2103859   15.1878567
| 34>     H       15.7423423   18.8709107   15.8199757
| 35>     H       16.9555798   19.9979866   17.6829930
| 36>     H       19.2027357   17.9604842   20.3312334
| 37>     H       19.6623434   16.3536353   18.4695766
| 38>     H       19.3092888   14.0266717   18.8253929
| 39>     H       18.2182583   12.2160892   20.1249824
| 40>     H       16.2307593   12.7329421   21.5464669
| 41>     H       14.8933315   14.3091957   22.2778822
| 42>     H       16.4435157   16.8626267   20.3806859
| 43> *
| 44>
| 45>                          ****END OF INPUT****

CARTESIAN COORDINATES (ANGSTROEM)
---------------------------------
  C     14.875631   16.067256   17.286571
  C     15.676007   14.877720   16.718288
  O     16.810065   15.247270   15.895594
  C     17.996015   15.730192   16.389374
  O     18.973672   15.004845   16.370285
  C     17.921250   16.874101   17.345295
  C     17.358498   18.060638   17.014893
  C     16.747025   18.451943   15.685950
  N     17.399224   19.124249   17.919052
  C     18.082291   19.113140   19.107256
  S     18.137005   20.441530   20.090356
  N     18.720258   17.943877   19.441535
  C     18.633674   16.677829   18.686443
  C     17.964364   15.578837   19.510311
  C     18.451433   14.259749   19.452960
  C     17.831910   13.232387   20.183547
  C     16.713436   13.524048   20.982029
  C     16.224782   14.835581   21.044820
  O     15.139006   15.119835   21.806767
  C     16.843834   15.856205   20.316378
  H     15.406519   16.584519   18.089606
  H     13.934642   15.702854   17.716685
  H     14.619328   16.781027   16.496092
  H     16.012029   14.234597   17.543420
  H     14.994224   14.278335   16.101232
  H     16.658568   17.608507   14.992218
  H     17.364154   19.210386   15.187857
  H     15.742342   18.870911   15.819976
  H     16.955580   19.997987   17.682993
  H     19.202736   17.960484   20.331233
  H     19.662343   16.353635   18.469577
  H     19.309289   14.026672   18.825393
  H     18.218258   12.216089   20.124982
  H     16.230759   12.732942   21.546467
  H     14.893332   14.309196   22.277882
  H     16.443516   16.862627   20.380686

 Total Charge           Charge          ....    0
 Multiplicity           Mult            ....    1
 Number of Electrons    NEL             ....  154
 Basis Dimension        Dim             ....  828

ORBITAL ENERGIES
----------------

  NO   OCC          E(Eh)            E(eV)
   0   2.0000     -91.891037     -2500.4822
   1   2.0000     -20.600125      -560.5579
   2   2.0000     -20.584757      -560.1397
   3   2.0000     -20.554180      -559.3077
   4   2.0000     -15.628697      -425.2785
   5   2.0000     -15.611849      -424.8200
   6   2.0000     -11.396238      -310.1074
   7   2.0000     -11.387457      -309.8685
   8   2.0000     -11.331712      -308.3515
   9   2.0000     -11.317104      -307.9541
  10   2.0000     -11.314261      -307.8767
  11   2.0000     -11.305327      -307.6336
  12   2.0000     -11.264197      -306.5144
  13   2.0000     -11.264145      -306.5130
  14   2.0000     -11.262627      -306.4717
  15   2.0000     -11.256991      -306.3183
  16   2.0000     -11.246678      -306.0377
  17   2.0000     -11.242770      -305.9313
  18   2.0000     -11.238899      -305.8260
  19   2.0000     -11.231017      -305.6115
  20   2.0000      -8.896125      -242.0759
  21   2.0000      -6.577708      -178.9885
  22   2.0000      -6.575689      -178.9336
  23   2.0000      -6.575107      -178.9178
  24   2.0000      -1.444682       -39.3118
  25   2.0000      -1.419944       -38.6386
  26   2.0000      -1.353984       -36.8438
  27   2.0000      -1.341385       -36.5009
  28   2.0000      -1.240691       -33.7609
  29   2.0000      -1.161271       -31.5998
  30   2.0000      -1.124846       -30.6086
  31   2.0000      -1.048240       -28.5241
  32   2.0000      -1.035647       -28.1814
  33   2.0000      -1.019137       -27.7321
  34   2.0000      -1.004529       -27.3346
  35   2.0000      -0.990298       -26.9474
  36   2.0000      -0.927897       -25.2494
  37   2.0000      -0.892271       -24.2799
  38   2.0000      -0.852409       -23.1952
  39   2.0000      -0.841942       -22.9104
  40   2.0000      -0.837219       -22.7819
  41   2.0000      -0.829135       -22.5619
  42   2.0000      -0.751898       -20.4602
  43   2.0000      -0.735191       -20.0056
  44   2.0000      -0.730508       -19.8781
  45   2.0000      -0.698336       -19.0027
  46   2.0000      -0.688273       -18.7289
  47   2.0000      -0.677741       -18.4423
  48   2.0000      -0.674478       -18.3535
  49   2.0000      -0.662403       -18.0249
  50   2.0000      -0.654522       -17.8104
  51   2.0000      -0.645946       -17.5771
  52   2.0000      -0.640453       -17.4276
  53   2.0000      -0.613009       -16.6808
  54   2.0000      -0.607365       -16.5273
  55   2.0000      -0.604147       -16.4397
  56   2.0000      -0.598523       -16.2867
  57   2.0000      -0.593926       -16.1616
  58   2.0000      -0.577814       -15.7231
  59   2.0000      -0.576613       -15.6904
  60   2.0000      -0.565751       -15.3949
  61   2.0000      -0.556024       -15.1302
  62   2.0000      -0.541619       -14.7382
  63   2.0000      -0.529173       -14.3995
  64   2.0000      -0.521478       -14.1901
  65   2.0000      -0.513588       -13.9754
  66   2.0000      -0.502923       -13.6852
  67   2.0000      -0.490723       -13.3532
  68   2.0000      -0.487306       -13.2603
  69   2.0000      -0.465370       -12.6634
  70   2.0000      -0.458394       -12.4735
  71   2.0000      -0.449322       -12.2267
  72   2.0000      -0.356143        -9.6912
  73   2.0000      -0.352024        -9.5790
  74   2.0000      -0.330494        -8.9932
  75   2.0000      -0.324865        -8.8400
  76   2.0000      -0.319612        -8.6971
  77   0.0000       0.079618         2.1665
  78   0.0000       0.102982         2.8023
  79   0.0000       0.118622         3.2279
  80   0.0000       0.126943         3.4543
  81   0.0000       0.129588         3.5263

MULLIKEN ATOMIC CHARGES
-----------------------
   0 C :   -0.339665
   1 C :    0.044093
   2 O :   -0.364262
   3 C :    0.422540
   4 O :   -0.375994
   5 C :   -0.197136
   6 C :    0.143095
   7 C :   -0.330103
   8 N :   -0.132616
   9 C :    0.200881
  10 S :   -0.438152
  11 N :   -0.221338
  12 C :    0.085311
  13 C :    0.021394
  14 C :   -0.209187
  15 C :   -0.133592
  16 C :   -0.278652
  17 C :    0.321925
  18 O :   -0.356745
  19 C :   -0.283155
  20 H :    0.113892
  21 H :    0.126021
  22 H :    0.102519
  23 H :    0.104558
  24 H :    0.123276
  25 H :    0.132570
  26 H :    0.146306
  27 H :    0.113509
  28 H :    0.197566
  29 H :    0.199758
  30 H :    0.165287
  31 H :    0.173537
  32 H :    0.164928
  33 H :    0.133003
  34 H :    0.241489
  35 H :    0.183139
Sum of atomic charges:    0.0000000

LOEWDIN ATOMIC CHARGES
----------------------
   0 C :    0.103816
   1 C :   -0.010897
   2 O :    0.276563
   3 C :   -0.415794
   4 O :    0.134514
   5 C :   -0.086654
   6 C :   -0.087778
   7 C :    0.124906
   8 N :    0.404414
   9 C :   -0.456955
  10 S :   -0.035706
  11 N :    0.397567
  12 C :   -0.043941
  13 C :   -0.043612
  14 C :    0.020341
  15 C :    0.042215
  16 C :   -0.001555
  17 C :   -0.194035
  18 O :    0.395354
  19 C :    0.027913
  20 H :   -0.037248
  21 H :   -0.020814
  22 H :   -0.031185
  23 H :   -0.026843
  24 H :   -0.019231
  25 H :   -0.011174
  26 H :   -0.009778
  27 H :   -0.017994
  28 H :   -0.056442
  29 H :   -0.063724
  30 H :   -0.002986
  31 H :   -0.022078
  32 H :   -0.018635
  33 H :   -0.034566
  34 H :   -0.153030
  35 H :   -0.024948

  Mayer bond orders larger than 0.100000
B(  0-C ,  1-C ) :   0.9594 B(  0-C , 20-H ) :   0.9691 B(  0-C , 21-H ) :   0.9779
B(  0-C , 22-H ) :   0.9771 B(  1-C ,  2-O ) :   0.8959 B(  1-C , 23-H ) :   0.9733
B(  1-C , 24-H ) :   0.9833 B(  2-O ,  3-C ) :   1.1311 B(  3-C ,  4-O ) :   2.0874
B(  3-C ,  5-C ) :   0.9502 B(  5-C ,  6-C ) :   1.6680 B(  5-C , 12-C ) :   0.9529
B(  6-C ,  7-C ) :   0.9522 B(  6-C ,  8-N ) :   1.1242 B(  7-C , 25-H ) :   0.9747
B(  7-C , 26-H ) :   0.9661 B(  7-C , 27-H ) :   0.9683 B(  8-N ,  9-C ) :   1.1914
B(  8-N , 28-H ) :   0.9511 B(  9-C , 10-S ) :   1.6135 B(  9-C , 11-N ) :   1.2873
B( 11-N , 12-C ) :   0.9904 B( 11-N , 29-H ) :   0.9493 B( 12-C , 13-C ) :   0.9423
B( 12-C , 30-H ) :   0.9983 B( 13-C , 14-C ) :   1.3874 B( 13-C , 19-C ) :   1.3404
B( 14-C , 15-C ) :   1.4015 B( 14-C , 31-H ) :   0.9592 B( 15-C , 16-C ) :   1.3585
B( 15-C , 32-H ) :   0.9700 B( 16-C , 17-C ) :   1.3318 B( 16-C , 33-H ) :   0.9843
B( 17-C , 18-O ) :   1.1113 B( 17-C , 19-C ) :   1.3659 B( 18-O , 34-H ) :   0.9793
B( 19-C , 35-H ) :   0.9520

MP2 TOTAL ENERGY:    -1274.323422798 Eh
FINAL SINGLE POINT ENERGY     -1274.323422798273

DIPOLE MOMENT
-------------
                                X             Y             Z
Electronic contribution:      9.67572       5.69701       5.75603
Nuclear contribution   :    -11.04219      -6.88682      -6.13223
                        -----------------------------------------
Total Dipole Moment    :     -1.36648      -1.18981      -0.37620
                        -----------------------------------------
Magnitude (a.u.)       :      1.85052
Magnitude (Debye)      :      4.70365

Rotational constants in cm-1:     0.012231     0.009460     0.006991
Rotational constants in MHz :   366.690777   283.600279   209.583750

                             ****ORCA TERMINATED NORMALLY****
TOTAL RUN TIME: 0 days 1 hours 58 minutes 45 seconds 197 msec
