                         Program Version 5.0.0 -  RELEASE  -
|  1> ! ri-mp2 cc-pvtz cc-pvtz/c TightSCF NoKeepInts
|  2>
|  3> %scf
|  4>   MaxCore 4096
|  5> end
|  6> *xyz  0  1
|  7>     C       15.5833153   13.6457186   15.4521993
|  8>     C       15.1959044   15.1394441   15.4137289
|  9>     O       16.1654043   16.0728548   15.9630110
| 10>     C       17.2485618   15.7995876   16.7593412
| 11>     O       17.7587841   14.6990791   16.8778827
| 12>     C       17.6909215   16.9608861   17.6078658
| 13>     C       17.3285477   18.2586847   17.4213151
| 14>     C       16.4337632   18.8401355   16.3451912
| 15>     N       17.8599498   19.2538516   18.2490578
| 16>     C       18.8582299   19.0620867   19.1668549
| 17>     S       19.5216174   20.3211242   20.0097732
| 18>     N       19.2780815   17.7696879   19.3495790
| 19>     C       18.6296188   16.5832075   18.7610906
| 20>     C       17.8879788   15.7923773   19.8361066
| 21>     C       18.1553916   14.4238544   20.0253342
| 22>     C       17.4742315   13.6898246   21.0107778
| 23>     C       16.5160628   14.3288933   21.8157991
| 24>     C       16.2437157   15.6907888   21.6283503
| 25>     O       15.3144654   16.3093335   22.3999351
| 26>     C       16.9229473   16.4186021   20.6462888
| 27>     H       16.5330895   13.4711847   14.9310408
| 28>     H       14.8138424   13.0419203   14.9565074
| 29>     H       15.6723841   13.2853029   16.4848795
| 30>     H       14.9889067   15.4236995   14.3740258
| 31>     H       14.2556459   15.2546228   15.9682708
| 32>     H       15.3961944   18.5128319   16.4858921
| 33>     H       16.7610127   18.5154058   15.3496085
| 34>     H       16.4339202   19.9368748   16.3401413
| 35>     H       17.5651242   20.2097346   18.1300748
| 36>     H       19.9934409   17.6491585   20.0549598
| 37>     H       19.4241384   15.9432421   18.3506408
| 38>     H       18.8834089   13.9231693   19.3915556
| 39>     H       17.6863068   12.6303286   21.1421268
| 40>     H       15.9863335   13.7653687   22.5765105
| 41>     H       14.9867360   15.6568528   23.0367915
| 42>     H       16.6990225   17.4722803   20.5214916
| 43> *
| 44>
| 45>                          ****END OF INPUT****

CARTESIAN COORDINATES (ANGSTROEM)
---------------------------------
  C     15.583315   13.645719   15.452199
  C     15.195904   15.139444   15.413729
  O     16.165404   16.072855   15.963011
  C     17.248562   15.799588   16.759341
  O     17.758784   14.699079   16.877883
  C     17.690922   16.960886   17.607866
  C     17.328548   18.258685   17.421315
  C     16.433763   18.840135   16.345191
  N     17.859950   19.253852   18.249058
  C     18.858230   19.062087   19.166855
  S     19.521617   20.321124   20.009773
  N     19.278081   17.769688   19.349579
  C     18.629619   16.583208   18.761091
  C     17.887979   15.792377   19.836107
  C     18.155392   14.423854   20.025334
  C     17.474231   13.689825   21.010778
  C     16.516063   14.328893   21.815799
  C     16.243716   15.690789   21.628350
  O     15.314465   16.309334   22.399935
  C     16.922947   16.418602   20.646289
  H     16.533089   13.471185   14.931041
  H     14.813842   13.041920   14.956507
  H     15.672384   13.285303   16.484880
  H     14.988907   15.423699   14.374026
  H     14.255646   15.254623   15.968271
  H     15.396194   18.512832   16.485892
  H     16.761013   18.515406   15.349609
  H     16.433920   19.936875   16.340141
  H     17.565124   20.209735   18.130075
  H     19.993441   17.649158   20.054960
  H     19.424138   15.943242   18.350641
  H     18.883409   13.923169   19.391556
  H     17.686307   12.630329   21.142127
  H     15.986333   13.765369   22.576511
  H     14.986736   15.656853   23.036791
  H     16.699023   17.472280   20.521492

 Total Charge           Charge          ....    0
 Multiplicity           Mult            ....    1
 Number of Electrons    NEL             ....  154
 Basis Dimension        Dim             ....  828

ORBITAL ENERGIES
----------------

  NO   OCC          E(Eh)            E(eV)
   0   2.0000     -91.887170     -2500.3770
   1   2.0000     -20.599684      -560.5459
   2   2.0000     -20.591283      -560.3173
   3   2.0000     -20.543906      -559.0281
   4   2.0000     -15.627185      -425.2373
   5   2.0000     -15.605752      -424.6541
   6   2.0000     -11.399153      -310.1867
   7   2.0000     -11.381867      -309.7164
   8   2.0000     -11.335024      -308.4417
   9   2.0000     -11.307511      -307.6930
  10   2.0000     -11.307059      -307.6807
  11   2.0000     -11.304275      -307.6050
  12   2.0000     -11.259410      -306.3841
  13   2.0000     -11.257789      -306.3400
  14   2.0000     -11.252843      -306.2054
  15   2.0000     -11.247266      -306.0537
  16   2.0000     -11.236861      -305.7705
  17   2.0000     -11.232870      -305.6619
  18   2.0000     -11.229858      -305.5800
  19   2.0000     -11.224678      -305.4390
  20   2.0000      -8.892243      -241.9702
  21   2.0000      -6.573824      -178.8828
  22   2.0000      -6.571815      -178.8282
  23   2.0000      -6.571231      -178.8123
  24   2.0000      -1.444585       -39.3091
  25   2.0000      -1.411017       -38.3957
  26   2.0000      -1.356762       -36.9194
  27   2.0000      -1.338350       -36.4184
  28   2.0000      -1.235991       -33.6330
  29   2.0000      -1.151348       -31.3298
  30   2.0000      -1.117797       -30.4168
  31   2.0000      -1.041663       -28.3451
  32   2.0000      -1.034475       -28.1495
  33   2.0000      -1.008915       -27.4540
  34   2.0000      -0.996347       -27.1120
  35   2.0000      -0.981582       -26.7102
  36   2.0000      -0.920739       -25.0546
  37   2.0000      -0.896773       -24.4024
  38   2.0000      -0.847328       -23.0570
  39   2.0000      -0.835277       -22.7291
  40   2.0000      -0.827396       -22.5146
  41   2.0000      -0.817440       -22.2437
  42   2.0000      -0.742624       -20.2078
  43   2.0000      -0.725451       -19.7405
  44   2.0000      -0.723710       -19.6932
  45   2.0000      -0.689703       -18.7678
  46   2.0000      -0.683448       -18.5976
  47   2.0000      -0.677119       -18.4253
  48   2.0000      -0.673504       -18.3270
  49   2.0000      -0.665049       -18.0969
  50   2.0000      -0.645909       -17.5761
  51   2.0000      -0.643131       -17.5005
  52   2.0000      -0.633972       -17.2513
  53   2.0000      -0.603481       -16.4216
  54   2.0000      -0.599718       -16.3192
  55   2.0000      -0.598674       -16.2908
  56   2.0000      -0.594810       -16.1856
  57   2.0000      -0.581045       -15.8110
  58   2.0000      -0.572351       -15.5745
  59   2.0000      -0.570591       -15.5266
  60   2.0000      -0.558432       -15.1957
  61   2.0000      -0.542268       -14.7559
  62   2.0000      -0.537400       -14.6234
  63   2.0000      -0.525898       -14.3104
  64   2.0000      -0.516594       -14.0572
  65   2.0000      -0.510211       -13.8836
  66   2.0000      -0.498743       -13.5715
  67   2.0000      -0.494300       -13.4506
  68   2.0000      -0.479008       -13.0345
  69   2.0000      -0.461690       -12.5632
  70   2.0000      -0.452857       -12.3229
  71   2.0000      -0.446674       -12.1546
  72   2.0000      -0.353000        -9.6056
  73   2.0000      -0.343422        -9.3450
  74   2.0000      -0.326368        -8.8809
  75   2.0000      -0.314940        -8.5699
  76   2.0000      -0.313134        -8.5208
  77   0.0000       0.076850         2.0912
  78   0.0000       0.113407         3.0860
  79   0.0000       0.121489         3.3059
  80   0.0000       0.136168         3.7053
  81   0.0000       0.139084         3.7847

MULLIKEN ATOMIC CHARGES
-----------------------
   0 C :   -0.286883
   1 C :    0.049042
   2 O :   -0.362723
   3 C :    0.438815
   4 O :   -0.425820
   5 C :   -0.152442
   6 C :    0.142767
   7 C :   -0.286605
   8 N :   -0.121457
   9 C :    0.200826
  10 S :   -0.440725
  11 N :   -0.197403
  12 C :    0.033421
  13 C :    0.057474
  14 C :   -0.164465
  15 C :   -0.134307
  16 C :   -0.279311
  17 C :    0.311642
  18 O :   -0.359094
  19 C :   -0.272782
  20 H :    0.110999
  21 H :    0.096736
  22 H :    0.112710
  23 H :    0.093877
  24 H :    0.088870
  25 H :    0.125775
  26 H :    0.127010
  27 H :    0.102987
  28 H :    0.196363
  29 H :    0.193568
  30 H :    0.154813
  31 H :    0.154534
  32 H :    0.159130
  33 H :    0.127918
  34 H :    0.239949
  35 H :    0.164793
Sum of atomic charges:   -0.0000000

LOEWDIN ATOMIC CHARGES
----------------------
   0 C :    0.102972
   1 C :   -0.008582
   2 O :    0.291929
   3 C :   -0.412471
   4 O :    0.114705
   5 C :   -0.090490
   6 C :   -0.065593
   7 C :    0.124186
   8 N :    0.404549
   9 C :   -0.459424
  10 S :   -0.037143
  11 N :    0.397964
  12 C :   -0.046672
  13 C :   -0.038758
  14 C :    0.021410
  15 C :    0.040169
  16 C :   -0.002676
  17 C :   -0.192702
  18 O :    0.392946
  19 C :    0.028472
  20 H :   -0.024253
  21 H :   -0.027757
  22 H :   -0.024435
  23 H :   -0.027067
  24 H :   -0.029350
  25 H :   -0.010093
  26 H :   -0.008437
  27 H :   -0.021426
  28 H :   -0.059494
  29 H :   -0.063721
  30 H :   -0.005552
  31 H :   -0.025275
  32 H :   -0.021378
  33 H :   -0.036531
  34 H :   -0.155000
  35 H :   -0.025022

  Mayer bond orders larger than 0.100000
B(  0-C ,  1-C ) :   0.9836 B(  0-C , 20-H ) :   0.9734 B(  0-C , 21-H ) :   0.9723
B(  0-C , 22-H ) :   0.9729 B(  1-C ,  2-O ) :   0.8998 B(  1-C , 23-H ) :   0.9787
B(  1-C , 24-H ) :   0.9770 B(  2-O ,  3-C ) :   1.1360 B(  3-C ,  4-O ) :   1.9856
B(  3-C ,  5-C ) :   1.0519 B(  5-C ,  6-C ) :   1.6545 B(  5-C , 12-C ) :   0.9642
B(  6-C ,  7-C ) :   0.9537 B(  6-C ,  8-N ) :   1.1451 B(  7-C , 25-H ) :   0.9646
B(  7-C , 26-H ) :   0.9657 B(  7-C , 27-H ) :   0.9921 B(  8-N ,  9-C ) :   1.1797
B(  8-N , 28-H ) :   0.9488 B(  9-C , 10-S ) :   1.6094 B(  9-C , 11-N ) :   1.3048
B( 11-N , 12-C ) :   0.9909 B( 11-N , 29-H ) :   0.9521 B( 12-C , 13-C ) :   0.9472
B( 12-C , 30-H ) :   1.0001 B( 13-C , 14-C ) :   1.3749 B( 13-C , 19-C ) :   1.3696
B( 14-C , 15-C ) :   1.3941 B( 14-C , 31-H ) :   0.9647 B( 15-C , 16-C ) :   1.3623
B( 15-C , 32-H ) :   0.9714 B( 16-C , 17-C ) :   1.3316 B( 16-C , 33-H ) :   0.9860
B( 17-C , 18-O ) :   1.1080 B( 17-C , 19-C ) :   1.3787 B( 18-O , 34-H ) :   0.9807
B( 19-C , 35-H ) :   0.9584

MP2 TOTAL ENERGY:    -1274.335591840 Eh
FINAL SINGLE POINT ENERGY     -1274.335591839718

DIPOLE MOMENT
-------------
                                X             Y             Z
Electronic contribution:      9.96197      10.44765      10.50608
Nuclear contribution   :    -11.63893     -11.65088     -11.54432
                        -----------------------------------------
Total Dipole Moment    :     -1.67696      -1.20323      -1.03824
                        -----------------------------------------
Magnitude (a.u.)       :      2.31039
Magnitude (Debye)      :      5.87254

Rotational constants in cm-1:     0.010715     0.008938     0.005885
Rotational constants in MHz :   321.235509   267.945754   176.424696

                             ****ORCA TERMINATED NORMALLY****
TOTAL RUN TIME: 0 days 2 hours 1 minutes 1 seconds 571 msec
