                         Program Version 4.2.0 -  RELEASE  -
|  1> ! ri-mp2 cc-pvtz cc-pvtz/c TightSCF  NoKeepInts
|  2>
|  3> %scf
|  4>   MaxCore 4096
|  5> end
|  6> *xyz  0  1
|  7>     C       16.2220666   13.1178527   15.8015537
|  8>     C       15.5963823   14.5150866   15.9467359
|  9>     O       16.5324775   15.3301875   16.6693577
| 10>     C       16.3658159   16.6866031   16.6816241
| 11>     O       15.4999334   17.2420979   16.0264722
| 12>     C       17.3578982   17.3861159   17.5691780
| 13>     C       17.4244272   18.7384177   17.6636453
| 14>     C       16.5606461   19.7511452   16.9428031
| 15>     N       18.3945274   19.3378422   18.4725961
| 16>     C       19.3913088   18.6667514   19.1292606
| 17>     S       20.5601746   19.4599348   19.9897906
| 18>     N       19.3730596   17.2985663   19.0351306
| 19>     C       18.3058989   16.5046355   18.3987819
| 20>     C       17.5551932   15.7039852   19.4591065
| 21>     C       17.6203432   14.2979314   19.4705603
| 22>     C       16.9284643   13.5578729   20.4440716
| 23>     C       16.1675133   14.2289278   21.4164962
| 24>     C       16.1036532   15.6291275   21.4104761
| 25>     O       15.3702976   16.2798703   22.3484573
| 26>     C       16.7929315   16.3628874   20.4400926
| 27>     H       16.4070108   12.6741884   16.7877502
| 28>     H       17.1749274   13.1745104   15.2608092
| 29>     H       15.5504618   12.4521934   15.2458591
| 30>     H       15.4127712   14.9316829   14.9466784
| 31>     H       14.6408361   14.4596670   16.4849952
| 32>     H       15.5038605   19.6104787   17.2037879
| 33>     H       16.6480161   19.6291810   15.8556878
| 34>     H       16.8248428   20.7879581   17.1815806
| 35>     H       18.4242416   20.3417399   18.5522977
| 36>     H       20.0981571   16.8295800   19.5625095
| 37>     H       18.7924842   15.7989385   17.7108850
| 38>     H       18.2028960   13.7766988   18.7157345
| 39>     H       16.9826041   12.4707005   20.4426158
| 40>     H       15.6314109   13.6619614   22.1703800
| 41>     H       14.9932944   15.6107538   22.9391207
| 42>     H       16.7361722   17.4459277   20.4571181
| 43> *
| 44>
| 45>                          ****END OF INPUT****

CARTESIAN COORDINATES (ANGSTROEM)
---------------------------------
  C     16.222067   13.117853   15.801554
  C     15.596382   14.515087   15.946736
  O     16.532477   15.330187   16.669358
  C     16.365816   16.686603   16.681624
  O     15.499933   17.242098   16.026472
  C     17.357898   17.386116   17.569178
  C     17.424427   18.738418   17.663645
  C     16.560646   19.751145   16.942803
  N     18.394527   19.337842   18.472596
  C     19.391309   18.666751   19.129261
  S     20.560175   19.459935   19.989791
  N     19.373060   17.298566   19.035131
  C     18.305899   16.504635   18.398782
  C     17.555193   15.703985   19.459106
  C     17.620343   14.297931   19.470560
  C     16.928464   13.557873   20.444072
  C     16.167513   14.228928   21.416496
  C     16.103653   15.629127   21.410476
  O     15.370298   16.279870   22.348457
  C     16.792932   16.362887   20.440093
  H     16.407011   12.674188   16.787750
  H     17.174927   13.174510   15.260809
  H     15.550462   12.452193   15.245859
  H     15.412771   14.931683   14.946678
  H     14.640836   14.459667   16.484995
  H     15.503861   19.610479   17.203788
  H     16.648016   19.629181   15.855688
  H     16.824843   20.787958   17.181581
  H     18.424242   20.341740   18.552298
  H     20.098157   16.829580   19.562509
  H     18.792484   15.798938   17.710885
  H     18.202896   13.776699   18.715734
  H     16.982604   12.470700   20.442616
  H     15.631411   13.661961   22.170380
  H     14.993294   15.610754   22.939121
  H     16.736172   17.445928   20.457118

 Total Charge           Charge          ....    0
 Multiplicity           Mult            ....    1
 Number of Electrons    NEL             ....  154
 Basis Dimension        Dim             ....  828

ORBITAL ENERGIES
----------------

  NO   OCC          E(Eh)            E(eV)
   0   2.0000     -91.888653     -2500.4174
   1   2.0000     -20.603243      -560.6427
   2   2.0000     -20.595498      -560.4320
   3   2.0000     -20.541494      -558.9625
   4   2.0000     -15.628773      -425.2805
   5   2.0000     -15.608012      -424.7156
   6   2.0000     -11.394279      -310.0541
   7   2.0000     -11.383753      -309.7677
   8   2.0000     -11.335663      -308.4591
   9   2.0000     -11.312578      -307.8309
  10   2.0000     -11.308612      -307.7230
  11   2.0000     -11.296449      -307.3920
  12   2.0000     -11.258705      -306.3649
  13   2.0000     -11.258585      -306.3617
  14   2.0000     -11.254090      -306.2393
  15   2.0000     -11.251676      -306.1737
  16   2.0000     -11.242084      -305.9127
  17   2.0000     -11.237623      -305.7913
  18   2.0000     -11.237279      -305.7819
  19   2.0000     -11.232257      -305.6452
  20   2.0000      -8.893715      -242.0103
  21   2.0000      -6.575290      -178.9227
  22   2.0000      -6.573285      -178.8682
  23   2.0000      -6.572698      -178.8522
  24   2.0000      -1.453010       -39.5384
  25   2.0000      -1.415160       -38.5085
  26   2.0000      -1.354991       -36.8712
  27   2.0000      -1.339745       -36.4563
  28   2.0000      -1.238186       -33.6928
  29   2.0000      -1.156755       -31.4769
  30   2.0000      -1.120123       -30.4801
  31   2.0000      -1.043656       -28.3993
  32   2.0000      -1.040108       -28.3028
  33   2.0000      -1.014133       -27.5960
  34   2.0000      -0.995577       -27.0910
  35   2.0000      -0.984199       -26.7814
  36   2.0000      -0.922040       -25.0900
  37   2.0000      -0.889331       -24.1999
  38   2.0000      -0.846357       -23.0306
  39   2.0000      -0.836664       -22.7668
  40   2.0000      -0.833034       -22.6680
  41   2.0000      -0.817327       -22.2406
  42   2.0000      -0.765784       -20.8380
  43   2.0000      -0.731428       -19.9032
  44   2.0000      -0.720563       -19.6075
  45   2.0000      -0.694858       -18.9080
  46   2.0000      -0.685225       -18.6459
  47   2.0000      -0.680504       -18.5175
  48   2.0000      -0.678905       -18.4740
  49   2.0000      -0.664230       -18.0746
  50   2.0000      -0.645727       -17.5711
  51   2.0000      -0.645070       -17.5532
  52   2.0000      -0.635656       -17.2971
  53   2.0000      -0.605780       -16.4841
  54   2.0000      -0.599738       -16.3197
  55   2.0000      -0.598088       -16.2748
  56   2.0000      -0.589513       -16.0415
  57   2.0000      -0.577326       -15.7098
  58   2.0000      -0.571696       -15.5566
  59   2.0000      -0.570327       -15.5194
  60   2.0000      -0.561814       -15.2877
  61   2.0000      -0.552617       -15.0375
  62   2.0000      -0.539837       -14.6897
  63   2.0000      -0.524308       -14.2671
  64   2.0000      -0.519960       -14.1488
  65   2.0000      -0.512931       -13.9576
  66   2.0000      -0.505985       -13.7685
  67   2.0000      -0.498985       -13.5781
  68   2.0000      -0.484663       -13.1883
  69   2.0000      -0.464754       -12.6466
  70   2.0000      -0.459486       -12.5033
  71   2.0000      -0.447751       -12.1839
  72   2.0000      -0.354059        -9.6344
  73   2.0000      -0.348575        -9.4852
  74   2.0000      -0.327950        -8.9240
  75   2.0000      -0.320178        -8.7125
  76   2.0000      -0.315672        -8.5899
  77   0.0000       0.076728         2.0879
  78   0.0000       0.106765         2.9052
  79   0.0000       0.124893         3.3985
  80   0.0000       0.132551         3.6069
  81   0.0000       0.136300         3.7089

MULLIKEN ATOMIC CHARGES
-----------------------
   0 C :   -0.274081
   1 C :    0.040239
   2 O :   -0.338443
   3 C :    0.454798
   4 O :   -0.434229
   5 C :   -0.212868
   6 C :    0.150131
   7 C :   -0.274671
   8 N :   -0.120476
   9 C :    0.210359
  10 S :   -0.439937
  11 N :   -0.202674
  12 C :    0.045701
  13 C :    0.065892
  14 C :   -0.179229
  15 C :   -0.132577
  16 C :   -0.277609
  17 C :    0.315599
  18 O :   -0.356785
  19 C :   -0.269732
  20 H :    0.093930
  21 H :    0.095718
  22 H :    0.099704
  23 H :    0.105270
  24 H :    0.091454
  25 H :    0.132190
  26 H :    0.130883
  27 H :    0.094883
  28 H :    0.197251
  29 H :    0.194348
  30 H :    0.150616
  31 H :    0.150458
  32 H :    0.159343
  33 H :    0.129299
  34 H :    0.240526
  35 H :    0.164718
Sum of atomic charges:   -0.0000000

LOEWDIN ATOMIC CHARGES
----------------------
   0 C :    0.106440
   1 C :   -0.016395
   2 O :    0.310731
   3 C :   -0.413269
   4 O :    0.095118
   5 C :   -0.094531
   6 C :   -0.059107
   7 C :    0.131553
   8 N :    0.406480
   9 C :   -0.456697
  10 S :   -0.035567
  11 N :    0.396572
  12 C :   -0.052803
  13 C :   -0.038989
  14 C :    0.014509
  15 C :    0.038543
  16 C :   -0.001185
  17 C :   -0.189532
  18 O :    0.395034
  19 C :    0.031783
  20 H :   -0.029520
  21 H :   -0.027224
  22 H :   -0.023863
  23 H :   -0.027376
  24 H :   -0.028661
  25 H :   -0.004389
  26 H :   -0.004050
  27 H :   -0.023470
  28 H :   -0.057604
  29 H :   -0.064541
  30 H :   -0.011526
  31 H :   -0.031150
  32 H :   -0.021850
  33 H :   -0.035671
  34 H :   -0.154080
  35 H :   -0.023713

  Mayer bond orders larger than 0.100000
B(  0-C ,  1-C ) :   0.9710 B(  0-C , 20-H ) :   0.9776 B(  0-C , 21-H ) :   0.9766
B(  0-C , 22-H ) :   0.9791 B(  1-C ,  2-O ) :   0.9023 B(  1-C , 23-H ) :   0.9785
B(  1-C , 24-H ) :   0.9763 B(  2-O ,  3-C ) :   1.1835 B(  3-C ,  4-O ) :   1.9654
B(  3-C ,  5-C ) :   1.0603 B(  5-C ,  6-C ) :   1.6593 B(  5-C , 12-C ) :   0.9707
B(  6-C ,  7-C ) :   0.9675 B(  6-C ,  8-N ) :   1.1650 B(  7-C , 25-H ) :   0.9606
B(  7-C , 26-H ) :   0.9601 B(  7-C , 27-H ) :   0.9903 B(  8-N ,  9-C ) :   1.1827
B(  8-N , 28-H ) :   0.9479 B(  9-C , 10-S ) :   1.6078 B(  9-C , 11-N ) :   1.3043
B( 11-N , 12-C ) :   0.9895 B( 11-N , 29-H ) :   0.9516 B( 12-C , 13-C ) :   0.9366
B( 12-C , 30-H ) :   1.0038 B( 13-C , 14-C ) :   1.3613 B( 13-C , 19-C ) :   1.3814
B( 14-C , 15-C ) :   1.3903 B( 14-C , 31-H ) :   0.9701 B( 15-C , 16-C ) :   1.3652
B( 15-C , 32-H ) :   0.9707 B( 16-C , 17-C ) :   1.3321 B( 16-C , 33-H ) :   0.9852
B( 17-C , 18-O ) :   1.1096 B( 17-C , 19-C ) :   1.3735 B( 18-O , 34-H ) :   0.9800
B( 19-C , 35-H ) :   0.9583

MP2 TOTAL ENERGY:    -1274.352325314 Eh
FINAL SINGLE POINT ENERGY     -1274.352325313544

DIPOLE MOMENT
-------------
                                X             Y             Z
Electronic contribution:      8.35381      10.99531       8.87070
Nuclear contribution   :     -9.52698     -12.59531      -9.33609
                        -----------------------------------------
Total Dipole Moment    :     -1.17317      -1.60000      -0.46539
                        -----------------------------------------
Magnitude (a.u.)       :      2.03787
Magnitude (Debye)      :      5.17985

Rotational constants in cm-1:     0.011324     0.008534     0.006135
Rotational constants in MHz :   339.497239   255.852781   183.936824

                             ****ORCA TERMINATED NORMALLY****
TOTAL RUN TIME: 0 days 1 hours 36 minutes 51 seconds 288 msec
