                         Program Version 5.0.0 -  RELEASE  -
|  1> ! ri-mp2 cc-pvtz cc-pvtz/c TightSCF NoKeepInts
|  2>
|  3> %scf
|  4>   MaxCore 4096
|  5> end
|  6> *xyz  0  1
|  7>     C       15.9192734   14.1419256   14.5265103
|  8>     C       15.0461135   14.9460947   15.5160136
|  9>     O       15.8134074   15.9319219   16.2426039
| 10>     C       16.9406939   15.6296962   16.9565288
| 11>     O       17.3367208   14.4880578   17.1218035
| 12>     C       17.5387696   16.7938733   17.6968336
| 13>     C       17.2648591   18.1036348   17.4546481
| 14>     C       16.3317435   18.6903560   16.4148088
| 15>     N       17.9411683   19.0978228   18.1701456
| 16>     C       18.9994733   18.8768629   19.0111888
| 17>     S       19.8335799   20.1228043   19.7095013
| 18>     N       19.3311789   17.5664700   19.2424516
| 19>     C       18.5384491   16.4066581   18.7937292
| 20>     C       17.8308551   15.7537078   19.9786081
| 21>     C       18.0006065   14.3817154   20.2413588
| 22>     C       17.3515386   13.7744639   21.3294255
| 23>     C       16.5244502   14.5451278   22.1640150
| 24>     C       16.3494691   15.9110754   21.9039767
| 25>     O       15.5467333   16.6567550   22.7046394
| 26>     C       16.9965519   16.5125803   20.8200141
| 27>     H       16.5738182   14.8087959   13.9520260
| 28>     H       15.2825388   13.5986113   13.8180040
| 29>     H       16.5399932   13.3986653   15.0407123
| 30>     H       14.2497463   15.4573424   14.9602143
| 31>     H       14.5699023   14.2521794   16.2215866
| 32>     H       15.2874907   18.4556639   16.6563114
| 33>     H       16.5503270   18.2817954   15.4204171
| 34>     H       16.4135587   19.7813754   16.3386988
| 35>     H       17.7119019   20.0663347   18.0144038
| 36>     H       20.0943061   17.4280878   19.8923281
| 37>     H       19.2381105   15.6740805   18.3659756
| 38>     H       18.6257626   13.7796008   19.5864813
| 39>     H       17.4861798   12.7108177   21.5171697
| 40>     H       16.0196020   14.0797614   23.0038894
| 41>     H       15.2184806   16.0754731   23.4067956
| 42>     H       16.8496458   17.5718109   20.6401813
| 43> *
| 44>
| 45>                          ****END OF INPUT****

CARTESIAN COORDINATES (ANGSTROEM)
---------------------------------
  C     15.919273   14.141926   14.526510
  C     15.046113   14.946095   15.516014
  O     15.813407   15.931922   16.242604
  C     16.940694   15.629696   16.956529
  O     17.336721   14.488058   17.121803
  C     17.538770   16.793873   17.696834
  C     17.264859   18.103635   17.454648
  C     16.331744   18.690356   16.414809
  N     17.941168   19.097823   18.170146
  C     18.999473   18.876863   19.011189
  S     19.833580   20.122804   19.709501
  N     19.331179   17.566470   19.242452
  C     18.538449   16.406658   18.793729
  C     17.830855   15.753708   19.978608
  C     18.000606   14.381715   20.241359
  C     17.351539   13.774464   21.329425
  C     16.524450   14.545128   22.164015
  C     16.349469   15.911075   21.903977
  O     15.546733   16.656755   22.704639
  C     16.996552   16.512580   20.820014
  H     16.573818   14.808796   13.952026
  H     15.282539   13.598611   13.818004
  H     16.539993   13.398665   15.040712
  H     14.249746   15.457342   14.960214
  H     14.569902   14.252179   16.221587
  H     15.287491   18.455664   16.656311
  H     16.550327   18.281795   15.420417
  H     16.413559   19.781375   16.338699
  H     17.711902   20.066335   18.014404
  H     20.094306   17.428088   19.892328
  H     19.238111   15.674080   18.365976
  H     18.625763   13.779601   19.586481
  H     17.486180   12.710818   21.517170
  H     16.019602   14.079761   23.003889
  H     15.218481   16.075473   23.406796
  H     16.849646   17.571811   20.640181

 Total Charge           Charge          ....    0
 Multiplicity           Mult            ....    1
 Number of Electrons    NEL             ....  154
 Basis Dimension        Dim             ....  828

ORBITAL ENERGIES
----------------

  NO   OCC          E(Eh)            E(eV)
   0   2.0000     -91.887628     -2500.3895
   1   2.0000     -20.603218      -560.6421
   2   2.0000     -20.590306      -560.2907
   3   2.0000     -20.544857      -559.0540
   4   2.0000     -15.627906      -425.2570
   5   2.0000     -15.606117      -424.6640
   6   2.0000     -11.397406      -310.1392
   7   2.0000     -11.382385      -309.7304
   8   2.0000     -11.336038      -308.4693
   9   2.0000     -11.306078      -307.6540
  10   2.0000     -11.304702      -307.6166
  11   2.0000     -11.304380      -307.6078
  12   2.0000     -11.260292      -306.4081
  13   2.0000     -11.258518      -306.3598
  14   2.0000     -11.252130      -306.1860
  15   2.0000     -11.246259      -306.0263
  16   2.0000     -11.235887      -305.7440
  17   2.0000     -11.232016      -305.6387
  18   2.0000     -11.229021      -305.5572
  19   2.0000     -11.225935      -305.4732
  20   2.0000      -8.892692      -241.9825
  21   2.0000      -6.574270      -178.8950
  22   2.0000      -6.572264      -178.8404
  23   2.0000      -6.571678      -178.8245
  24   2.0000      -1.450737       -39.4766
  25   2.0000      -1.410036       -38.3690
  26   2.0000      -1.357236       -36.9323
  27   2.0000      -1.338898       -36.4333
  28   2.0000      -1.236403       -33.6442
  29   2.0000      -1.150800       -31.3149
  30   2.0000      -1.118529       -30.4367
  31   2.0000      -1.041354       -28.3367
  32   2.0000      -1.034293       -28.1445
  33   2.0000      -1.008150       -27.4331
  34   2.0000      -0.996474       -27.1154
  35   2.0000      -0.982109       -26.7246
  36   2.0000      -0.920718       -25.0540
  37   2.0000      -0.896505       -24.3951
  38   2.0000      -0.847430       -23.0597
  39   2.0000      -0.834667       -22.7125
  40   2.0000      -0.826527       -22.4909
  41   2.0000      -0.816530       -22.2189
  42   2.0000      -0.748328       -20.3630
  43   2.0000      -0.731903       -19.9161
  44   2.0000      -0.723773       -19.6949
  45   2.0000      -0.689927       -18.7739
  46   2.0000      -0.684236       -18.6190
  47   2.0000      -0.678594       -18.4655
  48   2.0000      -0.670137       -18.2354
  49   2.0000      -0.663019       -18.0417
  50   2.0000      -0.645659       -17.5693
  51   2.0000      -0.641583       -17.4584
  52   2.0000      -0.632202       -17.2031
  53   2.0000      -0.611805       -16.6481
  54   2.0000      -0.599265       -16.3068
  55   2.0000      -0.598239       -16.2789
  56   2.0000      -0.593460       -16.1489
  57   2.0000      -0.584990       -15.9184
  58   2.0000      -0.571766       -15.5585
  59   2.0000      -0.565885       -15.3985
  60   2.0000      -0.559574       -15.2268
  61   2.0000      -0.544322       -14.8118
  62   2.0000      -0.535900       -14.5826
  63   2.0000      -0.523397       -14.2424
  64   2.0000      -0.516006       -14.0412
  65   2.0000      -0.511045       -13.9063
  66   2.0000      -0.500623       -13.6226
  67   2.0000      -0.494625       -13.4594
  68   2.0000      -0.479931       -13.0596
  69   2.0000      -0.462458       -12.5841
  70   2.0000      -0.456154       -12.4126
  71   2.0000      -0.450863       -12.2686
  72   2.0000      -0.353732        -9.6255
  73   2.0000      -0.342728        -9.3261
  74   2.0000      -0.326724        -8.8906
  75   2.0000      -0.314937        -8.5699
  76   2.0000      -0.312494        -8.5034
  77   0.0000       0.076748         2.0884
  78   0.0000       0.114958         3.1282
  79   0.0000       0.120601         3.2817
  80   0.0000       0.136977         3.7273
  81   0.0000       0.140791         3.8311

MULLIKEN ATOMIC CHARGES
-----------------------
   0 C :   -0.307035
   1 C :    0.043328
   2 O :   -0.346980
   3 C :    0.450091
   4 O :   -0.437636
   5 C :   -0.168627
   6 C :    0.146398
   7 C :   -0.285590
   8 N :   -0.120525
   9 C :    0.200772
  10 S :   -0.439722
  11 N :   -0.195835
  12 C :    0.032215
  13 C :    0.058792
  14 C :   -0.160356
  15 C :   -0.133879
  16 C :   -0.278702
  17 C :    0.311626
  18 O :   -0.359219
  19 C :   -0.270964
  20 H :    0.090213
  21 H :    0.097199
  22 H :    0.130382
  23 H :    0.105154
  24 H :    0.097948
  25 H :    0.129966
  26 H :    0.123320
  27 H :    0.102268
  28 H :    0.196623
  29 H :    0.193162
  30 H :    0.153157
  31 H :    0.152589
  32 H :    0.158397
  33 H :    0.127513
  34 H :    0.239845
  35 H :    0.164115
Sum of atomic charges:    0.0000000

LOEWDIN ATOMIC CHARGES
----------------------
   0 C :    0.104098
   1 C :   -0.012315
   2 O :    0.300271
   3 C :   -0.413527
   4 O :    0.106846
   5 C :   -0.090043
   6 C :   -0.064912
   7 C :    0.124570
   8 N :    0.404795
   9 C :   -0.459198
  10 S :   -0.036321
  11 N :    0.397937
  12 C :   -0.046523
  13 C :   -0.038494
  14 C :    0.021970
  15 C :    0.040807
  16 C :   -0.002270
  17 C :   -0.192304
  18 O :    0.392983
  19 C :    0.028829
  20 H :   -0.030147
  21 H :   -0.027565
  22 H :   -0.025134
  23 H :   -0.024938
  24 H :   -0.027133
  25 H :   -0.009098
  26 H :   -0.009650
  27 H :   -0.021279
  28 H :   -0.059330
  29 H :   -0.063656
  30 H :   -0.005349
  31 H :   -0.025614
  32 H :   -0.021448
  33 H :   -0.036547
  34 H :   -0.155080
  35 H :   -0.025230

  Mayer bond orders larger than 0.100000
B(  0-C ,  1-C ) :   0.9651 B(  0-C , 20-H ) :   0.9761 B(  0-C , 21-H ) :   0.9774
B(  0-C , 22-H ) :   0.9708 B(  1-C ,  2-O ) :   0.9047 B(  1-C , 23-H ) :   0.9843
B(  1-C , 24-H ) :   0.9798 B(  2-O ,  3-C ) :   1.1650 B(  3-C ,  4-O ) :   1.9539
B(  3-C ,  5-C ) :   1.0665 B(  5-C ,  6-C ) :   1.6423 B(  5-C , 12-C ) :   0.9668
B(  6-C ,  7-C ) :   0.9551 B(  6-C ,  8-N ) :   1.1529 B(  7-C , 25-H ) :   0.9629
B(  7-C , 26-H ) :   0.9660 B(  7-C , 27-H ) :   0.9920 B(  8-N ,  9-C ) :   1.1774
B(  8-N , 28-H ) :   0.9490 B(  9-C , 10-S ) :   1.6105 B(  9-C , 11-N ) :   1.3047
B( 11-N , 12-C ) :   0.9939 B( 11-N , 29-H ) :   0.9520 B( 12-C , 13-C ) :   0.9474
B( 12-C , 30-H ) :   1.0006 B( 13-C , 14-C ) :   1.3747 B( 13-C , 19-C ) :   1.3702
B( 14-C , 15-C ) :   1.3948 B( 14-C , 31-H ) :   0.9654 B( 15-C , 16-C ) :   1.3627
B( 15-C , 32-H ) :   0.9716 B( 16-C , 17-C ) :   1.3315 B( 16-C , 33-H ) :   0.9862
B( 17-C , 18-O ) :   1.1078 B( 17-C , 19-C ) :   1.3797 B( 18-O , 34-H ) :   0.9808
B( 19-C , 35-H ) :   0.9583

MP2 TOTAL ENERGY:    -1274.344709742 Eh
FINAL SINGLE POINT ENERGY     -1274.344709741839

DIPOLE MOMENT
-------------
                                X             Y             Z
Electronic contribution:      9.25689       9.22085      12.24093
Nuclear contribution   :    -10.92921     -10.30923     -13.25971
                        -----------------------------------------
Total Dipole Moment    :     -1.67232      -1.08838      -1.01879
                        -----------------------------------------
Magnitude (a.u.)       :      2.24035
Magnitude (Debye)      :      5.69451

Rotational constants in cm-1:     0.010565     0.008764     0.005746
Rotational constants in MHz :   316.718005   262.751792   172.249753

                             ****ORCA TERMINATED NORMALLY****
TOTAL RUN TIME: 0 days 1 hours 54 minutes 16 seconds 922 msec
