                         Program Version 4.2.0 -  RELEASE  -
|  1> ! ri-mp2 cc-pvtz cc-pvtz/c TightSCF  NoKeepInts
|  2>
|  3> %scf
|  4>   MaxCore 4096
|  5> end
|  6> *xyz  0  1
|  7>     C       14.9756454   14.2446465   15.9623122
|  8>     C       16.1808979   14.2258369   16.9243482
|  9>     O       17.2553925   15.0668768   16.4457322
| 10>     C       17.0682912   16.4108807   16.2782167
| 11>     O       16.3441605   16.8480808   15.4019722
| 12>     C       17.6415627   17.2406508   17.3970662
| 13>     C       17.4216379   18.5775504   17.4950684
| 14>     C       16.5563990   19.4367335   16.5978077
| 15>     N       18.0646561   19.3224094   18.4886991
| 16>     C       19.0649296   18.8477372   19.2945641
| 17>     S       19.8882344   19.8290371   20.3408673
| 18>     N       19.3580789   17.5129172   19.1796609
| 19>     C       18.5589047   16.5389294   18.4146559
| 20>     C       17.7952394   15.6487702   19.3890472
| 21>     C       18.1972826   14.3155217   19.5955629
| 22>     C       17.4955428   13.4873870   20.4876163
| 23>     C       16.3870631   13.9979289   21.1843813
| 24>     C       15.9913033   15.3283889   20.9905511
| 25>     O       14.9228871   15.8250625   21.6628549
| 26>     C       16.6896415   16.1494534   20.0999123
| 27>     H       14.4425277   15.2020822   16.0108575
| 28>     H       14.2638035   13.4535231   16.2264850
| 29>     H       15.3021623   14.0804741   14.9276377
| 30>     H       15.8481414   14.5488619   17.9183616
| 31>     H       16.5508160   13.1964647   17.0136843
| 32>     H       15.5280209   19.0543642   16.5715277
| 33>     H       16.9363202   19.4228007   15.5681436
| 34>     H       16.5102027   20.4836235   16.9197919
| 35>     H       17.8695292   20.3070107   18.5764617
| 36>     H       20.0824606   17.1859071   19.8059300
| 37>     H       19.2599770   15.9094325   17.8483513
| 38>     H       19.0538320   13.9177111   19.0573504
| 39>     H       17.8131870   12.4570056   20.6396556
| 40>     H       15.8432652   13.3627512   21.8761980
| 41>     H       14.6132447   15.1366824   22.2708127
| 42>     H       16.3717590   17.1785058   19.9718538
| 43> *
| 44>
| 45>                          ****END OF INPUT****

CARTESIAN COORDINATES (ANGSTROEM)
---------------------------------
  C     14.975645   14.244646   15.962312
  C     16.180898   14.225837   16.924348
  O     17.255392   15.066877   16.445732
  C     17.068291   16.410881   16.278217
  O     16.344161   16.848081   15.401972
  C     17.641563   17.240651   17.397066
  C     17.421638   18.577550   17.495068
  C     16.556399   19.436733   16.597808
  N     18.064656   19.322409   18.488699
  C     19.064930   18.847737   19.294564
  S     19.888234   19.829037   20.340867
  N     19.358079   17.512917   19.179661
  C     18.558905   16.538929   18.414656
  C     17.795239   15.648770   19.389047
  C     18.197283   14.315522   19.595563
  C     17.495543   13.487387   20.487616
  C     16.387063   13.997929   21.184381
  C     15.991303   15.328389   20.990551
  O     14.922887   15.825062   21.662855
  C     16.689642   16.149453   20.099912
  H     14.442528   15.202082   16.010858
  H     14.263803   13.453523   16.226485
  H     15.302162   14.080474   14.927638
  H     15.848141   14.548862   17.918362
  H     16.550816   13.196465   17.013684
  H     15.528021   19.054364   16.571528
  H     16.936320   19.422801   15.568144
  H     16.510203   20.483623   16.919792
  H     17.869529   20.307011   18.576462
  H     20.082461   17.185907   19.805930
  H     19.259977   15.909432   17.848351
  H     19.053832   13.917711   19.057350
  H     17.813187   12.457006   20.639656
  H     15.843265   13.362751   21.876198
  H     14.613245   15.136682   22.270813
  H     16.371759   17.178506   19.971854

 Total Charge           Charge          ....    0
 Multiplicity           Mult            ....    1
 Number of Electrons    NEL             ....  154
 Basis Dimension        Dim             ....  828

ORBITAL ENERGIES
----------------

  NO   OCC          E(Eh)            E(eV)
   0   2.0000     -91.890574     -2500.4696
   1   2.0000     -20.601788      -560.6032
   2   2.0000     -20.583265      -560.0991
   3   2.0000     -20.546708      -559.1044
   4   2.0000     -15.631075      -425.3432
   5   2.0000     -15.609639      -424.7599
   6   2.0000     -11.394058      -310.0481
   7   2.0000     -11.385293      -309.8096
   8   2.0000     -11.337642      -308.5129
   9   2.0000     -11.319710      -308.0250
  10   2.0000     -11.311347      -307.7974
  11   2.0000     -11.297013      -307.4074
  12   2.0000     -11.264007      -306.5092
  13   2.0000     -11.260878      -306.4241
  14   2.0000     -11.259100      -306.3757
  15   2.0000     -11.253511      -306.2236
  16   2.0000     -11.248648      -306.0913
  17   2.0000     -11.243240      -305.9441
  18   2.0000     -11.242856      -305.9337
  19   2.0000     -11.217531      -305.2445
  20   2.0000      -8.895613      -242.0619
  21   2.0000      -6.577182      -178.9742
  22   2.0000      -6.575184      -178.9199
  23   2.0000      -6.574591      -178.9037
  24   2.0000      -1.444171       -39.2979
  25   2.0000      -1.421476       -38.6803
  26   2.0000      -1.352768       -36.8107
  27   2.0000      -1.342163       -36.5221
  28   2.0000      -1.240583       -33.7580
  29   2.0000      -1.162308       -31.6280
  30   2.0000      -1.121394       -30.5147
  31   2.0000      -1.046169       -28.4677
  32   2.0000      -1.030269       -28.0350
  33   2.0000      -1.020568       -27.7711
  34   2.0000      -0.997461       -27.1423
  35   2.0000      -0.985625       -26.8202
  36   2.0000      -0.925342       -25.1798
  37   2.0000      -0.886983       -24.1360
  38   2.0000      -0.849541       -23.1172
  39   2.0000      -0.843037       -22.9402
  40   2.0000      -0.838837       -22.8259
  41   2.0000      -0.825558       -22.4646
  42   2.0000      -0.750576       -20.4242
  43   2.0000      -0.735041       -20.0015
  44   2.0000      -0.717862       -19.5340
  45   2.0000      -0.700534       -19.0625
  46   2.0000      -0.691097       -18.8057
  47   2.0000      -0.678914       -18.4742
  48   2.0000      -0.668098       -18.1799
  49   2.0000      -0.662604       -18.0304
  50   2.0000      -0.650874       -17.7112
  51   2.0000      -0.647738       -17.6259
  52   2.0000      -0.638567       -17.3763
  53   2.0000      -0.612185       -16.6584
  54   2.0000      -0.607078       -16.5194
  55   2.0000      -0.601513       -16.3680
  56   2.0000      -0.598788       -16.2939
  57   2.0000      -0.581672       -15.8281
  58   2.0000      -0.572778       -15.5861
  59   2.0000      -0.570209       -15.5162
  60   2.0000      -0.561217       -15.2715
  61   2.0000      -0.540765       -14.7150
  62   2.0000      -0.535182       -14.5631
  63   2.0000      -0.528764       -14.3884
  64   2.0000      -0.520911       -14.1747
  65   2.0000      -0.515999       -14.0410
  66   2.0000      -0.504591       -13.7306
  67   2.0000      -0.496458       -13.5093
  68   2.0000      -0.481428       -13.1003
  69   2.0000      -0.463433       -12.6107
  70   2.0000      -0.454636       -12.3713
  71   2.0000      -0.441481       -12.0133
  72   2.0000      -0.357087        -9.7168
  73   2.0000      -0.354330        -9.6418
  74   2.0000      -0.330680        -8.9983
  75   2.0000      -0.326815        -8.8931
  76   2.0000      -0.317725        -8.6457
  77   0.0000       0.070016         1.9052
  78   0.0000       0.100700         2.7402
  79   0.0000       0.122528         3.3341
  80   0.0000       0.128716         3.5025
  81   0.0000       0.133203         3.6246

MULLIKEN ATOMIC CHARGES
-----------------------
   0 C :   -0.272151
   1 C :    0.028880
   2 O :   -0.389197
   3 C :    0.501176
   4 O :   -0.408980
   5 C :   -0.271703
   6 C :    0.159620
   7 C :   -0.269685
   8 N :   -0.124625
   9 C :    0.212716
  10 S :   -0.437399
  11 N :   -0.202338
  12 C :    0.056694
  13 C :    0.019034
  14 C :   -0.158047
  15 C :   -0.133562
  16 C :   -0.275181
  17 C :    0.308009
  18 O :   -0.356231
  19 C :   -0.250873
  20 H :    0.100746
  21 H :    0.092346
  22 H :    0.105728
  23 H :    0.102458
  24 H :    0.104473
  25 H :    0.128737
  26 H :    0.134981
  27 H :    0.094961
  28 H :    0.198317
  29 H :    0.193506
  30 H :    0.151193
  31 H :    0.149445
  32 H :    0.163474
  33 H :    0.133571
  34 H :    0.241792
  35 H :    0.168116
Sum of atomic charges:   -0.0000000

LOEWDIN ATOMIC CHARGES
----------------------
   0 C :    0.104641
   1 C :   -0.019184
   2 O :    0.282702
   3 C :   -0.415452
   4 O :    0.120830
   5 C :   -0.098754
   6 C :   -0.057668
   7 C :    0.131110
   8 N :    0.407001
   9 C :   -0.456611
  10 S :   -0.033287
  11 N :    0.396451
  12 C :   -0.052978
  13 C :   -0.039015
  14 C :    0.015549
  15 C :    0.041874
  16 C :   -0.001456
  17 C :   -0.190941
  18 O :    0.396625
  19 C :    0.029262
  20 H :   -0.029408
  21 H :   -0.029681
  22 H :   -0.023372
  23 H :   -0.032255
  24 H :   -0.023436
  25 H :   -0.005610
  26 H :   -0.002978
  27 H :   -0.023266
  28 H :   -0.057360
  29 H :   -0.065079
  30 H :   -0.007849
  31 H :   -0.029130
  32 H :   -0.019904
  33 H :   -0.034389
  34 H :   -0.152629
  35 H :   -0.024352

  Mayer bond orders larger than 0.100000
B(  0-C ,  1-C ) :   0.9830 B(  0-C , 20-H ) :   0.9729 B(  0-C , 21-H ) :   0.9757
B(  0-C , 22-H ) :   0.9770 B(  1-C ,  2-O ) :   0.8865 B(  1-C , 23-H ) :   0.9666
B(  1-C , 24-H ) :   0.9810 B(  2-O ,  3-C ) :   1.0872 B(  3-C ,  4-O ) :   2.0115
B(  3-C ,  5-C ) :   1.0700 B(  5-C ,  6-C ) :   1.6503 B(  5-C , 12-C ) :   0.9696
B(  6-C ,  7-C ) :   0.9685 B(  6-C ,  8-N ) :   1.1583 B(  7-C , 25-H ) :   0.9624
B(  7-C , 26-H ) :   0.9575 B(  7-C , 27-H ) :   0.9899 B(  8-N ,  9-C ) :   1.1801
B(  8-N , 28-H ) :   0.9477 B(  9-C , 10-S ) :   1.6103 B(  9-C , 11-N ) :   1.3050
B( 11-N , 12-C ) :   0.9731 B( 11-N , 29-H ) :   0.9532 B( 12-C , 13-C ) :   0.9449
B( 12-C , 30-H ) :   1.0009 B( 13-C , 14-C ) :   1.3544 B( 13-C , 19-C ) :   1.3755
B( 14-C , 15-C ) :   1.3886 B( 14-C , 31-H ) :   0.9747 B( 15-C , 16-C ) :   1.3652
B( 15-C , 32-H ) :   0.9699 B( 16-C , 17-C ) :   1.3285 B( 16-C , 33-H ) :   0.9838
B( 17-C , 18-O ) :   1.1146 B( 17-C , 19-C ) :   1.3739 B( 18-O , 34-H ) :   0.9789
B( 19-C , 35-H ) :   0.9575

MP2 TOTAL ENERGY:    -1274.333006165 Eh
FINAL SINGLE POINT ENERGY     -1274.333006165058

DIPOLE MOMENT
-------------
                                X             Y             Z
Electronic contribution:     10.56795       9.34773       7.09924
Nuclear contribution   :    -11.60348     -10.92760      -6.89710
                        -----------------------------------------
Total Dipole Moment    :     -1.03553      -1.57987       0.20214
                        -----------------------------------------
Magnitude (a.u.)       :      1.89978
Magnitude (Debye)      :      4.82886

Rotational constants in cm-1:     0.011961     0.009086     0.006373
Rotational constants in MHz :   358.579352   272.398826   191.052979

                             ****ORCA TERMINATED NORMALLY****
TOTAL RUN TIME: 0 days 1 hours 50 minutes 53 seconds 287 msec
