                         Program Version 5.0.0 -  RELEASE  -
|  1> ! ri-mp2 cc-pvtz cc-pvtz/c TightSCF NoKeepInts
|  2>
|  3> %scf
|  4>   MaxCore 4096
|  5> end
|  6> *xyz  0  1
|  7>     C       15.0276090   15.6372531   17.0711232
|  8>     C       16.0215582   14.4562417   16.9920637
|  9>     O       17.2714336   14.7748561   16.3275092
| 10>     C       17.8188257   16.0171930   16.1332160
| 11>     O       18.1301201   16.3622003   15.0083697
| 12>     C       17.8069932   16.9806900   17.2828933
| 13>     C       17.4087794   18.2641087   17.1090571
| 14>     C       16.7712480   18.8521936   15.8691124
| 15>     N       17.6060807   19.2045904   18.1224648
| 16>     C       18.3665810   18.9903684   19.2409217
| 17>     S       18.6642784   20.1901945   20.3392140
| 18>     N       18.8772613   17.7266005   19.4020969
| 19>     C       18.5324821   16.5553480   18.5724941
| 20>     C       17.8012704   15.5318084   19.4315723
| 21>     C       18.3070682   14.2236728   19.5580192
| 22>     C       17.6514182   13.2789181   20.3654655
| 23>     C       16.4856499   13.6462106   21.0590748
| 24>     C       15.9888091   14.9519996   20.9493207
| 25>     O       14.8645855   15.3106844   21.6180131
| 26>     C       16.6440170   15.8906849   20.1464161
| 27>     H       15.3283150   16.3936425   17.8011798
| 28>     H       14.0425124   15.2690112   17.3827130
| 29>     H       14.9072700   16.1116418   16.0896215
| 30>     H       16.2054879   14.0707251   17.9992327
| 31>     H       15.5448378   13.6395443   16.4347729
| 32>     H       16.0897891   18.1369430   15.3935965
| 33>     H       17.5422895   19.1027067   15.1288139
| 34>     H       16.1953709   19.7604277   16.0823554
| 35>     H       17.2646339   20.1452249   18.0033782
| 36>     H       19.4177595   17.5965025   20.2480369
| 37>     H       19.4814243   16.0980632   18.2579426
| 38>     H       19.2072966   13.9340823   19.0215082
| 39>     H       18.0475069   12.2682045   20.4521994
| 40>     H       15.9759213   12.9192893   21.6832992
| 41>     H       14.5999317   14.5599317   22.1711413
| 42>     H       16.2505842   16.9002423   20.0857904
| 43> *
| 44>
| 45>                          ****END OF INPUT****

CARTESIAN COORDINATES (ANGSTROEM)
---------------------------------
  C     15.027609   15.637253   17.071123
  C     16.021558   14.456242   16.992064
  O     17.271434   14.774856   16.327509
  C     17.818826   16.017193   16.133216
  O     18.130120   16.362200   15.008370
  C     17.806993   16.980690   17.282893
  C     17.408779   18.264109   17.109057
  C     16.771248   18.852194   15.869112
  N     17.606081   19.204590   18.122465
  C     18.366581   18.990368   19.240922
  S     18.664278   20.190194   20.339214
  N     18.877261   17.726600   19.402097
  C     18.532482   16.555348   18.572494
  C     17.801270   15.531808   19.431572
  C     18.307068   14.223673   19.558019
  C     17.651418   13.278918   20.365465
  C     16.485650   13.646211   21.059075
  C     15.988809   14.952000   20.949321
  O     14.864585   15.310684   21.618013
  C     16.644017   15.890685   20.146416
  H     15.328315   16.393642   17.801180
  H     14.042512   15.269011   17.382713
  H     14.907270   16.111642   16.089621
  H     16.205488   14.070725   17.999233
  H     15.544838   13.639544   16.434773
  H     16.089789   18.136943   15.393596
  H     17.542289   19.102707   15.128814
  H     16.195371   19.760428   16.082355
  H     17.264634   20.145225   18.003378
  H     19.417759   17.596502   20.248037
  H     19.481424   16.098063   18.257943
  H     19.207297   13.934082   19.021508
  H     18.047507   12.268204   20.452199
  H     15.975921   12.919289   21.683299
  H     14.599932   14.559932   22.171141
  H     16.250584   16.900242   20.085790

 Total Charge           Charge          ....    0
 Multiplicity           Mult            ....    1
 Number of Electrons    NEL             ....  154
 Basis Dimension        Dim             ....  828

ORBITAL ENERGIES
----------------

  NO   OCC          E(Eh)            E(eV)
   0   2.0000     -91.890668     -2500.4722
   1   2.0000     -20.605156      -560.6948
   2   2.0000     -20.586541      -560.1883
   3   2.0000     -20.549653      -559.1845
   4   2.0000     -15.627987      -425.2592
   5   2.0000     -15.611702      -424.8160
   6   2.0000     -11.395018      -310.0742
   7   2.0000     -11.386063      -309.8305
   8   2.0000     -11.330297      -308.3130
   9   2.0000     -11.323470      -308.1273
  10   2.0000     -11.318344      -307.9878
  11   2.0000     -11.301010      -307.5161
  12   2.0000     -11.268595      -306.6341
  13   2.0000     -11.264194      -306.5143
  14   2.0000     -11.259168      -306.3775
  15   2.0000     -11.255270      -306.2715
  16   2.0000     -11.253302      -306.2179
  17   2.0000     -11.247905      -306.0711
  18   2.0000     -11.247497      -306.0600
  19   2.0000     -11.232613      -305.6550
  20   2.0000      -8.895738      -242.0653
  21   2.0000      -6.577316      -178.9779
  22   2.0000      -6.575305      -178.9232
  23   2.0000      -6.574720      -178.9072
  24   2.0000      -1.440495       -39.1979
  25   2.0000      -1.424935       -38.7745
  26   2.0000      -1.352054       -36.7912
  27   2.0000      -1.341050       -36.4918
  28   2.0000      -1.241280       -33.7769
  29   2.0000      -1.166247       -31.7352
  30   2.0000      -1.123215       -30.5642
  31   2.0000      -1.050298       -28.5801
  32   2.0000      -1.034187       -28.1417
  33   2.0000      -1.024608       -27.8810
  34   2.0000      -1.003032       -27.2939
  35   2.0000      -0.988784       -26.9062
  36   2.0000      -0.928329       -25.2611
  37   2.0000      -0.898596       -24.4520
  38   2.0000      -0.850992       -23.1567
  39   2.0000      -0.845403       -23.0046
  40   2.0000      -0.843466       -22.9519
  41   2.0000      -0.827124       -22.5072
  42   2.0000      -0.748482       -20.3672
  43   2.0000      -0.738891       -20.1062
  44   2.0000      -0.719360       -19.5748
  45   2.0000      -0.704050       -19.1582
  46   2.0000      -0.691955       -18.8290
  47   2.0000      -0.678014       -18.4497
  48   2.0000      -0.674322       -18.3492
  49   2.0000      -0.660528       -17.9739
  50   2.0000      -0.655871       -17.8472
  51   2.0000      -0.649707       -17.6794
  52   2.0000      -0.639358       -17.3978
  53   2.0000      -0.623686       -16.9714
  54   2.0000      -0.614557       -16.7230
  55   2.0000      -0.607547       -16.5322
  56   2.0000      -0.603466       -16.4211
  57   2.0000      -0.583929       -15.8895
  58   2.0000      -0.577314       -15.7095
  59   2.0000      -0.567521       -15.4430
  60   2.0000      -0.557661       -15.1747
  61   2.0000      -0.550189       -14.9714
  62   2.0000      -0.540897       -14.7186
  63   2.0000      -0.534209       -14.5366
  64   2.0000      -0.530379       -14.4323
  65   2.0000      -0.517325       -14.0771
  66   2.0000      -0.506530       -13.7834
  67   2.0000      -0.495817       -13.4919
  68   2.0000      -0.483679       -13.1616
  69   2.0000      -0.470375       -12.7996
  70   2.0000      -0.449918       -12.2429
  71   2.0000      -0.446097       -12.1389
  72   2.0000      -0.359141        -9.7727
  73   2.0000      -0.353254        -9.6125
  74   2.0000      -0.332861        -9.0576
  75   2.0000      -0.329243        -8.9592
  76   2.0000      -0.318562        -8.6685
  77   0.0000       0.077591         2.1114
  78   0.0000       0.098761         2.6874
  79   0.0000       0.119201         3.2436
  80   0.0000       0.125822         3.4238
  81   0.0000       0.130665         3.5556

MULLIKEN ATOMIC CHARGES
-----------------------
   0 C :   -0.347782
   1 C :    0.036625
   2 O :   -0.344968
   3 C :    0.412515
   4 O :   -0.368366
   5 C :   -0.242581
   6 C :    0.156162
   7 C :   -0.283050
   8 N :   -0.125401
   9 C :    0.200160
  10 S :   -0.437543
  11 N :   -0.197968
  12 C :    0.057106
  13 C :    0.018900
  14 C :   -0.166558
  15 C :   -0.134418
  16 C :   -0.274354
  17 C :    0.319701
  18 O :   -0.355663
  19 C :   -0.284313
  20 H :    0.113241
  21 H :    0.123377
  22 H :    0.111935
  23 H :    0.105265
  24 H :    0.126388
  25 H :    0.120447
  26 H :    0.146270
  27 H :    0.095727
  28 H :    0.197614
  29 H :    0.193767
  30 H :    0.155397
  31 H :    0.149918
  32 H :    0.164277
  33 H :    0.135129
  34 H :    0.242205
  35 H :    0.180836
Sum of atomic charges:    0.0000000

LOEWDIN ATOMIC CHARGES
----------------------
   0 C :    0.103854
   1 C :   -0.010698
   2 O :    0.286322
   3 C :   -0.422620
   4 O :    0.130609
   5 C :   -0.090373
   6 C :   -0.077120
   7 C :    0.129903
   8 N :    0.405132
   9 C :   -0.457672
  10 S :   -0.034789
  11 N :    0.397000
  12 C :   -0.052741
  13 C :   -0.044134
  14 C :    0.016708
  15 C :    0.042390
  16 C :    0.000474
  17 C :   -0.191912
  18 O :    0.397616
  19 C :    0.034506
  20 H :   -0.037734
  21 H :   -0.020713
  22 H :   -0.029477
  23 H :   -0.033459
  24 H :   -0.022549
  25 H :   -0.011158
  26 H :   -0.002690
  27 H :   -0.021507
  28 H :   -0.057629
  29 H :   -0.064210
  30 H :   -0.007468
  31 H :   -0.027537
  32 H :   -0.018723
  33 H :   -0.033244
  34 H :   -0.152015
  35 H :   -0.022338

  Mayer bond orders larger than 0.100000
B(  0-C ,  1-C ) :   0.9600 B(  0-C , 20-H ) :   0.9678 B(  0-C , 21-H ) :   0.9759
B(  0-C , 22-H ) :   0.9754 B(  1-C ,  2-O ) :   0.9004 B(  1-C , 23-H ) :   0.9682
B(  1-C , 24-H ) :   0.9834 B(  2-O ,  3-C ) :   1.1721 B(  3-C ,  4-O ) :   2.1053
B(  3-C ,  5-C ) :   0.9391 B(  5-C ,  6-C ) :   1.6997 B(  5-C , 12-C ) :   0.9619
B(  6-C ,  7-C ) :   0.9552 B(  6-C ,  8-N ) :   1.1323 B(  7-C , 25-H ) :   0.9725
B(  7-C , 26-H ) :   0.9578 B(  7-C , 27-H ) :   0.9842 B(  8-N ,  9-C ) :   1.1919
B(  8-N , 28-H ) :   0.9500 B(  9-C , 10-S ) :   1.6158 B(  9-C , 11-N ) :   1.2858
B( 11-N , 12-C ) :   0.9965 B( 11-N , 29-H ) :   0.9513 B( 12-C , 13-C ) :   0.9337
B( 12-C , 30-H ) :   1.0086 B( 13-C , 14-C ) :   1.3617 B( 13-C , 19-C ) :   1.3576
B( 14-C , 15-C ) :   1.3967 B( 14-C , 31-H ) :   0.9719 B( 15-C , 16-C ) :   1.3635
B( 15-C , 32-H ) :   0.9702 B( 16-C , 17-C ) :   1.3269 B( 16-C , 33-H ) :   0.9833
B( 17-C , 18-O ) :   1.1141 B( 17-C , 19-C ) :   1.3669 B( 18-O , 34-H ) :   0.9786
B( 19-C , 35-H ) :   0.9529

MP2 TOTAL ENERGY:    -1274.323466239 Eh
FINAL SINGLE POINT ENERGY     -1274.323466239003

DIPOLE MOMENT
-------------
                                X             Y             Z
Electronic contribution:      9.50715       6.40310       5.61409
Nuclear contribution   :    -10.82974      -8.05209      -5.22245
                        -----------------------------------------
Total Dipole Moment    :     -1.32259      -1.64899       0.39163
                        -----------------------------------------
Magnitude (a.u.)       :      2.14983
Magnitude (Debye)      :      5.46445

Rotational constants in cm-1:     0.012112     0.009618     0.006670
Rotational constants in MHz :   363.118850   288.328571   199.958219

                             ****ORCA TERMINATED NORMALLY****
TOTAL RUN TIME: 0 days 2 hours 27 minutes 39 seconds 771 msec
