                         Program Version 4.2.0 -  RELEASE  -
|  1> ! ri-mp2 cc-pvtz cc-pvtz/c TightSCF  NoKeepInts
|  2>
|  3> %scf
|  4>   MaxCore 4096
|  5> end
|  6> *xyz  0  1
|  7>     C       15.3988884   13.6222395   15.6811162
|  8>     C       15.7729460   14.4903987   16.8940639
|  9>     O       16.8981947   15.3040556   16.5159752
| 10>     C       16.7168210   16.6547135   16.4489414
| 11>     O       15.7705852   17.1271670   15.8433522
| 12>     C       17.5079554   17.4060603   17.4858376
| 13>     C       17.3928047   18.7486288   17.6538201
| 14>     C       16.4895202   19.6954615   16.8925046
| 15>     N       18.1941764   19.4097524   18.5894164
| 16>     C       19.2180449   18.8313544   19.2906508
| 17>     S       20.1981206   19.7086471   20.2934454
| 18>     N       19.3967947   17.4836630   19.1110291
| 19>     C       18.4880864   16.6012428   18.3574417
| 20>     C       17.7783328   15.6631867   19.3292555
| 21>     C       18.1996509   14.3261300   19.4566571
| 22>     C       17.5492548   13.4529911   20.3447493
| 23>     C       16.4717499   13.9214284   21.1156537
| 24>     C       16.0561241   15.2548310   20.9989718
| 25>     O       15.0178121   15.7109223   21.7434744
| 26>     C       16.7043608   16.1212237   20.1134473
| 27>     H       15.1062652   14.2545412   14.8330813
| 28>     H       14.5569119   12.9629612   15.9239733
| 29>     H       16.2478404   12.9996641   15.3729276
| 30>     H       14.9145625   15.1037374   17.2021609
| 31>     H       16.0475112   13.8407440   17.7345693
| 32>     H       15.4352136   19.4438095   17.0651083
| 33>     H       16.6708655   19.6189088   15.8128266
| 34>     H       16.6308220   20.7449976   17.1760099
| 35>     H       18.0803364   20.4010078   18.7294618
| 36>     H       20.1391988   17.0801038   19.6676163
| 37>     H       19.1053740   15.9928005   17.6812937
| 38>     H       19.0309797   13.9604768   18.8595392
| 39>     H       17.8815981   12.4200402   20.4349298
| 40>     H       15.9671457   13.2512720   21.8040713
| 41>     H       14.7398812   14.9912753   22.3300831
| 42>     H       16.3722700   17.1515621   20.0465442
| 43> *
| 44>
| 45>                          ****END OF INPUT****

CARTESIAN COORDINATES (ANGSTROEM)
---------------------------------
  C     15.398888   13.622239   15.681116
  C     15.772946   14.490399   16.894064
  O     16.898195   15.304056   16.515975
  C     16.716821   16.654713   16.448941
  O     15.770585   17.127167   15.843352
  C     17.507955   17.406060   17.485838
  C     17.392805   18.748629   17.653820
  C     16.489520   19.695462   16.892505
  N     18.194176   19.409752   18.589416
  C     19.218045   18.831354   19.290651
  S     20.198121   19.708647   20.293445
  N     19.396795   17.483663   19.111029
  C     18.488086   16.601243   18.357442
  C     17.778333   15.663187   19.329255
  C     18.199651   14.326130   19.456657
  C     17.549255   13.452991   20.344749
  C     16.471750   13.921428   21.115654
  C     16.056124   15.254831   20.998972
  O     15.017812   15.710922   21.743474
  C     16.704361   16.121224   20.113447
  H     15.106265   14.254541   14.833081
  H     14.556912   12.962961   15.923973
  H     16.247840   12.999664   15.372928
  H     14.914562   15.103737   17.202161
  H     16.047511   13.840744   17.734569
  H     15.435214   19.443810   17.065108
  H     16.670866   19.618909   15.812827
  H     16.630822   20.744998   17.176010
  H     18.080336   20.401008   18.729462
  H     20.139199   17.080104   19.667616
  H     19.105374   15.992800   17.681294
  H     19.030980   13.960477   18.859539
  H     17.881598   12.420040   20.434930
  H     15.967146   13.251272   21.804071
  H     14.739881   14.991275   22.330083
  H     16.372270   17.151562   20.046544

 Total Charge           Charge          ....    0
 Multiplicity           Mult            ....    1
 Number of Electrons    NEL             ....  154
 Basis Dimension        Dim             ....  828

ORBITAL ENERGIES
----------------

  NO   OCC          E(Eh)            E(eV)
   0   2.0000     -91.890067     -2500.4558
   1   2.0000     -20.600749      -560.5749
   2   2.0000     -20.586857      -560.1969
   3   2.0000     -20.545853      -559.0811
   4   2.0000     -15.630512      -425.3279
   5   2.0000     -15.609504      -424.7562
   6   2.0000     -11.393886      -310.0434
   7   2.0000     -11.385101      -309.8043
   8   2.0000     -11.337166      -308.5000
   9   2.0000     -11.318458      -307.9909
  10   2.0000     -11.311086      -307.7903
  11   2.0000     -11.293104      -307.3010
  12   2.0000     -11.263522      -306.4960
  13   2.0000     -11.259765      -306.3938
  14   2.0000     -11.259585      -306.3889
  15   2.0000     -11.253361      -306.2195
  16   2.0000     -11.247171      -306.0511
  17   2.0000     -11.242069      -305.9123
  18   2.0000     -11.241860      -305.9066
  19   2.0000     -11.220000      -305.3117
  20   2.0000      -8.895120      -242.0485
  21   2.0000      -6.576692      -178.9609
  22   2.0000      -6.574690      -178.9064
  23   2.0000      -6.574100      -178.8904
  24   2.0000      -1.449429       -39.4410
  25   2.0000      -1.420390       -38.6508
  26   2.0000      -1.352897       -36.8142
  27   2.0000      -1.341563       -36.5058
  28   2.0000      -1.240184       -33.7471
  29   2.0000      -1.161307       -31.6008
  30   2.0000      -1.121460       -30.5165
  31   2.0000      -1.045397       -28.4467
  32   2.0000      -1.032959       -28.1082
  33   2.0000      -1.019400       -27.7393
  34   2.0000      -0.996871       -27.1262
  35   2.0000      -0.985153       -26.8074
  36   2.0000      -0.924803       -25.1652
  37   2.0000      -0.882041       -24.0015
  38   2.0000      -0.849026       -23.1032
  39   2.0000      -0.841256       -22.8917
  40   2.0000      -0.837532       -22.7904
  41   2.0000      -0.824941       -22.4478
  42   2.0000      -0.759591       -20.6695
  43   2.0000      -0.735203       -20.0059
  44   2.0000      -0.723999       -19.7010
  45   2.0000      -0.699611       -19.0374
  46   2.0000      -0.690259       -18.7829
  47   2.0000      -0.678641       -18.4667
  48   2.0000      -0.671648       -18.2765
  49   2.0000      -0.655692       -17.8423
  50   2.0000      -0.648277       -17.6405
  51   2.0000      -0.644728       -17.5439
  52   2.0000      -0.631405       -17.1814
  53   2.0000      -0.611785       -16.6475
  54   2.0000      -0.609882       -16.5957
  55   2.0000      -0.602181       -16.3862
  56   2.0000      -0.600706       -16.3460
  57   2.0000      -0.581522       -15.8240
  58   2.0000      -0.573097       -15.5948
  59   2.0000      -0.567985       -15.4557
  60   2.0000      -0.565953       -15.4004
  61   2.0000      -0.539281       -14.6746
  62   2.0000      -0.534039       -14.5319
  63   2.0000      -0.528742       -14.3878
  64   2.0000      -0.515999       -14.0411
  65   2.0000      -0.512655       -13.9500
  66   2.0000      -0.503714       -13.7068
  67   2.0000      -0.496451       -13.5091
  68   2.0000      -0.489165       -13.3108
  69   2.0000      -0.464159       -12.6304
  70   2.0000      -0.453005       -12.3269
  71   2.0000      -0.446368       -12.1463
  72   2.0000      -0.355743        -9.6803
  73   2.0000      -0.353563        -9.6209
  74   2.0000      -0.330031        -8.9806
  75   2.0000      -0.325587        -8.8597
  76   2.0000      -0.317600        -8.6423
  77   0.0000       0.071161         1.9364
  78   0.0000       0.102213         2.7814
  79   0.0000       0.123126         3.3504
  80   0.0000       0.129730         3.5301
  81   0.0000       0.133597         3.6354

MULLIKEN ATOMIC CHARGES
-----------------------
   0 C :   -0.264003
   1 C :    0.030343
   2 O :   -0.380546
   3 C :    0.476873
   4 O :   -0.416739
   5 C :   -0.262371
   6 C :    0.162900
   7 C :   -0.268985
   8 N :   -0.123920
   9 C :    0.215560
  10 S :   -0.439675
  11 N :   -0.208521
  12 C :    0.072030
  13 C :    0.037909
  14 C :   -0.188178
  15 C :   -0.135733
  16 C :   -0.274569
  17 C :    0.305065
  18 O :   -0.355457
  19 C :   -0.239915
  20 H :    0.107864
  21 H :    0.086663
  22 H :    0.090635
  23 H :    0.097269
  24 H :    0.117696
  25 H :    0.131424
  26 H :    0.131311
  27 H :    0.095519
  28 H :    0.197735
  29 H :    0.195090
  30 H :    0.149636
  31 H :    0.150554
  32 H :    0.163668
  33 H :    0.133005
  34 H :    0.241683
  35 H :    0.168180
Sum of atomic charges:   -0.0000000

LOEWDIN ATOMIC CHARGES
----------------------
   0 C :    0.105269
   1 C :   -0.016438
   2 O :    0.296569
   3 C :   -0.419215
   4 O :    0.109564
   5 C :   -0.097703
   6 C :   -0.058373
   7 C :    0.131483
   8 N :    0.407105
   9 C :   -0.455520
  10 S :   -0.034640
  11 N :    0.396036
  12 C :   -0.052500
  13 C :   -0.036236
  14 C :    0.012731
  15 C :    0.040135
  16 C :   -0.002462
  17 C :   -0.189468
  18 O :    0.396292
  19 C :    0.031511
  20 H :   -0.023508
  21 H :   -0.029240
  22 H :   -0.028997
  23 H :   -0.029018
  24 H :   -0.028433
  25 H :   -0.004915
  26 H :   -0.003648
  27 H :   -0.023146
  28 H :   -0.057334
  29 H :   -0.065098
  30 H :   -0.009048
  31 H :   -0.029623
  32 H :   -0.020173
  33 H :   -0.034812
  34 H :   -0.152848
  35 H :   -0.024297

  Mayer bond orders larger than 0.100000
B(  0-C ,  1-C ) :   0.9854 B(  0-C , 20-H ) :   0.9780 B(  0-C , 21-H ) :   0.9777
B(  0-C , 22-H ) :   0.9788 B(  1-C ,  2-O ) :   0.8694 B(  1-C , 23-H ) :   0.9707
B(  1-C , 24-H ) :   0.9706 B(  2-O ,  3-C ) :   1.1103 B(  3-C ,  4-O ) :   1.9929
B(  3-C ,  5-C ) :   1.0738 B(  5-C ,  6-C ) :   1.6461 B(  5-C , 12-C ) :   0.9700
B(  6-C ,  7-C ) :   0.9667 B(  6-C ,  8-N ) :   1.1610 B(  7-C , 25-H ) :   0.9599
B(  7-C , 26-H ) :   0.9603 B(  7-C , 27-H ) :   0.9903 B(  8-N ,  9-C ) :   1.1827
B(  8-N , 28-H ) :   0.9476 B(  9-C , 10-S ) :   1.6052 B(  9-C , 11-N ) :   1.3076
B( 11-N , 12-C ) :   0.9711 B( 11-N , 29-H ) :   0.9519 B( 12-C , 13-C ) :   0.9415
B( 12-C , 30-H ) :   1.0020 B( 13-C , 14-C ) :   1.3520 B( 13-C , 19-C ) :   1.3749
B( 14-C , 15-C ) :   1.3933 B( 14-C , 31-H ) :   0.9738 B( 15-C , 16-C ) :   1.3605
B( 15-C , 32-H ) :   0.9702 B( 16-C , 17-C ) :   1.3305 B( 16-C , 33-H ) :   0.9841
B( 17-C , 18-O ) :   1.1136 B( 17-C , 19-C ) :   1.3741 B( 18-O , 34-H ) :   0.9790
B( 19-C , 35-H ) :   0.9579

MP2 TOTAL ENERGY:    -1274.335577572 Eh
FINAL SINGLE POINT ENERGY     -1274.335577572468

DIPOLE MOMENT
-------------
                                X             Y             Z
Electronic contribution:      9.86403      10.38239       7.76077
Nuclear contribution   :    -10.83035     -11.90389      -7.75821
                        -----------------------------------------
Total Dipole Moment    :     -0.96632      -1.52150       0.00257
                        -----------------------------------------
Magnitude (a.u.)       :      1.80243
Magnitude (Debye)      :      4.58141

Rotational constants in cm-1:     0.012271     0.008614     0.006255
Rotational constants in MHz :   367.877000   258.229743   187.526381

                             ****ORCA TERMINATED NORMALLY****
TOTAL RUN TIME: 0 days 1 hours 42 minutes 18 seconds 401 msec
