                         Program Version 5.0.0 -  RELEASE  -
|  1> ! ri-mp2 cc-pvtz cc-pvtz/c TightSCF NoKeepInts
|  2>
|  3> %scf
|  4>   MaxCore 4096
|  5> end
|  6> *xyz  0  1
|  7>     C       14.9989564   14.4540354   16.7380887
|  8>     C       16.4717516   13.9970003   16.6315962
|  9>     O       17.4294864   15.0738753   16.4649246
| 10>     C       17.0842514   16.3909739   16.3293147
| 11>     O       16.3134714   16.7720999   15.4658784
| 12>     C       17.6898764   17.2731368   17.3871770
| 13>     C       17.4904133   18.6158414   17.4140790
| 14>     C       16.6643325   19.4407706   16.4503224
| 15>     N       18.1057749   19.3974757   18.3962246
| 16>     C       19.0071869   18.9340752   19.3164448
| 17>     S       19.7599902   19.9427427   20.3896880
| 18>     N       19.2599266   17.5864953   19.3004065
| 19>     C       18.5520394   16.5977045   18.4676757
| 20>     C       17.7435109   15.6666681   19.3662490
| 21>     C       18.2308368   14.3827355   19.6749451
| 22>     C       17.4894785   13.5142995   20.4936908
| 23>     C       16.2526329   13.9344140   21.0117973
| 24>     C       15.7700510   15.2166242   20.7162626
| 25>     O       14.5772219   15.6261306   21.2160796
| 26>     C       16.5104927   16.0792289   19.9023819
| 27>     H       14.8698418   15.2009650   17.5311729
| 28>     H       14.3563548   13.5985320   16.9779034
| 29>     H       14.6434105   14.8765713   15.7900629
| 30>     H       16.7295115   13.4313872   17.5356733
| 31>     H       16.5627822   13.3074592   15.7824937
| 32>     H       15.6167367   19.1136896   16.4629196
| 33>     H       17.0322815   19.3176829   15.4236424
| 34>     H       16.6791829   20.5126219   16.6798623
| 35>     H       17.9352545   20.3901538   18.4204066
| 36>     H       19.9019783   17.2705003   20.0156902
| 37>     H       19.3151837   15.9992540   17.9501751
| 38>     H       19.1857939   14.0545288   19.2728982
| 39>     H       17.8740895   12.5224504   20.7256816
| 40>     H       15.6762861   13.2675209   21.6447779
| 41>     H       14.2443925   14.9219404   21.7927479
| 42>     H       16.1222377   17.0704145   19.6946653
| 43> *
| 44>
| 45>                          ****END OF INPUT****

CARTESIAN COORDINATES (ANGSTROEM)
---------------------------------
  C     14.998956   14.454035   16.738089
  C     16.471752   13.997000   16.631596
  O     17.429486   15.073875   16.464925
  C     17.084251   16.390974   16.329315
  O     16.313471   16.772100   15.465878
  C     17.689876   17.273137   17.387177
  C     17.490413   18.615841   17.414079
  C     16.664333   19.440771   16.450322
  N     18.105775   19.397476   18.396225
  C     19.007187   18.934075   19.316445
  S     19.759990   19.942743   20.389688
  N     19.259927   17.586495   19.300407
  C     18.552039   16.597704   18.467676
  C     17.743511   15.666668   19.366249
  C     18.230837   14.382736   19.674945
  C     17.489479   13.514299   20.493691
  C     16.252633   13.934414   21.011797
  C     15.770051   15.216624   20.716263
  O     14.577222   15.626131   21.216080
  C     16.510493   16.079229   19.902382
  H     14.869842   15.200965   17.531173
  H     14.356355   13.598532   16.977903
  H     14.643410   14.876571   15.790063
  H     16.729512   13.431387   17.535673
  H     16.562782   13.307459   15.782494
  H     15.616737   19.113690   16.462920
  H     17.032281   19.317683   15.423642
  H     16.679183   20.512622   16.679862
  H     17.935254   20.390154   18.420407
  H     19.901978   17.270500   20.015690
  H     19.315184   15.999254   17.950175
  H     19.185794   14.054529   19.272898
  H     17.874090   12.522450   20.725682
  H     15.676286   13.267521   21.644778
  H     14.244392   14.921940   21.792748
  H     16.122238   17.070414   19.694665

 Total Charge           Charge          ....    0
 Multiplicity           Mult            ....    1
 Number of Electrons    NEL             ....  154
 Basis Dimension        Dim             ....  828

ORBITAL ENERGIES
----------------

  NO   OCC          E(Eh)            E(eV)
   0   2.0000     -91.889482     -2500.4399
   1   2.0000     -20.601587      -560.5977
   2   2.0000     -20.586281      -560.1812
   3   2.0000     -20.542507      -558.9900
   4   2.0000     -15.629698      -425.3057
   5   2.0000     -15.609035      -424.7434
   6   2.0000     -11.393795      -310.0409
   7   2.0000     -11.384597      -309.7906
   8   2.0000     -11.336514      -308.4822
   9   2.0000     -11.318964      -308.0047
  10   2.0000     -11.310137      -307.7645
  11   2.0000     -11.298188      -307.4393
  12   2.0000     -11.264263      -306.5162
  13   2.0000     -11.260490      -306.4135
  14   2.0000     -11.258233      -306.3521
  15   2.0000     -11.252531      -306.1969
  16   2.0000     -11.247872      -306.0702
  17   2.0000     -11.242642      -305.9278
  18   2.0000     -11.242538      -305.9250
  19   2.0000     -11.223167      -305.3979
  20   2.0000      -8.894544      -242.0329
  21   2.0000      -6.576118      -178.9453
  22   2.0000      -6.574113      -178.8907
  23   2.0000      -6.573527      -178.8748
  24   2.0000      -1.441408       -39.2227
  25   2.0000      -1.421215       -38.6732
  26   2.0000      -1.350261       -36.7425
  27   2.0000      -1.340836       -36.4860
  28   2.0000      -1.239617       -33.7317
  29   2.0000      -1.161906       -31.6171
  30   2.0000      -1.121002       -30.5040
  31   2.0000      -1.045566       -28.4513
  32   2.0000      -1.031755       -28.0755
  33   2.0000      -1.020167       -27.7602
  34   2.0000      -0.997212       -27.1355
  35   2.0000      -0.985286       -26.8110
  36   2.0000      -0.924493       -25.1567
  37   2.0000      -0.895888       -24.3783
  38   2.0000      -0.848721       -23.0949
  39   2.0000      -0.841721       -22.9044
  40   2.0000      -0.838176       -22.8079
  41   2.0000      -0.819077       -22.2882
  42   2.0000      -0.744148       -20.2493
  43   2.0000      -0.734176       -19.9779
  44   2.0000      -0.719219       -19.5710
  45   2.0000      -0.699998       -19.0479
  46   2.0000      -0.689565       -18.7640
  47   2.0000      -0.673514       -18.3272
  48   2.0000      -0.670761       -18.2523
  49   2.0000      -0.659328       -17.9412
  50   2.0000      -0.653740       -17.7892
  51   2.0000      -0.644022       -17.5247
  52   2.0000      -0.637771       -17.3546
  53   2.0000      -0.620063       -16.8728
  54   2.0000      -0.612020       -16.6539
  55   2.0000      -0.603870       -16.4321
  56   2.0000      -0.600897       -16.3512
  57   2.0000      -0.581245       -15.8165
  58   2.0000      -0.571600       -15.5540
  59   2.0000      -0.567275       -15.4363
  60   2.0000      -0.549998       -14.9662
  61   2.0000      -0.540910       -14.7189
  62   2.0000      -0.534575       -14.5465
  63   2.0000      -0.529295       -14.4029
  64   2.0000      -0.522102       -14.2071
  65   2.0000      -0.514767       -14.0075
  66   2.0000      -0.503543       -13.7021
  67   2.0000      -0.493608       -13.4318
  68   2.0000      -0.489101       -13.3091
  69   2.0000      -0.463197       -12.6042
  70   2.0000      -0.454485       -12.3672
  71   2.0000      -0.441039       -12.0013
  72   2.0000      -0.355040        -9.6611
  73   2.0000      -0.353529        -9.6200
  74   2.0000      -0.329842        -8.9755
  75   2.0000      -0.325870        -8.8674
  76   2.0000      -0.317281        -8.6337
  77   0.0000       0.073831         2.0090
  78   0.0000       0.100706         2.7403
  79   0.0000       0.122119         3.3230
  80   0.0000       0.130146         3.5415
  81   0.0000       0.133049         3.6205

MULLIKEN ATOMIC CHARGES
-----------------------
   0 C :   -0.319854
   1 C :    0.036649
   2 O :   -0.386821
   3 C :    0.477339
   4 O :   -0.415902
   5 C :   -0.266600
   6 C :    0.167889
   7 C :   -0.270386
   8 N :   -0.123522
   9 C :    0.216122
  10 S :   -0.441193
  11 N :   -0.210946
  12 C :    0.079761
  13 C :    0.071684
  14 C :   -0.210383
  15 C :   -0.125776
  16 C :   -0.275811
  17 C :    0.326277
  18 O :   -0.358658
  19 C :   -0.293976
  20 H :    0.103776
  21 H :    0.102762
  22 H :    0.127785
  23 H :    0.107101
  24 H :    0.115403
  25 H :    0.130134
  26 H :    0.133266
  27 H :    0.095357
  28 H :    0.197223
  29 H :    0.195563
  30 H :    0.150011
  31 H :    0.151515
  32 H :    0.165086
  33 H :    0.133239
  34 H :    0.241864
  35 H :    0.174023
Sum of atomic charges:   -0.0000000

LOEWDIN ATOMIC CHARGES
----------------------
   0 C :    0.104559
   1 C :   -0.009565
   2 O :    0.287531
   3 C :   -0.418545
   4 O :    0.110635
   5 C :   -0.098021
   6 C :   -0.058577
   7 C :    0.131527
   8 N :    0.407048
   9 C :   -0.455131
  10 S :   -0.035720
  11 N :    0.396054
  12 C :   -0.052268
  13 C :   -0.036313
  14 C :    0.014124
  15 C :    0.040592
  16 C :   -0.002230
  17 C :   -0.189366
  18 O :    0.396431
  19 C :    0.031526
  20 H :   -0.029847
  21 H :   -0.025026
  22 H :   -0.025026
  23 H :   -0.030059
  24 H :   -0.028167
  25 H :   -0.005222
  26 H :   -0.003242
  27 H :   -0.023406
  28 H :   -0.057450
  29 H :   -0.065184
  30 H :   -0.009870
  31 H :   -0.029448
  32 H :   -0.020194
  33 H :   -0.034738
  34 H :   -0.152632
  35 H :   -0.024781

  Mayer bond orders larger than 0.100000
B(  0-C ,  1-C ) :   0.9654 B(  0-C , 20-H ) :   0.9724 B(  0-C , 21-H ) :   0.9752
B(  0-C , 22-H ) :   0.9717 B(  1-C ,  2-O ) :   0.8871 B(  1-C , 23-H ) :   0.9721
B(  1-C , 24-H ) :   0.9850 B(  2-O ,  3-C ) :   1.1216 B(  3-C ,  4-O ) :   2.0026
B(  3-C ,  5-C ) :   1.0520 B(  5-C ,  6-C ) :   1.6455 B(  5-C , 12-C ) :   0.9722
B(  6-C ,  7-C ) :   0.9656 B(  6-C ,  8-N ) :   1.1632 B(  7-C , 25-H ) :   0.9609
B(  7-C , 26-H ) :   0.9594 B(  7-C , 27-H ) :   0.9903 B(  8-N ,  9-C ) :   1.1842
B(  8-N , 28-H ) :   0.9477 B(  9-C , 10-S ) :   1.6028 B(  9-C , 11-N ) :   1.3087
B( 11-N , 12-C ) :   0.9726 B( 11-N , 29-H ) :   0.9515 B( 12-C , 13-C ) :   0.9423
B( 12-C , 30-H ) :   1.0009 B( 13-C , 14-C ) :   1.3481 B( 13-C , 19-C ) :   1.3608
B( 14-C , 15-C ) :   1.3890 B( 14-C , 31-H ) :   0.9748 B( 15-C , 16-C ) :   1.3603
B( 15-C , 32-H ) :   0.9695 B( 16-C , 17-C ) :   1.3323 B( 16-C , 33-H ) :   0.9838
B( 17-C , 18-O ) :   1.1083 B( 17-C , 19-C ) :   1.3624 B( 18-O , 34-H ) :   0.9793
B( 19-C , 35-H ) :   0.9578

MP2 TOTAL ENERGY:    -1274.337252975 Eh
FINAL SINGLE POINT ENERGY     -1274.337252974873

DIPOLE MOMENT
-------------
                                X             Y             Z
Electronic contribution:      9.77418       9.36355       6.14146
Nuclear contribution   :    -10.73750     -11.07406      -6.13383
                        -----------------------------------------
Total Dipole Moment    :     -0.96332      -1.71051       0.00763
                        -----------------------------------------
Magnitude (a.u.)       :      1.96313
Magnitude (Debye)      :      4.98989

Rotational constants in cm-1:     0.012774     0.008809     0.006512
Rotational constants in MHz :   382.945818   264.077805   195.226312

                             ****ORCA TERMINATED NORMALLY****
TOTAL RUN TIME: 0 days 2 hours 9 minutes 57 seconds 610 msec
