                         Program Version 4.2.0 -  RELEASE  -
|  1> ! ri-mp2 cc-pvtz cc-pvtz/c TightSCF  NoKeepInts
|  2>
|  3> %scf
|  4>   MaxCore 4096
|  5> end
|  6> *xyz  0  1
|  7>     C       15.5044068   14.2530874   14.8197507
|  8>     C       15.9062662   13.9551695   16.2817259
|  9>     O       16.6745989   15.0148082   16.8997923
| 10>     C       16.3995131   16.3550902   16.7998116
| 11>     O       15.4470031   16.8051908   16.1882430
| 12>     C       17.3418271   17.1907744   17.6239442
| 13>     C       17.2930827   18.5477023   17.6357581
| 14>     C       16.3359560   19.4396155   16.8738940
| 15>     N       18.2229661   19.2766393   18.3834647
| 16>     C       19.2926527   18.7363446   19.0457443
| 17>     S       20.4094468   19.6788243   19.8206817
| 18>     N       19.3940650   17.3688520   19.0301659
| 19>     C       18.3802763   16.4490157   18.4826317
| 20>     C       17.7265557   15.6692557   19.6201089
| 21>     C       17.9365343   14.2832451   19.7479588
| 22>     C       17.3368560   13.5626944   20.7946302
| 23>     C       16.5227141   14.2334943   21.7231588
| 24>     C       16.3149836   15.6143113   21.6014120
| 25>     O       15.5307886   16.2650508   22.4973508
| 26>     C       16.9131507   16.3286678   20.5588513
| 27>     H       14.6494229   14.9379830   14.7676947
| 28>     H       15.2081352   13.3264505   14.3137386
| 29>     H       16.3422986   14.6909551   14.2633301
| 30>     H       14.9935193   13.7802483   16.8664088
| 31>     H       16.4980474   13.0314449   16.3117620
| 32>     H       15.3007982   19.2436118   17.1817958
| 33>     H       16.3991569   19.2429282   15.7961440
| 34>     H       16.5300780   20.5076759   17.0265428
| 35>     H       18.1645264   20.2821807   18.4048336
| 36>     H       20.1718307   16.9976680   19.5603097
| 37>     H       18.9060584   15.7375563   17.8306170
| 38>     H       18.5620266   13.7615553   19.0287600
| 39>     H       17.5034822   12.4906955   20.8838887
| 40>     H       16.0575539   13.6816133   22.5332553
| 41>     H       15.2305872   15.6137099   23.1487425
| 42>     H       16.7458343   17.3978897   20.4870976
| 43> *
| 44>
| 45>                          ****END OF INPUT****

CARTESIAN COORDINATES (ANGSTROEM)
---------------------------------
  C     15.504407   14.253087   14.819751
  C     15.906266   13.955170   16.281726
  O     16.674599   15.014808   16.899792
  C     16.399513   16.355090   16.799812
  O     15.447003   16.805191   16.188243
  C     17.341827   17.190774   17.623944
  C     17.293083   18.547702   17.635758
  C     16.335956   19.439615   16.873894
  N     18.222966   19.276639   18.383465
  C     19.292653   18.736345   19.045744
  S     20.409447   19.678824   19.820682
  N     19.394065   17.368852   19.030166
  C     18.380276   16.449016   18.482632
  C     17.726556   15.669256   19.620109
  C     17.936534   14.283245   19.747959
  C     17.336856   13.562694   20.794630
  C     16.522714   14.233494   21.723159
  C     16.314984   15.614311   21.601412
  O     15.530789   16.265051   22.497351
  C     16.913151   16.328668   20.558851
  H     14.649423   14.937983   14.767695
  H     15.208135   13.326450   14.313739
  H     16.342299   14.690955   14.263330
  H     14.993519   13.780248   16.866409
  H     16.498047   13.031445   16.311762
  H     15.300798   19.243612   17.181796
  H     16.399157   19.242928   15.796144
  H     16.530078   20.507676   17.026543
  H     18.164526   20.282181   18.404834
  H     20.171831   16.997668   19.560310
  H     18.906058   15.737556   17.830617
  H     18.562027   13.761555   19.028760
  H     17.503482   12.490695   20.883889
  H     16.057554   13.681613   22.533255
  H     15.230587   15.613710   23.148742
  H     16.745834   17.397890   20.487098

 Total Charge           Charge          ....    0
 Multiplicity           Mult            ....    1
 Number of Electrons    NEL             ....  154
 Basis Dimension        Dim             ....  828

ORBITAL ENERGIES
----------------

  NO   OCC          E(Eh)            E(eV)
   0   2.0000     -91.887862     -2500.3958
   1   2.0000     -20.600249      -560.5613
   2   2.0000     -20.594632      -560.4084
   3   2.0000     -20.540940      -558.9474
   4   2.0000     -15.627996      -425.2594
   5   2.0000     -15.606992      -424.6878
   6   2.0000     -11.397118      -310.1313
   7   2.0000     -11.382837      -309.7427
   8   2.0000     -11.334809      -308.4358
   9   2.0000     -11.311545      -307.8028
  10   2.0000     -11.307410      -307.6903
  11   2.0000     -11.302709      -307.5623
  12   2.0000     -11.258280      -306.3534
  13   2.0000     -11.257524      -306.3328
  14   2.0000     -11.253064      -306.2114
  15   2.0000     -11.251246      -306.1620
  16   2.0000     -11.240860      -305.8793
  17   2.0000     -11.236277      -305.7546
  18   2.0000     -11.236166      -305.7516
  19   2.0000     -11.223255      -305.4003
  20   2.0000      -8.892931      -241.9890
  21   2.0000      -6.574508      -178.9015
  22   2.0000      -6.572502      -178.8469
  23   2.0000      -6.571917      -178.8310
  24   2.0000      -1.445999       -39.3476
  25   2.0000      -1.414270       -38.4842
  26   2.0000      -1.354855       -36.8675
  27   2.0000      -1.339013       -36.4364
  28   2.0000      -1.237341       -33.6698
  29   2.0000      -1.155493       -31.4426
  30   2.0000      -1.118798       -30.4440
  31   2.0000      -1.041177       -28.3319
  32   2.0000      -1.036251       -28.1978
  33   2.0000      -1.012901       -27.5624
  34   2.0000      -0.994313       -27.0566
  35   2.0000      -0.982721       -26.7412
  36   2.0000      -0.921083       -25.0639
  37   2.0000      -0.897742       -24.4288
  38   2.0000      -0.846206       -23.0264
  39   2.0000      -0.836304       -22.7570
  40   2.0000      -0.831977       -22.6392
  41   2.0000      -0.817749       -22.2521
  42   2.0000      -0.748286       -20.3619
  43   2.0000      -0.729313       -19.8456
  44   2.0000      -0.720024       -19.5928
  45   2.0000      -0.693997       -18.8846
  46   2.0000      -0.687269       -18.7015
  47   2.0000      -0.679058       -18.4781
  48   2.0000      -0.668469       -18.1900
  49   2.0000      -0.654361       -17.8061
  50   2.0000      -0.651217       -17.7205
  51   2.0000      -0.643887       -17.5211
  52   2.0000      -0.633192       -17.2300
  53   2.0000      -0.608818       -16.5668
  54   2.0000      -0.604659       -16.4536
  55   2.0000      -0.597866       -16.2688
  56   2.0000      -0.597016       -16.2456
  57   2.0000      -0.579239       -15.7619
  58   2.0000      -0.572273       -15.5723
  59   2.0000      -0.569872       -15.5070
  60   2.0000      -0.561165       -15.2701
  61   2.0000      -0.538230       -14.6460
  62   2.0000      -0.536459       -14.5978
  63   2.0000      -0.523620       -14.2484
  64   2.0000      -0.521847       -14.2002
  65   2.0000      -0.512067       -13.9341
  66   2.0000      -0.503166       -13.6919
  67   2.0000      -0.498372       -13.5614
  68   2.0000      -0.482785       -13.1372
  69   2.0000      -0.462897       -12.5961
  70   2.0000      -0.455043       -12.3823
  71   2.0000      -0.440917       -11.9980
  72   2.0000      -0.353218        -9.6115
  73   2.0000      -0.347418        -9.4537
  74   2.0000      -0.327188        -8.9032
  75   2.0000      -0.319226        -8.6866
  76   2.0000      -0.314780        -8.5656
  77   0.0000       0.077535         2.1098
  78   0.0000       0.109650         2.9837
  79   0.0000       0.124542         3.3890
  80   0.0000       0.133724         3.6388
  81   0.0000       0.137202         3.7335

MULLIKEN ATOMIC CHARGES
-----------------------
   0 C :   -0.296510
   1 C :    0.048939
   2 O :   -0.355620
   3 C :    0.472053
   4 O :   -0.435777
   5 C :   -0.212757
   6 C :    0.146453
   7 C :   -0.274319
   8 N :   -0.119845
   9 C :    0.211529
  10 S :   -0.441373
  11 N :   -0.202915
  12 C :    0.045924
  13 C :    0.075531
  14 C :   -0.181911
  15 C :   -0.132008
  16 C :   -0.278360
  17 C :    0.315533
  18 O :   -0.357058
  19 C :   -0.269292
  20 H :    0.126846
  21 H :    0.095062
  22 H :    0.093931
  23 H :    0.089968
  24 H :    0.101234
  25 H :    0.132588
  26 H :    0.129172
  27 H :    0.095036
  28 H :    0.197078
  29 H :    0.194006
  30 H :    0.148413
  31 H :    0.146554
  32 H :    0.158641
  33 H :    0.128797
  34 H :    0.240404
  35 H :    0.164054
Sum of atomic charges:   -0.0000000

LOEWDIN ATOMIC CHARGES
----------------------
   0 C :    0.103367
   1 C :   -0.009472
   2 O :    0.299087
   3 C :   -0.412381
   4 O :    0.103527
   5 C :   -0.093003
   6 C :   -0.059460
   7 C :    0.130736
   8 N :    0.406348
   9 C :   -0.456832
  10 S :   -0.036573
  11 N :    0.396473
  12 C :   -0.053044
  13 C :   -0.037848
  14 C :    0.013770
  15 C :    0.039191
  16 C :   -0.001834
  17 C :   -0.189407
  18 O :    0.394913
  19 C :    0.031554
  20 H :   -0.025313
  21 H :   -0.028681
  22 H :   -0.027865
  23 H :   -0.028042
  24 H :   -0.025157
  25 H :   -0.004651
  26 H :   -0.004630
  27 H :   -0.023606
  28 H :   -0.057777
  29 H :   -0.064763
  30 H :   -0.011684
  31 H :   -0.030954
  32 H :   -0.021779
  33 H :   -0.035927
  34 H :   -0.154230
  35 H :   -0.024054

  Mayer bond orders larger than 0.100000
B(  0-C ,  1-C ) :   0.9709 B(  0-C , 20-H ) :   0.9714 B(  0-C , 21-H ) :   0.9774
B(  0-C , 22-H ) :   0.9760 B(  1-C ,  2-O ) :   0.9020 B(  1-C , 23-H ) :   0.9773
B(  1-C , 24-H ) :   0.9835 B(  2-O ,  3-C ) :   1.1651 B(  3-C ,  4-O ) :   1.9621
B(  3-C ,  5-C ) :   1.0580 B(  5-C ,  6-C ) :   1.6568 B(  5-C , 12-C ) :   0.9741
B(  6-C ,  7-C ) :   0.9676 B(  6-C ,  8-N ) :   1.1640 B(  7-C , 25-H ) :   0.9604
B(  7-C , 26-H ) :   0.9605 B(  7-C , 27-H ) :   0.9909 B(  8-N ,  9-C ) :   1.1827
B(  8-N , 28-H ) :   0.9482 B(  9-C , 10-S ) :   1.6061 B(  9-C , 11-N ) :   1.3056
B( 11-N , 12-C ) :   0.9868 B( 11-N , 29-H ) :   0.9519 B( 12-C , 13-C ) :   0.9383
B( 12-C , 30-H ) :   1.0028 B( 13-C , 14-C ) :   1.3544 B( 13-C , 19-C ) :   1.3828
B( 14-C , 15-C ) :   1.3936 B( 14-C , 31-H ) :   0.9723 B( 15-C , 16-C ) :   1.3643
B( 15-C , 32-H ) :   0.9711 B( 16-C , 17-C ) :   1.3318 B( 16-C , 33-H ) :   0.9855
B( 17-C , 18-O ) :   1.1096 B( 17-C , 19-C ) :   1.3739 B( 18-O , 34-H ) :   0.9802
B( 19-C , 35-H ) :   0.9584

MP2 TOTAL ENERGY:    -1274.343240972 Eh
FINAL SINGLE POINT ENERGY     -1274.343240972437

DIPOLE MOMENT
-------------
                                X             Y             Z
Electronic contribution:      9.48319       9.34182      10.48918
Nuclear contribution   :    -10.54416     -11.07584     -10.92457
                        -----------------------------------------
Total Dipole Moment    :     -1.06097      -1.73402      -0.43540
                        -----------------------------------------
Magnitude (a.u.)       :      2.07896
Magnitude (Debye)      :      5.28429

Rotational constants in cm-1:     0.010744     0.008901     0.005992
Rotational constants in MHz :   322.111706   266.832031   179.629019

                             ****ORCA TERMINATED NORMALLY****
TOTAL RUN TIME: 0 days 1 hours 37 minutes 49 seconds 908 msec
