                         Program Version 4.2.0 -  RELEASE  -
|  1> ! ri-mp2 cc-pvtz cc-pvtz/c TightSCF  NoKeepInts
|  2>
|  3> %scf
|  4>   MaxCore 4096
|  5> end
|  6> *xyz  0  1
|  7>     C       15.5052478   13.7295562   16.2659414
|  8>     C       15.2473691   15.1911554   15.8407181
|  9>     O       16.4203305   16.0448037   15.8226515
| 10>     C       17.5348151   15.8634687   16.5961026
| 11>     O       18.1144602   14.7958015   16.7000179
| 12>     C       17.8443851   17.0241534   17.4971162
| 13>     C       17.4321847   18.3025728   17.2924127
| 14>     C       16.6257278   18.8481847   16.1316841
| 15>     N       17.8183938   19.3078540   18.1850707
| 16>     C       18.7111047   19.1458899   19.2113779
| 17>     S       19.1983289   20.4168724   20.1509016
| 18>     N       19.1785320   17.8733604   19.4201756
| 19>     C       18.6850595   16.6680461   18.7280096
| 20>     C       17.8906816   15.7853189   19.6874124
| 21>     C       18.2273905   14.4291108   19.8526032
| 22>     C       17.4912468   13.6087731   20.7237248
| 23>     C       16.4074364   14.1481748   21.4371267
| 24>     C       16.0660411   15.4973962   21.2726523
| 25>     O       15.0149730   16.0193528   21.9538662
| 26>     C       16.8000449   16.3111731   20.4040423
| 27>     H       16.2596599   13.2610188   15.6212111
| 28>     H       14.5828817   13.1421055   16.1855998
| 29>     H       15.8459484   13.6724031   17.3079155
| 30>     H       14.7865433   15.2013171   14.8446082
| 31>     H       14.5168440   15.6187781   16.5396519
| 32>     H       15.5785852   18.5296339   16.2029866
| 33>     H       17.0251133   18.4874211   15.1754131
| 34>     H       16.6367758   19.9440742   16.0881958
| 35>     H       17.4877384   20.2496378   18.0482606
| 36>     H       19.8125407   17.7749626   20.2026869
| 37>     H       19.5617960   16.1010001   18.3827113
| 38>     H       19.0533964   14.0048246   19.2866995
| 39>     H       17.7588560   12.5597759   20.8373686
| 40>     H       15.8351396   13.5176510   22.1093572
| 41>     H       14.6714184   15.3232586   22.5338340
| 42>     H       16.5200093   17.3531185   20.2938920
| 43> *
| 44>
| 45>                          ****END OF INPUT****

CARTESIAN COORDINATES (ANGSTROEM)
---------------------------------
  C     15.505248   13.729556   16.265941
  C     15.247369   15.191155   15.840718
  O     16.420330   16.044804   15.822651
  C     17.534815   15.863469   16.596103
  O     18.114460   14.795801   16.700018
  C     17.844385   17.024153   17.497116
  C     17.432185   18.302573   17.292413
  C     16.625728   18.848185   16.131684
  N     17.818394   19.307854   18.185071
  C     18.711105   19.145890   19.211378
  S     19.198329   20.416872   20.150902
  N     19.178532   17.873360   19.420176
  C     18.685060   16.668046   18.728010
  C     17.890682   15.785319   19.687412
  C     18.227390   14.429111   19.852603
  C     17.491247   13.608773   20.723725
  C     16.407436   14.148175   21.437127
  C     16.066041   15.497396   21.272652
  O     15.014973   16.019353   21.953866
  C     16.800045   16.311173   20.404042
  H     16.259660   13.261019   15.621211
  H     14.582882   13.142105   16.185600
  H     15.845948   13.672403   17.307916
  H     14.786543   15.201317   14.844608
  H     14.516844   15.618778   16.539652
  H     15.578585   18.529634   16.202987
  H     17.025113   18.487421   15.175413
  H     16.636776   19.944074   16.088196
  H     17.487738   20.249638   18.048261
  H     19.812541   17.774963   20.202687
  H     19.561796   16.101000   18.382711
  H     19.053396   14.004825   19.286700
  H     17.758856   12.559776   20.837369
  H     15.835140   13.517651   22.109357
  H     14.671418   15.323259   22.533834
  H     16.520009   17.353119   20.293892

 Total Charge           Charge          ....    0
 Multiplicity           Mult            ....    1
 Number of Electrons    NEL             ....  154
 Basis Dimension        Dim             ....  828

ORBITAL ENERGIES
----------------

  NO   OCC          E(Eh)            E(eV)
   0   2.0000     -91.888253     -2500.4065
   1   2.0000     -20.594068      -560.3931
   2   2.0000     -20.590949      -560.3082
   3   2.0000     -20.548847      -559.1625
   4   2.0000     -15.628204      -425.2651
   5   2.0000     -15.607174      -424.6928
   6   2.0000     -11.397201      -310.1336
   7   2.0000     -11.383281      -309.7548
   8   2.0000     -11.335254      -308.4479
   9   2.0000     -11.310132      -307.7643
  10   2.0000     -11.306990      -307.6788
  11   2.0000     -11.306115      -307.6550
  12   2.0000     -11.259301      -306.3811
  13   2.0000     -11.258896      -306.3701
  14   2.0000     -11.255719      -306.2837
  15   2.0000     -11.250256      -306.1350
  16   2.0000     -11.239914      -305.8536
  17   2.0000     -11.235904      -305.7445
  18   2.0000     -11.232786      -305.6597
  19   2.0000     -11.223958      -305.4194
  20   2.0000      -8.893324      -241.9996
  21   2.0000      -6.574902      -178.9122
  22   2.0000      -6.572894      -178.8575
  23   2.0000      -6.572309      -178.8416
  24   2.0000      -1.445087       -39.3228
  25   2.0000      -1.413826       -38.4722
  26   2.0000      -1.356302       -36.9068
  27   2.0000      -1.339278       -36.4436
  28   2.0000      -1.237188       -33.6656
  29   2.0000      -1.154289       -31.4098
  30   2.0000      -1.119586       -30.4655
  31   2.0000      -1.042706       -28.3735
  32   2.0000      -1.033483       -28.1225
  33   2.0000      -1.011818       -27.5330
  34   2.0000      -0.998143       -27.1609
  35   2.0000      -0.983349       -26.7583
  36   2.0000      -0.922413       -25.1001
  37   2.0000      -0.894336       -24.3361
  38   2.0000      -0.848631       -23.0924
  39   2.0000      -0.837319       -22.7846
  40   2.0000      -0.830337       -22.5946
  41   2.0000      -0.820578       -22.3291
  42   2.0000      -0.743417       -20.2294
  43   2.0000      -0.726902       -19.7800
  44   2.0000      -0.725267       -19.7355
  45   2.0000      -0.692043       -18.8314
  46   2.0000      -0.684397       -18.6234
  47   2.0000      -0.678314       -18.4579
  48   2.0000      -0.674133       -18.3441
  49   2.0000      -0.665925       -18.1207
  50   2.0000      -0.647484       -17.6189
  51   2.0000      -0.644737       -17.5442
  52   2.0000      -0.635329       -17.2882
  53   2.0000      -0.611516       -16.6402
  54   2.0000      -0.602611       -16.3979
  55   2.0000      -0.601040       -16.3551
  56   2.0000      -0.597593       -16.2613
  57   2.0000      -0.575428       -15.6582
  58   2.0000      -0.574071       -15.6213
  59   2.0000      -0.568260       -15.4631
  60   2.0000      -0.557323       -15.1655
  61   2.0000      -0.545781       -14.8515
  62   2.0000      -0.536962       -14.6115
  63   2.0000      -0.526172       -14.3179
  64   2.0000      -0.518265       -14.1027
  65   2.0000      -0.511087       -13.9074
  66   2.0000      -0.499077       -13.5806
  67   2.0000      -0.494635       -13.4597
  68   2.0000      -0.480081       -13.0637
  69   2.0000      -0.463434       -12.6107
  70   2.0000      -0.454586       -12.3699
  71   2.0000      -0.447830       -12.1861
  72   2.0000      -0.353828        -9.6281
  73   2.0000      -0.346203        -9.4207
  74   2.0000      -0.327502        -8.9118
  75   2.0000      -0.317304        -8.6343
  76   2.0000      -0.315147        -8.5756
  77   0.0000       0.074041         2.0147
  78   0.0000       0.108282         2.9465
  79   0.0000       0.121052         3.2940
  80   0.0000       0.133942         3.6447
  81   0.0000       0.138868         3.7788

MULLIKEN ATOMIC CHARGES
-----------------------
   0 C :   -0.289498
   1 C :    0.049332
   2 O :   -0.376380
   3 C :    0.445328
   4 O :   -0.406578
   5 C :   -0.177635
   6 C :    0.145548
   7 C :   -0.283857
   8 N :   -0.123586
   9 C :    0.201698
  10 S :   -0.439857
  11 N :   -0.201148
  12 C :    0.050042
  13 C :    0.050262
  14 C :   -0.171328
  15 C :   -0.134163
  16 C :   -0.280214
  17 C :    0.312036
  18 O :   -0.358628
  19 C :   -0.275627
  20 H :    0.113999
  21 H :    0.096870
  22 H :    0.112994
  23 H :    0.100035
  24 H :    0.083485
  25 H :    0.122604
  26 H :    0.129391
  27 H :    0.103660
  28 H :    0.196957
  29 H :    0.194349
  30 H :    0.154965
  31 H :    0.157128
  32 H :    0.161063
  33 H :    0.129649
  34 H :    0.240442
  35 H :    0.166660
Sum of atomic charges:   -0.0000000

LOEWDIN ATOMIC CHARGES
----------------------
   0 C :    0.104954
   1 C :   -0.012106
   2 O :    0.286585
   3 C :   -0.413401
   4 O :    0.123200
   5 C :   -0.093318
   6 C :   -0.068199
   7 C :    0.125072
   8 N :    0.404548
   9 C :   -0.458612
  10 S :   -0.036457
  11 N :    0.397590
  12 C :   -0.046418
  13 C :   -0.040277
  14 C :    0.021385
  15 C :    0.040246
  16 C :   -0.002620
  17 C :   -0.193226
  18 O :    0.393177
  19 C :    0.027781
  20 H :   -0.023167
  21 H :   -0.027324
  22 H :   -0.024573
  23 H :   -0.024720
  24 H :   -0.032942
  25 H :   -0.010650
  26 H :   -0.007130
  27 H :   -0.020676
  28 H :   -0.059053
  29 H :   -0.063839
  30 H :   -0.005180
  31 H :   -0.024764
  32 H :   -0.020796
  33 H :   -0.036030
  34 H :   -0.154507
  35 H :   -0.024553

  Mayer bond orders larger than 0.100000
B(  0-C ,  1-C ) :   0.9823 B(  0-C , 20-H ) :   0.9726 B(  0-C , 21-H ) :   0.9723
B(  0-C , 22-H ) :   0.9705 B(  1-C ,  2-O ) :   0.9040 B(  1-C , 23-H ) :   0.9789
B(  1-C , 24-H ) :   0.9744 B(  2-O ,  3-C ) :   1.0978 B(  3-C ,  4-O ) :   2.0196
B(  3-C ,  5-C ) :   1.0314 B(  5-C ,  6-C ) :   1.6600 B(  5-C , 12-C ) :   0.9633
B(  6-C ,  7-C ) :   0.9524 B(  6-C ,  8-N ) :   1.1430 B(  7-C , 25-H ) :   0.9656
B(  7-C , 26-H ) :   0.9663 B(  7-C , 27-H ) :   0.9905 B(  8-N ,  9-C ) :   1.1820
B(  8-N , 28-H ) :   0.9489 B(  9-C , 10-S ) :   1.6100 B(  9-C , 11-N ) :   1.3029
B( 11-N , 12-C ) :   0.9901 B( 11-N , 29-H ) :   0.9517 B( 12-C , 13-C ) :   0.9435
B( 12-C , 30-H ) :   0.9994 B( 13-C , 14-C ) :   1.3756 B( 13-C , 19-C ) :   1.3687
B( 14-C , 15-C ) :   1.3939 B( 14-C , 31-H ) :   0.9639 B( 15-C , 16-C ) :   1.3622
B( 15-C , 32-H ) :   0.9708 B( 16-C , 17-C ) :   1.3312 B( 16-C , 33-H ) :   0.9855
B( 17-C , 18-O ) :   1.1088 B( 17-C , 19-C ) :   1.3762 B( 18-O , 34-H ) :   0.9802
B( 19-C , 35-H ) :   0.9580

MP2 TOTAL ENERGY:    -1274.331517566 Eh
FINAL SINGLE POINT ENERGY     -1274.331517566354

DIPOLE MOMENT
-------------
                                X             Y             Z
Electronic contribution:      9.96152      10.43779       8.38015
Nuclear contribution   :    -11.56169     -11.65188      -9.19385
                        -----------------------------------------
Total Dipole Moment    :     -1.60017      -1.21409      -0.81370
                        -----------------------------------------
Magnitude (a.u.)       :      2.16718
Magnitude (Debye)      :      5.50853

Rotational constants in cm-1:     0.011420     0.009121     0.006251
Rotational constants in MHz :   342.374991   273.438067   187.390307

                             ****ORCA TERMINATED NORMALLY****
TOTAL RUN TIME: 0 days 2 hours 11 minutes 52 seconds 505 msec
