                         Program Version 5.0.0 -  RELEASE  -
|  1> ! ri-mp2 cc-pvtz cc-pvtz/c TightSCF NoKeepInts
|  2>
|  3> %scf
|  4>   MaxCore 4096
|  5> end
|  6> *xyz  0  1
|  7>     C       14.2779799   15.0399382   16.1844252
|  8>     C       15.7102236   14.6589123   15.7733892
|  9>     O       16.5134957   15.8474178   15.8814906
| 10>     C       17.6857129   15.7994838   16.5776974
| 11>     O       18.3294315   14.7684300   16.6847406
| 12>     C       17.8830343   16.9632733   17.5049205
| 13>     C       17.3255911   18.1904355   17.3353181
| 14>     C       16.4356333   18.6595214   16.2026294
| 15>     N       17.6191144   19.2171471   18.2386760
| 16>     C       18.5569109   19.1406280   19.2344356
| 17>     S       18.9299985   20.4437111   20.1822647
| 18>     N       19.1711811   17.9257260   19.4038436
| 19>     C       18.7878531   16.6822162   18.7093513
| 20>     C       18.1160290   15.7144611   19.6799846
| 21>     C       18.6189045   14.4113481   19.8501653
| 22>     C       17.9994443   13.5143931   20.7365580
| 23>     C       16.8658628   13.9226651   21.4597354
| 24>     C       16.3592620   15.2182896   21.2901124
| 25>     O       15.2603186   15.6131945   21.9812782
| 26>     C       16.9779891   16.1087915   20.4072176
| 27>     H       14.2576632   15.4046519   17.2192523
| 28>     H       13.6142431   14.1695088   16.1150722
| 29>     H       13.8828882   15.8266104   15.5298590
| 30>     H       16.0705406   13.8627768   16.4398942
| 31>     H       15.7278315   14.2826538   14.7423712
| 32>     H       16.8463169   18.3561304   15.2315051
| 33>     H       16.3247832   19.7503307   16.1763829
| 34>     H       15.4321582   18.2255691   16.2944585
| 35>     H       17.1791363   20.1169987   18.1304874
| 36>     H       19.8359093   17.8870994   20.1657986
| 37>     H       19.7086647   16.2121192   18.3347505
| 38>     H       19.4845631   14.0872055   19.2776520
| 39>     H       18.3950809   12.5072051   20.8544279
| 40>     H       16.3831518   13.2323855   22.1434265
| 41>     H       15.0084833   14.8829082   22.5661826
| 42>     H       16.5716152   17.1078628   20.2942457
| 43> *
| 44>
| 45>                          ****END OF INPUT****

CARTESIAN COORDINATES (ANGSTROEM)
---------------------------------
  C     14.277980   15.039938   16.184425
  C     15.710224   14.658912   15.773389
  O     16.513496   15.847418   15.881491
  C     17.685713   15.799484   16.577697
  O     18.329431   14.768430   16.684741
  C     17.883034   16.963273   17.504920
  C     17.325591   18.190435   17.335318
  C     16.435633   18.659521   16.202629
  N     17.619114   19.217147   18.238676
  C     18.556911   19.140628   19.234436
  S     18.929998   20.443711   20.182265
  N     19.171181   17.925726   19.403844
  C     18.787853   16.682216   18.709351
  C     18.116029   15.714461   19.679985
  C     18.618904   14.411348   19.850165
  C     17.999444   13.514393   20.736558
  C     16.865863   13.922665   21.459735
  C     16.359262   15.218290   21.290112
  O     15.260319   15.613195   21.981278
  C     16.977989   16.108791   20.407218
  H     14.257663   15.404652   17.219252
  H     13.614243   14.169509   16.115072
  H     13.882888   15.826610   15.529859
  H     16.070541   13.862777   16.439894
  H     15.727832   14.282654   14.742371
  H     16.846317   18.356130   15.231505
  H     16.324783   19.750331   16.176383
  H     15.432158   18.225569   16.294459
  H     17.179136   20.116999   18.130487
  H     19.835909   17.887099   20.165799
  H     19.708665   16.212119   18.334750
  H     19.484563   14.087205   19.277652
  H     18.395081   12.507205   20.854428
  H     16.383152   13.232385   22.143427
  H     15.008483   14.882908   22.566183
  H     16.571615   17.107863   20.294246

 Total Charge           Charge          ....    0
 Multiplicity           Mult            ....    1
 Number of Electrons    NEL             ....  154
 Basis Dimension        Dim             ....  828

ORBITAL ENERGIES
----------------

  NO   OCC          E(Eh)            E(eV)
   0   2.0000     -91.888260     -2500.4067
   1   2.0000     -20.597786      -560.4943
   2   2.0000     -20.593415      -560.3753
   3   2.0000     -20.548197      -559.1449
   4   2.0000     -15.628335      -425.2686
   5   2.0000     -15.607230      -424.6943
   6   2.0000     -11.395363      -310.0836
   7   2.0000     -11.383354      -309.7568
   8   2.0000     -11.335165      -308.4455
   9   2.0000     -11.309320      -307.7422
  10   2.0000     -11.306619      -307.6688
  11   2.0000     -11.299102      -307.4642
  12   2.0000     -11.260364      -306.4101
  13   2.0000     -11.259155      -306.3772
  14   2.0000     -11.255000      -306.2641
  15   2.0000     -11.249400      -306.1117
  16   2.0000     -11.239007      -305.8289
  17   2.0000     -11.235114      -305.7230
  18   2.0000     -11.232838      -305.6611
  19   2.0000     -11.232138      -305.6420
  20   2.0000      -8.893326      -241.9997
  21   2.0000      -6.574904      -178.9122
  22   2.0000      -6.572896      -178.8576
  23   2.0000      -6.572312      -178.8417
  24   2.0000      -1.453752       -39.5586
  25   2.0000      -1.413163       -38.4541
  26   2.0000      -1.357108       -36.9288
  27   2.0000      -1.339380       -36.4464
  28   2.0000      -1.237253       -33.6674
  29   2.0000      -1.153668       -31.3929
  30   2.0000      -1.120171       -30.4814
  31   2.0000      -1.044247       -28.4154
  32   2.0000      -1.036969       -28.2173
  33   2.0000      -1.011063       -27.5124
  34   2.0000      -0.998384       -27.1674
  35   2.0000      -0.983978       -26.7754
  36   2.0000      -0.921909       -25.0864
  37   2.0000      -0.889133       -24.1945
  38   2.0000      -0.847263       -23.0552
  39   2.0000      -0.836082       -22.7509
  40   2.0000      -0.829509       -22.5721
  41   2.0000      -0.817960       -22.2578
  42   2.0000      -0.760669       -20.6988
  43   2.0000      -0.736190       -20.0328
  44   2.0000      -0.726051       -19.7568
  45   2.0000      -0.692189       -18.8354
  46   2.0000      -0.684763       -18.6333
  47   2.0000      -0.679476       -18.4895
  48   2.0000      -0.676286       -18.4027
  49   2.0000      -0.660499       -17.9731
  50   2.0000      -0.650312       -17.6959
  51   2.0000      -0.644357       -17.5339
  52   2.0000      -0.635455       -17.2916
  53   2.0000      -0.602563       -16.3966
  54   2.0000      -0.601233       -16.3604
  55   2.0000      -0.596939       -16.2435
  56   2.0000      -0.592090       -16.1116
  57   2.0000      -0.581140       -15.8136
  58   2.0000      -0.574642       -15.6368
  59   2.0000      -0.566330       -15.4106
  60   2.0000      -0.559901       -15.2357
  61   2.0000      -0.558063       -15.1857
  62   2.0000      -0.540725       -14.7139
  63   2.0000      -0.520731       -14.1698
  64   2.0000      -0.518857       -14.1188
  65   2.0000      -0.511028       -13.9058
  66   2.0000      -0.500943       -13.6314
  67   2.0000      -0.496542       -13.5116
  68   2.0000      -0.481557       -13.1038
  69   2.0000      -0.462857       -12.5950
  70   2.0000      -0.457728       -12.4554
  71   2.0000      -0.457051       -12.4370
  72   2.0000      -0.354083        -9.6351
  73   2.0000      -0.345480        -9.4010
  74   2.0000      -0.327458        -8.9106
  75   2.0000      -0.316577        -8.6145
  76   2.0000      -0.314890        -8.5686
  77   0.0000       0.074863         2.0371
  78   0.0000       0.109264         2.9732
  79   0.0000       0.119845         3.2612
  80   0.0000       0.134792         3.6679
  81   0.0000       0.140153         3.8138

MULLIKEN ATOMIC CHARGES
-----------------------
   0 C :   -0.281982
   1 C :    0.039223
   2 O :   -0.351535
   3 C :    0.441641
   4 O :   -0.417076
   5 C :   -0.178076
   6 C :    0.141742
   7 C :   -0.286492
   8 N :   -0.123821
   9 C :    0.202800
  10 S :   -0.439759
  11 N :   -0.198611
  12 C :    0.043864
  13 C :    0.054055
  14 C :   -0.161446
  15 C :   -0.133422
  16 C :   -0.280072
  17 C :    0.311929
  18 O :   -0.359200
  19 C :   -0.276779
  20 H :    0.102614
  21 H :    0.103494
  22 H :    0.091448
  23 H :    0.105556
  24 H :    0.099039
  25 H :    0.126665
  26 H :    0.104687
  27 H :    0.125732
  28 H :    0.197009
  29 H :    0.193942
  30 H :    0.153871
  31 H :    0.153973
  32 H :    0.159879
  33 H :    0.128813
  34 H :    0.240458
  35 H :    0.165836
Sum of atomic charges:   -0.0000000

LOEWDIN ATOMIC CHARGES
----------------------
   0 C :    0.103905
   1 C :   -0.012764
   2 O :    0.303677
   3 C :   -0.415965
   4 O :    0.110428
   5 C :   -0.092500
   6 C :   -0.069101
   7 C :    0.125274
   8 N :    0.404529
   9 C :   -0.458291
  10 S :   -0.036289
  11 N :    0.397563
  12 C :   -0.046083
  13 C :   -0.039205
  14 C :    0.021945
  15 C :    0.041032
  16 C :   -0.002373
  17 C :   -0.193259
  18 O :    0.392983
  19 C :    0.027893
  20 H :   -0.025776
  21 H :   -0.023864
  22 H :   -0.030539
  23 H :   -0.025092
  24 H :   -0.029784
  25 H :   -0.008038
  26 H :   -0.020487
  27 H :   -0.010385
  28 H :   -0.059005
  29 H :   -0.063829
  30 H :   -0.004806
  31 H :   -0.025064
  32 H :   -0.020941
  33 H :   -0.036205
  34 H :   -0.154643
  35 H :   -0.024941

  Mayer bond orders larger than 0.100000
B(  0-C ,  1-C ) :   0.9703 B(  0-C , 20-H ) :   0.9755 B(  0-C , 21-H ) :   0.9782
B(  0-C , 22-H ) :   0.9784 B(  1-C ,  2-O ) :   0.8949 B(  1-C , 23-H ) :   0.9717
B(  1-C , 24-H ) :   0.9838 B(  2-O ,  3-C ) :   1.1395 B(  3-C ,  4-O ) :   2.0032
B(  3-C ,  5-C ) :   1.0391 B(  5-C ,  6-C ) :   1.6570 B(  5-C , 12-C ) :   0.9653
B(  6-C ,  7-C ) :   0.9547 B(  6-C ,  8-N ) :   1.1441 B(  7-C , 25-H ) :   0.9675
B(  7-C , 26-H ) :   0.9898 B(  7-C , 27-H ) :   0.9643 B(  8-N ,  9-C ) :   1.1813
B(  8-N , 28-H ) :   0.9491 B(  9-C , 10-S ) :   1.6102 B(  9-C , 11-N ) :   1.3029
B( 11-N , 12-C ) :   0.9916 B( 11-N , 29-H ) :   0.9519 B( 12-C , 13-C ) :   0.9459
B( 12-C , 30-H ) :   0.9988 B( 13-C , 14-C ) :   1.3762 B( 13-C , 19-C ) :   1.3685
B( 14-C , 15-C ) :   1.3941 B( 14-C , 31-H ) :   0.9647 B( 15-C , 16-C ) :   1.3630
B( 15-C , 32-H ) :   0.9712 B( 16-C , 17-C ) :   1.3317 B( 16-C , 33-H ) :   0.9857
B( 17-C , 18-O ) :   1.1084 B( 17-C , 19-C ) :   1.3769 B( 18-O , 34-H ) :   0.9803
B( 19-C , 35-H ) :   0.9584

MP2 TOTAL ENERGY:    -1274.340198298 Eh
FINAL SINGLE POINT ENERGY     -1274.340198297655

DIPOLE MOMENT
-------------
                                X             Y             Z
Electronic contribution:     11.76544       8.46000       8.58413
Nuclear contribution   :    -13.18279      -9.79515      -9.46177
                        -----------------------------------------
Total Dipole Moment    :     -1.41736      -1.33514      -0.87763
                        -----------------------------------------
Magnitude (a.u.)       :      2.13583
Magnitude (Debye)      :      5.42884

Rotational constants in cm-1:     0.010727     0.009248     0.006366
Rotational constants in MHz :   321.587625   277.262250   190.850963

                             ****ORCA TERMINATED NORMALLY****
TOTAL RUN TIME: 0 days 2 hours 5 minutes 36 seconds 300 msec
