                         Program Version 4.2.0 -  RELEASE  -
|  1> ! ri-mp2 cc-pvtz cc-pvtz/c TightSCF  NoKeepInts
|  2>
|  3> %scf
|  4>   MaxCore 4096
|  5> end
|  6> *xyz  0  1
|  7>     C       16.0126730   13.1108807   16.5694815
|  8>     C       15.6721740   14.6058645   16.6895873
|  9>     O       16.8587688   15.3512146   16.3693196
| 10>     C       16.7464308   16.7092107   16.3039748
| 11>     O       15.8440201   17.2284289   15.6705383
| 12>     C       17.5330627   17.4197545   17.3723478
| 13>     C       17.4902695   18.7680373   17.5285457
| 14>     C       16.6792447   19.7607770   16.7231217
| 15>     N       18.2911066   19.3877921   18.4926316
| 16>     C       19.2581844   18.7568161   19.2285483
| 17>     S       20.2552629   19.5835077   20.2572509
| 18>     N       19.3659181   17.4001119   19.0597481
| 19>     C       18.4245153   16.5664042   18.2909381
| 20>     C       17.6158254   15.7041561   19.2553951
| 21>     C       17.9368688   14.3449126   19.4279312
| 22>     C       17.1961096   13.5411899   20.3107294
| 23>     C       16.1293812   14.1026186   21.0327834
| 24>     C       15.8147643   15.4589774   20.8733906
| 25>     O       14.7876551   16.0051699   21.5713268
| 26>     C       16.5525769   16.2559207   19.9927488
| 27>     H       16.8192058   12.8374711   17.2595784
| 28>     H       16.3336702   12.8700127   15.5484220
| 29>     H       15.1352153   12.4976126   16.8073893
| 30>     H       14.8626278   14.8529334   15.9890364
| 31>     H       15.3345642   14.8368827   17.7086031
| 32>     H       15.6052060   19.5770217   16.8549285
| 33>     H       16.8985149   19.6614081   15.6523910
| 34>     H       16.8745833   20.8025125   17.0033193
| 35>     H       18.2292060   20.3847663   18.6244429
| 36>     H       20.0672161   16.9585026   19.6401988
| 37>     H       19.0199783   15.9012245   17.6495379
| 38>     H       18.7604073   13.9078060   18.8694295
| 39>     H       17.4505832   12.4898723   20.4346850
| 40>     H       15.5550886   13.4863098   21.7168301
| 41>     H       14.4385579   15.3206016   22.1618501
| 42>     H       16.2975632   17.3053165   19.8930188
| 43> *
| 44>
| 45>                          ****END OF INPUT****

CARTESIAN COORDINATES (ANGSTROEM)
---------------------------------
  C     16.012673   13.110881   16.569481
  C     15.672174   14.605864   16.689587
  O     16.858769   15.351215   16.369320
  C     16.746431   16.709211   16.303975
  O     15.844020   17.228429   15.670538
  C     17.533063   17.419754   17.372348
  C     17.490270   18.768037   17.528546
  C     16.679245   19.760777   16.723122
  N     18.291107   19.387792   18.492632
  C     19.258184   18.756816   19.228548
  S     20.255263   19.583508   20.257251
  N     19.365918   17.400112   19.059748
  C     18.424515   16.566404   18.290938
  C     17.615825   15.704156   19.255395
  C     17.936869   14.344913   19.427931
  C     17.196110   13.541190   20.310729
  C     16.129381   14.102619   21.032783
  C     15.814764   15.458977   20.873391
  O     14.787655   16.005170   21.571327
  C     16.552577   16.255921   19.992749
  H     16.819206   12.837471   17.259578
  H     16.333670   12.870013   15.548422
  H     15.135215   12.497613   16.807389
  H     14.862628   14.852933   15.989036
  H     15.334564   14.836883   17.708603
  H     15.605206   19.577022   16.854928
  H     16.898515   19.661408   15.652391
  H     16.874583   20.802512   17.003319
  H     18.229206   20.384766   18.624443
  H     20.067216   16.958503   19.640199
  H     19.019978   15.901224   17.649538
  H     18.760407   13.907806   18.869429
  H     17.450583   12.489872   20.434685
  H     15.555089   13.486310   21.716830
  H     14.438558   15.320602   22.161850
  H     16.297563   17.305316   19.893019

 Total Charge           Charge          ....    0
 Multiplicity           Mult            ....    1
 Number of Electrons    NEL             ....  154
 Basis Dimension        Dim             ....  828

ORBITAL ENERGIES
----------------

  NO   OCC          E(Eh)            E(eV)
   0   2.0000     -91.890122     -2500.4574
   1   2.0000     -20.600852      -560.5777
   2   2.0000     -20.588060      -560.2296
   3   2.0000     -20.545102      -559.0606
   4   2.0000     -15.630570      -425.3294
   5   2.0000     -15.609537      -424.7571
   6   2.0000     -11.392721      -310.0117
   7   2.0000     -11.385110      -309.8046
   8   2.0000     -11.337038      -308.4965
   9   2.0000     -11.318585      -307.9944
  10   2.0000     -11.311206      -307.7936
  11   2.0000     -11.292872      -307.2947
  12   2.0000     -11.263803      -306.5037
  13   2.0000     -11.260197      -306.4055
  14   2.0000     -11.259434      -306.3848
  15   2.0000     -11.253098      -306.2124
  16   2.0000     -11.247614      -306.0631
  17   2.0000     -11.242418      -305.9217
  18   2.0000     -11.242201      -305.9158
  19   2.0000     -11.225925      -305.4729
  20   2.0000      -8.895172      -242.0499
  21   2.0000      -6.576743      -178.9623
  22   2.0000      -6.574741      -178.9078
  23   2.0000      -6.574151      -178.8918
  24   2.0000      -1.449876       -39.4531
  25   2.0000      -1.420538       -38.6548
  26   2.0000      -1.352779       -36.8110
  27   2.0000      -1.341616       -36.5072
  28   2.0000      -1.240232       -33.7484
  29   2.0000      -1.161753       -31.6129
  30   2.0000      -1.121511       -30.5179
  31   2.0000      -1.045620       -28.4528
  32   2.0000      -1.035368       -28.1738
  33   2.0000      -1.019899       -27.7529
  34   2.0000      -0.997287       -27.1376
  35   2.0000      -0.985643       -26.8207
  36   2.0000      -0.924938       -25.1689
  37   2.0000      -0.881524       -23.9875
  38   2.0000      -0.848768       -23.0962
  39   2.0000      -0.841110       -22.8878
  40   2.0000      -0.837711       -22.7953
  41   2.0000      -0.824054       -22.4237
  42   2.0000      -0.762399       -20.7459
  43   2.0000      -0.735868       -20.0240
  44   2.0000      -0.723984       -19.7006
  45   2.0000      -0.700034       -19.0489
  46   2.0000      -0.689831       -18.7713
  47   2.0000      -0.678042       -18.4505
  48   2.0000      -0.674168       -18.3450
  49   2.0000      -0.658054       -17.9066
  50   2.0000      -0.647932       -17.6311
  51   2.0000      -0.644173       -17.5288
  52   2.0000      -0.635641       -17.2967
  53   2.0000      -0.613577       -16.6963
  54   2.0000      -0.611765       -16.6470
  55   2.0000      -0.603373       -16.4186
  56   2.0000      -0.600729       -16.3467
  57   2.0000      -0.581222       -15.8159
  58   2.0000      -0.572131       -15.5685
  59   2.0000      -0.566293       -15.4096
  60   2.0000      -0.554709       -15.0944
  61   2.0000      -0.539942       -14.6926
  62   2.0000      -0.535617       -14.5749
  63   2.0000      -0.528883       -14.3916
  64   2.0000      -0.518914       -14.1204
  65   2.0000      -0.515060       -14.0155
  66   2.0000      -0.506787       -13.7904
  67   2.0000      -0.501104       -13.6357
  68   2.0000      -0.486812       -13.2468
  69   2.0000      -0.465037       -12.6543
  70   2.0000      -0.457033       -12.4365
  71   2.0000      -0.444730       -12.1017
  72   2.0000      -0.356132        -9.6908
  73   2.0000      -0.353782        -9.6269
  74   2.0000      -0.330019        -8.9803
  75   2.0000      -0.325782        -8.8650
  76   2.0000      -0.317491        -8.6394
  77   0.0000       0.071066         1.9338
  78   0.0000       0.101837         2.7711
  79   0.0000       0.122828         3.3423
  80   0.0000       0.129042         3.5114
  81   0.0000       0.133523         3.6334

MULLIKEN ATOMIC CHARGES
-----------------------
   0 C :   -0.269060
   1 C :    0.014153
   2 O :   -0.375501
   3 C :    0.494888
   4 O :   -0.416440
   5 C :   -0.274589
   6 C :    0.160414
   7 C :   -0.269299
   8 N :   -0.123846
   9 C :    0.215505
  10 S :   -0.439417
  11 N :   -0.207359
  12 C :    0.065142
  13 C :    0.039324
  14 C :   -0.191005
  15 C :   -0.132204
  16 C :   -0.272164
  17 C :    0.311383
  18 O :   -0.356392
  19 C :   -0.253104
  20 H :    0.090270
  21 H :    0.103328
  22 H :    0.090305
  23 H :    0.127352
  24 H :    0.102414
  25 H :    0.132067
  26 H :    0.131181
  27 H :    0.095384
  28 H :    0.197889
  29 H :    0.194449
  30 H :    0.149637
  31 H :    0.156852
  32 H :    0.165377
  33 H :    0.133192
  34 H :    0.241590
  35 H :    0.168282
Sum of atomic charges:   -0.0000000

LOEWDIN ATOMIC CHARGES
----------------------
   0 C :    0.109080
   1 C :   -0.018840
   2 O :    0.294652
   3 C :   -0.416649
   4 O :    0.111079
   5 C :   -0.097816
   6 C :   -0.058242
   7 C :    0.131507
   8 N :    0.407184
   9 C :   -0.455521
  10 S :   -0.034436
  11 N :    0.396054
  12 C :   -0.052846
  13 C :   -0.037306
  14 C :    0.014603
  15 C :    0.043069
  16 C :   -0.001798
  17 C :   -0.190523
  18 O :    0.396560
  19 C :    0.030440
  20 H :   -0.032598
  21 H :   -0.026469
  22 H :   -0.025036
  23 H :   -0.028426
  24 H :   -0.032419
  25 H :   -0.004734
  26 H :   -0.003619
  27 H :   -0.023183
  28 H :   -0.057290
  29 H :   -0.065255
  30 H :   -0.008789
  31 H :   -0.030394
  32 H :   -0.020135
  33 H :   -0.034581
  34 H :   -0.152881
  35 H :   -0.024442

  Mayer bond orders larger than 0.100000
B(  0-C ,  1-C ) :   0.9766 B(  0-C , 20-H ) :   0.9760 B(  0-C , 21-H ) :   0.9783
B(  0-C , 22-H ) :   0.9769 B(  1-C ,  2-O ) :   0.8763 B(  1-C , 23-H ) :   0.9809
B(  1-C , 24-H ) :   0.9656 B(  2-O ,  3-C ) :   1.1238 B(  3-C ,  4-O ) :   2.0037
B(  3-C ,  5-C ) :   1.0641 B(  5-C ,  6-C ) :   1.6490 B(  5-C , 12-C ) :   0.9723
B(  6-C ,  7-C ) :   0.9665 B(  6-C ,  8-N ) :   1.1610 B(  7-C , 25-H ) :   0.9595
B(  7-C , 26-H ) :   0.9605 B(  7-C , 27-H ) :   0.9904 B(  8-N ,  9-C ) :   1.1825
B(  8-N , 28-H ) :   0.9477 B(  9-C , 10-S ) :   1.6059 B(  9-C , 11-N ) :   1.3070
B( 11-N , 12-C ) :   0.9709 B( 11-N , 29-H ) :   0.9525 B( 12-C , 13-C ) :   0.9437
B( 12-C , 30-H ) :   1.0007 B( 13-C , 14-C ) :   1.3491 B( 13-C , 19-C ) :   1.3743
B( 14-C , 15-C ) :   1.3853 B( 14-C , 31-H ) :   0.9716 B( 15-C , 16-C ) :   1.3657
B( 15-C , 32-H ) :   0.9687 B( 16-C , 17-C ) :   1.3283 B( 16-C , 33-H ) :   0.9839
B( 17-C , 18-O ) :   1.1140 B( 17-C , 19-C ) :   1.3730 B( 18-O , 34-H ) :   0.9791
B( 19-C , 35-H ) :   0.9582

MP2 TOTAL ENERGY:    -1274.338250202 Eh
FINAL SINGLE POINT ENERGY     -1274.338250201686

DIPOLE MOMENT
-------------
                                X             Y             Z
Electronic contribution:      8.68512      11.13516       5.90794
Nuclear contribution   :     -9.72378     -12.63887      -5.89799
                        -----------------------------------------
Total Dipole Moment    :     -1.03866      -1.50372       0.00995
                        -----------------------------------------
Magnitude (a.u.)       :      1.82759
Magnitude (Debye)      :      4.64536

Rotational constants in cm-1:     0.012650     0.008580     0.006443
Rotational constants in MHz :   379.231536   257.219218   193.159721

                             ****ORCA TERMINATED NORMALLY****
TOTAL RUN TIME: 0 days 1 hours 56 minutes 55 seconds 211 msec
