                         Program Version 5.0.0 -  RELEASE  -
|  1> ! ri-mp2 cc-pvtz cc-pvtz/c TightSCF NoKeepInts
|  2>
|  3> %scf
|  4>   MaxCore 4096
|  5> end
|  6> *xyz  0  1
|  7>     C       14.6868297   14.1397636   16.8102731
|  8>     C       15.5825343   15.3477232   17.1272775
|  9>     O       16.8177949   15.1568510   16.4138654
| 10>     C       17.7007751   16.1844039   16.2291350
| 11>     O       18.1331438   16.4295134   15.1187744
| 12>     C       17.8285386   17.1562533   17.3577484
| 13>     C       17.4560931   18.4460130   17.1991033
| 14>     C       16.7547926   19.0254667   15.9906816
| 15>     N       17.7410900   19.3850087   18.1926444
| 16>     C       18.5203891   19.1382348   19.2923912
| 17>     S       18.8833006   20.3221809   20.3880300
| 18>     N       18.9873103   17.8552107   19.4427819
| 19>     C       18.6181303   16.7031513   18.5950412
| 20>     C       17.9273943   15.6217645   19.4196207
| 21>     C       18.2235010   14.2652162   19.1883015
| 22>     C       17.5863412   13.2563057   19.9294577
| 23>     C       16.6479301   13.6046628   20.9153427
| 24>     C       16.3532533   14.9535474   21.1537418
| 25>     O       15.4412964   15.2929391   22.0986520
| 26>     C       16.9863344   15.9566871   20.4126673
| 27>     H       13.7133341   14.2404926   17.3051252
| 28>     H       15.1561408   13.2118756   17.1605901
| 29>     H       14.5180216   14.0557115   15.7292958
| 30>     H       15.0828741   16.2627969   16.7831748
| 31>     H       15.7320051   15.4175928   18.2068106
| 32>     H       15.9758808   18.3481166   15.6201473
| 33>     H       17.4714568   19.1731189   15.1717849
| 34>     H       16.2791241   19.9904845   16.2022924
| 35>     H       17.4301444   20.3376466   18.0852611
| 36>     H       19.5460832   17.7039845   20.2734515
| 37>     H       19.5589900   16.2710897   18.2244031
| 38>     H       18.9416362   13.9893517   18.4197707
| 39>     H       17.8195111   12.2102190   19.7368031
| 40>     H       16.1529985   12.8279008   21.4892942
| 41>     H       15.1567685   14.4770675   22.5379701
| 42>     H       16.7352576   16.9936535   20.6122943
| 43> *
| 44>
| 45>                          ****END OF INPUT****

CARTESIAN COORDINATES (ANGSTROEM)
---------------------------------
  C     14.686830   14.139764   16.810273
  C     15.582534   15.347723   17.127278
  O     16.817795   15.156851   16.413865
  C     17.700775   16.184404   16.229135
  O     18.133144   16.429513   15.118774
  C     17.828539   17.156253   17.357748
  C     17.456093   18.446013   17.199103
  C     16.754793   19.025467   15.990682
  N     17.741090   19.385009   18.192644
  C     18.520389   19.138235   19.292391
  S     18.883301   20.322181   20.388030
  N     18.987310   17.855211   19.442782
  C     18.618130   16.703151   18.595041
  C     17.927394   15.621764   19.419621
  C     18.223501   14.265216   19.188301
  C     17.586341   13.256306   19.929458
  C     16.647930   13.604663   20.915343
  C     16.353253   14.953547   21.153742
  O     15.441296   15.292939   22.098652
  C     16.986334   15.956687   20.412667
  H     13.713334   14.240493   17.305125
  H     15.156141   13.211876   17.160590
  H     14.518022   14.055711   15.729296
  H     15.082874   16.262797   16.783175
  H     15.732005   15.417593   18.206811
  H     15.975881   18.348117   15.620147
  H     17.471457   19.173119   15.171785
  H     16.279124   19.990485   16.202292
  H     17.430144   20.337647   18.085261
  H     19.546083   17.703984   20.273452
  H     19.558990   16.271090   18.224403
  H     18.941636   13.989352   18.419771
  H     17.819511   12.210219   19.736803
  H     16.152998   12.827901   21.489294
  H     15.156769   14.477067   22.537970
  H     16.735258   16.993653   20.612294

 Total Charge           Charge          ....    0
 Multiplicity           Mult            ....    1
 Number of Electrons    NEL             ....  154
 Basis Dimension        Dim             ....  828

ORBITAL ENERGIES
----------------

  NO   OCC          E(Eh)            E(eV)
   0   2.0000     -91.890439     -2500.4660
   1   2.0000     -20.603511      -560.6500
   2   2.0000     -20.592971      -560.3632
   3   2.0000     -20.555311      -559.3385
   4   2.0000     -15.626786      -425.2265
   5   2.0000     -15.612245      -424.8308
   6   2.0000     -11.395189      -310.0789
   7   2.0000     -11.386484      -309.8420
   8   2.0000     -11.328505      -308.2643
   9   2.0000     -11.321750      -308.0805
  10   2.0000     -11.319410      -308.0168
  11   2.0000     -11.298720      -307.4538
  12   2.0000     -11.268996      -306.6450
  13   2.0000     -11.263180      -306.4867
  14   2.0000     -11.259620      -306.3898
  15   2.0000     -11.258419      -306.3572
  16   2.0000     -11.251314      -306.1638
  17   2.0000     -11.246400      -306.0301
  18   2.0000     -11.246295      -306.0272
  19   2.0000     -11.229903      -305.5812
  20   2.0000      -8.895533      -242.0598
  21   2.0000      -6.577117      -178.9724
  22   2.0000      -6.575097      -178.9175
  23   2.0000      -6.574518      -178.9017
  24   2.0000      -1.448971       -39.4285
  25   2.0000      -1.423344       -38.7312
  26   2.0000      -1.360305       -37.0158
  27   2.0000      -1.339817       -36.4583
  28   2.0000      -1.240494       -33.7556
  29   2.0000      -1.165294       -31.7093
  30   2.0000      -1.124540       -30.6003
  31   2.0000      -1.050361       -28.5818
  32   2.0000      -1.037205       -28.2238
  33   2.0000      -1.023725       -27.8570
  34   2.0000      -1.002653       -27.2836
  35   2.0000      -0.988942       -26.9105
  36   2.0000      -0.928522       -25.2664
  37   2.0000      -0.877567       -23.8798
  38   2.0000      -0.853367       -23.2213
  39   2.0000      -0.843987       -22.9660
  40   2.0000      -0.841686       -22.9034
  41   2.0000      -0.838485       -22.8163
  42   2.0000      -0.759401       -20.6643
  43   2.0000      -0.737810       -20.0768
  44   2.0000      -0.732005       -19.9189
  45   2.0000      -0.702351       -19.1119
  46   2.0000      -0.691865       -18.8266
  47   2.0000      -0.682212       -18.5639
  48   2.0000      -0.677520       -18.4363
  49   2.0000      -0.663925       -18.0663
  50   2.0000      -0.652553       -17.7569
  51   2.0000      -0.651406       -17.7257
  52   2.0000      -0.638615       -17.3776
  53   2.0000      -0.613819       -16.7029
  54   2.0000      -0.608038       -16.5456
  55   2.0000      -0.604672       -16.4540
  56   2.0000      -0.598278       -16.2800
  57   2.0000      -0.581759       -15.8305
  58   2.0000      -0.577934       -15.7264
  59   2.0000      -0.567643       -15.4464
  60   2.0000      -0.559867       -15.2347
  61   2.0000      -0.555711       -15.1217
  62   2.0000      -0.548405       -14.9229
  63   2.0000      -0.530220       -14.4280
  64   2.0000      -0.520786       -14.1713
  65   2.0000      -0.517405       -14.0793
  66   2.0000      -0.508080       -13.8256
  67   2.0000      -0.504410       -13.7257
  68   2.0000      -0.485197       -13.2029
  69   2.0000      -0.469360       -12.7719
  70   2.0000      -0.455059       -12.3828
  71   2.0000      -0.452851       -12.3227
  72   2.0000      -0.356906        -9.7119
  73   2.0000      -0.353945        -9.6313
  74   2.0000      -0.330659        -8.9977
  75   2.0000      -0.329132        -8.9561
  76   2.0000      -0.318800        -8.6750
  77   0.0000       0.084580         2.3015
  78   0.0000       0.099548         2.7088
  79   0.0000       0.118890         3.2351
  80   0.0000       0.126725         3.4484
  81   0.0000       0.127417         3.4672

MULLIKEN ATOMIC CHARGES
-----------------------
   0 C :   -0.261686
   1 C :    0.018752
   2 O :   -0.316099
   3 C :    0.376225
   4 O :   -0.363213
   5 C :   -0.190528
   6 C :    0.149872
   7 C :   -0.290659
   8 N :   -0.131883
   9 C :    0.208967
  10 S :   -0.438995
  11 N :   -0.224237
  12 C :    0.047718
  13 C :    0.017356
  14 C :   -0.181003
  15 C :   -0.144494
  16 C :   -0.270181
  17 C :    0.307030
  18 O :   -0.354600
  19 C :   -0.249517
  20 H :    0.087882
  21 H :    0.099602
  22 H :    0.105602
  23 H :    0.091365
  24 H :    0.114719
  25 H :    0.116176
  26 H :    0.146186
  27 H :    0.098708
  28 H :    0.196661
  29 H :    0.200452
  30 H :    0.162802
  31 H :    0.149981
  32 H :    0.165818
  33 H :    0.134988
  34 H :    0.241497
  35 H :    0.178738
Sum of atomic charges:   -0.0000000

LOEWDIN ATOMIC CHARGES
----------------------
   0 C :    0.112166
   1 C :   -0.023713
   2 O :    0.303046
   3 C :   -0.419871
   4 O :    0.135193
   5 C :   -0.087455
   6 C :   -0.087144
   7 C :    0.129891
   8 N :    0.403808
   9 C :   -0.455723
  10 S :   -0.036165
  11 N :    0.396547
  12 C :   -0.052044
  13 C :   -0.044295
  14 C :    0.017981
  15 C :    0.045064
  16 C :    0.000492
  17 C :   -0.193189
  18 O :    0.397344
  19 C :    0.028626
  20 H :   -0.025504
  21 H :   -0.026213
  22 H :   -0.024551
  23 H :   -0.036366
  24 H :   -0.037045
  25 H :   -0.012419
  26 H :   -0.002739
  27 H :   -0.020238
  28 H :   -0.058584
  29 H :   -0.064708
  30 H :   -0.008211
  31 H :   -0.027309
  32 H :   -0.018282
  33 H :   -0.033659
  34 H :   -0.152298
  35 H :   -0.022433

  Mayer bond orders larger than 0.100000
B(  0-C ,  1-C ) :   0.9833 B(  0-C , 20-H ) :   0.9766 B(  0-C , 21-H ) :   0.9783
B(  0-C , 22-H ) :   0.9784 B(  1-C ,  2-O ) :   0.8953 B(  1-C , 23-H ) :   0.9777
B(  1-C , 24-H ) :   0.9597 B(  2-O ,  3-C ) :   1.1823 B(  3-C ,  4-O ) :   2.1283
B(  3-C ,  5-C ) :   0.9048 B(  5-C ,  6-C ) :   1.7195 B(  5-C , 12-C ) :   0.9609
B(  6-C ,  7-C ) :   0.9442 B(  6-C ,  8-N ) :   1.1241 B(  7-C , 25-H ) :   0.9756
B(  7-C , 26-H ) :   0.9599 B(  7-C , 27-H ) :   0.9857 B(  8-N ,  9-C ) :   1.1990
B(  8-N , 28-H ) :   0.9500 B(  9-C , 10-S ) :   1.6108 B(  9-C , 11-N ) :   1.2829
B( 11-N , 12-C ) :   0.9884 B( 11-N , 29-H ) :   0.9474 B( 12-C , 13-C ) :   0.9372
B( 12-C , 30-H ) :   1.0078 B( 13-C , 14-C ) :   1.3791 B( 13-C , 19-C ) :   1.3513
B( 14-C , 15-C ) :   1.3966 B( 14-C , 31-H ) :   0.9723 B( 15-C , 16-C ) :   1.3612
B( 15-C , 32-H ) :   0.9692 B( 16-C , 17-C ) :   1.3301 B( 16-C , 33-H ) :   0.9833
B( 17-C , 18-O ) :   1.1125 B( 17-C , 19-C ) :   1.3665 B( 18-O , 34-H ) :   0.9788
B( 19-C , 35-H ) :   0.9578

MP2 TOTAL ENERGY:    -1274.327149321 Eh
FINAL SINGLE POINT ENERGY     -1274.327149320820

DIPOLE MOMENT
-------------
                                X             Y             Z
Electronic contribution:     10.96680       8.86683       6.59073
Nuclear contribution   :    -12.35923     -10.40255      -6.43237
                        -----------------------------------------
Total Dipole Moment    :     -1.39243      -1.53572       0.15836
                        -----------------------------------------
Magnitude (a.u.)       :      2.07903
Magnitude (Debye)      :      5.28448

Rotational constants in cm-1:     0.012042     0.009217     0.006256
Rotational constants in MHz :   361.021495   276.332271   187.538170

                             ****ORCA TERMINATED NORMALLY****
TOTAL RUN TIME: 0 days 2 hours 9 minutes 46 seconds 717 msec
