                         Program Version 4.2.0 -  RELEASE  -
|  1> ! ri-mp2 cc-pvtz cc-pvtz/c TightSCF  NoKeepInts
|  2>
|  3> %scf
|  4>   MaxCore 4096
|  5> end
|  6> *xyz  0  1
|  7>     C       14.8945465   14.6944878   17.4265147
|  8>     C       15.6022628   15.4783042   16.3094496
|  9>     O       16.9582871   14.9973494   16.2339400
| 10>     C       18.1045929   15.7252494   16.4425817
| 11>     O       19.1715912   15.1471889   16.3514574
| 12>     C       17.9857359   16.8896153   17.3704837
| 13>     C       17.5105560   18.0882228   16.9591300
| 14>     C       17.0176597   18.4460369   15.5722376
| 15>     N       17.5400262   19.1844581   17.8235422
| 16>     C       18.1692587   19.1972787   19.0410552
| 17>     S       18.2395113   20.5649690   19.9676293
| 18>     N       18.7430718   18.0185923   19.4504090
| 19>     C       18.6171020   16.7215327   18.7544304
| 20>     C       17.8598686   15.6983213   19.5972630
| 21>     C       18.2218954   14.3398378   19.5364589
| 22>     C       17.5381624   13.3794811   20.3001400
| 23>     C       16.4821008   13.7790964   21.1361544
| 24>     C       16.1149518   15.1298873   21.1988608
| 25>     O       15.0871407   15.5169362   21.9952569
| 26>     C       16.7942223   16.0840206   20.4339956
| 27>     H       15.3659869   14.8844897   18.3954338
| 28>     H       14.9407245   13.6159534   17.2302188
| 29>     H       13.8398881   14.9865486   17.4967114
| 30>     H       15.0938798   15.2911482   15.3547053
| 31>     H       15.5306524   16.5452928   16.5310782
| 32>     H       17.1299986   17.6202809   14.8592890
| 33>     H       17.5885490   19.2910837   15.1658678
| 34>     H       15.9591739   18.7338202   15.5895569
| 35>     H       17.1461218   20.0651071   17.5313686
| 36>     H       19.1916033   18.0541075   20.3571681
| 37>     H       19.6352554   16.3324265   18.6041680
| 38>     H       19.0328493   14.0252767   18.8823783
| 39>     H       17.8271187   12.3316219   20.2385933
| 40>     H       15.9509726   13.0400342   21.7268034
| 41>     H       14.7786834   14.7324792   22.4734868
| 42>     H       16.4829981   17.1214631   20.4961817
| 43> *
| 44>
| 45>                          ****END OF INPUT****

CARTESIAN COORDINATES (ANGSTROEM)
---------------------------------
  C     14.894547   14.694488   17.426515
  C     15.602263   15.478304   16.309450
  O     16.958287   14.997349   16.233940
  C     18.104593   15.725249   16.442582
  O     19.171591   15.147189   16.351457
  C     17.985736   16.889615   17.370484
  C     17.510556   18.088223   16.959130
  C     17.017660   18.446037   15.572238
  N     17.540026   19.184458   17.823542
  C     18.169259   19.197279   19.041055
  S     18.239511   20.564969   19.967629
  N     18.743072   18.018592   19.450409
  C     18.617102   16.721533   18.754430
  C     17.859869   15.698321   19.597263
  C     18.221895   14.339838   19.536459
  C     17.538162   13.379481   20.300140
  C     16.482101   13.779096   21.136154
  C     16.114952   15.129887   21.198861
  O     15.087141   15.516936   21.995257
  C     16.794222   16.084021   20.433996
  H     15.365987   14.884490   18.395434
  H     14.940724   13.615953   17.230219
  H     13.839888   14.986549   17.496711
  H     15.093880   15.291148   15.354705
  H     15.530652   16.545293   16.531078
  H     17.129999   17.620281   14.859289
  H     17.588549   19.291084   15.165868
  H     15.959174   18.733820   15.589557
  H     17.146122   20.065107   17.531369
  H     19.191603   18.054108   20.357168
  H     19.635255   16.332427   18.604168
  H     19.032849   14.025277   18.882378
  H     17.827119   12.331622   20.238593
  H     15.950973   13.040034   21.726803
  H     14.778683   14.732479   22.473487
  H     16.482998   17.121463   20.496182

 Total Charge           Charge          ....    0
 Multiplicity           Mult            ....    1
 Number of Electrons    NEL             ....  154
 Basis Dimension        Dim             ....  828

ORBITAL ENERGIES
----------------

  NO   OCC          E(Eh)            E(eV)
   0   2.0000     -91.889816     -2500.4490
   1   2.0000     -20.602765      -560.6297
   2   2.0000     -20.598324      -560.5089
   3   2.0000     -20.551707      -559.2404
   4   2.0000     -15.626340      -425.2143
   5   2.0000     -15.611493      -424.8103
   6   2.0000     -11.399620      -310.1994
   7   2.0000     -11.386507      -309.8426
   8   2.0000     -11.328790      -308.2720
   9   2.0000     -11.315835      -307.9195
  10   2.0000     -11.315407      -307.9079
  11   2.0000     -11.304715      -307.6169
  12   2.0000     -11.272152      -306.7309
  13   2.0000     -11.267508      -306.6045
  14   2.0000     -11.263385      -306.4923
  15   2.0000     -11.255808      -306.2861
  16   2.0000     -11.244544      -305.9796
  17   2.0000     -11.240684      -305.8746
  18   2.0000     -11.237470      -305.7871
  19   2.0000     -11.225885      -305.4719
  20   2.0000      -8.894928      -242.0433
  21   2.0000      -6.576520      -178.9562
  22   2.0000      -6.574490      -178.9010
  23   2.0000      -6.573918      -178.8854
  24   2.0000      -1.450263       -39.4637
  25   2.0000      -1.418148       -38.5898
  26   2.0000      -1.360181       -37.0124
  27   2.0000      -1.340258       -36.4703
  28   2.0000      -1.239941       -33.7405
  29   2.0000      -1.160017       -31.5657
  30   2.0000      -1.125803       -30.6347
  31   2.0000      -1.048718       -28.5371
  32   2.0000      -1.038790       -28.2669
  33   2.0000      -1.018199       -27.7066
  34   2.0000      -1.005392       -27.3581
  35   2.0000      -0.989573       -26.9276
  36   2.0000      -0.927942       -25.2506
  37   2.0000      -0.886265       -24.1165
  38   2.0000      -0.854944       -23.2642
  39   2.0000      -0.841441       -22.8968
  40   2.0000      -0.835397       -22.7323
  41   2.0000      -0.834183       -22.6993
  42   2.0000      -0.756762       -20.5926
  43   2.0000      -0.739769       -20.1301
  44   2.0000      -0.730772       -19.8853
  45   2.0000      -0.696391       -18.9498
  46   2.0000      -0.689212       -18.7544
  47   2.0000      -0.683010       -18.5856
  48   2.0000      -0.676028       -18.3957
  49   2.0000      -0.663244       -18.0478
  50   2.0000      -0.653755       -17.7896
  51   2.0000      -0.640663       -17.4333
  52   2.0000      -0.636908       -17.3312
  53   2.0000      -0.618834       -16.8393
  54   2.0000      -0.611602       -16.6425
  55   2.0000      -0.606498       -16.5037
  56   2.0000      -0.602148       -16.3853
  57   2.0000      -0.588713       -16.0197
  58   2.0000      -0.577370       -15.7110
  59   2.0000      -0.568253       -15.4630
  60   2.0000      -0.563357       -15.3297
  61   2.0000      -0.557419       -15.1681
  62   2.0000      -0.539042       -14.6681
  63   2.0000      -0.534381       -14.5413
  64   2.0000      -0.518106       -14.0984
  65   2.0000      -0.512959       -13.9583
  66   2.0000      -0.504019       -13.7151
  67   2.0000      -0.501836       -13.6557
  68   2.0000      -0.485152       -13.2017
  69   2.0000      -0.469283       -12.7698
  70   2.0000      -0.453904       -12.3514
  71   2.0000      -0.449515       -12.2319
  72   2.0000      -0.358068        -9.7435
  73   2.0000      -0.350535        -9.5385
  74   2.0000      -0.329523        -8.9668
  75   2.0000      -0.323572        -8.8048
  76   2.0000      -0.318488        -8.6665
  77   0.0000       0.089098         2.4245
  78   0.0000       0.105172         2.8619
  79   0.0000       0.109461         2.9786
  80   0.0000       0.128685         3.5017
  81   0.0000       0.130443         3.5495

MULLIKEN ATOMIC CHARGES
-----------------------
   0 C :   -0.267307
   1 C :    0.015963
   2 O :   -0.310898
   3 C :    0.394595
   4 O :   -0.379384
   5 C :   -0.160922
   6 C :    0.118744
   7 C :   -0.321129
   8 N :   -0.136474
   9 C :    0.205468
  10 S :   -0.441647
  11 N :   -0.227001
  12 C :    0.066412
  13 C :    0.008482
  14 C :   -0.194800
  15 C :   -0.141129
  16 C :   -0.264887
  17 C :    0.302517
  18 O :   -0.359786
  19 C :   -0.246091
  20 H :    0.109581
  21 H :    0.103879
  22 H :    0.091722
  23 H :    0.113650
  24 H :    0.087002
  25 H :    0.120266
  26 H :    0.141202
  27 H :    0.120704
  28 H :    0.195271
  29 H :    0.202458
  30 H :    0.169408
  31 H :    0.171015
  32 H :    0.163773
  33 H :    0.132288
  34 H :    0.240853
  35 H :    0.176202
Sum of atomic charges:   -0.0000000

LOEWDIN ATOMIC CHARGES
----------------------
   0 C :    0.110500
   1 C :   -0.023310
   2 O :    0.315785
   3 C :   -0.418861
   4 O :    0.126393
   5 C :   -0.078273
   6 C :   -0.109307
   7 C :    0.122219
   8 N :    0.401034
   9 C :   -0.456693
  10 S :   -0.038528
  11 N :    0.398092
  12 C :   -0.042058
  13 C :   -0.042770
  14 C :    0.022148
  15 C :    0.045778
  16 C :   -0.001275
  17 C :   -0.193715
  18 O :    0.395967
  19 C :    0.024565
  20 H :   -0.025914
  21 H :   -0.024486
  22 H :   -0.027190
  23 H :   -0.028618
  24 H :   -0.039817
  25 H :   -0.009705
  26 H :   -0.008639
  27 H :   -0.017071
  28 H :   -0.058218
  29 H :   -0.063602
  30 H :   -0.001460
  31 H :   -0.021623
  32 H :   -0.018399
  33 H :   -0.034978
  34 H :   -0.153242
  35 H :   -0.024731

  Mayer bond orders larger than 0.100000
B(  0-C ,  1-C ) :   0.9776 B(  0-C , 20-H ) :   0.9702 B(  0-C , 21-H ) :   0.9801
B(  0-C , 22-H ) :   0.9763 B(  1-C ,  2-O ) :   0.9179 B(  1-C , 23-H ) :   0.9819
B(  1-C , 24-H ) :   0.9626 B(  2-O ,  3-C ) :   1.1506 B(  3-C ,  4-O ) :   2.0842
B(  3-C ,  5-C ) :   0.9190 B(  5-C ,  6-C ) :   1.7021 B(  5-C , 12-C ) :   0.9586
B(  6-C ,  7-C ) :   0.9456 B(  6-C ,  8-N ) :   1.1058 B(  7-C , 25-H ) :   0.9818
B(  7-C , 26-H ) :   0.9689 B(  7-C , 27-H ) :   0.9671 B(  8-N ,  9-C ) :   1.1987
B(  8-N , 28-H ) :   0.9528 B(  9-C , 10-S ) :   1.6079 B(  9-C , 11-N ) :   1.2871
B( 11-N , 12-C ) :   0.9836 B( 11-N , 29-H ) :   0.9472 B( 12-C , 13-C ) :   0.9496
B( 12-C , 30-H ) :   0.9954 B( 13-C , 14-C ) :   1.3897 B( 13-C , 19-C ) :   1.3493
B( 14-C , 15-C ) :   1.3997 B( 14-C , 31-H ) :   0.9600 B( 15-C , 16-C ) :   1.3568
B( 15-C , 32-H ) :   0.9701 B( 16-C , 17-C ) :   1.3346 B( 16-C , 33-H ) :   0.9849
B( 17-C , 18-O ) :   1.1093 B( 17-C , 19-C ) :   1.3662 B( 18-O , 34-H ) :   0.9796
B( 19-C , 35-H ) :   0.9576

MP2 TOTAL ENERGY:    -1274.327453238 Eh
FINAL SINGLE POINT ENERGY     -1274.327453237620

DIPOLE MOMENT
-------------
                                X             Y             Z
Electronic contribution:      9.88003       7.66759       6.37628
Nuclear contribution   :    -11.45315      -8.67972      -7.07301
                        -----------------------------------------
Total Dipole Moment    :     -1.57312      -1.01213      -0.69673
                        -----------------------------------------
Magnitude (a.u.)       :      1.99613
Magnitude (Debye)      :      5.07377

Rotational constants in cm-1:     0.012002     0.009379     0.006712
Rotational constants in MHz :   359.809855   281.161505   201.215456

                             ****ORCA TERMINATED NORMALLY****
TOTAL RUN TIME: 0 days 1 hours 51 minutes 5 seconds 488 msec
