                         Program Version 4.2.0 -  RELEASE  -
|  1> ! ri-mp2 cc-pvtz cc-pvtz/c TightSCF  NoKeepInts
|  2>
|  3> %scf
|  4>   MaxCore 4096
|  5> end
|  6> *xyz  0  1
|  7>     C       15.1239333   14.0393448   15.4337358
|  8>     C       15.9475913   14.0962671   16.7382712
|  9>     O       16.9762225   15.1093171   16.6916955
| 10>     C       16.6982315   16.4455878   16.5724932
| 11>     O       15.7315611   16.8737809   15.9677719
| 12>     C       17.5304571   17.2810529   17.5082076
| 13>     C       17.4303430   18.6341938   17.5592108
| 14>     C       16.5213929   19.5195506   16.7333324
| 15>     N       18.2528431   19.3669874   18.4201555
| 16>     C       19.2659621   18.8394178   19.1749879
| 17>     S       20.2574724   19.7900948   20.0964296
| 18>     N       19.4209320   17.4778504   19.1248761
| 19>     C       18.5119077   16.5438996   18.4361164
| 20>     C       17.7884886   15.6807505   19.4664623
| 21>     C       18.1006155   14.3141822   19.5955359
| 22>     C       17.4307897   13.5134250   20.5358602
| 23>     C       16.4433338   14.0842032   21.3568595
| 24>     C       16.1346929   15.4460892   21.2356950
| 25>     O       15.1831311   16.0004276   22.0281773
| 26>     C       16.8020993   16.2400942   20.2980792
| 27>     H       14.3931392   14.8552226   15.3823301
| 28>     H       14.5660537   13.0969638   15.3785770
| 29>     H       15.7790669   14.1002158   14.5559254
| 30>     H       15.2788466   14.2784245   17.5902591
| 31>     H       16.4271301   13.1217052   16.8951270
| 32>     H       15.4687485   19.3081879   16.9614317
| 33>     H       16.6673663   19.3318851   15.6619976
| 34>     H       16.6906680   20.5888256   16.9059210
| 35>     H       18.1541789   20.3684646   18.4687624
| 36>     H       20.1529012   17.1148856   19.7217562
| 37>     H       19.1320618   15.8884276   17.8085490
| 38>     H       18.8612769   13.8698667   18.9590828
| 39>     H       17.6787571   12.4573405   20.6278074
| 40>     H       15.9242551   13.4705088   22.0858220
| 41>     H       14.8677549   15.3113502   22.6319806
| 42>     H       16.5527939   17.2932089   20.2247175
| 43> *
| 44>
| 45>                          ****END OF INPUT****

CARTESIAN COORDINATES (ANGSTROEM)
---------------------------------
  C     15.123933   14.039345   15.433736
  C     15.947591   14.096267   16.738271
  O     16.976222   15.109317   16.691696
  C     16.698231   16.445588   16.572493
  O     15.731561   16.873781   15.967772
  C     17.530457   17.281053   17.508208
  C     17.430343   18.634194   17.559211
  C     16.521393   19.519551   16.733332
  N     18.252843   19.366987   18.420155
  C     19.265962   18.839418   19.174988
  S     20.257472   19.790095   20.096430
  N     19.420932   17.477850   19.124876
  C     18.511908   16.543900   18.436116
  C     17.788489   15.680750   19.466462
  C     18.100615   14.314182   19.595536
  C     17.430790   13.513425   20.535860
  C     16.443334   14.084203   21.356859
  C     16.134693   15.446089   21.235695
  O     15.183131   16.000428   22.028177
  C     16.802099   16.240094   20.298079
  H     14.393139   14.855223   15.382330
  H     14.566054   13.096964   15.378577
  H     15.779067   14.100216   14.555925
  H     15.278847   14.278424   17.590259
  H     16.427130   13.121705   16.895127
  H     15.468749   19.308188   16.961432
  H     16.667366   19.331885   15.661998
  H     16.690668   20.588826   16.905921
  H     18.154179   20.368465   18.468762
  H     20.152901   17.114886   19.721756
  H     19.132062   15.888428   17.808549
  H     18.861277   13.869867   18.959083
  H     17.678757   12.457341   20.627807
  H     15.924255   13.470509   22.085822
  H     14.867755   15.311350   22.631981
  H     16.552794   17.293209   20.224718

 Total Charge           Charge          ....    0
 Multiplicity           Mult            ....    1
 Number of Electrons    NEL             ....  154
 Basis Dimension        Dim             ....  828

ORBITAL ENERGIES
----------------

  NO   OCC          E(Eh)            E(eV)
   0   2.0000     -91.888732     -2500.4195
   1   2.0000     -20.597841      -560.4957
   2   2.0000     -20.593539      -560.3787
   3   2.0000     -20.543950      -559.0293
   4   2.0000     -15.628854      -425.2827
   5   2.0000     -15.608079      -424.7174
   6   2.0000     -11.396245      -310.1076
   7   2.0000     -11.383792      -309.7687
   8   2.0000     -11.335370      -308.4511
   9   2.0000     -11.315201      -307.9023
  10   2.0000     -11.308994      -307.7334
  11   2.0000     -11.299558      -307.4766
  12   2.0000     -11.260772      -306.4212
  13   2.0000     -11.258445      -306.3579
  14   2.0000     -11.256629      -306.3084
  15   2.0000     -11.252166      -306.1870
  16   2.0000     -11.244189      -305.9699
  17   2.0000     -11.239397      -305.8395
  18   2.0000     -11.239131      -305.8323
  19   2.0000     -11.218162      -305.2617
  20   2.0000      -8.893798      -242.0126
  21   2.0000      -6.575374      -178.9250
  22   2.0000      -6.573369      -178.8705
  23   2.0000      -6.572782      -178.8545
  24   2.0000      -1.446343       -39.3570
  25   2.0000      -1.417489       -38.5718
  26   2.0000      -1.354954       -36.8702
  27   2.0000      -1.339924       -36.4612
  28   2.0000      -1.238467       -33.7004
  29   2.0000      -1.158460       -31.5233
  30   2.0000      -1.119875       -30.4734
  31   2.0000      -1.043061       -28.3831
  32   2.0000      -1.033530       -28.1238
  33   2.0000      -1.016292       -27.6547
  34   2.0000      -0.995027       -27.0761
  35   2.0000      -0.983495       -26.7623
  36   2.0000      -0.922735       -25.1089
  37   2.0000      -0.891591       -24.2614
  38   2.0000      -0.847410       -23.0592
  39   2.0000      -0.838837       -22.8259
  40   2.0000      -0.835076       -22.7236
  41   2.0000      -0.820674       -22.3317
  42   2.0000      -0.750786       -20.4299
  43   2.0000      -0.731911       -19.9163
  44   2.0000      -0.720278       -19.5998
  45   2.0000      -0.696637       -18.9565
  46   2.0000      -0.688560       -18.7367
  47   2.0000      -0.680010       -18.5040
  48   2.0000      -0.669249       -18.2112
  49   2.0000      -0.655881       -17.8474
  50   2.0000      -0.649678       -17.6786
  51   2.0000      -0.645692       -17.5702
  52   2.0000      -0.634358       -17.2618
  53   2.0000      -0.608170       -16.5491
  54   2.0000      -0.601955       -16.3800
  55   2.0000      -0.599353       -16.3092
  56   2.0000      -0.596236       -16.2244
  57   2.0000      -0.582483       -15.8502
  58   2.0000      -0.575438       -15.6585
  59   2.0000      -0.570820       -15.5328
  60   2.0000      -0.563188       -15.3251
  61   2.0000      -0.538772       -14.6607
  62   2.0000      -0.534836       -14.5536
  63   2.0000      -0.525653       -14.3038
  64   2.0000      -0.518857       -14.1188
  65   2.0000      -0.512930       -13.9575
  66   2.0000      -0.501306       -13.6412
  67   2.0000      -0.498758       -13.5719
  68   2.0000      -0.484734       -13.1903
  69   2.0000      -0.463808       -12.6209
  70   2.0000      -0.455891       -12.4054
  71   2.0000      -0.440011       -11.9733
  72   2.0000      -0.353806        -9.6276
  73   2.0000      -0.350467        -9.5367
  74   2.0000      -0.328287        -8.9331
  75   2.0000      -0.322642        -8.7795
  76   2.0000      -0.316063        -8.6005
  77   0.0000       0.074436         2.0255
  78   0.0000       0.105207         2.8628
  79   0.0000       0.124641         3.3917
  80   0.0000       0.131893         3.5890
  81   0.0000       0.137444         3.7400

MULLIKEN ATOMIC CHARGES
-----------------------
   0 C :   -0.284148
   1 C :    0.046098
   2 O :   -0.374643
   3 C :    0.463971
   4 O :   -0.425536
   5 C :   -0.220455
   6 C :    0.153859
   7 C :   -0.272137
   8 N :   -0.121649
   9 C :    0.213282
  10 S :   -0.440770
  11 N :   -0.206278
  12 C :    0.065934
  13 C :    0.051219
  14 C :   -0.182492
  15 C :   -0.130471
  16 C :   -0.281218
  17 C :    0.314545
  18 O :   -0.355998
  19 C :   -0.265209
  20 H :    0.120539
  21 H :    0.091849
  22 H :    0.095149
  23 H :    0.095494
  24 H :    0.101194
  25 H :    0.132254
  26 H :    0.129608
  27 H :    0.095407
  28 H :    0.197260
  29 H :    0.194770
  30 H :    0.149288
  31 H :    0.149571
  32 H :    0.161369
  33 H :    0.131242
  34 H :    0.240947
  35 H :    0.166154
Sum of atomic charges:   -0.0000000

LOEWDIN ATOMIC CHARGES
----------------------
   0 C :    0.103890
   1 C :   -0.013997
   2 O :    0.294178
   3 C :   -0.412748
   4 O :    0.111457
   5 C :   -0.095225
   6 C :   -0.059429
   7 C :    0.130916
   8 N :    0.406510
   9 C :   -0.456313
  10 S :   -0.035977
  11 N :    0.396208
  12 C :   -0.052355
  13 C :   -0.037631
  14 C :    0.014615
  15 C :    0.039009
  16 C :   -0.002734
  17 C :   -0.189903
  18 O :    0.395644
  19 C :    0.030663
  20 H :   -0.027311
  21 H :   -0.030508
  22 H :   -0.026279
  23 H :   -0.028576
  24 H :   -0.024671
  25 H :   -0.004860
  26 H :   -0.004302
  27 H :   -0.023366
  28 H :   -0.057631
  29 H :   -0.064783
  30 H :   -0.010472
  31 H :   -0.030064
  32 H :   -0.021155
  33 H :   -0.035480
  34 H :   -0.153668
  35 H :   -0.023651

  Mayer bond orders larger than 0.100000
B(  0-C ,  1-C ) :   0.9792 B(  0-C , 20-H ) :   0.9720 B(  0-C , 21-H ) :   0.9781
B(  0-C , 22-H ) :   0.9760 B(  1-C ,  2-O ) :   0.8886 B(  1-C , 23-H ) :   0.9713
B(  1-C , 24-H ) :   0.9825 B(  2-O ,  3-C ) :   1.1202 B(  3-C ,  4-O ) :   1.9788
B(  3-C ,  5-C ) :   1.0697 B(  5-C ,  6-C ) :   1.6534 B(  5-C , 12-C ) :   0.9728
B(  6-C ,  7-C ) :   0.9669 B(  6-C ,  8-N ) :   1.1614 B(  7-C , 25-H ) :   0.9594
B(  7-C , 26-H ) :   0.9613 B(  7-C , 27-H ) :   0.9908 B(  8-N ,  9-C ) :   1.1832
B(  8-N , 28-H ) :   0.9478 B(  9-C , 10-S ) :   1.6059 B(  9-C , 11-N ) :   1.3063
B( 11-N , 12-C ) :   0.9818 B( 11-N , 29-H ) :   0.9516 B( 12-C , 13-C ) :   0.9356
B( 12-C , 30-H ) :   1.0019 B( 13-C , 14-C ) :   1.3556 B( 13-C , 19-C ) :   1.3844
B( 14-C , 15-C ) :   1.3913 B( 14-C , 31-H ) :   0.9733 B( 15-C , 16-C ) :   1.3637
B( 15-C , 32-H ) :   0.9705 B( 16-C , 17-C ) :   1.3307 B( 16-C , 33-H ) :   0.9846
B( 17-C , 18-O ) :   1.1115 B( 17-C , 19-C ) :   1.3710 B( 18-O , 34-H ) :   0.9796
B( 19-C , 35-H ) :   0.9580

MP2 TOTAL ENERGY:    -1274.338829382 Eh
FINAL SINGLE POINT ENERGY     -1274.338829382016

DIPOLE MOMENT
-------------
                                X             Y             Z
Electronic contribution:     10.41256       9.92743       8.65738
Nuclear contribution   :    -11.43924     -11.59798      -8.87013
                        -----------------------------------------
Total Dipole Moment    :     -1.02668      -1.67055      -0.21275
                        -----------------------------------------
Magnitude (a.u.)       :      1.97233
Magnitude (Debye)      :      5.01325

Rotational constants in cm-1:     0.011812     0.008698     0.006145
Rotational constants in MHz :   354.129025   260.770733   184.216177

                             ****ORCA TERMINATED NORMALLY****
TOTAL RUN TIME: 0 days 1 hours 46 minutes 58 seconds 479 msec
