                         Program Version 5.0.0 -  RELEASE  -
|  1> ! ri-mp2 cc-pvtz cc-pvtz/c TightSCF NoKeepInts
|  2>
|  3> %scf
|  4>   MaxCore 4096
|  5> end
|  6> *xyz  0  1
|  7>     C       14.2782093   15.2125631   16.5975834
|  8>     C       15.7090002   14.6917863   16.3828824
|  9>     O       16.5167142   15.8095936   15.9779948
| 10>     C       17.7887637   15.8748476   16.4623111
| 11>     O       18.4794145   14.8724760   16.5432181
| 12>     C       17.9511995   17.0129659   17.4219514
| 13>     C       17.3724567   18.2277180   17.2524569
| 14>     C       16.5220103   18.6836143   16.0853425
| 15>     N       17.5982744   19.2418353   18.1878555
| 16>     C       18.4737848   19.1555659   19.2386389
| 17>     S       18.7566943   20.4384332   20.2434582
| 18>     N       19.1040961   17.9490141   19.4153321
| 19>     C       18.8102081   16.7195850   18.6544496
| 20>     C       18.1250916   15.6881531   19.5465265
| 21>     C       18.6810538   14.4066021   19.7138370
| 22>     C       18.0409564   13.4477596   20.5168578
| 23>     C       16.8326235   13.7714694   21.1571468
| 24>     C       16.2732840   15.0453918   20.9892413
| 25>     O       15.1011404   15.3579053   21.5970643
| 26>     C       16.9130027   15.9977717   20.1900683
| 27>     H       14.2603294   15.9789241   17.3826610
| 28>     H       13.6142570   14.3947064   16.9029207
| 29>     H       13.8822644   15.6503271   15.6728850
| 30>     H       16.0751262   14.2654405   17.3282069
| 31>     H       15.7309970   13.9069577   15.6155289
| 32>     H       16.9254107   18.3110648   15.1354563
| 33>     H       16.4718314   19.7763357   16.0052408
| 34>     H       15.4966342   18.3059020   16.1837656
| 35>     H       17.1453050   20.1348424   18.0755397
| 36>     H       19.7204238   17.9042398   20.2166626
| 37>     H       19.7659568   16.3010264   18.3072486
| 38>     H       19.6046448   14.1471421   19.2021181
| 39>     H       18.4786814   12.4579192   20.6336857
| 40>     H       16.3337070   13.0327479   21.7755822
| 41>     H       14.8491079   14.6009284   22.1471507
| 42>     H       16.4643443   16.9784445   20.0751303
| 43> *
| 44>
| 45>                          ****END OF INPUT****

CARTESIAN COORDINATES (ANGSTROEM)
---------------------------------
  C     14.278209   15.212563   16.597583
  C     15.709000   14.691786   16.382882
  O     16.516714   15.809594   15.977995
  C     17.788764   15.874848   16.462311
  O     18.479415   14.872476   16.543218
  C     17.951200   17.012966   17.421951
  C     17.372457   18.227718   17.252457
  C     16.522010   18.683614   16.085342
  N     17.598274   19.241835   18.187856
  C     18.473785   19.155566   19.238639
  S     18.756694   20.438433   20.243458
  N     19.104096   17.949014   19.415332
  C     18.810208   16.719585   18.654450
  C     18.125092   15.688153   19.546526
  C     18.681054   14.406602   19.713837
  C     18.040956   13.447760   20.516858
  C     16.832624   13.771469   21.157147
  C     16.273284   15.045392   20.989241
  O     15.101140   15.357905   21.597064
  C     16.913003   15.997772   20.190068
  H     14.260329   15.978924   17.382661
  H     13.614257   14.394706   16.902921
  H     13.882264   15.650327   15.672885
  H     16.075126   14.265440   17.328207
  H     15.730997   13.906958   15.615529
  H     16.925411   18.311065   15.135456
  H     16.471831   19.776336   16.005241
  H     15.496634   18.305902   16.183766
  H     17.145305   20.134842   18.075540
  H     19.720424   17.904240   20.216663
  H     19.765957   16.301026   18.307249
  H     19.604645   14.147142   19.202118
  H     18.478681   12.457919   20.633686
  H     16.333707   13.032748   21.775582
  H     14.849108   14.600928   22.147151
  H     16.464344   16.978444   20.075130

 Total Charge           Charge          ....    0
 Multiplicity           Mult            ....    1
 Number of Electrons    NEL             ....  154
 Basis Dimension        Dim             ....  828

ORBITAL ENERGIES
----------------

  NO   OCC          E(Eh)            E(eV)
   0   2.0000     -91.888472     -2500.4124
   1   2.0000     -20.596500      -560.4592
   2   2.0000     -20.588271      -560.2353
   3   2.0000     -20.553604      -559.2920
   4   2.0000     -15.627786      -425.2537
   5   2.0000     -15.608259      -424.7223
   6   2.0000     -11.393961      -310.0455
   7   2.0000     -11.384052      -309.7758
   8   2.0000     -11.332091      -308.3619
   9   2.0000     -11.312652      -307.8329
  10   2.0000     -11.308826      -307.7288
  11   2.0000     -11.297907      -307.4317
  12   2.0000     -11.259693      -306.3918
  13   2.0000     -11.259467      -306.3857
  14   2.0000     -11.257952      -306.3445
  15   2.0000     -11.252740      -306.2026
  16   2.0000     -11.242385      -305.9209
  17   2.0000     -11.238191      -305.8067
  18   2.0000     -11.235522      -305.7341
  19   2.0000     -11.231696      -305.6300
  20   2.0000      -8.893551      -242.0058
  21   2.0000      -6.575131      -178.9184
  22   2.0000      -6.573120      -178.8637
  23   2.0000      -6.572537      -178.8478
  24   2.0000      -1.453856       -39.5614
  25   2.0000      -1.416256       -38.5383
  26   2.0000      -1.356576       -36.9143
  27   2.0000      -1.339094       -36.4386
  28   2.0000      -1.237600       -33.6768
  29   2.0000      -1.156725       -31.4761
  30   2.0000      -1.121386       -30.5145
  31   2.0000      -1.045161       -28.4403
  32   2.0000      -1.035826       -28.1863
  33   2.0000      -1.014099       -27.5950
  34   2.0000      -0.999266       -27.1914
  35   2.0000      -0.984921       -26.8011
  36   2.0000      -0.923356       -25.1258
  37   2.0000      -0.884786       -24.0763
  38   2.0000      -0.847506       -23.0618
  39   2.0000      -0.838217       -22.8090
  40   2.0000      -0.832682       -22.6584
  41   2.0000      -0.822131       -22.3713
  42   2.0000      -0.758175       -20.6310
  43   2.0000      -0.736109       -20.0305
  44   2.0000      -0.728298       -19.8180
  45   2.0000      -0.694573       -18.9003
  46   2.0000      -0.685040       -18.6409
  47   2.0000      -0.681081       -18.5332
  48   2.0000      -0.676582       -18.4107
  49   2.0000      -0.658599       -17.9214
  50   2.0000      -0.652835       -17.7646
  51   2.0000      -0.644615       -17.5409
  52   2.0000      -0.636428       -17.3181
  53   2.0000      -0.605291       -16.4708
  54   2.0000      -0.603315       -16.4170
  55   2.0000      -0.600184       -16.3318
  56   2.0000      -0.599388       -16.3102
  57   2.0000      -0.577098       -15.7036
  58   2.0000      -0.575175       -15.6513
  59   2.0000      -0.567822       -15.4512
  60   2.0000      -0.559101       -15.2139
  61   2.0000      -0.553175       -15.0527
  62   2.0000      -0.543806       -14.7977
  63   2.0000      -0.521870       -14.2008
  64   2.0000      -0.513534       -13.9740
  65   2.0000      -0.510685       -13.8964
  66   2.0000      -0.505123       -13.7451
  67   2.0000      -0.498386       -13.5618
  68   2.0000      -0.483128       -13.1466
  69   2.0000      -0.464798       -12.6478
  70   2.0000      -0.456925       -12.4336
  71   2.0000      -0.455353       -12.3908
  72   2.0000      -0.353601        -9.6220
  73   2.0000      -0.348404        -9.4806
  74   2.0000      -0.327866        -8.9217
  75   2.0000      -0.319777        -8.7016
  76   2.0000      -0.315289        -8.5794
  77   0.0000       0.072757         1.9798
  78   0.0000       0.104348         2.8395
  79   0.0000       0.118700         3.2300
  80   0.0000       0.131685         3.5833
  81   0.0000       0.138011         3.7555

MULLIKEN ATOMIC CHARGES
-----------------------
   0 C :   -0.285207
   1 C :    0.049558
   2 O :   -0.366443
   3 C :    0.433212
   4 O :   -0.400491
   5 C :   -0.182318
   6 C :    0.136840
   7 C :   -0.283284
   8 N :   -0.125886
   9 C :    0.205698
  10 S :   -0.440809
  11 N :   -0.201792
  12 C :    0.059572
  13 C :    0.039623
  14 C :   -0.154845
  15 C :   -0.133250
  16 C :   -0.281432
  17 C :    0.313607
  18 O :   -0.359405
  19 C :   -0.283292
  20 H :    0.097888
  21 H :    0.103920
  22 H :    0.096419
  23 H :    0.099699
  24 H :    0.105139
  25 H :    0.123361
  26 H :    0.105651
  27 H :    0.125652
  28 H :    0.197070
  29 H :    0.194391
  30 H :    0.154385
  31 H :    0.154729
  32 H :    0.160999
  33 H :    0.130873
  34 H :    0.241152
  35 H :    0.169015
Sum of atomic charges:   -0.0000000

LOEWDIN ATOMIC CHARGES
----------------------
   0 C :    0.105984
   1 C :   -0.014752
   2 O :    0.295246
   3 C :   -0.417988
   4 O :    0.124257
   5 C :   -0.093312
   6 C :   -0.075954
   7 C :    0.126334
   8 N :    0.403828
   9 C :   -0.456872
  10 S :   -0.037046
  11 N :    0.397009
  12 C :   -0.045213
  13 C :   -0.040814
  14 C :    0.021679
  15 C :    0.041798
  16 C :   -0.002273
  17 C :   -0.194227
  18 O :    0.393453
  19 C :    0.028045
  20 H :   -0.028042
  21 H :   -0.023129
  22 H :   -0.028942
  23 H :   -0.024867
  24 H :   -0.029133
  25 H :   -0.008179
  26 H :   -0.019499
  27 H :   -0.010399
  28 H :   -0.058841
  29 H :   -0.064141
  30 H :   -0.004827
  31 H :   -0.024749
  32 H :   -0.020237
  33 H :   -0.035569
  34 H :   -0.153990
  35 H :   -0.024638

  Mayer bond orders larger than 0.100000
B(  0-C ,  1-C ) :   0.9702 B(  0-C , 20-H ) :   0.9762 B(  0-C , 21-H ) :   0.9786
B(  0-C , 22-H ) :   0.9769 B(  1-C ,  2-O ) :   0.8955 B(  1-C , 23-H ) :   0.9685
B(  1-C , 24-H ) :   0.9851 B(  2-O ,  3-C ) :   1.1005 B(  3-C ,  4-O ) :   2.0251
B(  3-C ,  5-C ) :   1.0265 B(  5-C ,  6-C ) :   1.6690 B(  5-C , 12-C ) :   0.9655
B(  6-C ,  7-C ) :   0.9527 B(  6-C ,  8-N ) :   1.1382 B(  7-C , 25-H ) :   0.9708
B(  7-C , 26-H ) :   0.9881 B(  7-C , 27-H ) :   0.9629 B(  8-N ,  9-C ) :   1.1858
B(  8-N , 28-H ) :   0.9499 B(  9-C , 10-S ) :   1.6093 B(  9-C , 11-N ) :   1.2999
B( 11-N , 12-C ) :   0.9931 B( 11-N , 29-H ) :   0.9516 B( 12-C , 13-C ) :   0.9431
B( 12-C , 30-H ) :   0.9979 B( 13-C , 14-C ) :   1.3768 B( 13-C , 19-C ) :   1.3694
B( 14-C , 15-C ) :   1.3939 B( 14-C , 31-H ) :   0.9647 B( 15-C , 16-C ) :   1.3638
B( 15-C , 32-H ) :   0.9710 B( 16-C , 17-C ) :   1.3303 B( 16-C , 33-H ) :   0.9850
B( 17-C , 18-O ) :   1.1090 B( 17-C , 19-C ) :   1.3736 B( 18-O , 34-H ) :   0.9799
B( 19-C , 35-H ) :   0.9577

MP2 TOTAL ENERGY:    -1274.328618155 Eh
FINAL SINGLE POINT ENERGY     -1274.328618155203

DIPOLE MOMENT
-------------
                                X             Y             Z
Electronic contribution:     11.54659       8.07600       7.06597
Nuclear contribution   :    -12.84500      -9.40486      -7.72039
                        -----------------------------------------
Total Dipole Moment    :     -1.29841      -1.32886      -0.65442
                        -----------------------------------------
Magnitude (a.u.)       :      1.96978
Magnitude (Debye)      :      5.00677

Rotational constants in cm-1:     0.011619     0.009155     0.006752
Rotational constants in MHz :   348.314392   274.469403   202.425234

                             ****ORCA TERMINATED NORMALLY****
TOTAL RUN TIME: 0 days 1 hours 50 minutes 11 seconds 642 msec
