                         Program Version 5.0.0 -  RELEASE  -
|  1> ! ri-mp2 cc-pvtz cc-pvtz/c TightSCF NoKeepInts
|  2>
|  3> %scf
|  4>   MaxCore 4096
|  5> end
|  6> *xyz  0  1
|  7>     C       14.5153742   14.4541857   15.9645007
|  8>     C       15.7937026   14.8181296   15.1894673
|  9>     O       16.3966083   15.9455689   15.8513652
| 10>     C       17.4552274   15.7636637   16.6949609
| 11>     O       18.0288115   14.6922306   16.8061971
| 12>     C       17.7736743   16.9417874   17.5729110
| 13>     C       17.2935758   18.2028408   17.4043172
| 14>     C       16.3591913   18.7154271   16.3271890
| 15>     N       17.7175996   19.2264721   18.2587952
| 16>     C       18.7148929   19.1089202   19.1903427
| 17>     S       19.2469842   20.4066470   20.0669739
| 18>     N       19.2489527   17.8569284   19.3574023
| 19>     C       18.7216680   16.6276208   18.7365509
| 20>     C       18.0347180   15.7535424   19.7829312
| 21>     C       18.4265119   14.4136896   19.9602587
| 22>     C       17.7954752   13.6031983   20.9188091
| 23>     C       16.7625030   14.1360231   21.7085079
| 24>     C       16.3665051   15.4688172   21.5327785
| 25>     O       15.3650508   15.9845112   22.2894602
| 26>     C       16.9962388   16.2729374   20.5776451
| 27>     H       14.7617821   14.1414651   16.9873234
| 28>     H       13.9892120   13.6274815   15.4720025
| 29>     H       13.8347766   15.3128638   16.0182410
| 30>     H       16.4713592   13.9559089   15.1247348
| 31>     H       15.5166993   15.1056445   14.1671539
| 32>     H       16.7414107   18.4662449   15.3294834
| 33>     H       16.2301742   19.8040263   16.3595805
| 34>     H       15.3643625   18.2644990   16.4315864
| 35>     H       17.3374863   20.1532742   18.1520133
| 36>     H       19.9604198   17.7889828   20.0736956
| 37>     H       19.5773666   16.0691253   18.3302507
| 38>     H       19.2131017   13.9939235   19.3379210
| 39>     H       18.1038953   12.5665248   21.0410811
| 40>     H       16.2710833   13.5130210   22.4482638
| 41>     H       15.0845143   15.2933923   22.9078217
| 42>     H       16.6760906   17.3024808   20.4614828
| 43> *
| 44>
| 45>                          ****END OF INPUT****

CARTESIAN COORDINATES (ANGSTROEM)
---------------------------------
  C     14.515374   14.454186   15.964501
  C     15.793703   14.818130   15.189467
  O     16.396608   15.945569   15.851365
  C     17.455227   15.763664   16.694961
  O     18.028811   14.692231   16.806197
  C     17.773674   16.941787   17.572911
  C     17.293576   18.202841   17.404317
  C     16.359191   18.715427   16.327189
  N     17.717600   19.226472   18.258795
  C     18.714893   19.108920   19.190343
  S     19.246984   20.406647   20.066974
  N     19.248953   17.856928   19.357402
  C     18.721668   16.627621   18.736551
  C     18.034718   15.753542   19.782931
  C     18.426512   14.413690   19.960259
  C     17.795475   13.603198   20.918809
  C     16.762503   14.136023   21.708508
  C     16.366505   15.468817   21.532778
  O     15.365051   15.984511   22.289460
  C     16.996239   16.272937   20.577645
  H     14.761782   14.141465   16.987323
  H     13.989212   13.627482   15.472003
  H     13.834777   15.312864   16.018241
  H     16.471359   13.955909   15.124735
  H     15.516699   15.105644   14.167154
  H     16.741411   18.466245   15.329483
  H     16.230174   19.804026   16.359580
  H     15.364362   18.264499   16.431586
  H     17.337486   20.153274   18.152013
  H     19.960420   17.788983   20.073696
  H     19.577367   16.069125   18.330251
  H     19.213102   13.993923   19.337921
  H     18.103895   12.566525   21.041081
  H     16.271083   13.513021   22.448264
  H     15.084514   15.293392   22.907822
  H     16.676091   17.302481   20.461483

 Total Charge           Charge          ....    0
 Multiplicity           Mult            ....    1
 Number of Electrons    NEL             ....  154
 Basis Dimension        Dim             ....  828

ORBITAL ENERGIES
----------------

  NO   OCC          E(Eh)            E(eV)
   0   2.0000     -91.888110     -2500.4026
   1   2.0000     -20.604380      -560.6737
   2   2.0000     -20.591318      -560.3182
   3   2.0000     -20.544819      -559.0529
   4   2.0000     -15.628615      -425.2762
   5   2.0000     -15.606616      -424.6776
   6   2.0000     -11.396645      -310.1185
   7   2.0000     -11.382895      -309.7443
   8   2.0000     -11.337054      -308.4969
   9   2.0000     -11.307118      -307.6823
  10   2.0000     -11.305170      -307.6293
  11   2.0000     -11.298758      -307.4548
  12   2.0000     -11.260803      -306.4220
  13   2.0000     -11.258949      -306.3716
  14   2.0000     -11.253016      -306.2101
  15   2.0000     -11.247213      -306.0522
  16   2.0000     -11.236902      -305.7716
  17   2.0000     -11.233050      -305.6668
  18   2.0000     -11.230158      -305.5881
  19   2.0000     -11.229930      -305.5819
  20   2.0000      -8.893170      -241.9955
  21   2.0000      -6.574746      -178.9079
  22   2.0000      -6.572741      -178.8534
  23   2.0000      -6.572154      -178.8374
  24   2.0000      -1.453975       -39.5647
  25   2.0000      -1.411058       -38.3968
  26   2.0000      -1.357375       -36.9361
  27   2.0000      -1.339491       -36.4494
  28   2.0000      -1.236986       -33.6601
  29   2.0000      -1.151792       -31.3418
  30   2.0000      -1.119355       -30.4592
  31   2.0000      -1.043099       -28.3842
  32   2.0000      -1.035757       -28.1844
  33   2.0000      -1.009133       -27.4599
  34   2.0000      -0.997545       -27.1446
  35   2.0000      -0.983023       -26.7494
  36   2.0000      -0.921066       -25.0635
  37   2.0000      -0.892605       -24.2890
  38   2.0000      -0.847433       -23.0598
  39   2.0000      -0.834795       -22.7159
  40   2.0000      -0.827438       -22.5157
  41   2.0000      -0.815304       -22.1856
  42   2.0000      -0.759185       -20.6585
  43   2.0000      -0.736251       -20.0344
  44   2.0000      -0.724516       -19.7151
  45   2.0000      -0.690783       -18.7972
  46   2.0000      -0.685381       -18.6502
  47   2.0000      -0.679409       -18.4876
  48   2.0000      -0.671153       -18.2630
  49   2.0000      -0.656650       -17.8684
  50   2.0000      -0.648934       -17.6584
  51   2.0000      -0.644231       -17.5304
  52   2.0000      -0.632129       -17.2011
  53   2.0000      -0.607479       -16.5303
  54   2.0000      -0.599943       -16.3253
  55   2.0000      -0.598559       -16.2876
  56   2.0000      -0.594456       -16.1760
  57   2.0000      -0.582993       -15.8640
  58   2.0000      -0.573633       -15.6093
  59   2.0000      -0.562587       -15.3088
  60   2.0000      -0.559088       -15.2136
  61   2.0000      -0.552290       -15.0286
  62   2.0000      -0.534559       -14.5461
  63   2.0000      -0.531707       -14.4685
  64   2.0000      -0.516790       -14.0626
  65   2.0000      -0.509286       -13.8584
  66   2.0000      -0.498523       -13.5655
  67   2.0000      -0.495246       -13.4763
  68   2.0000      -0.481522       -13.1029
  69   2.0000      -0.463491       -12.6122
  70   2.0000      -0.458161       -12.4672
  71   2.0000      -0.453354       -12.3364
  72   2.0000      -0.354428        -9.6445
  73   2.0000      -0.343707        -9.3527
  74   2.0000      -0.327200        -8.9036
  75   2.0000      -0.315608        -8.5881
  76   2.0000      -0.313389        -8.5277
  77   0.0000       0.075941         2.0665
  78   0.0000       0.113720         3.0945
  79   0.0000       0.120354         3.2750
  80   0.0000       0.136310         3.7092
  81   0.0000       0.140810         3.8316

MULLIKEN ATOMIC CHARGES
-----------------------
   0 C :   -0.275454
   1 C :    0.016072
   2 O :   -0.345681
   3 C :    0.454721
   4 O :   -0.433020
   5 C :   -0.179367
   6 C :    0.142619
   7 C :   -0.284359
   8 N :   -0.121178
   9 C :    0.201268
  10 S :   -0.438939
  11 N :   -0.196868
  12 C :    0.034272
  13 C :    0.058428
  14 C :   -0.160287
  15 C :   -0.134185
  16 C :   -0.279257
  17 C :    0.311637
  18 O :   -0.359171
  19 C :   -0.273393
  20 H :    0.107078
  21 H :    0.095046
  22 H :    0.090856
  23 H :    0.121993
  24 H :    0.102284
  25 H :    0.127148
  26 H :    0.101837
  27 H :    0.127541
  28 H :    0.196742
  29 H :    0.193552
  30 H :    0.153562
  31 H :    0.153210
  32 H :    0.158942
  33 H :    0.127998
  34 H :    0.240020
  35 H :    0.164333
Sum of atomic charges:   -0.0000000

LOEWDIN ATOMIC CHARGES
----------------------
   0 C :    0.104637
   1 C :   -0.014979
   2 O :    0.308662
   3 C :   -0.414883
   4 O :    0.101081
   5 C :   -0.091083
   6 C :   -0.064589
   7 C :    0.124947
   8 N :    0.404959
   9 C :   -0.459053
  10 S :   -0.035727
  11 N :    0.398015
  12 C :   -0.046674
  13 C :   -0.038823
  14 C :    0.022319
  15 C :    0.040754
  16 C :   -0.002464
  17 C :   -0.192747
  18 O :    0.392952
  19 C :    0.028297
  20 H :   -0.023522
  21 H :   -0.025753
  22 H :   -0.029542
  23 H :   -0.027292
  24 H :   -0.028772
  25 H :   -0.008305
  26 H :   -0.021221
  27 H :   -0.010074
  28 H :   -0.059227
  29 H :   -0.063599
  30 H :   -0.005107
  31 H :   -0.025296
  32 H :   -0.021278
  33 H :   -0.036443
  34 H :   -0.154956
  35 H :   -0.025214

  Mayer bond orders larger than 0.100000
B(  0-C ,  1-C ) :   0.9687 B(  0-C , 20-H ) :   0.9771 B(  0-C , 21-H ) :   0.9757
B(  0-C , 22-H ) :   0.9788 B(  1-C ,  2-O ) :   0.8854 B(  1-C , 23-H ) :   0.9735
B(  1-C , 24-H ) :   0.9839 B(  2-O ,  3-C ) :   1.1668 B(  3-C ,  4-O ) :   1.9760
B(  3-C ,  5-C ) :   1.0534 B(  5-C ,  6-C ) :   1.6444 B(  5-C , 12-C ) :   0.9670
B(  6-C ,  7-C ) :   0.9560 B(  6-C ,  8-N ) :   1.1507 B(  7-C , 25-H ) :   0.9653
B(  7-C , 26-H ) :   0.9912 B(  7-C , 27-H ) :   0.9638 B(  8-N ,  9-C ) :   1.1774
B(  8-N , 28-H ) :   0.9487 B(  9-C , 10-S ) :   1.6110 B(  9-C , 11-N ) :   1.3049
B( 11-N , 12-C ) :   0.9922 B( 11-N , 29-H ) :   0.9520 B( 12-C , 13-C ) :   0.9475
B( 12-C , 30-H ) :   1.0004 B( 13-C , 14-C ) :   1.3756 B( 13-C , 19-C ) :   1.3689
B( 14-C , 15-C ) :   1.3948 B( 14-C , 31-H ) :   0.9649 B( 15-C , 16-C ) :   1.3623
B( 15-C , 32-H ) :   0.9715 B( 16-C , 17-C ) :   1.3316 B( 16-C , 33-H ) :   0.9860
B( 17-C , 18-O ) :   1.1079 B( 17-C , 19-C ) :   1.3793 B( 18-O , 34-H ) :   0.9806
B( 19-C , 35-H ) :   0.9585

MP2 TOTAL ENERGY:    -1274.348836363 Eh
FINAL SINGLE POINT ENERGY     -1274.348836362687

DIPOLE MOMENT
-------------
                                X             Y             Z
Electronic contribution:     11.38669       9.39848       9.63850
Nuclear contribution   :    -12.85870     -10.65694     -10.72631
                        -----------------------------------------
Total Dipole Moment    :     -1.47200      -1.25846      -1.08781
                        -----------------------------------------
Magnitude (a.u.)       :      2.22123
Magnitude (Debye)      :      5.64592

Rotational constants in cm-1:     0.010541     0.009109     0.006026
Rotational constants in MHz :   316.006615   273.093587   180.654523

                             ****ORCA TERMINATED NORMALLY****
TOTAL RUN TIME: 0 days 2 hours 9 minutes 59 seconds 462 msec
