                         Program Version 4.2.0 -  RELEASE  -
|  1> ! ri-mp2 cc-pvtz cc-pvtz/c TightSCF  NoKeepInts
|  2>
|  3> %scf
|  4>   MaxCore 4096
|  5> end
|  6> *xyz  0  1
|  7>     C       14.1894977   14.9847471   15.4969688
|  8>     C       15.6658618   14.6051657   15.7002869
|  9>     O       16.3875345   15.8180648   15.9702083
| 10>     C       17.5456852   15.7452748   16.6867843
| 11>     O       18.1750428   14.7046455   16.7886863
| 12>     C       17.7987915   16.9287236   17.5765177
| 13>     C       17.2387337   18.1568867   17.4178009
| 14>     C       16.2767711   18.6126159   16.3395346
| 15>     N       17.5985233   19.1999229   18.2778177
| 16>     C       18.6052573   19.1398714   19.2049028
| 17>     S       19.0540434   20.4619767   20.0916054
| 18>     N       19.2222998   17.9244997   19.3584883
| 19>     C       18.7766977   16.6678743   18.7279198
| 20>     C       18.1610201   15.7374679   19.7699428
| 21>     C       18.6497619   14.4280691   19.9334428
| 22>     C       18.0847700   13.5661884   20.8883710
| 23>     C       17.0207201   14.0163642   21.6882104
| 24>     C       16.5283014   15.3184130   21.5261749
| 25>     O       15.4967100   15.7540483   22.2926138
| 26>     C       17.0924338   16.1737907   20.5745799
| 27>     H       13.7879072   15.4706849   16.3949292
| 28>     H       13.5878722   14.0907089   15.2925500
| 29>     H       14.0802561   15.6735006   14.6500795
| 30>     H       15.7388020   13.9143256   16.5520864
| 31>     H       16.0711901   14.1063533   14.8100483
| 32>     H       16.6446241   18.3321635   15.3446438
| 33>     H       16.1317500   19.6996782   16.3329525
| 34>     H       15.2921870   18.1487976   16.4784373
| 35>     H       17.1574692   20.1004308   18.1802888
| 36>     H       19.9399802   17.8981080   20.0713462
| 37>     H       19.6649000   16.1741433   18.3077523
| 38>     H       19.4611638   14.0716303   19.3035122
| 39>     H       18.4683716   12.5537045   21.0003490
| 40>     H       16.5802596   13.3534406   22.4253878
| 41>     H       15.2735033   15.0411613   22.9096524
| 42>     H       16.6983066   17.1785582   20.4691270
| 43> *
| 44>
| 45>                          ****END OF INPUT****

CARTESIAN COORDINATES (ANGSTROEM)
---------------------------------
  C     14.189498   14.984747   15.496969
  C     15.665862   14.605166   15.700287
  O     16.387535   15.818065   15.970208
  C     17.545685   15.745275   16.686784
  O     18.175043   14.704645   16.788686
  C     17.798792   16.928724   17.576518
  C     17.238734   18.156887   17.417801
  C     16.276771   18.612616   16.339535
  N     17.598523   19.199923   18.277818
  C     18.605257   19.139871   19.204903
  S     19.054043   20.461977   20.091605
  N     19.222300   17.924500   19.358488
  C     18.776698   16.667874   18.727920
  C     18.161020   15.737468   19.769943
  C     18.649762   14.428069   19.933443
  C     18.084770   13.566188   20.888371
  C     17.020720   14.016364   21.688210
  C     16.528301   15.318413   21.526175
  O     15.496710   15.754048   22.292614
  C     17.092434   16.173791   20.574580
  H     13.787907   15.470685   16.394929
  H     13.587872   14.090709   15.292550
  H     14.080256   15.673501   14.650079
  H     15.738802   13.914326   16.552086
  H     16.071190   14.106353   14.810048
  H     16.644624   18.332164   15.344644
  H     16.131750   19.699678   16.332953
  H     15.292187   18.148798   16.478437
  H     17.157469   20.100431   18.180289
  H     19.939980   17.898108   20.071346
  H     19.664900   16.174143   18.307752
  H     19.461164   14.071630   19.303512
  H     18.468372   12.553705   21.000349
  H     16.580260   13.353441   22.425388
  H     15.273503   15.041161   22.909652
  H     16.698307   17.178558   20.469127

 Total Charge           Charge          ....    0
 Multiplicity           Mult            ....    1
 Number of Electrons    NEL             ....  154
 Basis Dimension        Dim             ....  828

ORBITAL ENERGIES
----------------

  NO   OCC          E(Eh)            E(eV)
   0   2.0000     -91.888139     -2500.4034
   1   2.0000     -20.601275      -560.5892
   2   2.0000     -20.592106      -560.3397
   3   2.0000     -20.546815      -559.1073
   4   2.0000     -15.628463      -425.2721
   5   2.0000     -15.606842      -424.6838
   6   2.0000     -11.394919      -310.0715
   7   2.0000     -11.383085      -309.7495
   8   2.0000     -11.336064      -308.4700
   9   2.0000     -11.307902      -307.7036
  10   2.0000     -11.305864      -307.6482
  11   2.0000     -11.299531      -307.4759
  12   2.0000     -11.260563      -306.4155
  13   2.0000     -11.259109      -306.3759
  14   2.0000     -11.253766      -306.2305
  15   2.0000     -11.247994      -306.0735
  16   2.0000     -11.237658      -305.7922
  17   2.0000     -11.235050      -305.7213
  18   2.0000     -11.233789      -305.6869
  19   2.0000     -11.230732      -305.6038
  20   2.0000      -8.893204      -241.9964
  21   2.0000      -6.574781      -178.9089
  22   2.0000      -6.572774      -178.8543
  23   2.0000      -6.572189      -178.8383
  24   2.0000      -1.455173       -39.5973
  25   2.0000      -1.411843       -38.4182
  26   2.0000      -1.357144       -36.9298
  27   2.0000      -1.339392       -36.4467
  28   2.0000      -1.237052       -33.6619
  29   2.0000      -1.152447       -31.3597
  30   2.0000      -1.119738       -30.4696
  31   2.0000      -1.044716       -28.4282
  32   2.0000      -1.037162       -28.2226
  33   2.0000      -1.009829       -27.4788
  34   2.0000      -0.997916       -27.1547
  35   2.0000      -0.983562       -26.7641
  36   2.0000      -0.921264       -25.0689
  37   2.0000      -0.888584       -24.1796
  38   2.0000      -0.847053       -23.0495
  39   2.0000      -0.835212       -22.7273
  40   2.0000      -0.828177       -22.5358
  41   2.0000      -0.818212       -22.2647
  42   2.0000      -0.761681       -20.7264
  43   2.0000      -0.735916       -20.0253
  44   2.0000      -0.725112       -19.7313
  45   2.0000      -0.691147       -18.8071
  46   2.0000      -0.684030       -18.6134
  47   2.0000      -0.681588       -18.5470
  48   2.0000      -0.676163       -18.3993
  49   2.0000      -0.659796       -17.9540
  50   2.0000      -0.649839       -17.6830
  51   2.0000      -0.643760       -17.5176
  52   2.0000      -0.635157       -17.2835
  53   2.0000      -0.601280       -16.3617
  54   2.0000      -0.600460       -16.3393
  55   2.0000      -0.596111       -16.2210
  56   2.0000      -0.594882       -16.1876
  57   2.0000      -0.579504       -15.7691
  58   2.0000      -0.573555       -15.6072
  59   2.0000      -0.565235       -15.3808
  60   2.0000      -0.561476       -15.2785
  61   2.0000      -0.556106       -15.1324
  62   2.0000      -0.540712       -14.7135
  63   2.0000      -0.519041       -14.1238
  64   2.0000      -0.517787       -14.0897
  65   2.0000      -0.511266       -13.9122
  66   2.0000      -0.503718       -13.7069
  67   2.0000      -0.495902       -13.4942
  68   2.0000      -0.480888       -13.0856
  69   2.0000      -0.462977       -12.5982
  70   2.0000      -0.460598       -12.5335
  71   2.0000      -0.456104       -12.4112
  72   2.0000      -0.354192        -9.6381
  73   2.0000      -0.344315        -9.3693
  74   2.0000      -0.327280        -8.9057
  75   2.0000      -0.315771        -8.5926
  76   2.0000      -0.314089        -8.5468
  77   0.0000       0.075536         2.0554
  78   0.0000       0.112065         3.0495
  79   0.0000       0.120177         3.2702
  80   0.0000       0.135650         3.6912
  81   0.0000       0.138953         3.7811

MULLIKEN ATOMIC CHARGES
-----------------------
   0 C :   -0.279589
   1 C :    0.049411
   2 O :   -0.340961
   3 C :    0.429650
   4 O :   -0.420727
   5 C :   -0.170328
   6 C :    0.143434
   7 C :   -0.287468
   8 N :   -0.122852
   9 C :    0.201682
  10 S :   -0.439326
  11 N :   -0.197679
  12 C :    0.038772
  13 C :    0.056257
  14 C :   -0.160728
  15 C :   -0.134089
  16 C :   -0.279470
  17 C :    0.311238
  18 O :   -0.359192
  19 C :   -0.273468
  20 H :    0.096945
  21 H :    0.103580
  22 H :    0.095034
  23 H :    0.094657
  24 H :    0.096633
  25 H :    0.127243
  26 H :    0.104580
  27 H :    0.126499
  28 H :    0.196873
  29 H :    0.193713
  30 H :    0.153621
  31 H :    0.153570
  32 H :    0.159360
  33 H :    0.128232
  34 H :    0.240142
  35 H :    0.164749
Sum of atomic charges:   -0.0000000

LOEWDIN ATOMIC CHARGES
----------------------
   0 C :    0.106114
   1 C :   -0.016266
   2 O :    0.305140
   3 C :   -0.415709
   4 O :    0.107033
   5 C :   -0.091885
   6 C :   -0.067013
   7 C :    0.125117
   8 N :    0.404713
   9 C :   -0.458718
  10 S :   -0.036021
  11 N :    0.397751
  12 C :   -0.046282
  13 C :   -0.038925
  14 C :    0.022164
  15 C :    0.040838
  16 C :   -0.002482
  17 C :   -0.192877
  18 O :    0.392904
  19 C :    0.028099
  20 H :   -0.027330
  21 H :   -0.022813
  22 H :   -0.028668
  23 H :   -0.025720
  24 H :   -0.029479
  25 H :   -0.008325
  26 H :   -0.020787
  27 H :   -0.010200
  28 H :   -0.059123
  29 H :   -0.063720
  30 H :   -0.004833
  31 H :   -0.025183
  32 H :   -0.021145
  33 H :   -0.036389
  34 H :   -0.154871
  35 H :   -0.025107

  Mayer bond orders larger than 0.100000
B(  0-C ,  1-C ) :   0.9703 B(  0-C , 20-H ) :   0.9770 B(  0-C , 21-H ) :   0.9789
B(  0-C , 22-H ) :   0.9774 B(  1-C ,  2-O ) :   0.9051 B(  1-C , 23-H ) :   0.9732
B(  1-C , 24-H ) :   0.9817 B(  2-O ,  3-C ) :   1.1535 B(  3-C ,  4-O ) :   1.9977
B(  3-C ,  5-C ) :   1.0473 B(  5-C ,  6-C ) :   1.6503 B(  5-C , 12-C ) :   0.9662
B(  6-C ,  7-C ) :   0.9539 B(  6-C ,  8-N ) :   1.1448 B(  7-C , 25-H ) :   0.9663
B(  7-C , 26-H ) :   0.9913 B(  7-C , 27-H ) :   0.9636 B(  8-N ,  9-C ) :   1.1795
B(  8-N , 28-H ) :   0.9489 B(  9-C , 10-S ) :   1.6107 B(  9-C , 11-N ) :   1.3038
B( 11-N , 12-C ) :   0.9915 B( 11-N , 29-H ) :   0.9520 B( 12-C , 13-C ) :   0.9471
B( 12-C , 30-H ) :   0.9994 B( 13-C , 14-C ) :   1.3760 B( 13-C , 19-C ) :   1.3693
B( 14-C , 15-C ) :   1.3946 B( 14-C , 31-H ) :   0.9648 B( 15-C , 16-C ) :   1.3625
B( 15-C , 32-H ) :   0.9713 B( 16-C , 17-C ) :   1.3314 B( 16-C , 33-H ) :   0.9860
B( 17-C , 18-O ) :   1.1080 B( 17-C , 19-C ) :   1.3789 B( 18-O , 34-H ) :   0.9805
B( 19-C , 35-H ) :   0.9585

MP2 TOTAL ENERGY:    -1274.344999864 Eh
FINAL SINGLE POINT ENERGY     -1274.344999863756

DIPOLE MOMENT
-------------
                                X             Y             Z
Electronic contribution:     12.04922       8.64549      10.03104
Nuclear contribution   :    -13.52623      -9.97917     -10.95400
                        -----------------------------------------
Total Dipole Moment    :     -1.47701      -1.33368      -0.92296
                        -----------------------------------------
Magnitude (a.u.)       :      2.19365
Magnitude (Debye)      :      5.57583

Rotational constants in cm-1:     0.010341     0.009095     0.006068
Rotational constants in MHz :   310.027700   272.656710   181.926191

                             ****ORCA TERMINATED NORMALLY****
TOTAL RUN TIME: 0 days 1 hours 43 minutes 54 seconds 953 msec
