                         Program Version 5.0.0 -  RELEASE  -
|  1> ! ri-mp2 cc-pvtz cc-pvtz/c TightSCF NoKeepInts
|  2>
|  3> %scf
|  4>   MaxCore 4096
|  5> end
|  6> *xyz  0  1
|  7>     C       15.4388053   13.3740995   16.4871399
|  8>     C       15.7102242   14.8284129   16.9043070
|  9>     O       16.9682949   15.2127804   16.3184711
| 10>     C       17.1739911   16.5407239   16.0919034
| 11>     O       16.6201650   17.0680579   15.1446860
| 12>     C       17.6325530   17.2998224   17.3094068
| 13>     C       17.4156281   18.6319167   17.4638131
| 14>     C       16.5926324   19.5413713   16.5766709
| 15>     N       18.0339873   19.3227663   18.5110173
| 16>     C       19.0521491   18.8178724   19.2763269
| 17>     S       19.8808681   19.7517913   20.3607388
| 18>     N       19.3569767   17.4936932   19.0851426
| 19>     C       18.5256529   16.5502011   18.3152216
| 20>     C       17.7521915   15.6687532   19.2888486
| 21>     C       18.0213404   14.2887985   19.3636570
| 22>     C       17.3094721   13.4689466   20.2552726
| 23>     C       16.3254885   14.0335566   21.0845687
| 24>     C       16.0621678   15.4085716   21.0208562
| 25>     O       15.1117245   15.9566759   21.8185582
| 26>     C       16.7694018   16.2218789   20.1300187
| 27>     H       14.4705289   13.0363854   16.8757593
| 28>     H       16.2181073   12.7092808   16.8796626
| 29>     H       15.4222277   13.2828278   15.3937298
| 30>     H       14.9021266   15.4595292   16.5090759
| 31>     H       15.7105398   14.9195854   17.9942302
| 32>     H       15.5928533   19.1205468   16.4108712
| 33>     H       17.0675785   19.6517245   15.5932295
| 34>     H       16.4597369   20.5447437   16.9978720
| 35>     H       17.8339253   20.3007988   18.6482539
| 36>     H       20.0969323   17.1417357   19.6790973
| 37>     H       19.2035695   15.9065501   17.7367949
| 38>     H       18.7784400   13.8474519   18.7205188
| 39>     H       17.5222462   12.4021337   20.3025628
| 40>     H       15.7740248   13.4041210   21.7755219
| 41>     H       14.7862092   15.2593927   22.4078698
| 42>     H       16.5542390   17.2845020   20.1023247
| 43> *
| 44>
| 45>                          ****END OF INPUT****

CARTESIAN COORDINATES (ANGSTROEM)
---------------------------------
  C     15.438805   13.374099   16.487140
  C     15.710224   14.828413   16.904307
  O     16.968295   15.212780   16.318471
  C     17.173991   16.540724   16.091903
  O     16.620165   17.068058   15.144686
  C     17.632553   17.299822   17.309407
  C     17.415628   18.631917   17.463813
  C     16.592632   19.541371   16.576671
  N     18.033987   19.322766   18.511017
  C     19.052149   18.817872   19.276327
  S     19.880868   19.751791   20.360739
  N     19.356977   17.493693   19.085143
  C     18.525653   16.550201   18.315222
  C     17.752191   15.668753   19.288849
  C     18.021340   14.288799   19.363657
  C     17.309472   13.468947   20.255273
  C     16.325488   14.033557   21.084569
  C     16.062168   15.408572   21.020856
  O     15.111724   15.956676   21.818558
  C     16.769402   16.221879   20.130019
  H     14.470529   13.036385   16.875759
  H     16.218107   12.709281   16.879663
  H     15.422228   13.282828   15.393730
  H     14.902127   15.459529   16.509076
  H     15.710540   14.919585   17.994230
  H     15.592853   19.120547   16.410871
  H     17.067578   19.651725   15.593229
  H     16.459737   20.544744   16.997872
  H     17.833925   20.300799   18.648254
  H     20.096932   17.141736   19.679097
  H     19.203569   15.906550   17.736795
  H     18.778440   13.847452   18.720519
  H     17.522246   12.402134   20.302563
  H     15.774025   13.404121   21.775522
  H     14.786209   15.259393   22.407870
  H     16.554239   17.284502   20.102325

 Total Charge           Charge          ....    0
 Multiplicity           Mult            ....    1
 Number of Electrons    NEL             ....  154
 Basis Dimension        Dim             ....  828

ORBITAL ENERGIES
----------------

  NO   OCC          E(Eh)            E(eV)
   0   2.0000     -91.891643     -2500.4987
   1   2.0000     -20.601862      -560.6052
   2   2.0000     -20.580282      -560.0179
   3   2.0000     -20.550887      -559.2181
   4   2.0000     -15.631749      -425.3615
   5   2.0000     -15.610478      -424.7827
   6   2.0000     -11.392486      -310.0053
   7   2.0000     -11.386134      -309.8325
   8   2.0000     -11.337809      -308.5175
   9   2.0000     -11.319893      -308.0300
  10   2.0000     -11.313574      -307.8580
  11   2.0000     -11.293318      -307.3068
  12   2.0000     -11.264406      -306.5201
  13   2.0000     -11.261073      -306.4294
  14   2.0000     -11.260345      -306.4096
  15   2.0000     -11.254163      -306.2413
  16   2.0000     -11.249031      -306.1017
  17   2.0000     -11.243508      -305.9514
  18   2.0000     -11.243182      -305.9425
  19   2.0000     -11.225095      -305.4504
  20   2.0000      -8.896658      -242.0904
  21   2.0000      -6.578221      -179.0025
  22   2.0000      -6.576229      -178.9483
  23   2.0000      -6.575630      -178.9320
  24   2.0000      -1.448964       -39.4283
  25   2.0000      -1.421585       -38.6833
  26   2.0000      -1.352707       -36.8090
  27   2.0000      -1.343008       -36.5451
  28   2.0000      -1.241407       -33.7804
  29   2.0000      -1.162581       -31.6354
  30   2.0000      -1.121797       -30.5256
  31   2.0000      -1.046754       -28.4836
  32   2.0000      -1.033304       -28.1176
  33   2.0000      -1.020945       -27.7813
  34   2.0000      -0.999043       -27.1853
  35   2.0000      -0.986543       -26.8452
  36   2.0000      -0.926307       -25.2061
  37   2.0000      -0.876462       -23.8497
  38   2.0000      -0.849994       -23.1295
  39   2.0000      -0.843765       -22.9600
  40   2.0000      -0.839287       -22.8382
  41   2.0000      -0.831130       -22.6162
  42   2.0000      -0.760734       -20.7006
  43   2.0000      -0.736452       -20.0399
  44   2.0000      -0.725061       -19.7299
  45   2.0000      -0.701106       -19.0781
  46   2.0000      -0.692096       -18.8329
  47   2.0000      -0.679963       -18.5027
  48   2.0000      -0.672770       -18.3070
  49   2.0000      -0.657508       -17.8917
  50   2.0000      -0.649147       -17.6642
  51   2.0000      -0.644630       -17.5413
  52   2.0000      -0.635739       -17.2993
  53   2.0000      -0.617574       -16.8050
  54   2.0000      -0.611798       -16.6479
  55   2.0000      -0.603925       -16.4336
  56   2.0000      -0.601248       -16.3608
  57   2.0000      -0.582110       -15.8400
  58   2.0000      -0.573244       -15.5988
  59   2.0000      -0.565578       -15.3902
  60   2.0000      -0.555737       -15.1224
  61   2.0000      -0.542975       -14.7751
  62   2.0000      -0.536245       -14.5920
  63   2.0000      -0.529913       -14.4197
  64   2.0000      -0.518065       -14.0973
  65   2.0000      -0.512469       -13.9450
  66   2.0000      -0.506117       -13.7721
  67   2.0000      -0.498870       -13.5749
  68   2.0000      -0.485103       -13.2003
  69   2.0000      -0.467156       -12.7119
  70   2.0000      -0.456118       -12.4116
  71   2.0000      -0.445156       -12.1133
  72   2.0000      -0.358864        -9.7652
  73   2.0000      -0.354138        -9.6366
  74   2.0000      -0.331363        -9.0168
  75   2.0000      -0.327517        -8.9122
  76   2.0000      -0.318550        -8.6682
  77   0.0000       0.067143         1.8271
  78   0.0000       0.101459         2.7608
  79   0.0000       0.120951         3.2912
  80   0.0000       0.126339         3.4379
  81   0.0000       0.131789         3.5862

MULLIKEN ATOMIC CHARGES
-----------------------
   0 C :   -0.263221
   1 C :    0.024700
   2 O :   -0.377650
   3 C :    0.481624
   4 O :   -0.391667
   5 C :   -0.264539
   6 C :    0.153944
   7 C :   -0.270406
   8 N :   -0.125684
   9 C :    0.205841
  10 S :   -0.433499
  11 N :   -0.192186
  12 C :    0.036398
  13 C :    0.028244
  14 C :   -0.160596
  15 C :   -0.138007
  16 C :   -0.270789
  17 C :    0.302619
  18 O :   -0.356311
  19 C :   -0.250379
  20 H :    0.086228
  21 H :    0.091083
  22 H :    0.106964
  23 H :    0.105324
  24 H :    0.117178
  25 H :    0.127236
  26 H :    0.137135
  27 H :    0.094177
  28 H :    0.198583
  29 H :    0.191187
  30 H :    0.147738
  31 H :    0.150767
  32 H :    0.164388
  33 H :    0.133820
  34 H :    0.241705
  35 H :    0.168052
Sum of atomic charges:   -0.0000000

LOEWDIN ATOMIC CHARGES
----------------------
   0 C :    0.110181
   1 C :   -0.015939
   2 O :    0.285642
   3 C :   -0.423290
   4 O :    0.127304
   5 C :   -0.099177
   6 C :   -0.059808
   7 C :    0.130341
   8 N :    0.406598
   9 C :   -0.457916
  10 S :   -0.031008
  11 N :    0.396369
  12 C :   -0.053177
  13 C :   -0.040854
  14 C :    0.015258
  15 C :    0.042585
  16 C :   -0.001030
  17 C :   -0.191508
  18 O :    0.396778
  19 C :    0.030462
  20 H :   -0.026198
  21 H :   -0.030208
  22 H :   -0.023616
  23 H :   -0.030913
  24 H :   -0.036143
  25 H :   -0.006084
  26 H :   -0.003040
  27 H :   -0.023074
  28 H :   -0.057471
  29 H :   -0.065114
  30 H :   -0.006372
  31 H :   -0.028984
  32 H :   -0.019612
  33 H :   -0.034159
  34 H :   -0.152590
  35 H :   -0.024234

  Mayer bond orders larger than 0.100000
B(  0-C ,  1-C ) :   0.9833 B(  0-C , 20-H ) :   0.9757 B(  0-C , 21-H ) :   0.9793
B(  0-C , 22-H ) :   0.9789 B(  1-C ,  2-O ) :   0.8721 B(  1-C , 23-H ) :   0.9771
B(  1-C , 24-H ) :   0.9614 B(  2-O ,  3-C ) :   1.1148 B(  3-C ,  4-O ) :   2.0446
B(  3-C ,  5-C ) :   1.0347 B(  5-C ,  6-C ) :   1.6620 B(  5-C , 12-C ) :   0.9708
B(  6-C ,  7-C ) :   0.9698 B(  6-C ,  8-N ) :   1.1486 B(  7-C , 25-H ) :   0.9657
B(  7-C , 26-H ) :   0.9562 B(  7-C , 27-H ) :   0.9879 B(  8-N ,  9-C ) :   1.1778
B(  8-N , 28-H ) :   0.9485 B(  9-C , 10-S ) :   1.6186 B(  9-C , 11-N ) :   1.2986
B( 11-N , 12-C ) :   0.9821 B( 11-N , 29-H ) :   0.9543 B( 12-C , 13-C ) :   0.9431
B( 12-C , 30-H ) :   1.0047 B( 13-C , 14-C ) :   1.3621 B( 13-C , 19-C ) :   1.3731
B( 14-C , 15-C ) :   1.3859 B( 14-C , 31-H ) :   0.9716 B( 15-C , 16-C ) :   1.3654
B( 15-C , 32-H ) :   0.9696 B( 16-C , 17-C ) :   1.3271 B( 16-C , 33-H ) :   0.9837
B( 17-C , 18-O ) :   1.1150 B( 17-C , 19-C ) :   1.3797 B( 18-O , 34-H ) :   0.9789
B( 19-C , 35-H ) :   0.9566

MP2 TOTAL ENERGY:    -1274.325338165 Eh
FINAL SINGLE POINT ENERGY     -1274.325338165380

DIPOLE MOMENT
-------------
                                X             Y             Z
Electronic contribution:     10.29040      10.44394       5.90228
Nuclear contribution   :    -11.46993     -11.87998      -5.62779
                        -----------------------------------------
Total Dipole Moment    :     -1.17953      -1.43604       0.27449
                        -----------------------------------------
Magnitude (a.u.)       :      1.87852
Magnitude (Debye)      :      4.77482

Rotational constants in cm-1:     0.012127     0.009165     0.006339
Rotational constants in MHz :   363.567201   274.744950   190.047812

                             ****ORCA TERMINATED NORMALLY****
TOTAL RUN TIME: 0 days 1 hours 50 minutes 7 seconds 927 msec
