                         Program Version 4.2.0 -  RELEASE  -
|  1> ! ri-mp2 cc-pvtz cc-pvtz/c TightSCF  NoKeepInts
|  2>
|  3> %scf
|  4>   MaxCore 4096
|  5> end
|  6> *xyz  0  1
|  7>     C       16.0219620   13.0849966   16.3414057
|  8>     C       15.6454636   14.5421847   16.6564855
|  9>     O       16.8280039   15.3404424   16.4833667
| 10>     C       16.6833642   16.6954726   16.4085592
| 11>     O       15.7598881   17.2026046   15.7954387
| 12>     C       17.5223070   17.4259458   17.4216789
| 13>     C       17.5004676   18.7778994   17.5423305
| 14>     C       16.6772922   19.7574172   16.7332157
| 15>     N       18.3320171   19.4129739   18.4695617
| 16>     C       19.2883926   18.7859997   19.2226069
| 17>     S       20.3032406   19.6249049   20.2236735
| 18>     N       19.3670616   17.4223571   19.0997915
| 19>     C       18.4244208   16.5824371   18.3390045
| 20>     C       17.6190130   15.7179834   19.3049532
| 21>     C       17.8747058   14.3375020   19.4048639
| 22>     C       17.1283328   13.5335953   20.2826831
| 23>     C       16.1214787   14.1154683   21.0716017
| 24>     C       15.8702988   15.4914295   20.9814868
| 25>     O       14.8999958   16.0565045   21.7429189
| 26>     C       16.6132294   16.2885056   20.1052736
| 27>     H       16.8027075   12.7305684   17.0252117
| 28>     H       16.3935270   12.9960934   15.3129315
| 29>     H       15.1482448   12.4309921   16.4490843
| 30>     H       14.8543399   14.8630281   15.9648090
| 31>     H       15.2697745   14.6307755   17.6847219
| 32>     H       15.6059995   19.5982919   16.9114056
| 33>     H       16.8540004   19.6171711   15.6592230
| 34>     H       16.9015931   20.8042338   16.9692811
| 35>     H       18.2900222   20.4145266   18.5708913
| 36>     H       20.0585608   16.9851055   19.6951708
| 37>     H       19.0206717   15.9192044   17.6964408
| 38>     H       18.6497074   13.8845036   18.7922585
| 39>     H       17.3319244   12.4662574   20.3506988
| 40>     H       15.5432033   13.4991373   21.7522165
| 41>     H       14.5346335   15.3632119   22.3129159
| 42>     H       16.4071542   17.3522747   20.0558394
| 43> *
| 44>
| 45>                          ****END OF INPUT****

CARTESIAN COORDINATES (ANGSTROEM)
---------------------------------
  C     16.021962   13.084997   16.341406
  C     15.645464   14.542185   16.656485
  O     16.828004   15.340442   16.483367
  C     16.683364   16.695473   16.408559
  O     15.759888   17.202605   15.795439
  C     17.522307   17.425946   17.421679
  C     17.500468   18.777899   17.542330
  C     16.677292   19.757417   16.733216
  N     18.332017   19.412974   18.469562
  C     19.288393   18.786000   19.222607
  S     20.303241   19.624905   20.223673
  N     19.367062   17.422357   19.099791
  C     18.424421   16.582437   18.339005
  C     17.619013   15.717983   19.304953
  C     17.874706   14.337502   19.404864
  C     17.128333   13.533595   20.282683
  C     16.121479   14.115468   21.071602
  C     15.870299   15.491429   20.981487
  O     14.899996   16.056504   21.742919
  C     16.613229   16.288506   20.105274
  H     16.802708   12.730568   17.025212
  H     16.393527   12.996093   15.312931
  H     15.148245   12.430992   16.449084
  H     14.854340   14.863028   15.964809
  H     15.269774   14.630775   17.684722
  H     15.605999   19.598292   16.911406
  H     16.854000   19.617171   15.659223
  H     16.901593   20.804234   16.969281
  H     18.290022   20.414527   18.570891
  H     20.058561   16.985105   19.695171
  H     19.020672   15.919204   17.696441
  H     18.649707   13.884504   18.792258
  H     17.331924   12.466257   20.350699
  H     15.543203   13.499137   21.752216
  H     14.534633   15.363212   22.312916
  H     16.407154   17.352275   20.055839

 Total Charge           Charge          ....    0
 Multiplicity           Mult            ....    1
 Number of Electrons    NEL             ....  154
 Basis Dimension        Dim             ....  828

ORBITAL ENERGIES
----------------

  NO   OCC          E(Eh)            E(eV)
   0   2.0000     -91.889724     -2500.4465
   1   2.0000     -20.599620      -560.5442
   2   2.0000     -20.591590      -560.3256
   3   2.0000     -20.544233      -559.0370
   4   2.0000     -15.629948      -425.3125
   5   2.0000     -15.609258      -424.7495
   6   2.0000     -11.393324      -310.0281
   7   2.0000     -11.384841      -309.7973
   8   2.0000     -11.336415      -308.4795
   9   2.0000     -11.317333      -307.9603
  10   2.0000     -11.310644      -307.7783
  11   2.0000     -11.293144      -307.3021
  12   2.0000     -11.262672      -306.4729
  13   2.0000     -11.259078      -306.3751
  14   2.0000     -11.258776      -306.3669
  15   2.0000     -11.252755      -306.2030
  16   2.0000     -11.246352      -306.0288
  17   2.0000     -11.241361      -305.8930
  18   2.0000     -11.241122      -305.8865
  19   2.0000     -11.227301      -305.5104
  20   2.0000      -8.894781      -242.0393
  21   2.0000      -6.576353      -178.9517
  22   2.0000      -6.574350      -178.8972
  23   2.0000      -6.573761      -178.8811
  24   2.0000      -1.450326       -39.4654
  25   2.0000      -1.419298       -38.6211
  26   2.0000      -1.353577       -36.8327
  27   2.0000      -1.340990       -36.4902
  28   2.0000      -1.239656       -33.7328
  29   2.0000      -1.160571       -31.5807
  30   2.0000      -1.121199       -30.5094
  31   2.0000      -1.044801       -28.4305
  32   2.0000      -1.036962       -28.2172
  33   2.0000      -1.018535       -27.7157
  34   2.0000      -0.996677       -27.1210
  35   2.0000      -0.985245       -26.8099
  36   2.0000      -0.924181       -25.1482
  37   2.0000      -0.883393       -24.0383
  38   2.0000      -0.848033       -23.0762
  39   2.0000      -0.839968       -22.8567
  40   2.0000      -0.836847       -22.7718
  41   2.0000      -0.822071       -22.3697
  42   2.0000      -0.762992       -20.7621
  43   2.0000      -0.735002       -20.0004
  44   2.0000      -0.723792       -19.6954
  45   2.0000      -0.698635       -19.0108
  46   2.0000      -0.688680       -18.7399
  47   2.0000      -0.678446       -18.4614
  48   2.0000      -0.674704       -18.3596
  49   2.0000      -0.657741       -17.8980
  50   2.0000      -0.647482       -17.6189
  51   2.0000      -0.643830       -17.5195
  52   2.0000      -0.635509       -17.2931
  53   2.0000      -0.612001       -16.6534
  54   2.0000      -0.610086       -16.6013
  55   2.0000      -0.602436       -16.3931
  56   2.0000      -0.600018       -16.3273
  57   2.0000      -0.580118       -15.7858
  58   2.0000      -0.571748       -15.5580
  59   2.0000      -0.565880       -15.3984
  60   2.0000      -0.557440       -15.1687
  61   2.0000      -0.540247       -14.7009
  62   2.0000      -0.536501       -14.5989
  63   2.0000      -0.527759       -14.3611
  64   2.0000      -0.521566       -14.1925
  65   2.0000      -0.514799       -14.0084
  66   2.0000      -0.504671       -13.7328
  67   2.0000      -0.499496       -13.5920
  68   2.0000      -0.487182       -13.2569
  69   2.0000      -0.465470       -12.6661
  70   2.0000      -0.457573       -12.4512
  71   2.0000      -0.445272       -12.1165
  72   2.0000      -0.355151        -9.6641
  73   2.0000      -0.352550        -9.5934
  74   2.0000      -0.329406        -8.9636
  75   2.0000      -0.324696        -8.8354
  76   2.0000      -0.317129        -8.6295
  77   0.0000       0.072468         1.9720
  78   0.0000       0.102899         2.8000
  79   0.0000       0.123813         3.3691
  80   0.0000       0.130164         3.5419
  81   0.0000       0.135325         3.6824

MULLIKEN ATOMIC CHARGES
-----------------------
   0 C :   -0.266016
   1 C :    0.010650
   2 O :   -0.370737
   3 C :    0.483713
   4 O :   -0.419936
   5 C :   -0.261725
   6 C :    0.160834
   7 C :   -0.269957
   8 N :   -0.123550
   9 C :    0.213644
  10 S :   -0.439504
  11 N :   -0.206834
  12 C :    0.068558
  13 C :    0.030387
  14 C :   -0.178977
  15 C :   -0.132068
  16 C :   -0.277118
  17 C :    0.310626
  18 O :   -0.355826
  19 C :   -0.252352
  20 H :    0.088880
  21 H :    0.101636
  22 H :    0.090342
  23 H :    0.129082
  24 H :    0.106599
  25 H :    0.132562
  26 H :    0.130348
  27 H :    0.095340
  28 H :    0.197698
  29 H :    0.195024
  30 H :    0.149173
  31 H :    0.154910
  32 H :    0.163571
  33 H :    0.132540
  34 H :    0.241275
  35 H :    0.167210
Sum of atomic charges:   -0.0000000

LOEWDIN ATOMIC CHARGES
----------------------
   0 C :    0.108058
   1 C :   -0.017991
   2 O :    0.300161
   3 C :   -0.415671
   4 O :    0.106759
   5 C :   -0.097172
   6 C :   -0.058927
   7 C :    0.131623
   8 N :    0.406818
   9 C :   -0.455900
  10 S :   -0.034860
  11 N :    0.396136
  12 C :   -0.052329
  13 C :   -0.038017
  14 C :    0.014826
  15 C :    0.040532
  16 C :   -0.002409
  17 C :   -0.190223
  18 O :    0.396299
  19 C :    0.030765
  20 H :   -0.032202
  21 H :   -0.025852
  22 H :   -0.025115
  23 H :   -0.028027
  24 H :   -0.030823
  25 H :   -0.004539
  26 H :   -0.003881
  27 H :   -0.023219
  28 H :   -0.057390
  29 H :   -0.064816
  30 H :   -0.009739
  31 H :   -0.030454
  32 H :   -0.020619
  33 H :   -0.034938
  34 H :   -0.153236
  35 H :   -0.023625

  Mayer bond orders larger than 0.100000
B(  0-C ,  1-C ) :   0.9756 B(  0-C , 20-H ) :   0.9780 B(  0-C , 21-H ) :   0.9780
B(  0-C , 22-H ) :   0.9770 B(  1-C ,  2-O ) :   0.8759 B(  1-C , 23-H ) :   0.9794
B(  1-C , 24-H ) :   0.9669 B(  2-O ,  3-C ) :   1.1345 B(  3-C ,  4-O ) :   2.0008
B(  3-C ,  5-C ) :   1.0619 B(  5-C ,  6-C ) :   1.6504 B(  5-C , 12-C ) :   0.9722
B(  6-C ,  7-C ) :   0.9660 B(  6-C ,  8-N ) :   1.1614 B(  7-C , 25-H ) :   0.9592
B(  7-C , 26-H ) :   0.9612 B(  7-C , 27-H ) :   0.9905 B(  8-N ,  9-C ) :   1.1832
B(  8-N , 28-H ) :   0.9478 B(  9-C , 10-S ) :   1.6066 B(  9-C , 11-N ) :   1.3065
B( 11-N , 12-C ) :   0.9791 B( 11-N , 29-H ) :   0.9519 B( 12-C , 13-C ) :   0.9379
B( 12-C , 30-H ) :   1.0015 B( 13-C , 14-C ) :   1.3578 B( 13-C , 19-C ) :   1.3811
B( 14-C , 15-C ) :   1.3869 B( 14-C , 31-H ) :   0.9716 B( 15-C , 16-C ) :   1.3637
B( 15-C , 32-H ) :   0.9696 B( 16-C , 17-C ) :   1.3297 B( 16-C , 33-H ) :   0.9843
B( 17-C , 18-O ) :   1.1131 B( 17-C , 19-C ) :   1.3723 B( 18-O , 34-H ) :   0.9793
B( 19-C , 35-H ) :   0.9578

MP2 TOTAL ENERGY:    -1274.341721748 Eh
FINAL SINGLE POINT ENERGY     -1274.341721747932

DIPOLE MOMENT
-------------
                                X             Y             Z
Electronic contribution:      8.73521      11.34715       6.72413
Nuclear contribution   :     -9.80250     -12.89305      -6.86053
                        -----------------------------------------
Total Dipole Moment    :     -1.06729      -1.54590      -0.13640
                        -----------------------------------------
Magnitude (a.u.)       :      1.88348
Magnitude (Debye)      :      4.78743

Rotational constants in cm-1:     0.012590     0.008460     0.006349
Rotational constants in MHz :   377.435245   253.612423   190.334874

                             ****ORCA TERMINATED NORMALLY****
TOTAL RUN TIME: 0 days 2 hours 18 minutes 11 seconds 993 msec
