                         Program Version 5.0.0 -  RELEASE  -
|  1> ! ri-mp2 cc-pvtz cc-pvtz/c TightSCF NoKeepInts
|  2>
|  3> %scf
|  4>   MaxCore 4096
|  5> end
|  6> *xyz  0  1
|  7>     C       14.2627145   15.0882334   16.1281964
|  8>     C       15.6202165   15.0882744   16.8503334
|  9>     O       16.5896095   15.6570592   15.9546744
| 10>     C       17.8464662   15.8336927   16.4489907
| 11>     O       18.6132522   14.8888968   16.5045996
| 12>     C       17.9368218   16.9737018   17.4177192
| 13>     C       17.2958705   18.1553954   17.2424217
| 14>     C       16.4312164   18.5622699   16.0681164
| 15>     N       17.4668965   19.1834447   18.1739932
| 16>     C       18.3599851   19.1538867   19.2133246
| 17>     S       18.5823819   20.4571287   20.2065773
| 18>     N       19.0581635   17.9849343   19.3898605
| 19>     C       18.8121900   16.7321332   18.6495807
| 20>     C       18.1733701   15.6837930   19.5568829
| 21>     C       18.7171845   14.3890773   19.6421144
| 22>     C       18.1196168   13.4127738   20.4565812
| 23>     C       16.9658964   13.7319386   21.1924502
| 24>     C       16.4181985   15.0188398   21.1073829
| 25>     O       15.2968084   15.3273889   21.8057964
| 26>     C       17.0147844   15.9883592   20.2953132
| 27>     H       13.4866403   14.6533375   16.7697668
| 28>     H       14.3175456   14.4950701   15.2066644
| 29>     H       13.9595942   16.1087963   15.8654818
| 30>     H       15.5442249   15.6786195   17.7731389
| 31>     H       15.9074657   14.0617988   17.1171825
| 32>     H       15.4083557   18.1864766   16.1895139
| 33>     H       16.8264731   18.1600780   15.1267075
| 34>     H       16.3776977   19.6514932   15.9493906
| 35>     H       16.9665850   20.0507379   18.0592847
| 36>     H       19.6909096   17.9816943   20.1798020
| 37>     H       19.7835976   16.3484903   18.3047692
| 38>     H       19.5975613   14.1330744   19.0569304
| 39>     H       18.5477898   12.4131393   20.5083396
| 40>     H       16.4997816   12.9795987   21.8201534
| 41>     H       15.0765201   14.5598529   22.3552528
| 42>     H       16.5746141   16.9785203   20.2467125
| 43> *
| 44>
| 45>                          ****END OF INPUT****

CARTESIAN COORDINATES (ANGSTROEM)
---------------------------------
  C     14.262714   15.088233   16.128196
  C     15.620216   15.088274   16.850333
  O     16.589610   15.657059   15.954674
  C     17.846466   15.833693   16.448991
  O     18.613252   14.888897   16.504600
  C     17.936822   16.973702   17.417719
  C     17.295870   18.155395   17.242422
  C     16.431216   18.562270   16.068116
  N     17.466897   19.183445   18.173993
  C     18.359985   19.153887   19.213325
  S     18.582382   20.457129   20.206577
  N     19.058163   17.984934   19.389861
  C     18.812190   16.732133   18.649581
  C     18.173370   15.683793   19.556883
  C     18.717184   14.389077   19.642114
  C     18.119617   13.412774   20.456581
  C     16.965896   13.731939   21.192450
  C     16.418198   15.018840   21.107383
  O     15.296808   15.327389   21.805796
  C     17.014784   15.988359   20.295313
  H     13.486640   14.653337   16.769767
  H     14.317546   14.495070   15.206664
  H     13.959594   16.108796   15.865482
  H     15.544225   15.678619   17.773139
  H     15.907466   14.061799   17.117182
  H     15.408356   18.186477   16.189514
  H     16.826473   18.160078   15.126707
  H     16.377698   19.651493   15.949391
  H     16.966585   20.050738   18.059285
  H     19.690910   17.981694   20.179802
  H     19.783598   16.348490   18.304769
  H     19.597561   14.133074   19.056930
  H     18.547790   12.413139   20.508340
  H     16.499782   12.979599   21.820153
  H     15.076520   14.559853   22.355253
  H     16.574614   16.978520   20.246713

 Total Charge           Charge          ....    0
 Multiplicity           Mult            ....    1
 Number of Electrons    NEL             ....  154
 Basis Dimension        Dim             ....  828

ORBITAL ENERGIES
----------------

  NO   OCC          E(Eh)            E(eV)
   0   2.0000     -91.890507     -2500.4678
   1   2.0000     -20.597491      -560.4862
   2   2.0000     -20.582907      -560.0894
   3   2.0000     -20.557004      -559.3845
   4   2.0000     -15.630279      -425.3215
   5   2.0000     -15.609860      -424.7659
   6   2.0000     -11.393464      -310.0319
   7   2.0000     -11.386084      -309.8311
   8   2.0000     -11.335239      -308.4475
   9   2.0000     -11.313640      -307.8598
  10   2.0000     -11.310060      -307.7624
  11   2.0000     -11.300124      -307.4920
  12   2.0000     -11.263343      -306.4911
  13   2.0000     -11.260842      -306.4231
  14   2.0000     -11.259210      -306.3787
  15   2.0000     -11.253529      -306.2241
  16   2.0000     -11.243232      -305.9439
  17   2.0000     -11.239244      -305.8354
  18   2.0000     -11.236065      -305.7489
  19   2.0000     -11.233861      -305.6889
  20   2.0000      -8.895573      -242.0609
  21   2.0000      -6.577149      -178.9733
  22   2.0000      -6.575140      -178.9187
  23   2.0000      -6.574553      -178.9027
  24   2.0000      -1.452656       -39.5288
  25   2.0000      -1.417294       -38.5665
  26   2.0000      -1.358021       -36.9536
  27   2.0000      -1.341379       -36.5008
  28   2.0000      -1.239489       -33.7282
  29   2.0000      -1.157838       -31.5064
  30   2.0000      -1.122918       -30.5561
  31   2.0000      -1.046024       -28.4638
  32   2.0000      -1.036570       -28.2065
  33   2.0000      -1.015385       -27.6300
  34   2.0000      -1.001604       -27.2550
  35   2.0000      -0.987309       -26.8661
  36   2.0000      -0.925110       -25.1735
  37   2.0000      -0.879091       -23.9213
  38   2.0000      -0.851380       -23.1672
  39   2.0000      -0.841542       -22.8995
  40   2.0000      -0.833829       -22.6896
  41   2.0000      -0.831973       -22.6391
  42   2.0000      -0.757534       -20.6135
  43   2.0000      -0.736484       -20.0407
  44   2.0000      -0.729965       -19.8634
  45   2.0000      -0.695527       -18.9262
  46   2.0000      -0.687676       -18.7126
  47   2.0000      -0.682390       -18.5688
  48   2.0000      -0.675558       -18.3829
  49   2.0000      -0.657933       -17.9033
  50   2.0000      -0.650931       -17.7127
  51   2.0000      -0.642669       -17.4879
  52   2.0000      -0.631044       -17.1716
  53   2.0000      -0.626195       -17.0396
  54   2.0000      -0.606060       -16.4917
  55   2.0000      -0.605006       -16.4631
  56   2.0000      -0.601080       -16.3562
  57   2.0000      -0.580569       -15.7981
  58   2.0000      -0.576609       -15.6903
  59   2.0000      -0.565632       -15.3916
  60   2.0000      -0.558694       -15.2028
  61   2.0000      -0.550476       -14.9792
  62   2.0000      -0.538644       -14.6572
  63   2.0000      -0.524614       -14.2755
  64   2.0000      -0.523124       -14.2349
  65   2.0000      -0.514255       -13.9936
  66   2.0000      -0.502825       -13.6826
  67   2.0000      -0.498261       -13.5584
  68   2.0000      -0.482428       -13.1275
  69   2.0000      -0.466103       -12.6833
  70   2.0000      -0.459831       -12.5126
  71   2.0000      -0.453639       -12.3441
  72   2.0000      -0.356619        -9.7041
  73   2.0000      -0.349220        -9.5028
  74   2.0000      -0.329749        -8.9729
  75   2.0000      -0.320918        -8.7326
  76   2.0000      -0.317832        -8.6487
  77   0.0000       0.069678         1.8960
  78   0.0000       0.103367         2.8128
  79   0.0000       0.118174         3.2157
  80   0.0000       0.131220         3.5707
  81   0.0000       0.134556         3.6615

MULLIKEN ATOMIC CHARGES
-----------------------
   0 C :   -0.263269
   1 C :    0.018671
   2 O :   -0.366836
   3 C :    0.477546
   4 O :   -0.386385
   5 C :   -0.245157
   6 C :    0.151592
   7 C :   -0.289200
   8 N :   -0.124445
   9 C :    0.198037
  10 S :   -0.437052
  11 N :   -0.202002
  12 C :    0.055325
  13 C :    0.055072
  14 C :   -0.168753
  15 C :   -0.133208
  16 C :   -0.278997
  17 C :    0.321686
  18 O :   -0.359486
  19 C :   -0.310658
  20 H :    0.094894
  21 H :    0.106195
  22 H :    0.089865
  23 H :    0.097363
  24 H :    0.116897
  25 H :    0.119872
  26 H :    0.130590
  27 H :    0.112414
  28 H :    0.197484
  29 H :    0.194552
  30 H :    0.157901
  31 H :    0.160427
  32 H :    0.161972
  33 H :    0.131141
  34 H :    0.241359
  35 H :    0.174594
Sum of atomic charges:    0.0000000

LOEWDIN ATOMIC CHARGES
----------------------
   0 C :    0.110931
   1 C :   -0.020514
   2 O :    0.288514
   3 C :   -0.420249
   4 O :    0.135990
   5 C :   -0.095312
   6 C :   -0.077244
   7 C :    0.127246
   8 N :    0.404291
   9 C :   -0.457965
  10 S :   -0.034487
  11 N :    0.397065
  12 C :   -0.045655
  13 C :   -0.041430
  14 C :    0.022247
  15 C :    0.042940
  16 C :   -0.001636
  17 C :   -0.195104
  18 O :    0.393470
  19 C :    0.027412
  20 H :   -0.023406
  21 H :   -0.023514
  22 H :   -0.031817
  23 H :   -0.036623
  24 H :   -0.025007
  25 H :   -0.012514
  26 H :   -0.006339
  27 H :   -0.017811
  28 H :   -0.058358
  29 H :   -0.063857
  30 H :   -0.003726
  31 H :   -0.023629
  32 H :   -0.019722
  33 H :   -0.035297
  34 H :   -0.153473
  35 H :   -0.025416

  Mayer bond orders larger than 0.100000
B(  0-C ,  1-C ) :   0.9781 B(  0-C , 20-H ) :   0.9760 B(  0-C , 21-H ) :   0.9788
B(  0-C , 22-H ) :   0.9780 B(  1-C ,  2-O ) :   0.8923 B(  1-C , 23-H ) :   0.9631
B(  1-C , 24-H ) :   0.9782 B(  2-O ,  3-C ) :   1.1063 B(  3-C ,  4-O ) :   2.0620
B(  3-C ,  5-C ) :   0.9903 B(  5-C ,  6-C ) :   1.6615 B(  5-C , 12-C ) :   0.9623
B(  6-C ,  7-C ) :   0.9531 B(  6-C ,  8-N ) :   1.1364 B(  7-C , 25-H ) :   0.9637
B(  7-C , 26-H ) :   0.9697 B(  7-C , 27-H ) :   0.9864 B(  8-N ,  9-C ) :   1.1831
B(  8-N , 28-H ) :   0.9498 B(  9-C , 10-S ) :   1.6146 B(  9-C , 11-N ) :   1.2980
B( 11-N , 12-C ) :   0.9936 B( 11-N , 29-H ) :   0.9518 B( 12-C , 13-C ) :   0.9448
B( 12-C , 30-H ) :   0.9988 B( 13-C , 14-C ) :   1.3830 B( 13-C , 19-C ) :   1.3466
B( 14-C , 15-C ) :   1.3951 B( 14-C , 31-H ) :   0.9618 B( 15-C , 16-C ) :   1.3645
B( 15-C , 32-H ) :   0.9704 B( 16-C , 17-C ) :   1.3309 B( 16-C , 33-H ) :   0.9847
B( 17-C , 18-O ) :   1.1107 B( 17-C , 19-C ) :   1.3672 B( 18-O , 34-H ) :   0.9797
B( 19-C , 35-H ) :   0.9585

MP2 TOTAL ENERGY:    -1274.325085024 Eh
FINAL SINGLE POINT ENERGY     -1274.325085024287

DIPOLE MOMENT
-------------
                                X             Y             Z
Electronic contribution:     11.77577       7.80915       7.47790
Nuclear contribution   :    -13.10110      -8.94883      -7.90198
                        -----------------------------------------
Total Dipole Moment    :     -1.32533      -1.13967      -0.42408
                        -----------------------------------------
Magnitude (a.u.)       :      1.79867
Magnitude (Debye)      :      4.57185

Rotational constants in cm-1:     0.011251     0.009364     0.006759
Rotational constants in MHz :   337.306341   280.719691   202.623626

                             ****ORCA TERMINATED NORMALLY****
TOTAL RUN TIME: 0 days 2 hours 4 minutes 59 seconds 741 msec
