                         Program Version 4.2.0 -  RELEASE  -
|  1> ! ri-mp2 cc-pvtz cc-pvtz/c TightSCF  NoKeepInts
|  2>
|  3> %scf
|  4>   MaxCore 4096
|  5> end
|  6> *xyz  0  1
|  7>     C       16.0372648   13.0915659   17.2763026
|  8>     C       15.8532524   14.3493638   16.4116815
|  9>     O       17.0773747   15.1045892   16.4406862
| 10>     C       16.9922971   16.4452957   16.1971148
| 11>     O       16.2038197   16.8814779   15.3758540
| 12>     C       17.6398058   17.2852428   17.2640235
| 13>     C       17.5670862   18.6416004   17.2641223
| 14>     C       16.8397127   19.5241780   16.2720034
| 15>     N       18.2517911   19.3797678   18.2340567
| 16>     C       19.1506173   18.8548047   19.1233684
| 17>     S       20.0337191   19.8101697   20.1450249
| 18>     N       19.2947642   17.4912245   19.1111796
| 19>     C       18.4332542   16.5576775   18.3634601
| 20>     C       17.5542301   15.7987647   19.3545715
| 21>     C       18.0470788   14.6294631   19.9645404
| 22>     C       17.2718059   13.9289017   20.9039994
| 23>     C       15.9911549   14.4008969   21.2376573
| 24>     C       15.4996706   15.5690958   20.6395654
| 25>     O       14.2656495   16.0304625   20.9635887
| 26>     C       16.2751617   16.2675156   19.7089135
| 27>     H       16.9136490   12.5192100   16.9482918
| 28>     H       15.1555573   12.4438602   17.2015179
| 29>     H       16.1695523   13.3603737   18.3292134
| 30>     H       15.6043649   14.0758171   15.3777321
| 31>     H       15.0242105   14.9424972   16.8223583
| 32>     H       15.7624765   19.3146588   16.2873028
| 33>     H       17.1954356   19.3333342   15.2514746
| 34>     H       16.9717087   20.5940219   16.4717676
| 35>     H       18.1628173   20.3831533   18.2506330
| 36>     H       19.9420184   17.1321780   19.8006926
| 37>     H       19.0884941   15.8276603   17.8670836
| 38>     H       19.0375839   14.2625096   19.7092000
| 39>     H       17.6634893   13.0259557   21.3694332
| 40>     H       15.3879809   13.8632714   21.9619353
| 41>     H       13.9111913   15.4526754   21.6562540
| 42>     H       15.8769594   17.1787651   19.2773958
| 43> *
| 44>
| 45>                          ****END OF INPUT****

CARTESIAN COORDINATES (ANGSTROEM)
---------------------------------
  C     16.037265   13.091566   17.276303
  C     15.853252   14.349364   16.411682
  O     17.077375   15.104589   16.440686
  C     16.992297   16.445296   16.197115
  O     16.203820   16.881478   15.375854
  C     17.639806   17.285243   17.264024
  C     17.567086   18.641600   17.264122
  C     16.839713   19.524178   16.272003
  N     18.251791   19.379768   18.234057
  C     19.150617   18.854805   19.123368
  S     20.033719   19.810170   20.145025
  N     19.294764   17.491225   19.111180
  C     18.433254   16.557678   18.363460
  C     17.554230   15.798765   19.354571
  C     18.047079   14.629463   19.964540
  C     17.271806   13.928902   20.903999
  C     15.991155   14.400897   21.237657
  C     15.499671   15.569096   20.639565
  O     14.265649   16.030462   20.963589
  C     16.275162   16.267516   19.708914
  H     16.913649   12.519210   16.948292
  H     15.155557   12.443860   17.201518
  H     16.169552   13.360374   18.329213
  H     15.604365   14.075817   15.377732
  H     15.024210   14.942497   16.822358
  H     15.762477   19.314659   16.287303
  H     17.195436   19.333334   15.251475
  H     16.971709   20.594022   16.471768
  H     18.162817   20.383153   18.250633
  H     19.942018   17.132178   19.800693
  H     19.088494   15.827660   17.867084
  H     19.037584   14.262510   19.709200
  H     17.663489   13.025956   21.369433
  H     15.387981   13.863271   21.961935
  H     13.911191   15.452675   21.656254
  H     15.876959   17.178765   19.277396

 Total Charge           Charge          ....    0
 Multiplicity           Mult            ....    1
 Number of Electrons    NEL             ....  154
 Basis Dimension        Dim             ....  828

ORBITAL ENERGIES
----------------

  NO   OCC          E(Eh)            E(eV)
   0   2.0000     -91.889653     -2500.4446
   1   2.0000     -20.601078      -560.5838
   2   2.0000     -20.592175      -560.3416
   3   2.0000     -20.543619      -559.0203
   4   2.0000     -15.630323      -425.3227
   5   2.0000     -15.609016      -424.7429
   6   2.0000     -11.392909      -310.0168
   7   2.0000     -11.384653      -309.7922
   8   2.0000     -11.337536      -308.5100
   9   2.0000     -11.318492      -307.9918
  10   2.0000     -11.310992      -307.7877
  11   2.0000     -11.293741      -307.3183
  12   2.0000     -11.264390      -306.5196
  13   2.0000     -11.259739      -306.3931
  14   2.0000     -11.259634      -306.3902
  15   2.0000     -11.253131      -306.2133
  16   2.0000     -11.246358      -306.0290
  17   2.0000     -11.241398      -305.8940
  18   2.0000     -11.241350      -305.8927
  19   2.0000     -11.222775      -305.3872
  20   2.0000      -8.894701      -242.0371
  21   2.0000      -6.576273      -178.9495
  22   2.0000      -6.574270      -178.8950
  23   2.0000      -6.573683      -178.8790
  24   2.0000      -1.450468       -39.4692
  25   2.0000      -1.420693       -38.6590
  26   2.0000      -1.352380       -36.8001
  27   2.0000      -1.341403       -36.5014
  28   2.0000      -1.240022       -33.7427
  29   2.0000      -1.160892       -31.5895
  30   2.0000      -1.121361       -30.5138
  31   2.0000      -1.044935       -28.4341
  32   2.0000      -1.035129       -28.1673
  33   2.0000      -1.019300       -27.7366
  34   2.0000      -0.997498       -27.1433
  35   2.0000      -0.985053       -26.8047
  36   2.0000      -0.924647       -25.1609
  37   2.0000      -0.883501       -24.0413
  38   2.0000      -0.848871       -23.0990
  39   2.0000      -0.841088       -22.8872
  40   2.0000      -0.836052       -22.7501
  41   2.0000      -0.819572       -22.3017
  42   2.0000      -0.763020       -20.7628
  43   2.0000      -0.735268       -20.0077
  44   2.0000      -0.722003       -19.6467
  45   2.0000      -0.699058       -19.0223
  46   2.0000      -0.687888       -18.7184
  47   2.0000      -0.678432       -18.4611
  48   2.0000      -0.674918       -18.3655
  49   2.0000      -0.664666       -18.0865
  50   2.0000      -0.648060       -17.6346
  51   2.0000      -0.645591       -17.5674
  52   2.0000      -0.639098       -17.3907
  53   2.0000      -0.612577       -16.6691
  54   2.0000      -0.604206       -16.4413
  55   2.0000      -0.601179       -16.3589
  56   2.0000      -0.594469       -16.1763
  57   2.0000      -0.581020       -15.8104
  58   2.0000      -0.572218       -15.5708
  59   2.0000      -0.567009       -15.4291
  60   2.0000      -0.553194       -15.0532
  61   2.0000      -0.550666       -14.9844
  62   2.0000      -0.537919       -14.6375
  63   2.0000      -0.529614       -14.4115
  64   2.0000      -0.517110       -14.0713
  65   2.0000      -0.511850       -13.9281
  66   2.0000      -0.505227       -13.7479
  67   2.0000      -0.499027       -13.5792
  68   2.0000      -0.485786       -13.2189
  69   2.0000      -0.464034       -12.6270
  70   2.0000      -0.455047       -12.3825
  71   2.0000      -0.445499       -12.1226
  72   2.0000      -0.355962        -9.6862
  73   2.0000      -0.353679        -9.6241
  74   2.0000      -0.329964        -8.9788
  75   2.0000      -0.325195        -8.8490
  76   2.0000      -0.317646        -8.6436
  77   0.0000       0.073783         2.0077
  78   0.0000       0.103552         2.8178
  79   0.0000       0.121388         3.3031
  80   0.0000       0.128205         3.4886
  81   0.0000       0.131644         3.5822

MULLIKEN ATOMIC CHARGES
-----------------------
   0 C :   -0.277332
   1 C :    0.038037
   2 O :   -0.366416
   3 C :    0.467353
   4 O :   -0.419458
   5 C :   -0.270594
   6 C :    0.166504
   7 C :   -0.267116
   8 N :   -0.126174
   9 C :    0.222557
  10 S :   -0.442360
  11 N :   -0.215420
  12 C :    0.073397
  13 C :    0.084393
  14 C :   -0.226283
  15 C :   -0.128125
  16 C :   -0.276628
  17 C :    0.309134
  18 O :   -0.356902
  19 C :   -0.251744
  20 H :    0.094131
  21 H :    0.097631
  22 H :    0.108527
  23 H :    0.115697
  24 H :    0.089710
  25 H :    0.130929
  26 H :    0.132076
  27 H :    0.095607
  28 H :    0.197343
  29 H :    0.194253
  30 H :    0.147409
  31 H :    0.151004
  32 H :    0.161139
  33 H :    0.131963
  34 H :    0.242202
  35 H :    0.173556
Sum of atomic charges:    0.0000000

LOEWDIN ATOMIC CHARGES
----------------------
   0 C :    0.109107
   1 C :   -0.018365
   2 O :    0.296756
   3 C :   -0.418324
   4 O :    0.106574
   5 C :   -0.096984
   6 C :   -0.057129
   7 C :    0.131412
   8 N :    0.408116
   9 C :   -0.453457
  10 S :   -0.035736
  11 N :    0.395737
  12 C :   -0.052344
  13 C :   -0.032402
  14 C :    0.010170
  15 C :    0.043306
  16 C :   -0.002986
  17 C :   -0.189736
  18 O :    0.396161
  19 C :    0.029400
  20 H :   -0.028252
  21 H :   -0.025452
  22 H :   -0.026873
  23 H :   -0.029258
  24 H :   -0.029788
  25 H :   -0.005190
  26 H :   -0.003424
  27 H :   -0.023169
  28 H :   -0.057321
  29 H :   -0.066745
  30 H :   -0.008446
  31 H :   -0.031026
  32 H :   -0.019849
  33 H :   -0.035038
  34 H :   -0.152646
  35 H :   -0.026798

  Mayer bond orders larger than 0.100000
B(  0-C ,  1-C ) :   0.9732 B(  0-C , 20-H ) :   0.9767 B(  0-C , 21-H ) :   0.9796
B(  0-C , 22-H ) :   0.9734 B(  1-C ,  2-O ) :   0.8861 B(  1-C , 23-H ) :   0.9859
B(  1-C , 24-H ) :   0.9700 B(  2-O ,  3-C ) :   1.1422 B(  3-C ,  4-O ) :   1.9964
B(  3-C ,  5-C ) :   1.0608 B(  5-C ,  6-C ) :   1.6442 B(  5-C , 12-C ) :   0.9790
B(  6-C ,  7-C ) :   0.9662 B(  6-C ,  8-N ) :   1.1637 B(  7-C , 25-H ) :   0.9601
B(  7-C , 26-H ) :   0.9597 B(  7-C , 27-H ) :   0.9904 B(  8-N ,  9-C ) :   1.1855
B(  8-N , 28-H ) :   0.9478 B(  9-C , 10-S ) :   1.5971 B(  9-C , 11-N ) :   1.3090
B( 11-N , 12-C ) :   0.9534 B( 11-N , 29-H ) :   0.9510 B( 12-C , 13-C ) :   0.9487
B( 12-C , 30-H ) :   1.0011 B( 13-C , 14-C ) :   1.3548 B( 13-C , 19-C ) :   1.3655
B( 14-C , 15-C ) :   1.3988 B( 14-C , 31-H ) :   0.9726 B( 15-C , 16-C ) :   1.3592
B( 15-C , 32-H ) :   0.9715 B( 16-C , 17-C ) :   1.3344 B( 16-C , 33-H ) :   0.9851
B( 17-C , 18-O ) :   1.1147 B( 17-C , 19-C ) :   1.3645 B( 18-O , 34-H ) :   0.9788
B( 19-C , 35-H ) :   0.9549

MP2 TOTAL ENERGY:    -1274.341586995 Eh
FINAL SINGLE POINT ENERGY     -1274.341586994649

DIPOLE MOMENT
-------------
                                X             Y             Z
Electronic contribution:      8.19666      11.26676       4.54009
Nuclear contribution   :     -9.21020     -12.74947      -4.44460
                        -----------------------------------------
Total Dipole Moment    :     -1.01354      -1.48271       0.09549
                        -----------------------------------------
Magnitude (a.u.)       :      1.79856
Magnitude (Debye)      :      4.57156

Rotational constants in cm-1:     0.012617     0.008654     0.006433
Rotational constants in MHz :   378.236969   259.427435   192.858884

                             ****ORCA TERMINATED NORMALLY****
TOTAL RUN TIME: 0 days 1 hours 44 minutes 43 seconds 922 msec
