                         Program Version 4.2.0 -  RELEASE  -
|  1> ! ri-mp2 cc-pvtz cc-pvtz/c TightSCF  NoKeepInts
|  2>
|  3> %scf
|  4>   MaxCore 4096
|  5> end
|  6> *xyz  0  1
|  7>     C       14.8948795   14.9170493   17.5286002
|  8>     C       15.6391567   15.3853040   16.2679167
|  9>     O       17.0011608   14.9263799   16.3479881
| 10>     C       18.1110311   15.7278050   16.4345178
| 11>     O       19.2011937   15.1998257   16.3183361
| 12>     C       17.9709004   16.8889844   17.3621930
| 13>     C       17.4989579   18.0867943   16.9460251
| 14>     C       17.0379425   18.4515165   15.5502749
| 15>     N       17.5079182   19.1797651   17.8150581
| 16>     C       18.1152319   19.1914244   19.0435731
| 17>     S       18.1613961   20.5559539   19.9763840
| 18>     N       18.6903118   18.0152401   19.4578823
| 19>     C       18.5853909   16.7197240   18.7554879
| 20>     C       17.8440637   15.6764889   19.5901923
| 21>     C       18.1887902   14.3171085   19.4711501
| 22>     C       17.5199500   13.3367810   20.2223190
| 23>     C       16.4969568   13.7165969   21.1068704
| 24>     C       16.1501232   15.0682081   21.2321639
| 25>     O       15.1554777   15.4371136   22.0778070
| 26>     C       16.8160414   16.0427851   20.4815282
| 27>     H       15.2108746   15.4960558   18.4012545
| 28>     H       15.0908493   13.8555023   17.7267382
| 29>     H       13.8130045   15.0512222   17.4100777
| 30>     H       15.1660195   14.9276557   15.3893589
| 31>     H       15.5513941   16.4689405   16.1678698
| 32>     H       17.1875403   17.6368237   14.8314601
| 33>     H       17.6038372   19.3118287   15.1696819
| 34>     H       15.9743204   18.7202353   15.5414554
| 35>     H       17.1135051   20.0590972   17.5198105
| 36>     H       19.1252443   18.0506857   20.3712157
| 37>     H       19.6106110   16.3468327   18.6123132
| 38>     H       18.9741477   14.0171914   18.7801109
| 39>     H       17.7947049   12.2890145   20.1132971
| 40>     H       15.9766633   12.9622228   21.6876469
| 41>     H       14.8495331   14.6379108   22.5325665
| 42>     H       16.5178760   17.0799320   20.5928740
| 43> *
| 44>
| 45>                          ****END OF INPUT****

CARTESIAN COORDINATES (ANGSTROEM)
---------------------------------
  C     14.894880   14.917049   17.528600
  C     15.639157   15.385304   16.267917
  O     17.001161   14.926380   16.347988
  C     18.111031   15.727805   16.434518
  O     19.201194   15.199826   16.318336
  C     17.970900   16.888984   17.362193
  C     17.498958   18.086794   16.946025
  C     17.037942   18.451517   15.550275
  N     17.507918   19.179765   17.815058
  C     18.115232   19.191424   19.043573
  S     18.161396   20.555954   19.976384
  N     18.690312   18.015240   19.457882
  C     18.585391   16.719724   18.755488
  C     17.844064   15.676489   19.590192
  C     18.188790   14.317108   19.471150
  C     17.519950   13.336781   20.222319
  C     16.496957   13.716597   21.106870
  C     16.150123   15.068208   21.232164
  O     15.155478   15.437114   22.077807
  C     16.816041   16.042785   20.481528
  H     15.210875   15.496056   18.401255
  H     15.090849   13.855502   17.726738
  H     13.813004   15.051222   17.410078
  H     15.166019   14.927656   15.389359
  H     15.551394   16.468940   16.167870
  H     17.187540   17.636824   14.831460
  H     17.603837   19.311829   15.169682
  H     15.974320   18.720235   15.541455
  H     17.113505   20.059097   17.519810
  H     19.125244   18.050686   20.371216
  H     19.610611   16.346833   18.612313
  H     18.974148   14.017191   18.780111
  H     17.794705   12.289015   20.113297
  H     15.976663   12.962223   21.687647
  H     14.849533   14.637911   22.532567
  H     16.517876   17.079932   20.592874

 Total Charge           Charge          ....    0
 Multiplicity           Mult            ....    1
 Number of Electrons    NEL             ....  154
 Basis Dimension        Dim             ....  828

ORBITAL ENERGIES
----------------

  NO   OCC          E(Eh)            E(eV)
   0   2.0000     -91.889060     -2500.4284
   1   2.0000     -20.602347      -560.6184
   2   2.0000     -20.597316      -560.4815
   3   2.0000     -20.555241      -559.3365
   4   2.0000     -15.624935      -425.1761
   5   2.0000     -15.611086      -424.7993
   6   2.0000     -11.399368      -310.1926
   7   2.0000     -11.385816      -309.8238
   8   2.0000     -11.326957      -308.2222
   9   2.0000     -11.316356      -307.9337
  10   2.0000     -11.314054      -307.8711
  11   2.0000     -11.304932      -307.6228
  12   2.0000     -11.272330      -306.7357
  13   2.0000     -11.267854      -306.6139
  14   2.0000     -11.262624      -306.4716
  15   2.0000     -11.254544      -306.2517
  16   2.0000     -11.243255      -305.9445
  17   2.0000     -11.239297      -305.8368
  18   2.0000     -11.236155      -305.7513
  19   2.0000     -11.225918      -305.4728
  20   2.0000      -8.894182      -242.0230
  21   2.0000      -6.575777      -178.9360
  22   2.0000      -6.573744      -178.8807
  23   2.0000      -6.573175      -178.8652
  24   2.0000      -1.452934       -39.5363
  25   2.0000      -1.417137       -38.5622
  26   2.0000      -1.362012       -37.0622
  27   2.0000      -1.339307       -36.4444
  28   2.0000      -1.239265       -33.7221
  29   2.0000      -1.158671       -31.5291
  30   2.0000      -1.124959       -30.6117
  31   2.0000      -1.047891       -28.5146
  32   2.0000      -1.039015       -28.2730
  33   2.0000      -1.017240       -27.6805
  34   2.0000      -1.004753       -27.3407
  35   2.0000      -0.988958       -26.9109
  36   2.0000      -0.927340       -25.2342
  37   2.0000      -0.887784       -24.1578
  38   2.0000      -0.854216       -23.2444
  39   2.0000      -0.840564       -22.8729
  40   2.0000      -0.834102       -22.6971
  41   2.0000      -0.833329       -22.6760
  42   2.0000      -0.757468       -20.6118
  43   2.0000      -0.738799       -20.1038
  44   2.0000      -0.730164       -19.8688
  45   2.0000      -0.695418       -18.9233
  46   2.0000      -0.689178       -18.7535
  47   2.0000      -0.683076       -18.5875
  48   2.0000      -0.675864       -18.3912
  49   2.0000      -0.663698       -18.0601
  50   2.0000      -0.652879       -17.7657
  51   2.0000      -0.639676       -17.4065
  52   2.0000      -0.632307       -17.2060
  53   2.0000      -0.623753       -16.9732
  54   2.0000      -0.612059       -16.6550
  55   2.0000      -0.605637       -16.4802
  56   2.0000      -0.601321       -16.3628
  57   2.0000      -0.589892       -16.0518
  58   2.0000      -0.576658       -15.6917
  59   2.0000      -0.569368       -15.4933
  60   2.0000      -0.564243       -15.3538
  61   2.0000      -0.557922       -15.1818
  62   2.0000      -0.536894       -14.6096
  63   2.0000      -0.533305       -14.5120
  64   2.0000      -0.517026       -14.0690
  65   2.0000      -0.512405       -13.9432
  66   2.0000      -0.503880       -13.7113
  67   2.0000      -0.501337       -13.6421
  68   2.0000      -0.485958       -13.2236
  69   2.0000      -0.467768       -12.7286
  70   2.0000      -0.455490       -12.3945
  71   2.0000      -0.450051       -12.2465
  72   2.0000      -0.357464        -9.7271
  73   2.0000      -0.348621        -9.4865
  74   2.0000      -0.328859        -8.9487
  75   2.0000      -0.322078        -8.7642
  76   2.0000      -0.317755        -8.6466
  77   0.0000       0.091753         2.4967
  78   0.0000       0.102635         2.7928
  79   0.0000       0.109524         2.9803
  80   0.0000       0.128030         3.4839
  81   0.0000       0.130915         3.5624

MULLIKEN ATOMIC CHARGES
-----------------------
   0 C :   -0.285670
   1 C :    0.013048
   2 O :   -0.309706
   3 C :    0.389491
   4 O :   -0.373095
   5 C :   -0.152937
   6 C :    0.116904
   7 C :   -0.323855
   8 N :   -0.138423
   9 C :    0.208837
  10 S :   -0.443543
  11 N :   -0.233677
  12 C :    0.075797
  13 C :    0.023861
  14 C :   -0.198306
  15 C :   -0.143997
  16 C :   -0.268710
  17 C :    0.316172
  18 O :   -0.358415
  19 C :   -0.270903
  20 H :    0.106479
  21 H :    0.110932
  22 H :    0.101389
  23 H :    0.118805
  24 H :    0.083043
  25 H :    0.118223
  26 H :    0.141599
  27 H :    0.121040
  28 H :    0.194394
  29 H :    0.204029
  30 H :    0.169690
  31 H :    0.169259
  32 H :    0.164543
  33 H :    0.132106
  34 H :    0.240701
  35 H :    0.180893
Sum of atomic charges:   -0.0000000

LOEWDIN ATOMIC CHARGES
----------------------
   0 C :    0.109300
   1 C :   -0.025152
   2 O :    0.318500
   3 C :   -0.420974
   4 O :    0.131963
   5 C :   -0.076090
   6 C :   -0.112229
   7 C :    0.120131
   8 N :    0.400512
   9 C :   -0.456380
  10 S :   -0.039877
  11 N :    0.398276
  12 C :   -0.040756
  13 C :   -0.040916
  14 C :    0.023382
  15 C :    0.045423
  16 C :   -0.001341
  17 C :   -0.192867
  18 O :    0.395697
  19 C :    0.025049
  20 H :   -0.029932
  21 H :   -0.022197
  22 H :   -0.027300
  23 H :   -0.026971
  24 H :   -0.038780
  25 H :   -0.011162
  26 H :   -0.008619
  27 H :   -0.017562
  28 H :   -0.058722
  29 H :   -0.063744
  30 H :   -0.001505
  31 H :   -0.022000
  32 H :   -0.018756
  33 H :   -0.035271
  34 H :   -0.153484
  35 H :   -0.025647

  Mayer bond orders larger than 0.100000
B(  0-C ,  1-C ) :   0.9721 B(  0-C , 20-H ) :   0.9719 B(  0-C , 21-H ) :   0.9747
B(  0-C , 22-H ) :   0.9780 B(  1-C ,  2-O ) :   0.9207 B(  1-C , 23-H ) :   0.9847
B(  1-C , 24-H ) :   0.9677 B(  2-O ,  3-C ) :   1.1269 B(  3-C ,  4-O ) :   2.0865
B(  3-C ,  5-C ) :   0.9192 B(  5-C ,  6-C ) :   1.7121 B(  5-C , 12-C ) :   0.9583
B(  6-C ,  7-C ) :   0.9408 B(  6-C ,  8-N ) :   1.1041 B(  7-C , 25-H ) :   0.9832
B(  7-C , 26-H ) :   0.9686 B(  7-C , 27-H ) :   0.9681 B(  8-N ,  9-C ) :   1.2028
B(  8-N , 28-H ) :   0.9537 B(  9-C , 10-S ) :   1.6044 B(  9-C , 11-N ) :   1.2862
B( 11-N , 12-C ) :   0.9790 B( 11-N , 29-H ) :   0.9462 B( 12-C , 13-C ) :   0.9508
B( 12-C , 30-H ) :   0.9950 B( 13-C , 14-C ) :   1.3861 B( 13-C , 19-C ) :   1.3426
B( 14-C , 15-C ) :   1.4028 B( 14-C , 31-H ) :   0.9613 B( 15-C , 16-C ) :   1.3544
B( 15-C , 32-H ) :   0.9696 B( 16-C , 17-C ) :   1.3342 B( 16-C , 33-H ) :   0.9847
B( 17-C , 18-O ) :   1.1075 B( 17-C , 19-C ) :   1.3624 B( 18-O , 34-H ) :   0.9799
B( 19-C , 35-H ) :   0.9579

MP2 TOTAL ENERGY:    -1274.322251927 Eh
FINAL SINGLE POINT ENERGY     -1274.322251926802

DIPOLE MOMENT
-------------
                                X             Y             Z
Electronic contribution:      9.72947       7.20351       6.40755
Nuclear contribution   :    -11.29012      -8.28968      -7.24158
                        -----------------------------------------
Total Dipole Moment    :     -1.56065      -1.08617      -0.83403
                        -----------------------------------------
Magnitude (a.u.)       :      2.07629
Magnitude (Debye)      :      5.27751

Rotational constants in cm-1:     0.012082     0.009417     0.006706
Rotational constants in MHz :   362.218107   282.305442   201.026280

                             ****ORCA TERMINATED NORMALLY****
TOTAL RUN TIME: 0 days 1 hours 49 minutes 50 seconds 645 msec
