                         Program Version 4.2.0 -  RELEASE  -
|  1> ! ri-mp2 cc-pvtz cc-pvtz/c TightSCF  NoKeepInts
|  2>
|  3> %scf
|  4>   MaxCore 4096
|  5> end
|  6> *xyz  0  1
|  7>     C       14.7919363   14.8594005   16.1563713
|  8>     C       15.9641779   14.7003390   17.1414052
|  9>     O       17.1887599   14.9166200   16.4113869
| 10>     C       17.6282092   16.1846638   16.1563745
| 11>     O       17.6076947   16.6077858   15.0153979
| 12>     C       17.7686226   17.0773019   17.3566550
| 13>     C       17.3612130   18.3695728   17.3303335
| 14>     C       16.5671956   19.0478667   16.2356218
| 15>     N       17.7058761   19.2327668   18.3738083
| 16>     C       18.6340328   18.9447462   19.3397411
| 17>     S       19.1260875   20.0719121   20.4450009
| 18>     N       19.1402777   17.6684326   19.3404463
| 19>     C       18.6117381   16.5512778   18.5335711
| 20>     C       17.8911681   15.5662629   19.4481452
| 21>     C       18.2587914   14.2073219   19.4566878
| 22>     C       17.5970268   13.2925249   20.2927294
| 23>     C       16.5630291   13.7398180   21.1325437
| 24>     C       16.2004620   15.0934167   21.1349849
| 25>     O       15.2001350   15.5280412   21.9413226
| 26>     C       16.8590940   16.0016886   20.3003074
| 27>     H       14.7516293   15.8795073   15.7547728
| 28>     H       13.8382900   14.6499260   16.6558278
| 29>     H       14.8990387   14.1633102   15.3148276
| 30>     H       15.8332284   15.4096473   17.9641228
| 31>     H       15.9557689   13.6830572   17.5538581
| 32>     H       15.7680252   18.3928291   15.8672549
| 33>     H       17.2163589   19.2798430   15.3811230
| 34>     H       16.0984882   19.9813176   16.5686594
| 35>     H       17.3626498   20.1802967   18.3708702
| 36>     H       19.8085818   17.4812585   20.0773464
| 37>     H       19.4762744   16.0292011   18.0992986
| 38>     H       19.0540802   13.8553132   18.8041797
| 39>     H       17.8867894   12.2427915   20.2885665
| 40>     H       16.0495332   13.0364044   21.7801760
| 41>     H       14.9184477   14.7797256   22.4892698
| 42>     H       16.5642881   17.0458108   20.3210118
| 43> *
| 44>
| 45>                          ****END OF INPUT****

CARTESIAN COORDINATES (ANGSTROEM)
---------------------------------
  C     14.791936   14.859400   16.156371
  C     15.964178   14.700339   17.141405
  O     17.188760   14.916620   16.411387
  C     17.628209   16.184664   16.156374
  O     17.607695   16.607786   15.015398
  C     17.768623   17.077302   17.356655
  C     17.361213   18.369573   17.330333
  C     16.567196   19.047867   16.235622
  N     17.705876   19.232767   18.373808
  C     18.634033   18.944746   19.339741
  S     19.126088   20.071912   20.445001
  N     19.140278   17.668433   19.340446
  C     18.611738   16.551278   18.533571
  C     17.891168   15.566263   19.448145
  C     18.258791   14.207322   19.456688
  C     17.597027   13.292525   20.292729
  C     16.563029   13.739818   21.132544
  C     16.200462   15.093417   21.134985
  O     15.200135   15.528041   21.941323
  C     16.859094   16.001689   20.300307
  H     14.751629   15.879507   15.754773
  H     13.838290   14.649926   16.655828
  H     14.899039   14.163310   15.314828
  H     15.833228   15.409647   17.964123
  H     15.955769   13.683057   17.553858
  H     15.768025   18.392829   15.867255
  H     17.216359   19.279843   15.381123
  H     16.098488   19.981318   16.568659
  H     17.362650   20.180297   18.370870
  H     19.808582   17.481258   20.077346
  H     19.476274   16.029201   18.099299
  H     19.054080   13.855313   18.804180
  H     17.886789   12.242791   20.288567
  H     16.049533   13.036404   21.780176
  H     14.918448   14.779726   22.489270
  H     16.564288   17.045811   20.321012

 Total Charge           Charge          ....    0
 Multiplicity           Mult            ....    1
 Number of Electrons    NEL             ....  154
 Basis Dimension        Dim             ....  828

ORBITAL ENERGIES
----------------

  NO   OCC          E(Eh)            E(eV)
   0   2.0000     -91.891798     -2500.5030
   1   2.0000     -20.602952      -560.6348
   2   2.0000     -20.585853      -560.1695
   3   2.0000     -20.552612      -559.2650
   4   2.0000     -15.630277      -425.3215
   5   2.0000     -15.611839      -424.8197
   6   2.0000     -11.394095      -310.0491
   7   2.0000     -11.386885      -309.8529
   8   2.0000     -11.334678      -308.4323
   9   2.0000     -11.321107      -308.0630
  10   2.0000     -11.317578      -307.9669
  11   2.0000     -11.296785      -307.4011
  12   2.0000     -11.266489      -306.5767
  13   2.0000     -11.262132      -306.4582
  14   2.0000     -11.260491      -306.4135
  15   2.0000     -11.256156      -306.2956
  16   2.0000     -11.250563      -306.1434
  17   2.0000     -11.244998      -305.9920
  18   2.0000     -11.244852      -305.9880
  19   2.0000     -11.225183      -305.4527
  20   2.0000      -8.896835      -242.0952
  21   2.0000      -6.578404      -179.0075
  22   2.0000      -6.576403      -178.9530
  23   2.0000      -6.575810      -178.9369
  24   2.0000      -1.447026       -39.3756
  25   2.0000      -1.422727       -38.7144
  26   2.0000      -1.355924       -36.8966
  27   2.0000      -1.342398       -36.5285
  28   2.0000      -1.241758       -33.7900
  29   2.0000      -1.163889       -31.6710
  30   2.0000      -1.123246       -30.5651
  31   2.0000      -1.048742       -28.5377
  32   2.0000      -1.032277       -28.0897
  33   2.0000      -1.022384       -27.8205
  34   2.0000      -1.001672       -27.2569
  35   2.0000      -0.988430       -26.8965
  36   2.0000      -0.927864       -25.2485
  37   2.0000      -0.885227       -24.0883
  38   2.0000      -0.851891       -23.1811
  39   2.0000      -0.845030       -22.9944
  40   2.0000      -0.841182       -22.8897
  41   2.0000      -0.833399       -22.6779
  42   2.0000      -0.754782       -20.5387
  43   2.0000      -0.736837       -20.0504
  44   2.0000      -0.720337       -19.6014
  45   2.0000      -0.702045       -19.1036
  46   2.0000      -0.692834       -18.8530
  47   2.0000      -0.681759       -18.5516
  48   2.0000      -0.671559       -18.2741
  49   2.0000      -0.668795       -18.1988
  50   2.0000      -0.653066       -17.7708
  51   2.0000      -0.648729       -17.6528
  52   2.0000      -0.638169       -17.3655
  53   2.0000      -0.612749       -16.6737
  54   2.0000      -0.608873       -16.5683
  55   2.0000      -0.603412       -16.4197
  56   2.0000      -0.600618       -16.3436
  57   2.0000      -0.582671       -15.8553
  58   2.0000      -0.576754       -15.6943
  59   2.0000      -0.569612       -15.4999
  60   2.0000      -0.558955       -15.2099
  61   2.0000      -0.551617       -15.0102
  62   2.0000      -0.542093       -14.7511
  63   2.0000      -0.530296       -14.4301
  64   2.0000      -0.522634       -14.2216
  65   2.0000      -0.518382       -14.1059
  66   2.0000      -0.506358       -13.7787
  67   2.0000      -0.500000       -13.6057
  68   2.0000      -0.481329       -13.0976
  69   2.0000      -0.468654       -12.7527
  70   2.0000      -0.453639       -12.3441
  71   2.0000      -0.447043       -12.1646
  72   2.0000      -0.359031        -9.7697
  73   2.0000      -0.353732        -9.6255
  74   2.0000      -0.331580        -9.0227
  75   2.0000      -0.328746        -8.9456
  76   2.0000      -0.319719        -8.7000
  77   0.0000       0.074076         2.0157
  78   0.0000       0.098860         2.6901
  79   0.0000       0.118901         3.2355
  80   0.0000       0.126943         3.4543
  81   0.0000       0.129768         3.5312

MULLIKEN ATOMIC CHARGES
-----------------------
   0 C :   -0.265386
   1 C :    0.020042
   2 O :   -0.352781
   3 C :    0.421217
   4 O :   -0.373127
   5 C :   -0.239369
   6 C :    0.156906
   7 C :   -0.275965
   8 N :   -0.124844
   9 C :    0.197370
  10 S :   -0.433243
  11 N :   -0.193124
  12 C :    0.037523
  13 C :    0.030052
  14 C :   -0.159291
  15 C :   -0.149837
  16 C :   -0.269131
  17 C :    0.304463
  18 O :   -0.354221
  19 C :   -0.255018
  20 H :    0.088394
  21 H :    0.092864
  22 H :    0.107312
  23 H :    0.103683
  24 H :    0.119198
  25 H :    0.120433
  26 H :    0.142145
  27 H :    0.096247
  28 H :    0.198082
  29 H :    0.191915
  30 H :    0.152641
  31 H :    0.147103
  32 H :    0.165599
  33 H :    0.135011
  34 H :    0.241562
  35 H :    0.175573
Sum of atomic charges:   -0.0000000

LOEWDIN ATOMIC CHARGES
----------------------
   0 C :    0.106417
   1 C :   -0.022269
   2 O :    0.292734
   3 C :   -0.423548
   4 O :    0.132430
   5 C :   -0.095977
   6 C :   -0.072086
   7 C :    0.129988
   8 N :    0.405423
   9 C :   -0.458124
  10 S :   -0.031775
  11 N :    0.396511
  12 C :   -0.051524
  13 C :   -0.042487
  14 C :    0.018257
  15 C :    0.042828
  16 C :   -0.000247
  17 C :   -0.191906
  18 O :    0.397046
  19 C :    0.031142
  20 H :   -0.031052
  21 H :   -0.027692
  22 H :   -0.023136
  23 H :   -0.039164
  24 H :   -0.022080
  25 H :   -0.009569
  26 H :   -0.002764
  27 H :   -0.021861
  28 H :   -0.057500
  29 H :   -0.064476
  30 H :   -0.006991
  31 H :   -0.028010
  32 H :   -0.019234
  33 H :   -0.033938
  34 H :   -0.152444
  35 H :   -0.022923

  Mayer bond orders larger than 0.100000
B(  0-C ,  1-C ) :   0.9814 B(  0-C , 20-H ) :   0.9751 B(  0-C , 21-H ) :   0.9768
B(  0-C , 22-H ) :   0.9797 B(  1-C ,  2-O ) :   0.8779 B(  1-C , 23-H ) :   0.9581
B(  1-C , 24-H ) :   0.9792 B(  2-O ,  3-C ) :   1.1504 B(  3-C ,  4-O ) :   2.0902
B(  3-C ,  5-C ) :   0.9635 B(  5-C ,  6-C ) :   1.6861 B(  5-C , 12-C ) :   0.9631
B(  6-C ,  7-C ) :   0.9587 B(  6-C ,  8-N ) :   1.1353 B(  7-C , 25-H ) :   0.9719
B(  7-C , 26-H ) :   0.9564 B(  7-C , 27-H ) :   0.9853 B(  8-N ,  9-C ) :   1.1844
B(  8-N , 28-H ) :   0.9495 B(  9-C , 10-S ) :   1.6202 B(  9-C , 11-N ) :   1.2897
B( 11-N , 12-C ) :   0.9964 B( 11-N , 29-H ) :   0.9525 B( 12-C , 13-C ) :   0.9443
B( 12-C , 30-H ) :   1.0096 B( 13-C , 14-C ) :   1.3611 B( 13-C , 19-C ) :   1.3561
B( 14-C , 15-C ) :   1.3933 B( 14-C , 31-H ) :   0.9746 B( 15-C , 16-C ) :   1.3652
B( 15-C , 32-H ) :   0.9698 B( 16-C , 17-C ) :   1.3266 B( 16-C , 33-H ) :   0.9830
B( 17-C , 18-O ) :   1.1160 B( 17-C , 19-C ) :   1.3759 B( 18-O , 34-H ) :   0.9790
B( 19-C , 35-H ) :   0.9570

MP2 TOTAL ENERGY:    -1274.326323777 Eh
FINAL SINGLE POINT ENERGY     -1274.326323777198

DIPOLE MOMENT
-------------
                                X             Y             Z
Electronic contribution:     10.98856       7.69734       7.20377
Nuclear contribution   :    -12.23502      -9.26615      -6.85239
                        -----------------------------------------
Total Dipole Moment    :     -1.24646      -1.56881       0.35138
                        -----------------------------------------
Magnitude (a.u.)       :      2.03428
Magnitude (Debye)      :      5.17073

Rotational constants in cm-1:     0.011388     0.009774     0.006424
Rotational constants in MHz :   341.410884   293.005582   192.598754

                             ****ORCA TERMINATED NORMALLY****
TOTAL RUN TIME: 0 days 1 hours 46 minutes 31 seconds 814 msec
