                         Program Version 4.2.0 -  RELEASE  -
|  1> ! ri-mp2 cc-pvtz cc-pvtz/c TightSCF  NoKeepInts
|  2>
|  3> %scf
|  4>   MaxCore 4096
|  5> end
|  6> *xyz  0  1
|  7>     C       15.7280695   13.6364847   15.2098477
|  8>     C       15.5626581   14.3661939   16.5535204
|  9>     O       16.6624150   15.2838133   16.6878103
| 10>     C       16.4259151   16.6298673   16.6931614
| 11>     O       15.4510165   17.1203235   16.1492742
| 12>     C       17.3723197   17.3810012   17.5887276
| 13>     C       17.3323777   18.7313421   17.7196746
| 14>     C       16.3848740   19.6910331   17.0321493
| 15>     N       18.2610128   19.3845383   18.5355458
| 16>     C       19.3168096   18.7783226   19.1623239
| 17>     S       20.4283500   19.6390083   20.0338521
| 18>     N       19.4086781   17.4165145   19.0277767
| 19>     C       18.4012733   16.5565662   18.3802385
| 20>     C       17.7357032   15.6663879   19.4262656
| 21>     C       17.9534967   14.2756744   19.4217150
| 22>     C       17.3374522   13.4522320   20.3790701
| 23>     C       16.4992980   14.0239931   21.3514503
| 24>     C       16.2843792   15.4090569   21.3622002
| 25>     O       15.4767184   15.9641791   22.3005154
| 26>     C       16.8980400   16.2257870   20.4074931
| 27>     H       15.6797648   14.3500766   14.3775307
| 28>     H       14.9303847   12.8964046   15.0730511
| 29>     H       16.6928938   13.1163391   15.1662733
| 30>     H       14.5901603   14.8758473   16.5939586
| 31>     H       15.5960980   13.6353179   17.3719275
| 32>     H       15.3483696   19.4875959   17.3304551
| 33>     H       16.4399614   19.5746300   15.9423004
| 34>     H       16.5962727   20.7417856   17.2624480
| 35>     H       18.2100589   20.3848383   18.6445726
| 36>     H       20.1768351   16.9937507   19.5328078
| 37>     H       18.9328394   15.9135216   17.6646577
| 38>     H       18.5971897   13.8307080   18.6675412
| 39>     H       17.5111403   12.3776025   20.3664282
| 40>     H       16.0221286   13.3925790   22.0937363
| 41>     H       15.1779965   15.2526546   22.8864525
| 42>     H       16.7240491   17.2960292   20.4372466
| 43> *
| 44>
| 45>                          ****END OF INPUT****

CARTESIAN COORDINATES (ANGSTROEM)
---------------------------------
  C     15.728069   13.636485   15.209848
  C     15.562658   14.366194   16.553520
  O     16.662415   15.283813   16.687810
  C     16.425915   16.629867   16.693161
  O     15.451016   17.120324   16.149274
  C     17.372320   17.381001   17.588728
  C     17.332378   18.731342   17.719675
  C     16.384874   19.691033   17.032149
  N     18.261013   19.384538   18.535546
  C     19.316810   18.778323   19.162324
  S     20.428350   19.639008   20.033852
  N     19.408678   17.416515   19.027777
  C     18.401273   16.556566   18.380239
  C     17.735703   15.666388   19.426266
  C     17.953497   14.275674   19.421715
  C     17.337452   13.452232   20.379070
  C     16.499298   14.023993   21.351450
  C     16.284379   15.409057   21.362200
  O     15.476718   15.964179   22.300515
  C     16.898040   16.225787   20.407493
  H     15.679765   14.350077   14.377531
  H     14.930385   12.896405   15.073051
  H     16.692894   13.116339   15.166273
  H     14.590160   14.875847   16.593959
  H     15.596098   13.635318   17.371927
  H     15.348370   19.487596   17.330455
  H     16.439961   19.574630   15.942300
  H     16.596273   20.741786   17.262448
  H     18.210059   20.384838   18.644573
  H     20.176835   16.993751   19.532808
  H     18.932839   15.913522   17.664658
  H     18.597190   13.830708   18.667541
  H     17.511140   12.377602   20.366428
  H     16.022129   13.392579   22.093736
  H     15.177996   15.252655   22.886452
  H     16.724049   17.296029   20.437247

 Total Charge           Charge          ....    0
 Multiplicity           Mult            ....    1
 Number of Electrons    NEL             ....  154
 Basis Dimension        Dim             ....  828

ORBITAL ENERGIES
----------------

  NO   OCC          E(Eh)            E(eV)
   0   2.0000     -91.889130     -2500.4303
   1   2.0000     -20.597828      -560.4954
   2   2.0000     -20.597070      -560.4748
   3   2.0000     -20.542822      -558.9986
   4   2.0000     -15.629341      -425.2960
   5   2.0000     -15.608508      -424.7291
   6   2.0000     -11.395085      -310.0760
   7   2.0000     -11.384251      -309.7812
   8   2.0000     -11.336092      -308.4707
   9   2.0000     -11.314394      -307.8803
  10   2.0000     -11.309391      -307.7442
  11   2.0000     -11.294850      -307.3485
  12   2.0000     -11.260263      -306.4073
  13   2.0000     -11.258864      -306.3693
  14   2.0000     -11.255941      -306.2897
  15   2.0000     -11.252295      -306.1905
  16   2.0000     -11.243633      -305.9548
  17   2.0000     -11.238967      -305.8279
  18   2.0000     -11.238756      -305.8221
  19   2.0000     -11.225357      -305.4575
  20   2.0000      -8.894189      -242.0232
  21   2.0000      -6.575762      -178.9356
  22   2.0000      -6.573759      -178.8811
  23   2.0000      -6.573171      -178.8651
  24   2.0000      -1.450846       -39.4795
  25   2.0000      -1.416718       -38.5508
  26   2.0000      -1.354602       -36.8606
  27   2.0000      -1.340285       -36.4710
  28   2.0000      -1.238777       -33.7088
  29   2.0000      -1.158130       -31.5143
  30   2.0000      -1.120598       -30.4930
  31   2.0000      -1.043225       -28.3876
  32   2.0000      -1.037397       -28.2290
  33   2.0000      -1.015707       -27.6388
  34   2.0000      -0.995687       -27.0940
  35   2.0000      -0.984312       -26.7845
  36   2.0000      -0.922873       -25.1126
  37   2.0000      -0.888550       -24.1787
  38   2.0000      -0.847262       -23.0552
  39   2.0000      -0.838236       -22.8096
  40   2.0000      -0.834602       -22.7107
  41   2.0000      -0.819710       -22.3054
  42   2.0000      -0.761908       -20.7326
  43   2.0000      -0.732905       -19.9434
  44   2.0000      -0.723462       -19.6864
  45   2.0000      -0.696093       -18.9417
  46   2.0000      -0.688319       -18.7301
  47   2.0000      -0.679860       -18.4999
  48   2.0000      -0.672046       -18.2873
  49   2.0000      -0.653980       -17.7957
  50   2.0000      -0.646675       -17.5969
  51   2.0000      -0.643554       -17.5120
  52   2.0000      -0.628325       -17.0976
  53   2.0000      -0.616151       -16.7663
  54   2.0000      -0.607404       -16.5283
  55   2.0000      -0.600008       -16.3270
  56   2.0000      -0.598995       -16.2995
  57   2.0000      -0.578934       -15.7536
  58   2.0000      -0.571479       -15.5507
  59   2.0000      -0.568145       -15.4600
  60   2.0000      -0.564078       -15.3494
  61   2.0000      -0.539736       -14.6870
  62   2.0000      -0.533819       -14.5260
  63   2.0000      -0.526967       -14.3395
  64   2.0000      -0.525431       -14.2977
  65   2.0000      -0.513833       -13.9821
  66   2.0000      -0.501715       -13.6524
  67   2.0000      -0.496670       -13.5151
  68   2.0000      -0.487151       -13.2560
  69   2.0000      -0.464371       -12.6362
  70   2.0000      -0.453967       -12.3531
  71   2.0000      -0.448915       -12.2156
  72   2.0000      -0.354438        -9.6448
  73   2.0000      -0.349926        -9.5220
  74   2.0000      -0.328516        -8.9394
  75   2.0000      -0.322074        -8.7641
  76   2.0000      -0.316344        -8.6082
  77   0.0000       0.075080         2.0430
  78   0.0000       0.105588         2.8732
  79   0.0000       0.124681         3.3927
  80   0.0000       0.132037         3.5929
  81   0.0000       0.136463         3.7134

MULLIKEN ATOMIC CHARGES
-----------------------
   0 C :   -0.267497
   1 C :    0.030187
   2 O :   -0.362028
   3 C :    0.462882
   4 O :   -0.429506
   5 C :   -0.228279
   6 C :    0.154897
   7 C :   -0.272336
   8 N :   -0.121892
   9 C :    0.211192
  10 S :   -0.439513
  11 N :   -0.204813
  12 C :    0.059459
  13 C :    0.068693
  14 C :   -0.198261
  15 C :   -0.128691
  16 C :   -0.280512
  17 C :    0.316321
  18 O :   -0.356237
  19 C :   -0.268338
  20 H :    0.103263
  21 H :    0.089918
  22 H :    0.090522
  23 H :    0.108440
  24 H :    0.110201
  25 H :    0.132408
  26 H :    0.130411
  27 H :    0.095205
  28 H :    0.197595
  29 H :    0.194787
  30 H :    0.150480
  31 H :    0.152316
  32 H :    0.162253
  33 H :    0.130535
  34 H :    0.240758
  35 H :    0.165178
Sum of atomic charges:   -0.0000000

LOEWDIN ATOMIC CHARGES
----------------------
   0 C :    0.104699
   1 C :   -0.014158
   2 O :    0.308270
   3 C :   -0.415351
   4 O :    0.097769
   5 C :   -0.095493
   6 C :   -0.058838
   7 C :    0.131636
   8 N :    0.406622
   9 C :   -0.456392
  10 S :   -0.035129
  11 N :    0.396399
  12 C :   -0.052385
  13 C :   -0.038313
  14 C :    0.014480
  15 C :    0.038228
  16 C :   -0.002251
  17 C :   -0.189330
  18 O :    0.395407
  19 C :    0.031446
  20 H :   -0.024290
  21 H :   -0.027376
  22 H :   -0.029522
  23 H :   -0.028027
  24 H :   -0.029359
  25 H :   -0.004514
  26 H :   -0.003984
  27 H :   -0.023328
  28 H :   -0.057518
  29 H :   -0.064592
  30 H :   -0.010558
  31 H :   -0.029974
  32 H :   -0.021360
  33 H :   -0.035532
  34 H :   -0.153795
  35 H :   -0.023585

  Mayer bond orders larger than 0.100000
B(  0-C ,  1-C ) :   0.9762 B(  0-C , 20-H ) :   0.9785 B(  0-C , 21-H ) :   0.9760
B(  0-C , 22-H ) :   0.9789 B(  1-C ,  2-O ) :   0.8777 B(  1-C , 23-H ) :   0.9734
B(  1-C , 24-H ) :   0.9754 B(  2-O ,  3-C ) :   1.1536 B(  3-C ,  4-O ) :   1.9761
B(  3-C ,  5-C ) :   1.0629 B(  5-C ,  6-C ) :   1.6536 B(  5-C , 12-C ) :   0.9717
B(  6-C ,  7-C ) :   0.9669 B(  6-C ,  8-N ) :   1.1627 B(  7-C , 25-H ) :   0.9596
B(  7-C , 26-H ) :   0.9609 B(  7-C , 27-H ) :   0.9905 B(  8-N ,  9-C ) :   1.1830
B(  8-N , 28-H ) :   0.9478 B(  9-C , 10-S ) :   1.6077 B(  9-C , 11-N ) :   1.3051
B( 11-N , 12-C ) :   0.9863 B( 11-N , 29-H ) :   0.9517 B( 12-C , 13-C ) :   0.9362
B( 12-C , 30-H ) :   1.0024 B( 13-C , 14-C ) :   1.3502 B( 13-C , 19-C ) :   1.3831
B( 14-C , 15-C ) :   1.3882 B( 14-C , 31-H ) :   0.9720 B( 15-C , 16-C ) :   1.3629
B( 15-C , 32-H ) :   0.9702 B( 16-C , 17-C ) :   1.3311 B( 16-C , 33-H ) :   0.9849
B( 17-C , 18-O ) :   1.1106 B( 17-C , 19-C ) :   1.3716 B( 18-O , 34-H ) :   0.9798
B( 19-C , 35-H ) :   0.9582

MP2 TOTAL ENERGY:    -1274.346473707 Eh
FINAL SINGLE POINT ENERGY     -1274.346473707249

DIPOLE MOMENT
-------------
                                X             Y             Z
Electronic contribution:      9.50371      10.39467       9.30377
Nuclear contribution   :    -10.61344     -12.01187      -9.56604
                        -----------------------------------------
Total Dipole Moment    :     -1.10973      -1.61720      -0.26227
                        -----------------------------------------
Magnitude (a.u.)       :      1.97880
Magnitude (Debye)      :      5.02970

Rotational constants in cm-1:     0.011527     0.008582     0.006097
Rotational constants in MHz :   345.560259   257.278387   182.792669

                             ****ORCA TERMINATED NORMALLY****
TOTAL RUN TIME: 0 days 1 hours 45 minutes 22 seconds 232 msec
