                         Program Version 4.2.0 -  RELEASE  -
|  1> ! ri-mp2 cc-pvtz cc-pvtz/c TightSCF  NoKeepInts
|  2>
|  3> %scf
|  4>   MaxCore 4096
|  5> end
|  6> *xyz  0  1
|  7>     C       15.3622894   14.0074317   16.7003386
|  8>     C       15.4292886   15.0730897   15.5810204
|  9>     O       16.4735706   16.0620402   15.7606462
| 10>     C       17.5645319   15.8903240   16.5658911
| 11>     O       18.1669407   14.8328220   16.6450439
| 12>     C       17.8448786   17.0440318   17.4845983
| 13>     C       17.4002435   18.3148687   17.3024927
| 14>     C       16.5780313   18.8598271   16.1527189
| 15>     N       17.7592260   19.3129150   18.2144819
| 16>     C       18.6497986   19.1533319   19.2430725
| 17>     S       19.1014378   20.4180048   20.2085833
| 18>     N       19.1460900   17.8885900   19.4317983
| 19>     C       18.6876662   16.6851905   18.7128288
| 20>     C       17.9087968   15.7638814   19.6483370
| 21>     C       18.2801259   14.4142956   19.7919341
| 22>     C       17.5556479   13.5577126   20.6375616
| 23>     C       16.4487189   14.0537790   21.3468780
| 24>     C       16.0730626   15.3963096   21.2039627
| 25>     O       14.9995039   15.8763204   21.8808829
| 26>     C       16.7955815   16.2462359   20.3607715
| 27>     H       16.1930595   13.2948112   16.6276190
| 28>     H       14.4326810   13.4318258   16.6175074
| 29>     H       15.3827548   14.4727915   17.6942979
| 30>     H       15.5886138   14.5566835   14.6254285
| 31>     H       14.4631067   15.5895572   15.5157891
| 32>     H       15.5452949   18.4940684   16.2076860
| 33>     H       16.9981148   18.5445793   15.1893259
| 34>     H       16.5409647   19.9559072   16.1417311
| 35>     H       17.4062493   20.2487039   18.0933716
| 36>     H       19.7772049   17.7908892   20.2167114
| 37>     H       19.5802653   16.1472379   18.3617343
| 38>     H       19.1237240   14.0232127   19.2281499
| 39>     H       17.8498462   12.5141728   20.7342963
| 40>     H       15.8851705   13.3950748   21.9991697
| 41>     H       14.6662906   15.1594859   22.4412565
| 42>     H       16.4882282   17.2819967   20.2660825
| 43> *
| 44>
| 45>                          ****END OF INPUT****

CARTESIAN COORDINATES (ANGSTROEM)
---------------------------------
  C     15.362289   14.007432   16.700339
  C     15.429289   15.073090   15.581020
  O     16.473571   16.062040   15.760646
  C     17.564532   15.890324   16.565891
  O     18.166941   14.832822   16.645044
  C     17.844879   17.044032   17.484598
  C     17.400243   18.314869   17.302493
  C     16.578031   18.859827   16.152719
  N     17.759226   19.312915   18.214482
  C     18.649799   19.153332   19.243073
  S     19.101438   20.418005   20.208583
  N     19.146090   17.888590   19.431798
  C     18.687666   16.685191   18.712829
  C     17.908797   15.763881   19.648337
  C     18.280126   14.414296   19.791934
  C     17.555648   13.557713   20.637562
  C     16.448719   14.053779   21.346878
  C     16.073063   15.396310   21.203963
  O     14.999504   15.876320   21.880883
  C     16.795582   16.246236   20.360771
  H     16.193060   13.294811   16.627619
  H     14.432681   13.431826   16.617507
  H     15.382755   14.472791   17.694298
  H     15.588614   14.556684   14.625428
  H     14.463107   15.589557   15.515789
  H     15.545295   18.494068   16.207686
  H     16.998115   18.544579   15.189326
  H     16.540965   19.955907   16.141731
  H     17.406249   20.248704   18.093372
  H     19.777205   17.790889   20.216711
  H     19.580265   16.147238   18.361734
  H     19.123724   14.023213   19.228150
  H     17.849846   12.514173   20.734296
  H     15.885170   13.395075   21.999170
  H     14.666291   15.159486   22.441256
  H     16.488228   17.281997   20.266082

 Total Charge           Charge          ....    0
 Multiplicity           Mult            ....    1
 Number of Electrons    NEL             ....  154
 Basis Dimension        Dim             ....  828

ORBITAL ENERGIES
----------------

  NO   OCC          E(Eh)            E(eV)
   0   2.0000     -91.888197     -2500.4050
   1   2.0000     -20.593900      -560.3885
   2   2.0000     -20.592996      -560.3639
   3   2.0000     -20.547296      -559.1203
   4   2.0000     -15.628157      -425.2638
   5   2.0000     -15.607168      -424.6926
   6   2.0000     -11.396311      -310.1094
   7   2.0000     -11.383246      -309.7539
   8   2.0000     -11.335317      -308.4497
   9   2.0000     -11.309953      -307.7595
  10   2.0000     -11.306116      -307.6551
  11   2.0000     -11.305534      -307.6392
  12   2.0000     -11.259558      -306.3882
  13   2.0000     -11.258609      -306.3623
  14   2.0000     -11.255384      -306.2746
  15   2.0000     -11.249946      -306.1266
  16   2.0000     -11.239712      -305.8481
  17   2.0000     -11.235714      -305.7393
  18   2.0000     -11.232484      -305.6514
  19   2.0000     -11.225717      -305.4673
  20   2.0000      -8.893265      -241.9981
  21   2.0000      -6.574844      -178.9106
  22   2.0000      -6.572836      -178.8559
  23   2.0000      -6.572251      -178.8400
  24   2.0000      -1.446625       -39.3647
  25   2.0000      -1.413686       -38.4684
  26   2.0000      -1.355267       -36.8787
  27   2.0000      -1.339207       -36.4417
  28   2.0000      -1.237133       -33.6641
  29   2.0000      -1.154189       -31.4071
  30   2.0000      -1.119711       -30.4689
  31   2.0000      -1.042575       -28.3699
  32   2.0000      -1.032940       -28.1077
  33   2.0000      -1.011608       -27.5272
  34   2.0000      -0.998183       -27.1619
  35   2.0000      -0.983583       -26.7647
  36   2.0000      -0.922420       -25.1003
  37   2.0000      -0.896904       -24.4060
  38   2.0000      -0.848175       -23.0800
  39   2.0000      -0.836830       -22.7713
  40   2.0000      -0.830084       -22.5877
  41   2.0000      -0.817630       -22.2488
  42   2.0000      -0.743532       -20.2325
  43   2.0000      -0.729595       -19.8533
  44   2.0000      -0.725988       -19.7551
  45   2.0000      -0.691719       -18.8226
  46   2.0000      -0.685081       -18.6420
  47   2.0000      -0.676472       -18.4077
  48   2.0000      -0.672757       -18.3066
  49   2.0000      -0.661810       -18.0088
  50   2.0000      -0.651164       -17.7191
  51   2.0000      -0.644710       -17.5434
  52   2.0000      -0.633708       -17.2441
  53   2.0000      -0.619879       -16.8678
  54   2.0000      -0.602273       -16.3887
  55   2.0000      -0.600898       -16.3513
  56   2.0000      -0.597475       -16.2581
  57   2.0000      -0.576748       -15.6941
  58   2.0000      -0.574719       -15.6389
  59   2.0000      -0.564310       -15.3557
  60   2.0000      -0.553736       -15.0679
  61   2.0000      -0.544665       -14.8211
  62   2.0000      -0.537082       -14.6147
  63   2.0000      -0.525139       -14.2898
  64   2.0000      -0.517691       -14.0871
  65   2.0000      -0.510453       -13.8901
  66   2.0000      -0.501309       -13.6413
  67   2.0000      -0.496119       -13.5001
  68   2.0000      -0.479320       -13.0430
  69   2.0000      -0.463661       -12.6169
  70   2.0000      -0.456268       -12.4157
  71   2.0000      -0.449024       -12.2186
  72   2.0000      -0.353721        -9.6252
  73   2.0000      -0.346049        -9.4165
  74   2.0000      -0.327435        -8.9100
  75   2.0000      -0.317094        -8.6286
  76   2.0000      -0.314972        -8.5708
  77   0.0000       0.074745         2.0339
  78   0.0000       0.109922         2.9911
  79   0.0000       0.121376         3.3028
  80   0.0000       0.133843         3.6420
  81   0.0000       0.140509         3.8234

MULLIKEN ATOMIC CHARGES
-----------------------
   0 C :   -0.318185
   1 C :    0.059753
   2 O :   -0.367995
   3 C :    0.447771
   4 O :   -0.416056
   5 C :   -0.181638
   6 C :    0.142169
   7 C :   -0.282004
   8 N :   -0.122494
   9 C :    0.202607
  10 S :   -0.439821
  11 N :   -0.201021
  12 C :    0.049517
  13 C :    0.042791
  14 C :   -0.162748
  15 C :   -0.134677
  16 C :   -0.278411
  17 C :    0.310479
  18 O :   -0.359292
  19 C :   -0.271848
  20 H :    0.125484
  21 H :    0.101744
  22 H :    0.108245
  23 H :    0.097762
  24 H :    0.093898
  25 H :    0.123707
  26 H :    0.128691
  27 H :    0.102598
  28 H :    0.196870
  29 H :    0.194356
  30 H :    0.154467
  31 H :    0.156645
  32 H :    0.160142
  33 H :    0.129618
  34 H :    0.240357
  35 H :    0.166520
Sum of atomic charges:   -0.0000000

LOEWDIN ATOMIC CHARGES
----------------------
   0 C :    0.105592
   1 C :   -0.009328
   2 O :    0.290458
   3 C :   -0.416624
   4 O :    0.115333
   5 C :   -0.092781
   6 C :   -0.067748
   7 C :    0.125267
   8 N :    0.404590
   9 C :   -0.458401
  10 S :   -0.036424
  11 N :    0.397709
  12 C :   -0.046210
  13 C :   -0.040409
  14 C :    0.022416
  15 C :    0.040915
  16 C :   -0.002583
  17 C :   -0.193865
  18 O :    0.393409
  19 C :    0.027470
  20 H :   -0.023860
  21 H :   -0.026174
  22 H :   -0.025033
  23 H :   -0.028357
  24 H :   -0.027970
  25 H :   -0.010292
  26 H :   -0.007316
  27 H :   -0.020903
  28 H :   -0.059093
  29 H :   -0.063819
  30 H :   -0.005129
  31 H :   -0.024803
  32 H :   -0.020841
  33 H :   -0.036044
  34 H :   -0.154540
  35 H :   -0.024611

  Mayer bond orders larger than 0.100000
B(  0-C ,  1-C ) :   0.9641 B(  0-C , 20-H ) :   0.9719 B(  0-C , 21-H ) :   0.9749
B(  0-C , 22-H ) :   0.9687 B(  1-C ,  2-O ) :   0.9014 B(  1-C , 23-H ) :   0.9832
B(  1-C , 24-H ) :   0.9806 B(  2-O ,  3-C ) :   1.1225 B(  3-C ,  4-O ) :   2.0044
B(  3-C ,  5-C ) :   1.0332 B(  5-C ,  6-C ) :   1.6575 B(  5-C , 12-C ) :   0.9612
B(  6-C ,  7-C ) :   0.9534 B(  6-C ,  8-N ) :   1.1475 B(  7-C , 25-H ) :   0.9649
B(  7-C , 26-H ) :   0.9661 B(  7-C , 27-H ) :   0.9906 B(  8-N ,  9-C ) :   1.1810
B(  8-N , 28-H ) :   0.9489 B(  9-C , 10-S ) :   1.6100 B(  9-C , 11-N ) :   1.3032
B( 11-N , 12-C ) :   0.9917 B( 11-N , 29-H ) :   0.9517 B( 12-C , 13-C ) :   0.9445
B( 12-C , 30-H ) :   0.9998 B( 13-C , 14-C ) :   1.3793 B( 13-C , 19-C ) :   1.3683
B( 14-C , 15-C ) :   1.3945 B( 14-C , 31-H ) :   0.9632 B( 15-C , 16-C ) :   1.3618
B( 15-C , 32-H ) :   0.9711 B( 16-C , 17-C ) :   1.3315 B( 16-C , 33-H ) :   0.9853
B( 17-C , 18-O ) :   1.1093 B( 17-C , 19-C ) :   1.3756 B( 18-O , 34-H ) :   0.9803
B( 19-C , 35-H ) :   0.9582

MP2 TOTAL ENERGY:    -1274.336592014 Eh
FINAL SINGLE POINT ENERGY     -1274.336592014428

DIPOLE MOMENT
-------------
                                X             Y             Z
Electronic contribution:      9.92417      10.12973       7.89043
Nuclear contribution   :    -11.48481     -11.39747      -8.77195
                        -----------------------------------------
Total Dipole Moment    :     -1.56064      -1.26774      -0.88152
                        -----------------------------------------
Magnitude (a.u.)       :      2.19541
Magnitude (Debye)      :      5.58030

Rotational constants in cm-1:     0.011506     0.009226     0.006329
Rotational constants in MHz :   344.945759   276.575830   189.740150

                             ****ORCA TERMINATED NORMALLY****
TOTAL RUN TIME: 0 days 1 hours 38 minutes 38 seconds 736 msec
