                         Program Version 4.2.0 -  RELEASE  -
|  1> ! ri-mp2 cc-pvtz cc-pvtz/c TightSCF  NoKeepInts
|  2>
|  3> %scf
|  4>   MaxCore 4096
|  5> end
|  6> *xyz  0  1
|  7>     C       15.0342302   14.1301222   15.6945300
|  8>     C       16.2078130   14.0010131   16.6884467
|  9>     O       17.1578172   15.0949587   16.6457156
| 10>     C       16.8321709   16.4215607   16.5200279
| 11>     O       15.9448931   16.8346090   15.7951439
| 12>     C       17.5914456   17.2850248   17.4920752
| 13>     C       17.4599188   18.6362438   17.5227647
| 14>     C       16.5802299   19.4944685   16.6385813
| 15>     N       18.2122741   19.3948056   18.4245200
| 16>     C       19.1806975   18.8956778   19.2534599
| 17>     S       20.0873476   19.8755394   20.2300998
| 18>     N       19.3645907   17.5371303   19.2309019
| 19>     C       18.5298526   16.5777001   18.4857096
| 20>     C       17.7676381   15.6931023   19.4685312
| 21>     C       18.1351074   14.3457465   19.6450678
| 22>     C       17.4306601   13.5240241   20.5409535
| 23>     C       16.3524567   14.0545919   21.2695639
| 24>     C       15.9887876   15.3978624   21.1020625
| 25>     O       14.9498873   15.9136368   21.8058812
| 26>     C       16.6909497   16.2127902   20.2088297
| 27>     H       14.3253937   14.9041603   16.0137723
| 28>     H       14.4828843   13.1843197   15.6331097
| 29>     H       15.3980930   14.3773712   14.6892558
| 30>     H       15.7930818   13.9286796   17.7027445
| 31>     H       16.7445736   13.0647393   16.4895411
| 32>     H       15.5224924   19.2421671   16.7876300
| 33>     H       16.8110347   19.3216922   15.5796696
| 34>     H       16.6952728   20.5677577   16.8298241
| 35>     H       18.0920310   20.3946674   18.4537181
| 36>     H       20.0601331   17.1953904   19.8814431
| 37>     H       19.2089533   15.9408836   17.9013984
| 38>     H       18.9666550   13.9325802   19.0802772
| 39>     H       17.7220562   12.4830267   20.6704269
| 40>     H       15.8062673   13.4246892   21.9641271
| 41>     H       14.6215339   15.2178926   22.3949968
| 42>     H       16.3977759   17.2513747   20.0991988
| 43> *
| 44>
| 45>                          ****END OF INPUT****

CARTESIAN COORDINATES (ANGSTROEM)
---------------------------------
  C     15.034230   14.130122   15.694530
  C     16.207813   14.001013   16.688447
  O     17.157817   15.094959   16.645716
  C     16.832171   16.421561   16.520028
  O     15.944893   16.834609   15.795144
  C     17.591446   17.285025   17.492075
  C     17.459919   18.636244   17.522765
  C     16.580230   19.494468   16.638581
  N     18.212274   19.394806   18.424520
  C     19.180697   18.895678   19.253460
  S     20.087348   19.875539   20.230100
  N     19.364591   17.537130   19.230902
  C     18.529853   16.577700   18.485710
  C     17.767638   15.693102   19.468531
  C     18.135107   14.345746   19.645068
  C     17.430660   13.524024   20.540954
  C     16.352457   14.054592   21.269564
  C     15.988788   15.397862   21.102062
  O     14.949887   15.913637   21.805881
  C     16.690950   16.212790   20.208830
  H     14.325394   14.904160   16.013772
  H     14.482884   13.184320   15.633110
  H     15.398093   14.377371   14.689256
  H     15.793082   13.928680   17.702745
  H     16.744574   13.064739   16.489541
  H     15.522492   19.242167   16.787630
  H     16.811035   19.321692   15.579670
  H     16.695273   20.567758   16.829824
  H     18.092031   20.394667   18.453718
  H     20.060133   17.195390   19.881443
  H     19.208953   15.940884   17.901398
  H     18.966655   13.932580   19.080277
  H     17.722056   12.483027   20.670427
  H     15.806267   13.424689   21.964127
  H     14.621534   15.217893   22.394997
  H     16.397776   17.251375   20.099199

 Total Charge           Charge          ....    0
 Multiplicity           Mult            ....    1
 Number of Electrons    NEL             ....  154
 Basis Dimension        Dim             ....  828

ORBITAL ENERGIES
----------------

  NO   OCC          E(Eh)            E(eV)
   0   2.0000     -91.888650     -2500.4173
   1   2.0000     -20.598799      -560.5218
   2   2.0000     -20.591966      -560.3359
   3   2.0000     -20.542604      -558.9927
   4   2.0000     -15.628727      -425.2793
   5   2.0000     -15.608036      -424.7163
   6   2.0000     -11.396411      -310.1121
   7   2.0000     -11.383707      -309.7664
   8   2.0000     -11.335401      -308.4520
   9   2.0000     -11.316317      -307.9327
  10   2.0000     -11.308787      -307.7277
  11   2.0000     -11.300115      -307.4918
  12   2.0000     -11.261581      -306.4432
  13   2.0000     -11.257871      -306.3422
  14   2.0000     -11.257611      -306.3352
  15   2.0000     -11.251893      -306.1796
  16   2.0000     -11.245233      -305.9984
  17   2.0000     -11.240328      -305.8649
  18   2.0000     -11.239950      -305.8546
  19   2.0000     -11.219369      -305.2946
  20   2.0000      -8.893721      -242.0104
  21   2.0000      -6.575297      -178.9229
  22   2.0000      -6.573291      -178.8683
  23   2.0000      -6.572705      -178.8524
  24   2.0000      -1.442573       -39.2544
  25   2.0000      -1.418448       -38.5979
  26   2.0000      -1.353721       -36.8366
  27   2.0000      -1.339853       -36.4592
  28   2.0000      -1.238475       -33.7006
  29   2.0000      -1.159305       -31.5463
  30   2.0000      -1.119801       -30.4713
  31   2.0000      -1.043543       -28.3963
  32   2.0000      -1.033612       -28.1260
  33   2.0000      -1.017269       -27.6813
  34   2.0000      -0.995340       -27.0846
  35   2.0000      -0.983604       -26.7652
  36   2.0000      -0.922919       -25.1139
  37   2.0000      -0.893322       -24.3085
  38   2.0000      -0.847530       -23.0625
  39   2.0000      -0.839434       -22.8422
  40   2.0000      -0.835885       -22.7456
  41   2.0000      -0.820267       -22.3206
  42   2.0000      -0.746752       -20.3201
  43   2.0000      -0.732040       -19.9198
  44   2.0000      -0.718023       -19.5384
  45   2.0000      -0.697372       -18.9765
  46   2.0000      -0.688243       -18.7280
  47   2.0000      -0.677290       -18.4300
  48   2.0000      -0.668153       -18.1814
  49   2.0000      -0.660694       -17.9784
  50   2.0000      -0.650624       -17.7044
  51   2.0000      -0.645433       -17.5631
  52   2.0000      -0.635836       -17.3020
  53   2.0000      -0.609020       -16.5723
  54   2.0000      -0.602716       -16.4007
  55   2.0000      -0.599845       -16.3226
  56   2.0000      -0.598063       -16.2741
  57   2.0000      -0.579816       -15.7776
  58   2.0000      -0.574789       -15.6408
  59   2.0000      -0.570594       -15.5267
  60   2.0000      -0.562361       -15.3026
  61   2.0000      -0.538883       -14.6637
  62   2.0000      -0.534428       -14.5425
  63   2.0000      -0.525977       -14.3126
  64   2.0000      -0.522498       -14.2179
  65   2.0000      -0.513294       -13.9674
  66   2.0000      -0.501589       -13.6489
  67   2.0000      -0.496721       -13.5165
  68   2.0000      -0.484903       -13.1949
  69   2.0000      -0.463287       -12.6067
  70   2.0000      -0.452583       -12.3154
  71   2.0000      -0.439473       -11.9587
  72   2.0000      -0.353752        -9.6261
  73   2.0000      -0.351333        -9.5603
  74   2.0000      -0.328410        -8.9365
  75   2.0000      -0.323637        -8.8066
  76   2.0000      -0.316185        -8.6038
  77   0.0000       0.074783         2.0349
  78   0.0000       0.104434         2.8418
  79   0.0000       0.124408         3.3853
  80   0.0000       0.131681         3.5832
  81   0.0000       0.136930         3.7261

MULLIKEN ATOMIC CHARGES
-----------------------
   0 C :   -0.277632
   1 C :    0.040729
   2 O :   -0.380698
   3 C :    0.466245
   4 O :   -0.422524
   5 C :   -0.230329
   6 C :    0.157970
   7 C :   -0.270275
   8 N :   -0.122587
   9 C :    0.214077
  10 S :   -0.441354
  11 N :   -0.207583
  12 C :    0.073692
  13 C :    0.046795
  14 C :   -0.187800
  15 C :   -0.130222
  16 C :   -0.280767
  17 C :    0.313852
  18 O :   -0.355720
  19 C :   -0.262363
  20 H :    0.107744
  21 H :    0.093425
  22 H :    0.105644
  23 H :    0.098393
  24 H :    0.099569
  25 H :    0.131102
  26 H :    0.131127
  27 H :    0.095176
  28 H :    0.197270
  29 H :    0.195101
  30 H :    0.148912
  31 H :    0.151781
  32 H :    0.161702
  33 H :    0.131711
  34 H :    0.241101
  35 H :    0.166735
Sum of atomic charges:   -0.0000000

LOEWDIN ATOMIC CHARGES
----------------------
   0 C :    0.102804
   1 C :   -0.013302
   2 O :    0.290593
   3 C :   -0.412232
   4 O :    0.112699
   5 C :   -0.095915
   6 C :   -0.059121
   7 C :    0.130929
   8 N :    0.406572
   9 C :   -0.456105
  10 S :   -0.036326
  11 N :    0.396195
  12 C :   -0.052431
  13 C :   -0.037623
  14 C :    0.014364
  15 C :    0.039148
  16 C :   -0.003034
  17 C :   -0.189949
  18 O :    0.395886
  19 C :    0.030329
  20 H :   -0.027230
  21 H :   -0.029329
  22 H :   -0.024060
  23 H :   -0.029158
  24 H :   -0.024851
  25 H :   -0.005091
  26 H :   -0.003991
  27 H :   -0.023510
  28 H :   -0.057650
  29 H :   -0.064843
  30 H :   -0.010715
  31 H :   -0.029815
  32 H :   -0.020901
  33 H :   -0.035288
  34 H :   -0.153467
  35 H :   -0.023582

  Mayer bond orders larger than 0.100000
B(  0-C ,  1-C ) :   0.9832 B(  0-C , 20-H ) :   0.9731 B(  0-C , 21-H ) :   0.9748
B(  0-C , 22-H ) :   0.9753 B(  1-C ,  2-O ) :   0.8908 B(  1-C , 23-H ) :   0.9697
B(  1-C , 24-H ) :   0.9811 B(  2-O ,  3-C ) :   1.1113 B(  3-C ,  4-O ) :   1.9917
B(  3-C ,  5-C ) :   1.0716 B(  5-C ,  6-C ) :   1.6516 B(  5-C , 12-C ) :   0.9736
B(  6-C ,  7-C ) :   0.9662 B(  6-C ,  8-N ) :   1.1602 B(  7-C , 25-H ) :   0.9598
B(  7-C , 26-H ) :   0.9606 B(  7-C , 27-H ) :   0.9909 B(  8-N ,  9-C ) :   1.1842
B(  8-N , 28-H ) :   0.9477 B(  9-C , 10-S ) :   1.6047 B(  9-C , 11-N ) :   1.3072
B( 11-N , 12-C ) :   0.9801 B( 11-N , 29-H ) :   0.9514 B( 12-C , 13-C ) :   0.9353
B( 12-C , 30-H ) :   1.0016 B( 13-C , 14-C ) :   1.3540 B( 13-C , 19-C ) :   1.3830
B( 14-C , 15-C ) :   1.3917 B( 14-C , 31-H ) :   0.9730 B( 15-C , 16-C ) :   1.3616
B( 15-C , 32-H ) :   0.9707 B( 16-C , 17-C ) :   1.3307 B( 16-C , 33-H ) :   0.9847
B( 17-C , 18-O ) :   1.1120 B( 17-C , 19-C ) :   1.3702 B( 18-O , 34-H ) :   0.9795
B( 19-C , 35-H ) :   0.9580

MP2 TOTAL ENERGY:    -1274.337016399 Eh
FINAL SINGLE POINT ENERGY     -1274.337016398846

DIPOLE MOMENT
-------------
                                X             Y             Z
Electronic contribution:     10.20530       9.97450       8.28669
Nuclear contribution   :    -11.20017     -11.70656      -8.47074
                        -----------------------------------------
Total Dipole Moment    :     -0.99487      -1.73205      -0.18404
                        -----------------------------------------
Magnitude (a.u.)       :      2.00590
Magnitude (Debye)      :      5.09860

Rotational constants in cm-1:     0.012028     0.008679     0.006200
Rotational constants in MHz :   360.593848   260.201448   185.869445

                             ****ORCA TERMINATED NORMALLY****
TOTAL RUN TIME: 0 days 1 hours 41 minutes 22 seconds 708 msec
