                         Program Version 5.0.0 -  RELEASE  -
|  1> ! ri-mp2 cc-pvtz cc-pvtz/c TightSCF NoKeepInts
|  2>
|  3> %scf
|  4>   MaxCore 4096
|  5> end
|  6> *xyz  0  1
|  7>     C       14.9965474   15.1285852   17.5783100
|  8>     C       15.5768101   15.4518205   16.1917044
|  9>     O       16.9367111   14.9800118   16.1144181
| 10>     C       18.0832418   15.6600732   16.4506737
| 11>     O       19.1433510   15.0638437   16.4067567
| 12>     C       17.9343885   16.8388262   17.3574847
| 13>     C       17.4711138   18.0347543   16.9231485
| 14>     C       17.0580327   18.4006615   15.5126033
| 15>     N       17.4753853   19.1376894   17.7795909
| 16>     C       18.0718360   19.1644197   19.0126999
| 17>     S       18.1085699   20.5394960   19.9301894
| 18>     N       18.6468573   17.9948324   19.4436590
| 19>     C       18.5550011   16.6924335   18.7529582
| 20>     C       17.8363458   15.6466396   19.6056877
| 21>     C       18.2038411   14.2915362   19.5050875
| 22>     C       17.5548397   13.3105571   20.2726596
| 23>     C       16.5286208   13.6849277   21.1556439
| 24>     C       16.1606085   15.0321962   21.2648880
| 25>     O       15.1642568   15.3964380   22.1105247
| 26>     C       16.8083902   16.0074303   20.4996041
| 27>     H       15.3055698   15.8817217   18.3089390
| 28>     H       15.3288535   14.1418464   17.9262300
| 29>     H       13.9003905   15.1297613   17.5457456
| 30>     H       14.9903756   14.8933238   15.4504982
| 31>     H       15.4626669   16.5112668   15.9574718
| 32>     H       17.2036187   17.5757869   14.8044307
| 33>     H       17.6611483   19.2392393   15.1407661
| 34>     H       16.0045837   18.7039965   15.4714254
| 35>     H       17.0846946   20.0139002   17.4703622
| 36>     H       19.0748567   18.0413718   20.3598370
| 37>     H       19.5850365   16.3329780   18.6098125
| 38>     H       18.9938624   13.9943005   18.8184719
| 39>     H       17.8478450   12.2662879   20.1779372
| 40>     H       16.0233498   12.9299216   21.7487935
| 41>     H       14.8711738   14.5980955   22.5752076
| 42>     H       16.4942250   17.0410294   20.5997793
| 43> *
| 44>
| 45>                          ****END OF INPUT****

CARTESIAN COORDINATES (ANGSTROEM)
---------------------------------
  C     14.996547   15.128585   17.578310
  C     15.576810   15.451820   16.191704
  O     16.936711   14.980012   16.114418
  C     18.083242   15.660073   16.450674
  O     19.143351   15.063844   16.406757
  C     17.934389   16.838826   17.357485
  C     17.471114   18.034754   16.923148
  C     17.058033   18.400661   15.512603
  N     17.475385   19.137689   17.779591
  C     18.071836   19.164420   19.012700
  S     18.108570   20.539496   19.930189
  N     18.646857   17.994832   19.443659
  C     18.555001   16.692433   18.752958
  C     17.836346   15.646640   19.605688
  C     18.203841   14.291536   19.505087
  C     17.554840   13.310557   20.272660
  C     16.528621   13.684928   21.155644
  C     16.160608   15.032196   21.264888
  O     15.164257   15.396438   22.110525
  C     16.808390   16.007430   20.499604
  H     15.305570   15.881722   18.308939
  H     15.328853   14.141846   17.926230
  H     13.900391   15.129761   17.545746
  H     14.990376   14.893324   15.450498
  H     15.462667   16.511267   15.957472
  H     17.203619   17.575787   14.804431
  H     17.661148   19.239239   15.140766
  H     16.004584   18.703996   15.471425
  H     17.084695   20.013900   17.470362
  H     19.074857   18.041372   20.359837
  H     19.585037   16.332978   18.609813
  H     18.993862   13.994300   18.818472
  H     17.847845   12.266288   20.177937
  H     16.023350   12.929922   21.748794
  H     14.871174   14.598095   22.575208
  H     16.494225   17.041029   20.599779

 Total Charge           Charge          ....    0
 Multiplicity           Mult            ....    1
 Number of Electrons    NEL             ....  154
 Basis Dimension        Dim             ....  828

ORBITAL ENERGIES
----------------

  NO   OCC          E(Eh)            E(eV)
   0   2.0000     -91.890272     -2500.4614
   1   2.0000     -20.602109      -560.6119
   2   2.0000     -20.597475      -560.4858
   3   2.0000     -20.551219      -559.2271
   4   2.0000     -15.627080      -425.2345
   5   2.0000     -15.611619      -424.8137
   6   2.0000     -11.400761      -310.2305
   7   2.0000     -11.386879      -309.8527
   8   2.0000     -11.330983      -308.3317
   9   2.0000     -11.315935      -307.9222
  10   2.0000     -11.314211      -307.8753
  11   2.0000     -11.305846      -307.6477
  12   2.0000     -11.272775      -306.7478
  13   2.0000     -11.268799      -306.6396
  14   2.0000     -11.262728      -306.4744
  15   2.0000     -11.254603      -306.2533
  16   2.0000     -11.243542      -305.9523
  17   2.0000     -11.239354      -305.8384
  18   2.0000     -11.235894      -305.7442
  19   2.0000     -11.225444      -305.4599
  20   2.0000      -8.895382      -242.0557
  21   2.0000      -6.576974      -178.9686
  22   2.0000      -6.574943      -178.9133
  23   2.0000      -6.574370      -178.8977
  24   2.0000      -1.449000       -39.4293
  25   2.0000      -1.417278       -38.5661
  26   2.0000      -1.360077       -37.0096
  27   2.0000      -1.341049       -36.4918
  28   2.0000      -1.240515       -33.7561
  29   2.0000      -1.158856       -31.5341
  30   2.0000      -1.125649       -30.6305
  31   2.0000      -1.048137       -28.5212
  32   2.0000      -1.038516       -28.2595
  33   2.0000      -1.017563       -27.6893
  34   2.0000      -1.005678       -27.3659
  35   2.0000      -0.990063       -26.9410
  36   2.0000      -0.927984       -25.2517
  37   2.0000      -0.891761       -24.2660
  38   2.0000      -0.855432       -23.2775
  39   2.0000      -0.840993       -22.8846
  40   2.0000      -0.834142       -22.6982
  41   2.0000      -0.832200       -22.6453
  42   2.0000      -0.753170       -20.4948
  43   2.0000      -0.740635       -20.1537
  44   2.0000      -0.730396       -19.8751
  45   2.0000      -0.695412       -18.9231
  46   2.0000      -0.688264       -18.7286
  47   2.0000      -0.681151       -18.5351
  48   2.0000      -0.675646       -18.3853
  49   2.0000      -0.663890       -18.0654
  50   2.0000      -0.652972       -17.7683
  51   2.0000      -0.640199       -17.4207
  52   2.0000      -0.637701       -17.3527
  53   2.0000      -0.622184       -16.9305
  54   2.0000      -0.611915       -16.6510
  55   2.0000      -0.606059       -16.4917
  56   2.0000      -0.601432       -16.3658
  57   2.0000      -0.590462       -16.0673
  58   2.0000      -0.578161       -15.7326
  59   2.0000      -0.570315       -15.5190
  60   2.0000      -0.565811       -15.3965
  61   2.0000      -0.555950       -15.1282
  62   2.0000      -0.536602       -14.6017
  63   2.0000      -0.535308       -14.5665
  64   2.0000      -0.517252       -14.0751
  65   2.0000      -0.512324       -13.9410
  66   2.0000      -0.504845       -13.7375
  67   2.0000      -0.501482       -13.6460
  68   2.0000      -0.483630       -13.1602
  69   2.0000      -0.467617       -12.7245
  70   2.0000      -0.454260       -12.3610
  71   2.0000      -0.449693       -12.2368
  72   2.0000      -0.358673        -9.7600
  73   2.0000      -0.348270        -9.4769
  74   2.0000      -0.329965        -8.9788
  75   2.0000      -0.322799        -8.7838
  76   2.0000      -0.319054        -8.6819
  77   0.0000       0.087478         2.3804
  78   0.0000       0.106598         2.9007
  79   0.0000       0.110334         3.0023
  80   0.0000       0.128505         3.4968
  81   0.0000       0.131206         3.5703

MULLIKEN ATOMIC CHARGES
-----------------------
   0 C :   -0.303853
   1 C :    0.010741
   2 O :   -0.313210
   3 C :    0.407079
   4 O :   -0.382168
   5 C :   -0.205122
   6 C :    0.140456
   7 C :   -0.325218
   8 N :   -0.139050
   9 C :    0.207667
  10 S :   -0.441785
  11 N :   -0.234137
  12 C :    0.100712
  13 C :    0.021876
  14 C :   -0.212471
  15 C :   -0.141189
  16 C :   -0.274707
  17 C :    0.327255
  18 O :   -0.357481
  19 C :   -0.280304
  20 H :    0.103965
  21 H :    0.120521
  22 H :    0.107912
  23 H :    0.124754
  24 H :    0.088210
  25 H :    0.121873
  26 H :    0.143668
  27 H :    0.120140
  28 H :    0.195169
  29 H :    0.204536
  30 H :    0.168393
  31 H :    0.175595
  32 H :    0.165112
  33 H :    0.131911
  34 H :    0.240996
  35 H :    0.182154
Sum of atomic charges:    0.0000000

LOEWDIN ATOMIC CHARGES
----------------------
   0 C :    0.106704
   1 C :   -0.024018
   2 O :    0.310411
   3 C :   -0.416665
   4 O :    0.124612
   5 C :   -0.076586
   6 C :   -0.105656
   7 C :    0.120466
   8 N :    0.401449
   9 C :   -0.457297
  10 S :   -0.038220
  11 N :    0.398317
  12 C :   -0.041161
  13 C :   -0.040826
  14 C :    0.021379
  15 C :    0.044104
  16 C :   -0.001547
  17 C :   -0.192227
  18 O :    0.395680
  19 C :    0.026691
  20 H :   -0.034040
  21 H :   -0.019293
  22 H :   -0.026707
  23 H :   -0.022111
  24 H :   -0.039349
  25 H :   -0.009564
  26 H :   -0.007921
  27 H :   -0.018052
  28 H :   -0.057955
  29 H :   -0.063459
  30 H :   -0.001633
  31 H :   -0.022186
  32 H :   -0.018624
  33 H :   -0.035135
  34 H :   -0.153468
  35 H :   -0.026113

  Mayer bond orders larger than 0.100000
B(  0-C ,  1-C ) :   0.9605 B(  0-C , 20-H ) :   0.9723 B(  0-C , 21-H ) :   0.9700
B(  0-C , 22-H ) :   0.9780 B(  1-C ,  2-O ) :   0.9089 B(  1-C , 23-H ) :   0.9867
B(  1-C , 24-H ) :   0.9716 B(  2-O ,  3-C ) :   1.1626 B(  3-C ,  4-O ) :   2.0797
B(  3-C ,  5-C ) :   0.9223 B(  5-C ,  6-C ) :   1.7004 B(  5-C , 12-C ) :   0.9442
B(  6-C ,  7-C ) :   0.9405 B(  6-C ,  8-N ) :   1.1079 B(  7-C , 25-H ) :   0.9823
B(  7-C , 26-H ) :   0.9672 B(  7-C , 27-H ) :   0.9681 B(  8-N ,  9-C ) :   1.1998
B(  8-N , 28-H ) :   0.9531 B(  9-C , 10-S ) :   1.6060 B(  9-C , 11-N ) :   1.2883
B( 11-N , 12-C ) :   0.9818 B( 11-N , 29-H ) :   0.9463 B( 12-C , 13-C ) :   0.9570
B( 12-C , 30-H ) :   0.9933 B( 13-C , 14-C ) :   1.3862 B( 13-C , 19-C ) :   1.3359
B( 14-C , 15-C ) :   1.4053 B( 14-C , 31-H ) :   0.9584 B( 15-C , 16-C ) :   1.3554
B( 15-C , 32-H ) :   0.9694 B( 16-C , 17-C ) :   1.3325 B( 16-C , 33-H ) :   0.9849
B( 17-C , 18-O ) :   1.1086 B( 17-C , 19-C ) :   1.3620 B( 18-O , 34-H ) :   0.9796
B( 19-C , 35-H ) :   0.9575

MP2 TOTAL ENERGY:    -1274.327122470 Eh
FINAL SINGLE POINT ENERGY     -1274.327122469740

DIPOLE MOMENT
-------------
                                X             Y             Z
Electronic contribution:      9.27664       6.68877       6.23521
Nuclear contribution   :    -10.79581      -7.66565      -6.98893
                        -----------------------------------------
Total Dipole Moment    :     -1.51918      -0.97688      -0.75371
                        -----------------------------------------
Magnitude (a.u.)       :      1.95711
Magnitude (Debye)      :      4.97458

Rotational constants in cm-1:     0.011971     0.009485     0.006701
Rotational constants in MHz :   358.871868   284.343561   200.900141

                             ****ORCA TERMINATED NORMALLY****
TOTAL RUN TIME: 0 days 1 hours 37 minutes 42 seconds 876 msec
