                         Program Version 4.2.0 -  RELEASE  -
|  1> ! ri-mp2 cc-pvtz cc-pvtz/c TightSCF  NoKeepInts
|  2>
|  3> %scf
|  4>   MaxCore 4096
|  5> end
|  6> *xyz  0  1
|  7>     C       15.5836738   13.6455635   15.4521599
|  8>     C       15.1961883   15.1392678   15.4136165
|  9>     O       16.1655968   16.0727445   15.9629480
| 10>     C       17.2487066   15.7995561   16.7593700
| 11>     O       17.7589789   14.6990782   16.8779794
| 12>     C       17.6909398   16.9609010   17.6078971
| 13>     C       17.3285089   18.2586750   17.4212859
| 14>     C       16.4337719   18.8400491   16.3450810
| 15>     N       17.8597956   19.2538925   18.2490418
| 16>     C       18.8580190   19.0622061   19.1669169
| 17>     S       19.5212760   20.3213020   20.0098510
| 18>     N       19.2779279   17.7698351   19.3497056
| 19>     C       18.6295723   16.5833040   18.7612014
| 20>     C       17.8878955   15.7924628   19.8361841
| 21>     C       18.1553643   14.4239581   20.0254646
| 22>     C       17.4741711   13.6899180   21.0108776
| 23>     C       16.5159127   14.3289579   21.8158150
| 24>     C       16.2435099   15.6908350   21.6283132
| 25>     O       15.3141735   16.3093517   22.3998167
| 26>     C       16.9227745   16.4186586   20.6462821
| 27>     H       16.5334975   13.4710638   14.9310801
| 28>     H       14.8142706   13.0417110   14.9564257
| 29>     H       15.6726811   13.2851822   16.4848575
| 30>     H       14.9892577   15.4234827   14.3738890
| 31>     H       14.2558804   15.2544136   15.9680812
| 32>     H       15.3962111   18.5126904   16.4857124
| 33>     H       16.7611141   18.5153135   15.3495306
| 34>     H       16.4338674   19.9367883   16.3400043
| 35>     H       17.5649264   20.2097562   18.1300123
| 36>     H       19.9932423   17.6493632   20.0551418
| 37>     H       19.4241565   15.9433702   18.3508276
| 38>     H       18.8834522   13.9232942   19.3917502
| 39>     H       17.6862907   12.6304360   21.1422679
| 40>     H       15.9861577   13.7654253   22.5765025
| 41>     H       14.9864321   15.6568702   23.0366662
| 42>     H       16.6988052   17.4723223   20.5214430
| 43> *
| 44>
| 45>                          ****END OF INPUT****

CARTESIAN COORDINATES (ANGSTROEM)
---------------------------------
  C     15.583674   13.645563   15.452160
  C     15.196188   15.139268   15.413616
  O     16.165597   16.072744   15.962948
  C     17.248707   15.799556   16.759370
  O     17.758979   14.699078   16.877979
  C     17.690940   16.960901   17.607897
  C     17.328509   18.258675   17.421286
  C     16.433772   18.840049   16.345081
  N     17.859796   19.253892   18.249042
  C     18.858019   19.062206   19.166917
  S     19.521276   20.321302   20.009851
  N     19.277928   17.769835   19.349706
  C     18.629572   16.583304   18.761201
  C     17.887895   15.792463   19.836184
  C     18.155364   14.423958   20.025465
  C     17.474171   13.689918   21.010878
  C     16.515913   14.328958   21.815815
  C     16.243510   15.690835   21.628313
  O     15.314173   16.309352   22.399817
  C     16.922774   16.418659   20.646282
  H     16.533497   13.471064   14.931080
  H     14.814271   13.041711   14.956426
  H     15.672681   13.285182   16.484858
  H     14.989258   15.423483   14.373889
  H     14.255880   15.254414   15.968081
  H     15.396211   18.512690   16.485712
  H     16.761114   18.515313   15.349531
  H     16.433867   19.936788   16.340004
  H     17.564926   20.209756   18.130012
  H     19.993242   17.649363   20.055142
  H     19.424156   15.943370   18.350828
  H     18.883452   13.923294   19.391750
  H     17.686291   12.630436   21.142268
  H     15.986158   13.765425   22.576502
  H     14.986432   15.656870   23.036666
  H     16.698805   17.472322   20.521443

 Total Charge           Charge          ....    0
 Multiplicity           Mult            ....    1
 Number of Electrons    NEL             ....  154
 Basis Dimension        Dim             ....  828

ORBITAL ENERGIES
----------------

  NO   OCC          E(Eh)            E(eV)
   0   2.0000     -91.887170     -2500.3770
   1   2.0000     -20.599684      -560.5459
   2   2.0000     -20.591283      -560.3173
   3   2.0000     -20.543906      -559.0281
   4   2.0000     -15.627185      -425.2373
   5   2.0000     -15.605752      -424.6541
   6   2.0000     -11.399153      -310.1867
   7   2.0000     -11.381867      -309.7164
   8   2.0000     -11.335024      -308.4417
   9   2.0000     -11.307512      -307.6930
  10   2.0000     -11.307059      -307.6807
  11   2.0000     -11.304275      -307.6050
  12   2.0000     -11.259410      -306.3841
  13   2.0000     -11.257789      -306.3400
  14   2.0000     -11.252843      -306.2054
  15   2.0000     -11.247266      -306.0537
  16   2.0000     -11.236861      -305.7705
  17   2.0000     -11.232870      -305.6619
  18   2.0000     -11.229858      -305.5800
  19   2.0000     -11.224678      -305.4390
  20   2.0000      -8.892243      -241.9702
  21   2.0000      -6.573824      -178.8828
  22   2.0000      -6.571815      -178.8282
  23   2.0000      -6.571231      -178.8123
  24   2.0000      -1.444585       -39.3092
  25   2.0000      -1.411017       -38.3957
  26   2.0000      -1.356762       -36.9194
  27   2.0000      -1.338350       -36.4184
  28   2.0000      -1.235991       -33.6330
  29   2.0000      -1.151348       -31.3298
  30   2.0000      -1.117797       -30.4168
  31   2.0000      -1.041663       -28.3451
  32   2.0000      -1.034475       -28.1495
  33   2.0000      -1.008915       -27.4540
  34   2.0000      -0.996347       -27.1120
  35   2.0000      -0.981582       -26.7102
  36   2.0000      -0.920739       -25.0546
  37   2.0000      -0.896773       -24.4024
  38   2.0000      -0.847328       -23.0570
  39   2.0000      -0.835277       -22.7291
  40   2.0000      -0.827396       -22.5146
  41   2.0000      -0.817440       -22.2437
  42   2.0000      -0.742624       -20.2078
  43   2.0000      -0.725452       -19.7405
  44   2.0000      -0.723710       -19.6932
  45   2.0000      -0.689703       -18.7678
  46   2.0000      -0.683448       -18.5976
  47   2.0000      -0.677119       -18.4253
  48   2.0000      -0.673504       -18.3270
  49   2.0000      -0.665049       -18.0969
  50   2.0000      -0.645909       -17.5761
  51   2.0000      -0.643131       -17.5005
  52   2.0000      -0.633972       -17.2513
  53   2.0000      -0.603481       -16.4216
  54   2.0000      -0.599718       -16.3192
  55   2.0000      -0.598674       -16.2908
  56   2.0000      -0.594810       -16.1856
  57   2.0000      -0.581045       -15.8110
  58   2.0000      -0.572351       -15.5745
  59   2.0000      -0.570591       -15.5266
  60   2.0000      -0.558432       -15.1957
  61   2.0000      -0.542268       -14.7559
  62   2.0000      -0.537400       -14.6234
  63   2.0000      -0.525898       -14.3104
  64   2.0000      -0.516594       -14.0572
  65   2.0000      -0.510211       -13.8836
  66   2.0000      -0.498743       -13.5715
  67   2.0000      -0.494300       -13.4506
  68   2.0000      -0.479008       -13.0345
  69   2.0000      -0.461690       -12.5632
  70   2.0000      -0.452857       -12.3229
  71   2.0000      -0.446674       -12.1546
  72   2.0000      -0.353000        -9.6056
  73   2.0000      -0.343422        -9.3450
  74   2.0000      -0.326368        -8.8809
  75   2.0000      -0.314940        -8.5699
  76   2.0000      -0.313134        -8.5208
  77   0.0000       0.076850         2.0912
  78   0.0000       0.113408         3.0860
  79   0.0000       0.121489         3.3059
  80   0.0000       0.136168         3.7053
  81   0.0000       0.139084         3.7847

MULLIKEN ATOMIC CHARGES
-----------------------
   0 C :   -0.286883
   1 C :    0.049042
   2 O :   -0.362723
   3 C :    0.438814
   4 O :   -0.425820
   5 C :   -0.152441
   6 C :    0.142767
   7 C :   -0.286605
   8 N :   -0.121458
   9 C :    0.200827
  10 S :   -0.440726
  11 N :   -0.197403
  12 C :    0.033421
  13 C :    0.057474
  14 C :   -0.164465
  15 C :   -0.134307
  16 C :   -0.279312
  17 C :    0.311643
  18 O :   -0.359094
  19 C :   -0.272783
  20 H :    0.110999
  21 H :    0.096736
  22 H :    0.112710
  23 H :    0.093877
  24 H :    0.088870
  25 H :    0.125775
  26 H :    0.127010
  27 H :    0.102987
  28 H :    0.196363
  29 H :    0.193568
  30 H :    0.154813
  31 H :    0.154534
  32 H :    0.159131
  33 H :    0.127918
  34 H :    0.239949
  35 H :    0.164793
Sum of atomic charges:    0.0000000

LOEWDIN ATOMIC CHARGES
----------------------
   0 C :    0.102972
   1 C :   -0.008582
   2 O :    0.291929
   3 C :   -0.412471
   4 O :    0.114705
   5 C :   -0.090490
   6 C :   -0.065593
   7 C :    0.124186
   8 N :    0.404549
   9 C :   -0.459424
  10 S :   -0.037143
  11 N :    0.397964
  12 C :   -0.046672
  13 C :   -0.038758
  14 C :    0.021410
  15 C :    0.040169
  16 C :   -0.002676
  17 C :   -0.192703
  18 O :    0.392946
  19 C :    0.028472
  20 H :   -0.024253
  21 H :   -0.027757
  22 H :   -0.024435
  23 H :   -0.027067
  24 H :   -0.029350
  25 H :   -0.010093
  26 H :   -0.008437
  27 H :   -0.021426
  28 H :   -0.059494
  29 H :   -0.063721
  30 H :   -0.005552
  31 H :   -0.025275
  32 H :   -0.021378
  33 H :   -0.036531
  34 H :   -0.155000
  35 H :   -0.025022

  Mayer bond orders larger than 0.100000
B(  0-C ,  1-C ) :   0.9836 B(  0-C , 20-H ) :   0.9734 B(  0-C , 21-H ) :   0.9723
B(  0-C , 22-H ) :   0.9729 B(  1-C ,  2-O ) :   0.8998 B(  1-C , 23-H ) :   0.9787
B(  1-C , 24-H ) :   0.9770 B(  2-O ,  3-C ) :   1.1360 B(  3-C ,  4-O ) :   1.9856
B(  3-C ,  5-C ) :   1.0519 B(  5-C ,  6-C ) :   1.6545 B(  5-C , 12-C ) :   0.9642
B(  6-C ,  7-C ) :   0.9537 B(  6-C ,  8-N ) :   1.1451 B(  7-C , 25-H ) :   0.9646
B(  7-C , 26-H ) :   0.9657 B(  7-C , 27-H ) :   0.9921 B(  8-N ,  9-C ) :   1.1797
B(  8-N , 28-H ) :   0.9488 B(  9-C , 10-S ) :   1.6094 B(  9-C , 11-N ) :   1.3048
B( 11-N , 12-C ) :   0.9909 B( 11-N , 29-H ) :   0.9521 B( 12-C , 13-C ) :   0.9472
B( 12-C , 30-H ) :   1.0001 B( 13-C , 14-C ) :   1.3749 B( 13-C , 19-C ) :   1.3696
B( 14-C , 15-C ) :   1.3941 B( 14-C , 31-H ) :   0.9647 B( 15-C , 16-C ) :   1.3623
B( 15-C , 32-H ) :   0.9714 B( 16-C , 17-C ) :   1.3316 B( 16-C , 33-H ) :   0.9860
B( 17-C , 18-O ) :   1.1080 B( 17-C , 19-C ) :   1.3787 B( 18-O , 34-H ) :   0.9807
B( 19-C , 35-H ) :   0.9584

MP2 TOTAL ENERGY:    -1274.335591801 Eh
FINAL SINGLE POINT ENERGY     -1274.335591800999

DIPOLE MOMENT
-------------
                                X             Y             Z
Electronic contribution:      9.96063      10.44847      10.50656
Nuclear contribution   :    -11.63745     -11.65181     -11.54489
                        -----------------------------------------
Total Dipole Moment    :     -1.67682      -1.20335      -1.03833
                        -----------------------------------------
Magnitude (a.u.)       :      2.31039
Magnitude (Debye)      :      5.87254

Rotational constants in cm-1:     0.010715     0.008938     0.005885
Rotational constants in MHz :   321.235453   267.945752   176.424585

                             ****ORCA TERMINATED NORMALLY****
TOTAL RUN TIME: 0 days 2 hours 24 minutes 46 seconds 744 msec
