                         Program Version 5.0.0 -  RELEASE  -
|  1> ! ri-mp2 cc-pvtz cc-pvtz/c TightSCF NoKeepInts
|  2>
|  3> %scf
|  4>   MaxCore 4096
|  5> end
|  6> *xyz  0  1
|  7>     C       15.5838775   13.8194618   17.3650493
|  8>     C       16.3509908   14.1432939   16.0729921
|  9>     O       17.4440267   15.0373271   16.3735231
| 10>     C       17.2951594   16.3719915   16.1149707
| 11>     O       16.6471432   16.7604290   15.1581533
| 12>     C       17.6620667   17.2454138   17.2844495
| 13>     C       17.3630071   18.5700536   17.3274746
| 14>     C       16.5708790   19.3706297   16.3157031
| 15>     N       17.8509463   19.3628394   18.3712944
| 16>     C       18.8031193   18.9621299   19.2707012
| 17>     S       19.4754364   20.0083849   20.3613311
| 18>     N       19.1850644   17.6462938   19.2055839
| 19>     C       18.4909114   16.6130030   18.4161014
| 20>     C       17.6690499   15.7462289   19.3640612
| 21>     C       18.1583878   14.4912745   19.7731802
| 22>     C       17.4324182   13.7010904   20.6805706
| 23>     C       16.2077947   14.1702951   21.1854469
| 24>     C       15.7230284   15.4242141   20.7891692
| 25>     O       14.5434484   15.8823247   21.2784288
| 26>     C       16.4496270   16.2104710   19.8897341
| 27>     H       16.2402305   13.3333767   18.0949984
| 28>     H       14.7502716   13.1390724   17.1539743
| 29>     H       15.1715736   14.7321658   17.8114112
| 30>     H       16.7572089   13.2086441   15.6656726
| 31>     H       15.6688934   14.5618819   15.3205578
| 32>     H       15.5760871   18.9309030   16.1692232
| 33>     H       17.0762819   19.3684940   15.3414868
| 34>     H       16.4277098   20.4161069   16.6128112
| 35>     H       17.5904396   20.3347652   18.4216350
| 36>     H       19.8690363   17.3720757   19.8987985
| 37>     H       19.2584699   15.9787318   17.9505344
| 38>     H       19.1062201   14.1268289   19.3862573
| 39>     H       17.8190691   12.7314483   20.9896289
| 40>     H       15.6428651   13.5634746   21.8854165
| 41>     H       14.2223011   15.2318424   21.9209513
| 42>     H       16.0639596   17.1850383   19.6127238
| 43> *
| 44>
| 45>                          ****END OF INPUT****

CARTESIAN COORDINATES (ANGSTROEM)
---------------------------------
  C     15.583877   13.819462   17.365049
  C     16.350991   14.143294   16.072992
  O     17.444027   15.037327   16.373523
  C     17.295159   16.371992   16.114971
  O     16.647143   16.760429   15.158153
  C     17.662067   17.245414   17.284450
  C     17.363007   18.570054   17.327475
  C     16.570879   19.370630   16.315703
  N     17.850946   19.362839   18.371294
  C     18.803119   18.962130   19.270701
  S     19.475436   20.008385   20.361331
  N     19.185064   17.646294   19.205584
  C     18.490911   16.613003   18.416101
  C     17.669050   15.746229   19.364061
  C     18.158388   14.491274   19.773180
  C     17.432418   13.701090   20.680571
  C     16.207795   14.170295   21.185447
  C     15.723028   15.424214   20.789169
  O     14.543448   15.882325   21.278429
  C     16.449627   16.210471   19.889734
  H     16.240230   13.333377   18.094998
  H     14.750272   13.139072   17.153974
  H     15.171574   14.732166   17.811411
  H     16.757209   13.208644   15.665673
  H     15.668893   14.561882   15.320558
  H     15.576087   18.930903   16.169223
  H     17.076282   19.368494   15.341487
  H     16.427710   20.416107   16.612811
  H     17.590440   20.334765   18.421635
  H     19.869036   17.372076   19.898799
  H     19.258470   15.978732   17.950534
  H     19.106220   14.126829   19.386257
  H     17.819069   12.731448   20.989629
  H     15.642865   13.563475   21.885416
  H     14.222301   15.231842   21.920951
  H     16.063960   17.185038   19.612724

 Total Charge           Charge          ....    0
 Multiplicity           Mult            ....    1
 Number of Electrons    NEL             ....  154
 Basis Dimension        Dim             ....  828

ORBITAL ENERGIES
----------------

  NO   OCC          E(Eh)            E(eV)
   0   2.0000     -91.889626     -2500.4439
   1   2.0000     -20.599286      -560.5351
   2   2.0000     -20.593204      -560.3696
   3   2.0000     -20.543930      -559.0288
   4   2.0000     -15.630319      -425.3226
   5   2.0000     -15.608355      -424.7249
   6   2.0000     -11.394609      -310.0631
   7   2.0000     -11.384235      -309.7808
   8   2.0000     -11.337094      -308.4980
   9   2.0000     -11.316178      -307.9288
  10   2.0000     -11.310197      -307.7661
  11   2.0000     -11.293269      -307.3055
  12   2.0000     -11.261556      -306.4425
  13   2.0000     -11.259972      -306.3994
  14   2.0000     -11.257560      -306.3338
  15   2.0000     -11.252751      -306.2029
  16   2.0000     -11.245078      -305.9941
  17   2.0000     -11.239792      -305.8503
  18   2.0000     -11.239472      -305.8416
  19   2.0000     -11.219591      -305.3006
  20   2.0000      -8.894656      -242.0359
  21   2.0000      -6.576224      -178.9481
  22   2.0000      -6.574228      -178.8938
  23   2.0000      -6.573636      -178.8777
  24   2.0000      -1.448799       -39.4238
  25   2.0000      -1.418903       -38.6103
  26   2.0000      -1.352437       -36.8017
  27   2.0000      -1.341315       -36.4990
  28   2.0000      -1.239534       -33.7294
  29   2.0000      -1.159153       -31.5422
  30   2.0000      -1.120620       -30.4936
  31   2.0000      -1.043659       -28.3994
  32   2.0000      -1.033735       -28.1294
  33   2.0000      -1.017432       -27.6857
  34   2.0000      -0.996962       -27.1287
  35   2.0000      -0.984752       -26.7965
  36   2.0000      -0.923802       -25.1379
  37   2.0000      -0.889156       -24.1952
  38   2.0000      -0.847693       -23.0669
  39   2.0000      -0.840300       -22.8657
  40   2.0000      -0.835412       -22.7327
  41   2.0000      -0.815063       -22.1790
  42   2.0000      -0.758949       -20.6520
  43   2.0000      -0.733840       -19.9688
  44   2.0000      -0.721542       -19.6341
  45   2.0000      -0.698241       -19.0001
  46   2.0000      -0.689628       -18.7657
  47   2.0000      -0.678437       -18.4612
  48   2.0000      -0.668971       -18.2036
  49   2.0000      -0.666950       -18.1486
  50   2.0000      -0.648346       -17.6424
  51   2.0000      -0.644888       -17.5483
  52   2.0000      -0.637166       -17.3382
  53   2.0000      -0.610107       -16.6019
  54   2.0000      -0.602716       -16.4007
  55   2.0000      -0.599917       -16.3246
  56   2.0000      -0.590489       -16.0680
  57   2.0000      -0.579507       -15.7692
  58   2.0000      -0.571301       -15.5459
  59   2.0000      -0.565677       -15.3928
  60   2.0000      -0.562960       -15.3189
  61   2.0000      -0.549294       -14.9470
  62   2.0000      -0.537080       -14.6147
  63   2.0000      -0.527477       -14.3534
  64   2.0000      -0.523233       -14.2379
  65   2.0000      -0.513485       -13.9726
  66   2.0000      -0.503404       -13.6983
  67   2.0000      -0.497655       -13.5419
  68   2.0000      -0.480572       -13.0770
  69   2.0000      -0.462819       -12.5939
  70   2.0000      -0.450854       -12.2684
  71   2.0000      -0.446397       -12.1471
  72   2.0000      -0.356832        -9.7099
  73   2.0000      -0.351347        -9.5606
  74   2.0000      -0.329147        -8.9566
  75   2.0000      -0.323774        -8.8103
  76   2.0000      -0.316603        -8.6152
  77   0.0000       0.072429         1.9709
  78   0.0000       0.103823         2.8252
  79   0.0000       0.122326         3.3287
  80   0.0000       0.131116         3.5678
  81   0.0000       0.134812         3.6684

MULLIKEN ATOMIC CHARGES
-----------------------
   0 C :   -0.308585
   1 C :    0.033437
   2 O :   -0.372567
   3 C :    0.475796
   4 O :   -0.424013
   5 C :   -0.240952
   6 C :    0.150112
   7 C :   -0.269394
   8 N :   -0.123362
   9 C :    0.215225
  10 S :   -0.438914
  11 N :   -0.203899
  12 C :    0.043582
  13 C :    0.103001
  14 C :   -0.199480
  15 C :   -0.136785
  16 C :   -0.271622
  17 C :    0.321791
  18 O :   -0.359526
  19 C :   -0.284897
  20 H :    0.104791
  21 H :    0.111806
  22 H :    0.104819
  23 H :    0.102703
  24 H :    0.114066
  25 H :    0.128723
  26 H :    0.134509
  27 H :    0.094577
  28 H :    0.198435
  29 H :    0.193120
  30 H :    0.149495
  31 H :    0.146996
  32 H :    0.163934
  33 H :    0.131919
  34 H :    0.241706
  35 H :    0.169452
Sum of atomic charges:    0.0000000

LOEWDIN ATOMIC CHARGES
----------------------
   0 C :    0.103780
   1 C :   -0.013015
   2 O :    0.292654
   3 C :   -0.415402
   4 O :    0.105232
   5 C :   -0.096400
   6 C :   -0.058073
   7 C :    0.130663
   8 N :    0.407374
   9 C :   -0.455391
  10 S :   -0.033964
  11 N :    0.396398
  12 C :   -0.053238
  13 C :   -0.034464
  14 C :    0.012014
  15 C :    0.042177
  16 C :   -0.001189
  17 C :   -0.188666
  18 O :    0.396062
  19 C :    0.032281
  20 H :   -0.027495
  21 H :   -0.026839
  22 H :   -0.028783
  23 H :   -0.027610
  24 H :   -0.028886
  25 H :   -0.005612
  26 H :   -0.003249
  27 H :   -0.023371
  28 H :   -0.057576
  29 H :   -0.065794
  30 H :   -0.007542
  31 H :   -0.030630
  32 H :   -0.020743
  33 H :   -0.035181
  34 H :   -0.153068
  35 H :   -0.026453

  Mayer bond orders larger than 0.100000
B(  0-C ,  1-C ) :   0.9677 B(  0-C , 20-H ) :   0.9721 B(  0-C , 21-H ) :   0.9777
B(  0-C , 22-H ) :   0.9740 B(  1-C ,  2-O ) :   0.8837 B(  1-C , 23-H ) :   0.9869
B(  1-C , 24-H ) :   0.9750 B(  2-O ,  3-C ) :   1.1325 B(  3-C ,  4-O ) :   1.9863
B(  3-C ,  5-C ) :   1.0642 B(  5-C ,  6-C ) :   1.6514 B(  5-C , 12-C ) :   0.9770
B(  6-C ,  7-C ) :   0.9705 B(  6-C ,  8-N ) :   1.1570 B(  7-C , 25-H ) :   0.9627
B(  7-C , 26-H ) :   0.9577 B(  7-C , 27-H ) :   0.9896 B(  8-N ,  9-C ) :   1.1801
B(  8-N , 28-H ) :   0.9481 B(  9-C , 10-S ) :   1.6078 B(  9-C , 11-N ) :   1.3056
B( 11-N , 12-C ) :   0.9649 B( 11-N , 29-H ) :   0.9535 B( 12-C , 13-C ) :   0.9455
B( 12-C , 30-H ) :   1.0032 B( 13-C , 14-C ) :   1.3482 B( 13-C , 19-C ) :   1.3613
B( 14-C , 15-C ) :   1.3871 B( 14-C , 31-H ) :   0.9753 B( 15-C , 16-C ) :   1.3624
B( 15-C , 32-H ) :   0.9705 B( 16-C , 17-C ) :   1.3303 B( 16-C , 33-H ) :   0.9845
B( 17-C , 18-O ) :   1.1104 B( 17-C , 19-C ) :   1.3682 B( 18-O , 34-H ) :   0.9793
B( 19-C , 35-H ) :   0.9582

MP2 TOTAL ENERGY:    -1274.340991590 Eh
FINAL SINGLE POINT ENERGY     -1274.340991590296

DIPOLE MOMENT
-------------
                                X             Y             Z
Electronic contribution:      8.75759      10.48715       5.15359
Nuclear contribution   :     -9.71865     -12.14955      -5.22287
                        -----------------------------------------
Total Dipole Moment    :     -0.96105      -1.66240      -0.06928
                        -----------------------------------------
Magnitude (a.u.)       :      1.92146
Magnitude (Debye)      :      4.88396

Rotational constants in cm-1:     0.012100     0.009234     0.006506
Rotational constants in MHz :   362.748828   276.822509   195.043098

                             ****ORCA TERMINATED NORMALLY****
TOTAL RUN TIME: 0 days 2 hours 47 minutes 18 seconds 12 msec
