                         Program Version 5.0.0 -  RELEASE  -
|  1> ! ri-mp2 cc-pvtz cc-pvtz/c TightSCF NoKeepInts
|  2>
|  3> %scf
|  4>   MaxCore 4096
|  5> end
|  6> *xyz  0  1
|  7>     C       15.0999865   15.6837556   17.2102894
|  8>     C       15.9593166   14.4446610   16.8721140
|  9>     O       17.3545109   14.6899733   16.5455609
| 10>     C       17.8963637   15.8965791   16.1979907
| 11>     O       17.9800666   16.1762728   15.0163711
| 12>     C       17.8569167   16.9456355   17.2734092
| 13>     C       17.4898446   18.2275859   17.0227423
| 14>     C       16.9307150   18.7865307   15.7314488
| 15>     N       17.6528920   19.2073166   18.0051881
| 16>     C       18.3395196   19.0302708   19.1762757
| 17>     S       18.5915885   20.2718772   20.2388897
| 18>     N       18.8147474   17.7673117   19.4235819
| 19>     C       18.5055880   16.5670520   18.6219440
| 20>     C       17.7476513   15.5498004   19.4757621
| 21>     C       18.1317013   14.1948676   19.4652308
| 22>     C       17.4627736   13.2516504   20.2630156
| 23>     C       16.4066898   13.6660844   21.0914462
| 24>     C       16.0333083   15.0160903   21.1230801
| 25>     O       15.0161273   15.4209649   21.9239739
| 26>     C       16.7023116   15.9527376   20.3289957
| 27>     H       15.4527511   16.2224589   18.0904742
| 28>     H       14.0698217   15.3702111   17.4184611
| 29>     H       15.0624828   16.3744674   16.3608193
| 30>     H       15.9104813   13.7374056   17.7101032
| 31>     H       15.4957456   13.9460068   16.0109631
| 32>     H       17.7378900   18.9398050   15.0035678
| 33>     H       16.4149671   19.7435757   15.8726548
| 34>     H       16.2138682   18.0952746   15.2735043
| 35>     H       17.3330479   20.1464292   17.8287752
| 36>     H       19.2996737   17.6650120   20.3063257
| 37>     H       19.4723613   16.1060743   18.3745640
| 38>     H       18.9457740   13.8673957   18.8232647
| 39>     H       17.7644934   12.2057145   20.2378342
| 40>     H       15.8866161   12.9411648   21.7092442
| 41>     H       14.7174975   14.6507419   22.4307576
| 42>     H       16.3969091   16.9932445   20.3753764
| 43> *
| 44>
| 45>                          ****END OF INPUT****

CARTESIAN COORDINATES (ANGSTROEM)
---------------------------------
  C     15.099986   15.683756   17.210289
  C     15.959317   14.444661   16.872114
  O     17.354511   14.689973   16.545561
  C     17.896364   15.896579   16.197991
  O     17.980067   16.176273   15.016371
  C     17.856917   16.945636   17.273409
  C     17.489845   18.227586   17.022742
  C     16.930715   18.786531   15.731449
  N     17.652892   19.207317   18.005188
  C     18.339520   19.030271   19.176276
  S     18.591588   20.271877   20.238890
  N     18.814747   17.767312   19.423582
  C     18.505588   16.567052   18.621944
  C     17.747651   15.549800   19.475762
  C     18.131701   14.194868   19.465231
  C     17.462774   13.251650   20.263016
  C     16.406690   13.666084   21.091446
  C     16.033308   15.016090   21.123080
  O     15.016127   15.420965   21.923974
  C     16.702312   15.952738   20.328996
  H     15.452751   16.222459   18.090474
  H     14.069822   15.370211   17.418461
  H     15.062483   16.374467   16.360819
  H     15.910481   13.737406   17.710103
  H     15.495746   13.946007   16.010963
  H     17.737890   18.939805   15.003568
  H     16.414967   19.743576   15.872655
  H     16.213868   18.095275   15.273504
  H     17.333048   20.146429   17.828775
  H     19.299674   17.665012   20.306326
  H     19.472361   16.106074   18.374564
  H     18.945774   13.867396   18.823265
  H     17.764493   12.205714   20.237834
  H     15.886616   12.941165   21.709244
  H     14.717498   14.650742   22.430758
  H     16.396909   16.993244   20.375376

 Total Charge           Charge          ....    0
 Multiplicity           Mult            ....    1
 Number of Electrons    NEL             ....  154
 Basis Dimension        Dim             ....  828

ORBITAL ENERGIES
----------------

  NO   OCC          E(Eh)            E(eV)
   0   2.0000     -91.891196     -2500.4866
   1   2.0000     -20.601023      -560.5823
   2   2.0000     -20.577000      -559.9286
   3   2.0000     -20.554831      -559.3254
   4   2.0000     -15.629074      -425.2887
   5   2.0000     -15.611320      -424.8056
   6   2.0000     -11.395277      -310.0813
   7   2.0000     -11.386296      -309.8369
   8   2.0000     -11.333441      -308.3986
   9   2.0000     -11.318501      -307.9921
  10   2.0000     -11.316745      -307.9443
  11   2.0000     -11.303902      -307.5948
  12   2.0000     -11.265837      -306.5590
  13   2.0000     -11.260974      -306.4267
  14   2.0000     -11.259169      -306.3776
  15   2.0000     -11.255444      -306.2762
  16   2.0000     -11.248478      -306.0866
  17   2.0000     -11.244266      -305.9720
  18   2.0000     -11.242761      -305.9311
  19   2.0000     -11.231049      -305.6124
  20   2.0000      -8.896264      -242.0797
  21   2.0000      -6.577841      -178.9922
  22   2.0000      -6.575831      -178.9375
  23   2.0000      -6.575244      -178.9215
  24   2.0000      -1.442995       -39.2659
  25   2.0000      -1.420868       -38.6638
  26   2.0000      -1.350260       -36.7424
  27   2.0000      -1.341504       -36.5042
  28   2.0000      -1.241171       -33.7740
  29   2.0000      -1.161688       -31.6111
  30   2.0000      -1.121637       -30.5213
  31   2.0000      -1.046846       -28.4861
  32   2.0000      -1.034295       -28.1446
  33   2.0000      -1.020463       -27.7682
  34   2.0000      -1.002392       -27.2765
  35   2.0000      -0.988254       -26.8918
  36   2.0000      -0.926689       -25.2165
  37   2.0000      -0.898392       -24.4465
  38   2.0000      -0.850360       -23.1395
  39   2.0000      -0.842743       -22.9322
  40   2.0000      -0.839291       -22.8383
  41   2.0000      -0.823061       -22.3966
  42   2.0000      -0.746989       -20.3266
  43   2.0000      -0.735839       -20.0232
  44   2.0000      -0.723443       -19.6859
  45   2.0000      -0.699550       -19.0357
  46   2.0000      -0.689397       -18.7594
  47   2.0000      -0.674435       -18.3523
  48   2.0000      -0.672668       -18.3042
  49   2.0000      -0.661975       -18.0133
  50   2.0000      -0.654679       -17.8147
  51   2.0000      -0.647154       -17.6100
  52   2.0000      -0.639482       -17.4012
  53   2.0000      -0.622866       -16.9490
  54   2.0000      -0.610835       -16.6217
  55   2.0000      -0.603889       -16.4327
  56   2.0000      -0.602292       -16.3892
  57   2.0000      -0.580650       -15.8003
  58   2.0000      -0.575615       -15.6633
  59   2.0000      -0.566624       -15.4186
  60   2.0000      -0.557006       -15.1569
  61   2.0000      -0.553764       -15.0687
  62   2.0000      -0.542401       -14.7595
  63   2.0000      -0.528909       -14.3923
  64   2.0000      -0.525379       -14.2963
  65   2.0000      -0.515592       -14.0300
  66   2.0000      -0.504312       -13.7230
  67   2.0000      -0.493575       -13.4309
  68   2.0000      -0.479273       -13.0417
  69   2.0000      -0.470514       -12.8033
  70   2.0000      -0.452043       -12.3007
  71   2.0000      -0.446549       -12.1512
  72   2.0000      -0.358228        -9.7479
  73   2.0000      -0.348978        -9.4962
  74   2.0000      -0.330550        -8.9947
  75   2.0000      -0.325928        -8.8689
  76   2.0000      -0.319645        -8.6980
  77   0.0000       0.073316         1.9950
  78   0.0000       0.100729         2.7410
  79   0.0000       0.116858         3.1799
  80   0.0000       0.127174         3.4606
  81   0.0000       0.130902         3.5620

MULLIKEN ATOMIC CHARGES
-----------------------
   0 C :   -0.345171
   1 C :    0.040110
   2 O :   -0.377243
   3 C :    0.437132
   4 O :   -0.371032
   5 C :   -0.255961
   6 C :    0.174486
   7 C :   -0.281853
   8 N :   -0.127673
   9 C :    0.200709
  10 S :   -0.436100
  11 N :   -0.215298
  12 C :    0.073097
  13 C :    0.042112
  14 C :   -0.201317
  15 C :   -0.141440
  16 C :   -0.275793
  17 C :    0.322271
  18 O :   -0.354940
  19 C :   -0.268880
  20 H :    0.117137
  21 H :    0.125537
  22 H :    0.103240
  23 H :    0.113969
  24 H :    0.123529
  25 H :    0.143074
  26 H :    0.095102
  27 H :    0.123806
  28 H :    0.197452
  29 H :    0.198677
  30 H :    0.153615
  31 H :    0.147831
  32 H :    0.165671
  33 H :    0.133842
  34 H :    0.241199
  35 H :    0.179106
Sum of atomic charges:    0.0000000

LOEWDIN ATOMIC CHARGES
----------------------
   0 C :    0.105559
   1 C :   -0.007834
   2 O :    0.276958
   3 C :   -0.423520
   4 O :    0.136778
   5 C :   -0.092679
   6 C :   -0.069627
   7 C :    0.129395
   8 N :    0.406203
   9 C :   -0.458816
  10 S :   -0.034134
  11 N :    0.396703
  12 C :   -0.051422
  13 C :   -0.041169
  14 C :    0.021005
  15 C :    0.039685
  16 C :   -0.001960
  17 C :   -0.193321
  18 O :    0.396351
  19 C :    0.030689
  20 H :   -0.037090
  21 H :   -0.019863
  22 H :   -0.031389
  23 H :   -0.024687
  24 H :   -0.025551
  25 H :   -0.003189
  26 H :   -0.021982
  27 H :   -0.012423
  28 H :   -0.057641
  29 H :   -0.064061
  30 H :   -0.009097
  31 H :   -0.027593
  32 H :   -0.019722
  33 H :   -0.034394
  34 H :   -0.152996
  35 H :   -0.023165

  Mayer bond orders larger than 0.100000
B(  0-C ,  1-C ) :   0.9626 B(  0-C , 20-H ) :   0.9681 B(  0-C , 21-H ) :   0.9758
B(  0-C , 22-H ) :   0.9739 B(  1-C ,  2-O ) :   0.8843 B(  1-C , 23-H ) :   0.9733
B(  1-C , 24-H ) :   0.9842 B(  2-O ,  3-C ) :   1.1274 B(  3-C ,  4-O ) :   2.0809
B(  3-C ,  5-C ) :   0.9718 B(  5-C ,  6-C ) :   1.6798 B(  5-C , 12-C ) :   0.9581
B(  6-C ,  7-C ) :   0.9591 B(  6-C ,  8-N ) :   1.1400 B(  7-C , 25-H ) :   0.9573
B(  7-C , 26-H ) :   0.9855 B(  7-C , 27-H ) :   0.9698 B(  8-N ,  9-C ) :   1.1905
B(  8-N , 28-H ) :   0.9495 B(  9-C , 10-S ) :   1.6144 B(  9-C , 11-N ) :   1.2878
B( 11-N , 12-C ) :   0.9893 B( 11-N , 29-H ) :   0.9488 B( 12-C , 13-C ) :   0.9399
B( 12-C , 30-H ) :   1.0094 B( 13-C , 14-C ) :   1.3595 B( 13-C , 19-C ) :   1.3481
B( 14-C , 15-C ) :   1.4021 B( 14-C , 31-H ) :   0.9741 B( 15-C , 16-C ) :   1.3533
B( 15-C , 32-H ) :   0.9702 B( 16-C , 17-C ) :   1.3322 B( 16-C , 33-H ) :   0.9840
B( 17-C , 18-O ) :   1.1119 B( 17-C , 19-C ) :   1.3642 B( 18-O , 34-H ) :   0.9792
B( 19-C , 35-H ) :   0.9576

MP2 TOTAL ENERGY:    -1274.310916967 Eh
FINAL SINGLE POINT ENERGY     -1274.310916966909

DIPOLE MOMENT
-------------
                                X             Y             Z
Electronic contribution:      9.47243       6.41220       5.90914
Nuclear contribution   :    -10.65677      -7.96375      -5.82307
                        -----------------------------------------
Total Dipole Moment    :     -1.18434      -1.55155       0.08608
                        -----------------------------------------
Magnitude (a.u.)       :      1.95381
Magnitude (Debye)      :      4.96619

Rotational constants in cm-1:     0.012182     0.009678     0.006532
Rotational constants in MHz :   365.195396   290.142511   195.811733

                             ****ORCA TERMINATED NORMALLY****
TOTAL RUN TIME: 0 days 2 hours 17 minutes 14 seconds 908 msec
