                         Program Version 4.2.0 -  RELEASE  -
|  1> ! ri-mp2 cc-pvtz cc-pvtz/c TightSCF  NoKeepInts
|  2>
|  3> %scf
|  4>   MaxCore 4096
|  5> end
|  6> *xyz  0  1
|  7>     C       15.6705007   14.0012745   14.8901412
|  8>     C       15.4789317   14.2436021   16.3986360
|  9>     O       16.5114426   15.1388085   16.8477742
| 10>     C       16.3000174   16.4902853   16.8247173
| 11>     O       15.3461488   16.9936255   16.2552091
| 12>     C       17.3217477   17.2514973   17.6236009
| 13>     C       17.3389810   18.6074996   17.6805968
| 14>     C       16.3877499   19.5660262   16.9966174
| 15>     N       18.3377951   19.2661728   18.4040339
| 16>     C       19.4070453   18.6530238   19.0005914
| 17>     S       20.6011217   19.5145375   19.7541770
| 18>     N       19.4397491   17.2832746   18.9387828
| 19>     C       18.3618039   16.4311299   18.4040900
| 20>     C       17.7224736   15.6355761   19.5387379
| 21>     C       17.8567770   14.2354103   19.5926201
| 22>     C       17.2682781   13.5001876   20.6353861
| 23>     C       16.5416562   14.1702557   21.6343886
| 24>     C       16.4092660   15.5648055   21.5860403
| 25>     O       15.7092124   16.2147250   22.5496710
| 26>     C       16.9958279   16.2937171   20.5469358
| 27>     H       15.5411760   14.9348280   14.3279115
| 28>     H       14.9337767   13.2775695   14.5211257
| 29>     H       16.6733681   13.6076030   14.6838938
| 30>     H       14.4778839   14.6450990   16.6088346
| 31>     H       15.5780365   13.2863299   16.9262661
| 32>     H       15.3601445   19.4026343   17.3459522
| 33>     H       16.3930712   19.4066828   15.9108418
| 34>     H       16.6353411   20.6185764   17.1772202
| 35>     H       18.3307521   20.2721656   18.4585478
| 36>     H       20.2208154   16.8577369   19.4211535
| 37>     H       18.8245712   15.7239900   17.7013883
| 38>     H       18.4137563   13.7145162   18.8184358
| 39>     H       17.3761931   12.4174475   20.6672269
| 40>     H       16.0856493   13.6070333   22.4419064
| 41>     H       15.4080928   15.5514652   23.1885453
| 42>     H       16.8878457   17.3728874   20.5320026
| 43> *
| 44>
| 45>                          ****END OF INPUT****

CARTESIAN COORDINATES (ANGSTROEM)
---------------------------------
  C     15.670501   14.001274   14.890141
  C     15.478932   14.243602   16.398636
  O     16.511443   15.138808   16.847774
  C     16.300017   16.490285   16.824717
  O     15.346149   16.993626   16.255209
  C     17.321748   17.251497   17.623601
  C     17.338981   18.607500   17.680597
  C     16.387750   19.566026   16.996617
  N     18.337795   19.266173   18.404034
  C     19.407045   18.653024   19.000591
  S     20.601122   19.514537   19.754177
  N     19.439749   17.283275   18.938783
  C     18.361804   16.431130   18.404090
  C     17.722474   15.635576   19.538738
  C     17.856777   14.235410   19.592620
  C     17.268278   13.500188   20.635386
  C     16.541656   14.170256   21.634389
  C     16.409266   15.564806   21.586040
  O     15.709212   16.214725   22.549671
  C     16.995828   16.293717   20.546936
  H     15.541176   14.934828   14.327912
  H     14.933777   13.277570   14.521126
  H     16.673368   13.607603   14.683894
  H     14.477884   14.645099   16.608835
  H     15.578036   13.286330   16.926266
  H     15.360145   19.402634   17.345952
  H     16.393071   19.406683   15.910842
  H     16.635341   20.618576   17.177220
  H     18.330752   20.272166   18.458548
  H     20.220815   16.857737   19.421153
  H     18.824571   15.723990   17.701388
  H     18.413756   13.714516   18.818436
  H     17.376193   12.417447   20.667227
  H     16.085649   13.607033   22.441906
  H     15.408093   15.551465   23.188545
  H     16.887846   17.372887   20.532003

 Total Charge           Charge          ....    0
 Multiplicity           Mult            ....    1
 Number of Electrons    NEL             ....  154
 Basis Dimension        Dim             ....  828

ORBITAL ENERGIES
----------------

  NO   OCC          E(Eh)            E(eV)
   0   2.0000     -91.888737     -2500.4196
   1   2.0000     -20.601771      -560.6027
   2   2.0000     -20.595534      -560.4330
   3   2.0000     -20.542319      -558.9849
   4   2.0000     -15.628995      -425.2866
   5   2.0000     -15.608006      -424.7154
   6   2.0000     -11.395776      -310.0948
   7   2.0000     -11.383822      -309.7695
   8   2.0000     -11.335967      -308.4673
   9   2.0000     -11.312585      -307.8311
  10   2.0000     -11.308604      -307.7228
  11   2.0000     -11.297061      -307.4087
  12   2.0000     -11.258947      -306.3715
  13   2.0000     -11.258615      -306.3625
  14   2.0000     -11.254077      -306.2390
  15   2.0000     -11.252051      -306.1839
  16   2.0000     -11.241935      -305.9086
  17   2.0000     -11.237439      -305.7863
  18   2.0000     -11.237195      -305.7796
  19   2.0000     -11.224727      -305.4403
  20   2.0000      -8.893796      -242.0125
  21   2.0000      -6.575371      -178.9249
  22   2.0000      -6.573367      -178.8704
  23   2.0000      -6.572779      -178.8544
  24   2.0000      -1.451841       -39.5066
  25   2.0000      -1.415182       -38.5091
  26   2.0000      -1.355210       -36.8771
  27   2.0000      -1.339911       -36.4608
  28   2.0000      -1.238274       -33.6952
  29   2.0000      -1.156674       -31.4747
  30   2.0000      -1.120174       -30.4815
  31   2.0000      -1.042304       -28.3625
  32   2.0000      -1.037018       -28.2187
  33   2.0000      -1.013962       -27.5913
  34   2.0000      -0.995158       -27.0796
  35   2.0000      -0.983809       -26.7708
  36   2.0000      -0.922103       -25.0917
  37   2.0000      -0.892722       -24.2922
  38   2.0000      -0.846822       -23.0432
  39   2.0000      -0.836965       -22.7750
  40   2.0000      -0.833016       -22.6675
  41   2.0000      -0.817900       -22.2562
  42   2.0000      -0.759219       -20.6594
  43   2.0000      -0.731553       -19.9066
  44   2.0000      -0.722940       -19.6722
  45   2.0000      -0.694747       -18.9050
  46   2.0000      -0.687818       -18.7165
  47   2.0000      -0.680590       -18.5198
  48   2.0000      -0.671432       -18.2706
  49   2.0000      -0.653959       -17.7951
  50   2.0000      -0.645988       -17.5782
  51   2.0000      -0.645256       -17.5583
  52   2.0000      -0.629877       -17.1398
  53   2.0000      -0.612823       -16.6758
  54   2.0000      -0.605703       -16.4820
  55   2.0000      -0.598867       -16.2960
  56   2.0000      -0.598043       -16.2736
  57   2.0000      -0.578706       -15.7474
  58   2.0000      -0.571138       -15.5415
  59   2.0000      -0.570035       -15.5115
  60   2.0000      -0.563236       -15.3264
  61   2.0000      -0.539224       -14.6730
  62   2.0000      -0.535313       -14.5666
  63   2.0000      -0.529209       -14.4005
  64   2.0000      -0.524104       -14.2616
  65   2.0000      -0.513115       -13.9626
  66   2.0000      -0.500584       -13.6216
  67   2.0000      -0.497138       -13.5278
  68   2.0000      -0.485713       -13.2169
  69   2.0000      -0.463789       -12.6204
  70   2.0000      -0.454903       -12.3785
  71   2.0000      -0.448395       -12.2015
  72   2.0000      -0.354242        -9.6394
  73   2.0000      -0.348458        -9.4820
  74   2.0000      -0.328021        -8.9259
  75   2.0000      -0.320287        -8.7155
  76   2.0000      -0.315747        -8.5919
  77   0.0000       0.076380         2.0784
  78   0.0000       0.107693         2.9305
  79   0.0000       0.124942         3.3998
  80   0.0000       0.132941         3.6175
  81   0.0000       0.136838         3.7236

MULLIKEN ATOMIC CHARGES
-----------------------
   0 C :   -0.281887
   1 C :    0.035516
   2 O :   -0.351874
   3 C :    0.468382
   4 O :   -0.438053
   5 C :   -0.215493
   6 C :    0.149614
   7 C :   -0.274856
   8 N :   -0.120084
   9 C :    0.210591
  10 S :   -0.439805
  11 N :   -0.203195
  12 C :    0.048148
  13 C :    0.067368
  14 C :   -0.179243
  15 C :   -0.132723
  16 C :   -0.278123
  17 C :    0.315425
  18 O :   -0.356844
  19 C :   -0.268986
  20 H :    0.111138
  21 H :    0.092795
  22 H :    0.091438
  23 H :    0.102274
  24 H :    0.106650
  25 H :    0.132344
  26 H :    0.130360
  27 H :    0.095237
  28 H :    0.197251
  29 H :    0.194381
  30 H :    0.150722
  31 H :    0.147623
  32 H :    0.159646
  33 H :    0.129265
  34 H :    0.240551
  35 H :    0.164448
Sum of atomic charges:   -0.0000000

LOEWDIN ATOMIC CHARGES
----------------------
   0 C :    0.104604
   1 C :   -0.015790
   2 O :    0.309335
   3 C :   -0.413045
   4 O :    0.095083
   5 C :   -0.093971
   6 C :   -0.058806
   7 C :    0.131485
   8 N :    0.406552
   9 C :   -0.456645
  10 S :   -0.035399
  11 N :    0.396569
  12 C :   -0.052631
  13 C :   -0.038671
  14 C :    0.014384
  15 C :    0.038772
  16 C :   -0.001592
  17 C :   -0.189512
  18 O :    0.395019
  19 C :    0.031430
  20 H :   -0.024581
  21 H :   -0.027319
  22 H :   -0.029842
  23 H :   -0.027513
  24 H :   -0.026946
  25 H :   -0.004485
  26 H :   -0.004162
  27 H :   -0.023388
  28 H :   -0.057586
  29 H :   -0.064547
  30 H :   -0.011133
  31 H :   -0.030352
  32 H :   -0.021634
  33 H :   -0.035744
  34 H :   -0.154060
  35 H :   -0.023876

  Mayer bond orders larger than 0.100000
B(  0-C ,  1-C ) :   0.9687 B(  0-C , 20-H ) :   0.9763 B(  0-C , 21-H ) :   0.9764
B(  0-C , 22-H ) :   0.9775 B(  1-C ,  2-O ) :   0.8922 B(  1-C , 23-H ) :   0.9753
B(  1-C , 24-H ) :   0.9824 B(  2-O ,  3-C ) :   1.1646 B(  3-C ,  4-O ) :   1.9492
B(  3-C ,  5-C ) :   1.0695 B(  5-C ,  6-C ) :   1.6563 B(  5-C , 12-C ) :   0.9736
B(  6-C ,  7-C ) :   0.9674 B(  6-C ,  8-N ) :   1.1649 B(  7-C , 25-H ) :   0.9604
B(  7-C , 26-H ) :   0.9603 B(  7-C , 27-H ) :   0.9906 B(  8-N ,  9-C ) :   1.1823
B(  8-N , 28-H ) :   0.9479 B(  9-C , 10-S ) :   1.6078 B(  9-C , 11-N ) :   1.3048
B( 11-N , 12-C ) :   0.9881 B( 11-N , 29-H ) :   0.9516 B( 12-C , 13-C ) :   0.9369
B( 12-C , 30-H ) :   1.0028 B( 13-C , 14-C ) :   1.3558 B( 13-C , 19-C ) :   1.3821
B( 14-C , 15-C ) :   1.3925 B( 14-C , 31-H ) :   0.9720 B( 15-C , 16-C ) :   1.3642
B( 15-C , 32-H ) :   0.9708 B( 16-C , 17-C ) :   1.3317 B( 16-C , 33-H ) :   0.9853
B( 17-C , 18-O ) :   1.1097 B( 17-C , 19-C ) :   1.3736 B( 18-O , 34-H ) :   0.9800
B( 19-C , 35-H ) :   0.9583

MP2 TOTAL ENERGY:    -1274.350365939 Eh
FINAL SINGLE POINT ENERGY     -1274.350365938677

DIPOLE MOMENT
-------------
                                X             Y             Z
Electronic contribution:      9.74831       9.37652      10.07053
Nuclear contribution   :    -10.93150     -10.98374     -10.36915
                        -----------------------------------------
Total Dipole Moment    :     -1.18319      -1.60722      -0.29862
                        -----------------------------------------
Magnitude (a.u.)       :      2.01799
Magnitude (Debye)      :      5.12932

Rotational constants in cm-1:     0.010873     0.008813     0.006024
Rotational constants in MHz :   325.968650   264.207637   180.584421

                             ****ORCA TERMINATED NORMALLY****
TOTAL RUN TIME: 0 days 1 hours 38 minutes 13 seconds 285 msec
