                         Program Version 5.0.0 -  RELEASE  -
|  1> ! ri-mp2 cc-pvtz cc-pvtz/c TightSCF NoKeepInts
|  2>
|  3> %scf
|  4>   MaxCore 4096
|  5> end
|  6> *xyz  0  1
|  7>     C       14.9161656   16.0357736   17.2670917
|  8>     C       15.6396584   14.8908754   16.5293606
|  9>     O       16.8557229   15.2531960   15.8259094
| 10>     C       18.0124302   15.7101207   16.4081452
| 11>     O       18.9898003   14.9842009   16.4111531
| 12>     C       17.9167548   16.8578145   17.3589644
| 13>     C       17.3629618   18.0457558   17.0159762
| 14>     C       16.7860544   18.4437931   15.6730699
| 15>     N       17.3953612   19.1128750   17.9164443
| 16>     C       18.0735805   19.1098008   19.1072176
| 17>     S       18.1269420   20.4455375   20.0804135
| 18>     N       18.7102799   17.9429611   19.4510505
| 19>     C       18.6175697   16.6696875   18.7090385
| 20>     C       17.9433697   15.5815924   19.5450284
| 21>     C       18.4062904   14.2541123   19.4779874
| 22>     C       17.7881672   13.2378772   20.2251119
| 23>     C       16.6958927   13.5489906   21.0518335
| 24>     C       16.2321113   14.8688505   21.1262264
| 25>     O       15.1724798   15.1723178   21.9171082
| 26>     C       16.8498129   15.8784562   20.3813411
| 27>     H       15.4765821   16.4007152   18.1303579
| 28>     H       13.9547316   15.6719657   17.6498783
| 29>     H       14.6998726   16.8677244   16.5892090
| 30>     H       15.8724923   14.0989808   17.2544915
| 31>     H       14.9410942   14.4605445   15.8001836
| 32>     H       16.6916560   17.6008808   14.9801116
| 33>     H       17.4310157   19.1850570   15.1844120
| 34>     H       15.7895918   18.8882130   15.7843375
| 35>     H       16.9547708   19.9858673   17.6722243
| 36>     H       19.1912256   17.9657222   20.3414385
| 37>     H       19.6458101   16.3378124   18.5018466
| 38>     H       19.2463755   14.0058400   18.8326182
| 39>     H       18.1562176   12.2153392   20.1585211
| 40>     H       16.2145775   12.7667057   21.6295090
| 41>     H       14.9220074   14.3647939   22.3909157
| 42>     H       16.4675734   16.8912490   20.4554733
| 43> *
| 44>
| 45>                          ****END OF INPUT****

CARTESIAN COORDINATES (ANGSTROEM)
---------------------------------
  C     14.916166   16.035774   17.267092
  C     15.639658   14.890875   16.529361
  O     16.855723   15.253196   15.825909
  C     18.012430   15.710121   16.408145
  O     18.989800   14.984201   16.411153
  C     17.916755   16.857814   17.358964
  C     17.362962   18.045756   17.015976
  C     16.786054   18.443793   15.673070
  N     17.395361   19.112875   17.916444
  C     18.073580   19.109801   19.107218
  S     18.126942   20.445537   20.080413
  N     18.710280   17.942961   19.451050
  C     18.617570   16.669687   18.709038
  C     17.943370   15.581592   19.545028
  C     18.406290   14.254112   19.477987
  C     17.788167   13.237877   20.225112
  C     16.695893   13.548991   21.051833
  C     16.232111   14.868850   21.126226
  O     15.172480   15.172318   21.917108
  C     16.849813   15.878456   20.381341
  H     15.476582   16.400715   18.130358
  H     13.954732   15.671966   17.649878
  H     14.699873   16.867724   16.589209
  H     15.872492   14.098981   17.254492
  H     14.941094   14.460544   15.800184
  H     16.691656   17.600881   14.980112
  H     17.431016   19.185057   15.184412
  H     15.789592   18.888213   15.784337
  H     16.954771   19.985867   17.672224
  H     19.191226   17.965722   20.341438
  H     19.645810   16.337812   18.501847
  H     19.246375   14.005840   18.832618
  H     18.156218   12.215339   20.158521
  H     16.214578   12.766706   21.629509
  H     14.922007   14.364794   22.390916
  H     16.467573   16.891249   20.455473

 Total Charge           Charge          ....    0
 Multiplicity           Mult            ....    1
 Number of Electrons    NEL             ....  154
 Basis Dimension        Dim             ....  828

ORBITAL ENERGIES
----------------

  NO   OCC          E(Eh)            E(eV)
   0   2.0000     -91.890962     -2500.4802
   1   2.0000     -20.599255      -560.5342
   2   2.0000     -20.586521      -560.1877
   3   2.0000     -20.552855      -559.2716
   4   2.0000     -15.628751      -425.2799
   5   2.0000     -15.611526      -424.8112
   6   2.0000     -11.396963      -310.1271
   7   2.0000     -11.387245      -309.8627
   8   2.0000     -11.332410      -308.3706
   9   2.0000     -11.316145      -307.9280
  10   2.0000     -11.313842      -307.8653
  11   2.0000     -11.307704      -307.6983
  12   2.0000     -11.264158      -306.5133
  13   2.0000     -11.263709      -306.5011
  14   2.0000     -11.263193      -306.4871
  15   2.0000     -11.256114      -306.2944
  16   2.0000     -11.245592      -306.0081
  17   2.0000     -11.241884      -305.9072
  18   2.0000     -11.237857      -305.7976
  19   2.0000     -11.231970      -305.6375
  20   2.0000      -8.896049      -242.0738
  21   2.0000      -6.577632      -178.9865
  22   2.0000      -6.575614      -178.9315
  23   2.0000      -6.575031      -178.9157
  24   2.0000      -1.443937       -39.2915
  25   2.0000      -1.419071       -38.6149
  26   2.0000      -1.353797       -36.8387
  27   2.0000      -1.341425       -36.5020
  28   2.0000      -1.240585       -33.7580
  29   2.0000      -1.160249       -31.5720
  30   2.0000      -1.124410       -30.5967
  31   2.0000      -1.047478       -28.5033
  32   2.0000      -1.037089       -28.2206
  33   2.0000      -1.018401       -27.7121
  34   2.0000      -1.004470       -27.3330
  35   2.0000      -0.990136       -26.9430
  36   2.0000      -0.927585       -25.2409
  37   2.0000      -0.894763       -24.3477
  38   2.0000      -0.852485       -23.1973
  39   2.0000      -0.841567       -22.9002
  40   2.0000      -0.836231       -22.7550
  41   2.0000      -0.827988       -22.5307
  42   2.0000      -0.750752       -20.4290
  43   2.0000      -0.734706       -19.9924
  44   2.0000      -0.730109       -19.8673
  45   2.0000      -0.697423       -18.9779
  46   2.0000      -0.687789       -18.7157
  47   2.0000      -0.676816       -18.4171
  48   2.0000      -0.674224       -18.3466
  49   2.0000      -0.662878       -18.0378
  50   2.0000      -0.653990       -17.7960
  51   2.0000      -0.647952       -17.6317
  52   2.0000      -0.640566       -17.4307
  53   2.0000      -0.613024       -16.6812
  54   2.0000      -0.606536       -16.5047
  55   2.0000      -0.603229       -16.4147
  56   2.0000      -0.598003       -16.2725
  57   2.0000      -0.596145       -16.2219
  58   2.0000      -0.576513       -15.6877
  59   2.0000      -0.575707       -15.6658
  60   2.0000      -0.565299       -15.3826
  61   2.0000      -0.556146       -15.1335
  62   2.0000      -0.542795       -14.7702
  63   2.0000      -0.529879       -14.4187
  64   2.0000      -0.521599       -14.1934
  65   2.0000      -0.513851       -13.9826
  66   2.0000      -0.502351       -13.6697
  67   2.0000      -0.489529       -13.3208
  68   2.0000      -0.485916       -13.2224
  69   2.0000      -0.465701       -12.6724
  70   2.0000      -0.459508       -12.5039
  71   2.0000      -0.449134       -12.2216
  72   2.0000      -0.356273        -9.6947
  73   2.0000      -0.350622        -9.5409
  74   2.0000      -0.330407        -8.9908
  75   2.0000      -0.323981        -8.8160
  76   2.0000      -0.319523        -8.6947
  77   0.0000       0.079497         2.1632
  78   0.0000       0.104089         2.8324
  79   0.0000       0.118704         3.2301
  80   0.0000       0.127005         3.4560
  81   0.0000       0.129978         3.5369

MULLIKEN ATOMIC CHARGES
-----------------------
   0 C :   -0.339655
   1 C :    0.049750
   2 O :   -0.364681
   3 C :    0.428988
   4 O :   -0.378513
   5 C :   -0.216507
   6 C :    0.159058
   7 C :   -0.328472
   8 N :   -0.134297
   9 C :    0.200571
  10 S :   -0.438235
  11 N :   -0.223976
  12 C :    0.091008
  13 C :    0.024956
  14 C :   -0.216665
  15 C :   -0.135521
  16 C :   -0.277601
  17 C :    0.324199
  18 O :   -0.356317
  19 C :   -0.284154
  20 H :    0.118545
  21 H :    0.126727
  22 H :    0.097117
  23 H :    0.103818
  24 H :    0.118997
  25 H :    0.133217
  26 H :    0.145992
  27 H :    0.111597
  28 H :    0.197369
  29 H :    0.200511
  30 H :    0.165785
  31 H :    0.176066
  32 H :    0.165021
  33 H :    0.132387
  34 H :    0.241200
  35 H :    0.181714
Sum of atomic charges:   -0.0000000

LOEWDIN ATOMIC CHARGES
----------------------
   0 C :    0.104851
   1 C :   -0.011268
   2 O :    0.277215
   3 C :   -0.414838
   4 O :    0.132164
   5 C :   -0.086445
   6 C :   -0.085998
   7 C :    0.124167
   8 N :    0.404714
   9 C :   -0.457271
  10 S :   -0.035781
  11 N :    0.397662
  12 C :   -0.043683
  13 C :   -0.042926
  14 C :    0.020335
  15 C :    0.042263
  16 C :   -0.001662
  17 C :   -0.193746
  18 O :    0.395184
  19 C :    0.026858
  20 H :   -0.036479
  21 H :   -0.020131
  22 H :   -0.032066
  23 H :   -0.026736
  24 H :   -0.019085
  25 H :   -0.011839
  26 H :   -0.009471
  27 H :   -0.018819
  28 H :   -0.056476
  29 H :   -0.063690
  30 H :   -0.002818
  31 H :   -0.022232
  32 H :   -0.018771
  33 H :   -0.034838
  34 H :   -0.153249
  35 H :   -0.025095

  Mayer bond orders larger than 0.100000
B(  0-C ,  1-C ) :   0.9598 B(  0-C , 20-H ) :   0.9678 B(  0-C , 21-H ) :   0.9777
B(  0-C , 22-H ) :   0.9773 B(  1-C ,  2-O ) :   0.8993 B(  1-C , 23-H ) :   0.9762
B(  1-C , 24-H ) :   0.9823 B(  2-O ,  3-C ) :   1.1321 B(  3-C ,  4-O ) :   2.0814
B(  3-C ,  5-C ) :   0.9593 B(  5-C ,  6-C ) :   1.6615 B(  5-C , 12-C ) :   0.9511
B(  6-C ,  7-C ) :   0.9512 B(  6-C ,  8-N ) :   1.1256 B(  7-C , 25-H ) :   0.9742
B(  7-C , 26-H ) :   0.9658 B(  7-C , 27-H ) :   0.9689 B(  8-N ,  9-C ) :   1.1918
B(  8-N , 28-H ) :   0.9510 B(  9-C , 10-S ) :   1.6124 B(  9-C , 11-N ) :   1.2880
B( 11-N , 12-C ) :   0.9875 B( 11-N , 29-H ) :   0.9491 B( 12-C , 13-C ) :   0.9458
B( 12-C , 30-H ) :   0.9975 B( 13-C , 14-C ) :   1.3882 B( 13-C , 19-C ) :   1.3391
B( 14-C , 15-C ) :   1.4020 B( 14-C , 31-H ) :   0.9580 B( 15-C , 16-C ) :   1.3586
B( 15-C , 32-H ) :   0.9697 B( 16-C , 17-C ) :   1.3319 B( 16-C , 33-H ) :   0.9845
B( 17-C , 18-O ) :   1.1110 B( 17-C , 19-C ) :   1.3657 B( 18-O , 34-H ) :   0.9795
B( 19-C , 35-H ) :   0.9546

MP2 TOTAL ENERGY:    -1274.323661554 Eh
FINAL SINGLE POINT ENERGY     -1274.323661554167

DIPOLE MOMENT
-------------
                                X             Y             Z
Electronic contribution:      9.61199       5.74968       6.04742
Nuclear contribution   :    -11.03632      -6.93219      -6.48498
                        -----------------------------------------
Total Dipole Moment    :     -1.42433      -1.18251      -0.43755
                        -----------------------------------------
Magnitude (a.u.)       :      1.90224
Magnitude (Debye)      :      4.83510

Rotational constants in cm-1:     0.011962     0.009523     0.006892
Rotational constants in MHz :   358.616165   285.490681   206.619930

                             ****ORCA TERMINATED NORMALLY****
TOTAL RUN TIME: 0 days 1 hours 54 minutes 48 seconds 682 msec
