                         Program Version 4.2.0 -  RELEASE  -
|  1> ! ri-mp2 cc-pvtz cc-pvtz/c TightSCF  NoKeepInts
|  2>
|  3> %scf
|  4>   MaxCore 4096
|  5> end
|  6> *xyz  0  1
|  7>     C       15.2365660   14.1304089   15.1183715
|  8>     C       16.1014484   13.8852418   16.3738748
|  9>     O       16.8768901   15.0249210   16.8261490
| 10>     C       16.5513507   16.3542053   16.7074784
| 11>     O       15.6156479   16.7767801   16.0527038
| 12>     C       17.4249849   17.2235116   17.5726850
| 13>     C       17.3312298   18.5783483   17.5766163
| 14>     C       16.3862656   19.4374728   16.7634348
| 15>     N       18.1954716   19.3395433   18.3695465
| 16>     C       19.2421512   18.8366949   19.0948190
| 17>     S       20.2807960   19.8175269   19.9286295
| 18>     N       19.3887477   17.4733664   19.0919160
| 19>     C       18.4419856   16.5187604   18.4871728
| 20>     C       17.7569137   15.7100382   19.5854126
| 21>     C       18.0231666   14.3354122   19.7305254
| 22>     C       17.3931841   13.5876559   20.7396153
| 23>     C       16.4917508   14.2197382   21.6130368
| 24>     C       16.2279961   15.5893868   21.4744832
| 25>     O       15.3596045   16.2028388   22.3174778
| 26>     C       16.8563376   16.3308098   20.4692388
| 27>     H       14.3534486   14.7369597   15.3544310
| 28>     H       14.8782628   13.1763895   14.7135986
| 29>     H       15.8147834   14.6352983   14.3344209
| 30>     H       15.4358281   13.5679077   17.1872750
| 31>     H       16.7894712   13.0531123   16.1775575
| 32>     H       15.3435901   19.2120396   17.0217824
| 33>     H       16.5078691   19.2374389   15.6913044
| 34>     H       16.5409329   20.5116489   16.9181946
| 35>     H       18.1032739   20.3426863   18.3826807
| 36>     H       20.1464194   17.1295974   19.6676658
| 37>     H       19.0297441   15.8304657   17.8638071
| 38>     H       18.7168911   13.8437550   19.0539533
| 39>     H       17.6044454   12.5248071   20.8430664
| 40>     H       16.0031594   13.6469205   22.3943293
| 41>     H       15.0522690   15.5392591   22.9530154
| 42>     H       16.6441226   17.3910524   20.3837302
| 43> *
| 44>
| 45>                          ****END OF INPUT****

CARTESIAN COORDINATES (ANGSTROEM)
---------------------------------
  C     15.236566   14.130409   15.118371
  C     16.101448   13.885242   16.373875
  O     16.876890   15.024921   16.826149
  C     16.551351   16.354205   16.707478
  O     15.615648   16.776780   16.052704
  C     17.424985   17.223512   17.572685
  C     17.331230   18.578348   17.576616
  C     16.386266   19.437473   16.763435
  N     18.195472   19.339543   18.369546
  C     19.242151   18.836695   19.094819
  S     20.280796   19.817527   19.928629
  N     19.388748   17.473366   19.091916
  C     18.441986   16.518760   18.487173
  C     17.756914   15.710038   19.585413
  C     18.023167   14.335412   19.730525
  C     17.393184   13.587656   20.739615
  C     16.491751   14.219738   21.613037
  C     16.227996   15.589387   21.474483
  O     15.359604   16.202839   22.317478
  C     16.856338   16.330810   20.469239
  H     14.353449   14.736960   15.354431
  H     14.878263   13.176390   14.713599
  H     15.814783   14.635298   14.334421
  H     15.435828   13.567908   17.187275
  H     16.789471   13.053112   16.177557
  H     15.343590   19.212040   17.021782
  H     16.507869   19.237439   15.691304
  H     16.540933   20.511649   16.918195
  H     18.103274   20.342686   18.382681
  H     20.146419   17.129597   19.667666
  H     19.029744   15.830466   17.863807
  H     18.716891   13.843755   19.053953
  H     17.604445   12.524807   20.843066
  H     16.003159   13.646921   22.394329
  H     15.052269   15.539259   22.953015
  H     16.644123   17.391052   20.383730

 Total Charge           Charge          ....    0
 Multiplicity           Mult            ....    1
 Number of Electrons    NEL             ....  154
 Basis Dimension        Dim             ....  828

ORBITAL ENERGIES
----------------

  NO   OCC          E(Eh)            E(eV)
   0   2.0000     -91.887720     -2500.3920
   1   2.0000     -20.598908      -560.5248
   2   2.0000     -20.595375      -560.4286
   3   2.0000     -20.540307      -558.9302
   4   2.0000     -15.627763      -425.2531
   5   2.0000     -15.606885      -424.6849
   6   2.0000     -11.397891      -310.1524
   7   2.0000     -11.382685      -309.7386
   8   2.0000     -11.334522      -308.4280
   9   2.0000     -11.312375      -307.8254
  10   2.0000     -11.307279      -307.6867
  11   2.0000     -11.303129      -307.5738
  12   2.0000     -11.258233      -306.3521
  13   2.0000     -11.257927      -306.3438
  14   2.0000     -11.253945      -306.2354
  15   2.0000     -11.251012      -306.1556
  16   2.0000     -11.241634      -305.9004
  17   2.0000     -11.236926      -305.7723
  18   2.0000     -11.236844      -305.7701
  19   2.0000     -11.222205      -305.3717
  20   2.0000      -8.892793      -241.9852
  21   2.0000      -6.574371      -178.8977
  22   2.0000      -6.572364      -178.8431
  23   2.0000      -6.571780      -178.8272
  24   2.0000      -1.443355       -39.2757
  25   2.0000      -1.415012       -38.5044
  26   2.0000      -1.354641       -36.8617
  27   2.0000      -1.338849       -36.4319
  28   2.0000      -1.237252       -33.6673
  29   2.0000      -1.156059       -31.4580
  30   2.0000      -1.118583       -30.4382
  31   2.0000      -1.041340       -28.3363
  32   2.0000      -1.036272       -28.1984
  33   2.0000      -1.013655       -27.5829
  34   2.0000      -0.994204       -27.0537
  35   2.0000      -0.982517       -26.7357
  36   2.0000      -0.921144       -25.0656
  37   2.0000      -0.897436       -24.4205
  38   2.0000      -0.846187       -23.0259
  39   2.0000      -0.836789       -22.7702
  40   2.0000      -0.832679       -22.6583
  41   2.0000      -0.818120       -22.2622
  42   2.0000      -0.745880       -20.2964
  43   2.0000      -0.729349       -19.8466
  44   2.0000      -0.718281       -19.5454
  45   2.0000      -0.694487       -18.8980
  46   2.0000      -0.687145       -18.6982
  47   2.0000      -0.677416       -18.4334
  48   2.0000      -0.667737       -18.1701
  49   2.0000      -0.658979       -17.9317
  50   2.0000      -0.650480       -17.7005
  51   2.0000      -0.643779       -17.5181
  52   2.0000      -0.634188       -17.2571
  53   2.0000      -0.605676       -16.4813
  54   2.0000      -0.601131       -16.3576
  55   2.0000      -0.597675       -16.2636
  56   2.0000      -0.597050       -16.2466
  57   2.0000      -0.582437       -15.8489
  58   2.0000      -0.574464       -15.6320
  59   2.0000      -0.569858       -15.5066
  60   2.0000      -0.561186       -15.2706
  61   2.0000      -0.538299       -14.6479
  62   2.0000      -0.535503       -14.5718
  63   2.0000      -0.523704       -14.2507
  64   2.0000      -0.522470       -14.2171
  65   2.0000      -0.511859       -13.9284
  66   2.0000      -0.502424       -13.6716
  67   2.0000      -0.498432       -13.5630
  68   2.0000      -0.483072       -13.1451
  69   2.0000      -0.462816       -12.5939
  70   2.0000      -0.452450       -12.3118
  71   2.0000      -0.439344       -11.9552
  72   2.0000      -0.352900        -9.6029
  73   2.0000      -0.348021        -9.4701
  74   2.0000      -0.327135        -8.9018
  75   2.0000      -0.320011        -8.7079
  76   2.0000      -0.314824        -8.5668
  77   0.0000       0.077664         2.1133
  78   0.0000       0.108504         2.9525
  79   0.0000       0.124916         3.3991
  80   0.0000       0.133575         3.6347
  81   0.0000       0.137570         3.7435

MULLIKEN ATOMIC CHARGES
-----------------------
   0 C :   -0.286349
   1 C :    0.050076
   2 O :   -0.364227
   3 C :    0.462641
   4 O :   -0.433122
   5 C :   -0.201768
   6 C :    0.145723
   7 C :   -0.273737
   8 N :   -0.120017
   9 C :    0.212248
  10 S :   -0.441836
  11 N :   -0.203729
  12 C :    0.050452
  13 C :    0.073550
  14 C :   -0.188201
  15 C :   -0.131658
  16 C :   -0.279578
  17 C :    0.316194
  18 O :   -0.356802
  19 C :   -0.269818
  20 H :    0.118282
  21 H :    0.094977
  22 H :    0.100356
  23 H :    0.090382
  24 H :    0.096206
  25 H :    0.132110
  26 H :    0.129612
  27 H :    0.094904
  28 H :    0.197097
  29 H :    0.194089
  30 H :    0.148761
  31 H :    0.149264
  32 H :    0.159559
  33 H :    0.129327
  34 H :    0.240479
  35 H :    0.164553
Sum of atomic charges:   -0.0000000

LOEWDIN ATOMIC CHARGES
----------------------
   0 C :    0.102387
   1 C :   -0.008828
   2 O :    0.295911
   3 C :   -0.412041
   4 O :    0.106807
   5 C :   -0.093140
   6 C :   -0.059507
   7 C :    0.130503
   8 N :    0.406308
   9 C :   -0.456803
  10 S :   -0.036912
  11 N :    0.396423
  12 C :   -0.052904
  13 C :   -0.037775
  14 C :    0.013816
  15 C :    0.038710
  16 C :   -0.002338
  17 C :   -0.189485
  18 O :    0.395053
  19 C :    0.031396
  20 H :   -0.025315
  21 H :   -0.028875
  22 H :   -0.025697
  23 H :   -0.028270
  24 H :   -0.025858
  25 H :   -0.004870
  26 H :   -0.004565
  27 H :   -0.023694
  28 H :   -0.057815
  29 H :   -0.064798
  30 H :   -0.011557
  31 H :   -0.030683
  32 H :   -0.021670
  33 H :   -0.035887
  34 H :   -0.154141
  35 H :   -0.023887

  Mayer bond orders larger than 0.100000
B(  0-C ,  1-C ) :   0.9803 B(  0-C , 20-H ) :   0.9723 B(  0-C , 21-H ) :   0.9754
B(  0-C , 22-H ) :   0.9755 B(  1-C ,  2-O ) :   0.8970 B(  1-C , 23-H ) :   0.9739
B(  1-C , 24-H ) :   0.9818 B(  2-O ,  3-C ) :   1.1483 B(  3-C ,  4-O ) :   1.9694
B(  3-C ,  5-C ) :   1.0653 B(  5-C ,  6-C ) :   1.6567 B(  5-C , 12-C ) :   0.9758
B(  6-C ,  7-C ) :   0.9677 B(  6-C ,  8-N ) :   1.1622 B(  7-C , 25-H ) :   0.9602
B(  7-C , 26-H ) :   0.9606 B(  7-C , 27-H ) :   0.9910 B(  8-N ,  9-C ) :   1.1832
B(  8-N , 28-H ) :   0.9481 B(  9-C , 10-S ) :   1.6054 B(  9-C , 11-N ) :   1.3059
B( 11-N , 12-C ) :   0.9857 B( 11-N , 29-H ) :   0.9517 B( 12-C , 13-C ) :   0.9369
B( 12-C , 30-H ) :   1.0027 B( 13-C , 14-C ) :   1.3525 B( 13-C , 19-C ) :   1.3836
B( 14-C , 15-C ) :   1.3923 B( 14-C , 31-H ) :   0.9723 B( 15-C , 16-C ) :   1.3634
B( 15-C , 32-H ) :   0.9709 B( 16-C , 17-C ) :   1.3317 B( 16-C , 33-H ) :   0.9854
B( 17-C , 18-O ) :   1.1099 B( 17-C , 19-C ) :   1.3727 B( 18-O , 34-H ) :   0.9801
B( 19-C , 35-H ) :   0.9583

MP2 TOTAL ENERGY:    -1274.339685871 Eh
FINAL SINGLE POINT ENERGY     -1274.339685870677

DIPOLE MOMENT
-------------
                                X             Y             Z
Electronic contribution:      9.86288       9.94938       9.77177
Nuclear contribution   :    -10.89210     -11.74249     -10.16357
                        -----------------------------------------
Total Dipole Moment    :     -1.02922      -1.79311      -0.39180
                        -----------------------------------------
Magnitude (a.u.)       :      2.10429
Magnitude (Debye)      :      5.34868

Rotational constants in cm-1:     0.011109     0.008775     0.006017
Rotational constants in MHz :   333.032364   263.059168   180.371798

                             ****ORCA TERMINATED NORMALLY****
TOTAL RUN TIME: 0 days 1 hours 38 minutes 9 seconds 642 msec
