                         Program Version 4.2.0 -  RELEASE  -
|  1> ! ri-mp2 cc-pvtz cc-pvtz/c TightSCF  NoKeepInts
|  2>
|  3> %scf
|  4>   MaxCore 4096
|  5> end
|  6> *xyz  0  1
|  7>     C       15.1953148   15.4235167   17.3496491
|  8>     C       15.5986768   15.2292182   15.8724032
|  9>     O       17.0003537   15.4426472   15.5577610
| 10>     C       18.0280544   15.6646308   16.4389543
| 11>     O       18.9111865   14.8340707   16.5518274
| 12>     C       17.9141770   16.8235745   17.3877722
| 13>     C       17.3252909   18.0039189   17.0671104
| 14>     C       16.6887004   18.3955802   15.7493986
| 15>     N       17.3569506   19.0664556   17.9748194
| 16>     C       18.1142874   19.0954561   19.1159022
| 17>     S       18.2007273   20.4439380   20.0689917
| 18>     N       18.7979123   17.9468127   19.4256847
| 19>     C       18.6379656   16.6549518   18.7298742
| 20>     C       17.9310982   15.6387194   19.6236109
| 21>     C       18.3935914   14.3112389   19.6864280
| 22>     C       17.7436435   13.3619718   20.4924894
| 23>     C       16.6193362   13.7413938   21.2448033
| 24>     C       16.1534135   15.0614681   21.1851874
| 25>     O       15.0612982   15.4286775   21.9014728
| 26>     C       16.8022323   16.0044768   20.3818170
| 27>     H       15.8186221   14.8059391   18.0068848
| 28>     H       14.1576385   15.0989266   17.4940228
| 29>     H       15.2480676   16.4688107   17.6684876
| 30>     H       15.3518145   14.1956212   15.5961252
| 31>     H       14.9815206   15.8784995   15.2386981
| 32>     H       15.6225355   18.1433852   15.7342189
| 33>     H       17.1734130   17.8943301   14.9025172
| 34>     H       16.7777426   19.4725744   15.5592285
| 35>     H       16.8719417   19.9229217   17.7584975
| 36>     H       19.3348318   17.9875324   20.2827150
| 37>     H       19.6467216   16.2706101   18.5182293
| 38>     H       19.2550611   14.0100997   19.0939973
| 39>     H       18.1102414   12.3374226   20.5267642
| 40>     H       16.1130781   13.0104315   21.8665526
| 41>     H       14.7901638   14.6632556   22.4304263
| 42>     H       16.4193949   17.0189217   20.3506776
| 43> *
| 44>
| 45>                          ****END OF INPUT****

CARTESIAN COORDINATES (ANGSTROEM)
---------------------------------
  C     15.195315   15.423517   17.349649
  C     15.598677   15.229218   15.872403
  O     17.000354   15.442647   15.557761
  C     18.028054   15.664631   16.438954
  O     18.911186   14.834071   16.551827
  C     17.914177   16.823574   17.387772
  C     17.325291   18.003919   17.067110
  C     16.688700   18.395580   15.749399
  N     17.356951   19.066456   17.974819
  C     18.114287   19.095456   19.115902
  S     18.200727   20.443938   20.068992
  N     18.797912   17.946813   19.425685
  C     18.637966   16.654952   18.729874
  C     17.931098   15.638719   19.623611
  C     18.393591   14.311239   19.686428
  C     17.743644   13.361972   20.492489
  C     16.619336   13.741394   21.244803
  C     16.153413   15.061468   21.185187
  O     15.061298   15.428677   21.901473
  C     16.802232   16.004477   20.381817
  H     15.818622   14.805939   18.006885
  H     14.157638   15.098927   17.494023
  H     15.248068   16.468811   17.668488
  H     15.351814   14.195621   15.596125
  H     14.981521   15.878500   15.238698
  H     15.622535   18.143385   15.734219
  H     17.173413   17.894330   14.902517
  H     16.777743   19.472574   15.559228
  H     16.871942   19.922922   17.758498
  H     19.334832   17.987532   20.282715
  H     19.646722   16.270610   18.518229
  H     19.255061   14.010100   19.093997
  H     18.110241   12.337423   20.526764
  H     16.113078   13.010431   21.866553
  H     14.790164   14.663256   22.430426
  H     16.419395   17.018922   20.350678

 Total Charge           Charge          ....    0
 Multiplicity           Mult            ....    1
 Number of Electrons    NEL             ....  154
 Basis Dimension        Dim             ....  828

ORBITAL ENERGIES
----------------

  NO   OCC          E(Eh)            E(eV)
   0   2.0000     -91.891175     -2500.4860
   1   2.0000     -20.596833      -560.4683
   2   2.0000     -20.588414      -560.2392
   3   2.0000     -20.549503      -559.1804
   4   2.0000     -15.630997      -425.3411
   5   2.0000     -15.610060      -424.7713
   6   2.0000     -11.397469      -310.1409
   7   2.0000     -11.386540      -309.8435
   8   2.0000     -11.336874      -308.4920
   9   2.0000     -11.313163      -307.8468
  10   2.0000     -11.311419      -307.7994
  11   2.0000     -11.310083      -307.7630
  12   2.0000     -11.265822      -306.5586
  13   2.0000     -11.264039      -306.5101
  14   2.0000     -11.259314      -306.3815
  15   2.0000     -11.253507      -306.2235
  16   2.0000     -11.243080      -305.9398
  17   2.0000     -11.238410      -305.8127
  18   2.0000     -11.235121      -305.7232
  19   2.0000     -11.234992      -305.7197
  20   2.0000      -8.896242      -242.0791
  21   2.0000      -6.577820      -178.9916
  22   2.0000      -6.575808      -178.9368
  23   2.0000      -6.575221      -178.9209
  24   2.0000      -1.442534       -39.2534
  25   2.0000      -1.416653       -38.5491
  26   2.0000      -1.353997       -36.8441
  27   2.0000      -1.342633       -36.5349
  28   2.0000      -1.240409       -33.7533
  29   2.0000      -1.157587       -31.4996
  30   2.0000      -1.123232       -30.5647
  31   2.0000      -1.045730       -28.4558
  32   2.0000      -1.038947       -28.2712
  33   2.0000      -1.015597       -27.6358
  34   2.0000      -1.004199       -27.3257
  35   2.0000      -0.989376       -26.9223
  36   2.0000      -0.926898       -25.2222
  37   2.0000      -0.899952       -24.4889
  38   2.0000      -0.853199       -23.2167
  39   2.0000      -0.840718       -22.8771
  40   2.0000      -0.833481       -22.6802
  41   2.0000      -0.823934       -22.4204
  42   2.0000      -0.745277       -20.2800
  43   2.0000      -0.731715       -19.9110
  44   2.0000      -0.729304       -19.8454
  45   2.0000      -0.694408       -18.8958
  46   2.0000      -0.687364       -18.7041
  47   2.0000      -0.678358       -18.4591
  48   2.0000      -0.674223       -18.3465
  49   2.0000      -0.662873       -18.0377
  50   2.0000      -0.653864       -17.7925
  51   2.0000      -0.651676       -17.7330
  52   2.0000      -0.642570       -17.4852
  53   2.0000      -0.620714       -16.8905
  54   2.0000      -0.606055       -16.4916
  55   2.0000      -0.604473       -16.4485
  56   2.0000      -0.601232       -16.3603
  57   2.0000      -0.585844       -15.9416
  58   2.0000      -0.575801       -15.6683
  59   2.0000      -0.564618       -15.3640
  60   2.0000      -0.562416       -15.3041
  61   2.0000      -0.552257       -15.0277
  62   2.0000      -0.545076       -14.8323
  63   2.0000      -0.533260       -14.5107
  64   2.0000      -0.522034       -14.2053
  65   2.0000      -0.513383       -13.9699
  66   2.0000      -0.500472       -13.6185
  67   2.0000      -0.487551       -13.2669
  68   2.0000      -0.485682       -13.2161
  69   2.0000      -0.471444       -12.8286
  70   2.0000      -0.456966       -12.4347
  71   2.0000      -0.447425       -12.1751
  72   2.0000      -0.356859        -9.7106
  73   2.0000      -0.348032        -9.4704
  74   2.0000      -0.330431        -8.9915
  75   2.0000      -0.321816        -8.7571
  76   2.0000      -0.318695        -8.6721
  77   0.0000       0.073287         1.9942
  78   0.0000       0.107807         2.9336
  79   0.0000       0.116640         3.1739
  80   0.0000       0.131581         3.5805
  81   0.0000       0.133258         3.6261

MULLIKEN ATOMIC CHARGES
-----------------------
   0 C :   -0.348565
   1 C :    0.039632
   2 O :   -0.363098
   3 C :    0.456442
   4 O :   -0.385483
   5 C :   -0.213439
   6 C :    0.140685
   7 C :   -0.321436
   8 N :   -0.130118
   9 C :    0.191546
  10 S :   -0.436150
  11 N :   -0.207661
  12 C :    0.060485
  13 C :    0.024965
  14 C :   -0.189837
  15 C :   -0.135498
  16 C :   -0.278633
  17 C :    0.314344
  18 O :   -0.358760
  19 C :   -0.266501
  20 H :    0.130972
  21 H :    0.125768
  22 H :    0.107969
  23 H :    0.124180
  24 H :    0.096885
  25 H :    0.116617
  26 H :    0.145144
  27 H :    0.122384
  28 H :    0.197968
  29 H :    0.196823
  30 H :    0.162745
  31 H :    0.170714
  32 H :    0.162907
  33 H :    0.131542
  34 H :    0.240956
  35 H :    0.173502
Sum of atomic charges:   -0.0000000

LOEWDIN ATOMIC CHARGES
----------------------
   0 C :    0.104693
   1 C :   -0.015013
   2 O :    0.282533
   3 C :   -0.418882
   4 O :    0.124310
   5 C :   -0.089071
   6 C :   -0.078960
   7 C :    0.128251
   8 N :    0.404605
   9 C :   -0.459965
  10 S :   -0.034337
  11 N :    0.397925
  12 C :   -0.044645
  13 C :   -0.043366
  14 C :    0.019715
  15 C :    0.041934
  16 C :   -0.002104
  17 C :   -0.194354
  18 O :    0.394625
  19 C :    0.029415
  20 H :   -0.020275
  21 H :   -0.020165
  22 H :   -0.035251
  23 H :   -0.021621
  24 H :   -0.032205
  25 H :   -0.017032
  26 H :   -0.005795
  27 H :   -0.014674
  28 H :   -0.058042
  29 H :   -0.063296
  30 H :   -0.002580
  31 H :   -0.022528
  32 H :   -0.019313
  33 H :   -0.035265
  34 H :   -0.153849
  35 H :   -0.025419

  Mayer bond orders larger than 0.100000
B(  0-C ,  1-C ) :   0.9636 B(  0-C , 20-H ) :   0.9654 B(  0-C , 21-H ) :   0.9758
B(  0-C , 22-H ) :   0.9703 B(  1-C ,  2-O ) :   0.8944 B(  1-C , 23-H ) :   0.9816
B(  1-C , 24-H ) :   0.9788 B(  2-O ,  3-C ) :   1.1339 B(  3-C ,  4-O ) :   2.0656
B(  3-C ,  5-C ) :   0.9671 B(  5-C ,  6-C ) :   1.6751 B(  5-C , 12-C ) :   0.9592
B(  6-C ,  7-C ) :   0.9476 B(  6-C ,  8-N ) :   1.1214 B(  7-C , 25-H ) :   0.9642
B(  7-C , 26-H ) :   0.9681 B(  7-C , 27-H ) :   0.9856 B(  8-N ,  9-C ) :   1.1830
B(  8-N , 28-H ) :   0.9498 B(  9-C , 10-S ) :   1.6149 B(  9-C , 11-N ) :   1.2956
B( 11-N , 12-C ) :   0.9870 B( 11-N , 29-H ) :   0.9511 B( 12-C , 13-C ) :   0.9462
B( 12-C , 30-H ) :   0.9977 B( 13-C , 14-C ) :   1.3903 B( 13-C , 19-C ) :   1.3483
B( 14-C , 15-C ) :   1.3963 B( 14-C , 31-H ) :   0.9585 B( 15-C , 16-C ) :   1.3616
B( 15-C , 32-H ) :   0.9706 B( 16-C , 17-C ) :   1.3294 B( 16-C , 33-H ) :   0.9849
B( 17-C , 18-O ) :   1.1110 B( 17-C , 19-C ) :   1.3743 B( 18-O , 34-H ) :   0.9799
B( 19-C , 35-H ) :   0.9580

MP2 TOTAL ENERGY:    -1274.327756211 Eh
FINAL SINGLE POINT ENERGY     -1274.327756210893

DIPOLE MOMENT
-------------
                                X             Y             Z
Electronic contribution:      9.51831       6.71786       6.37696
Nuclear contribution   :    -11.08486      -7.77701      -6.94141
                        -----------------------------------------
Total Dipole Moment    :     -1.56656      -1.05915      -0.56445
                        -----------------------------------------
Magnitude (a.u.)       :      1.97345
Magnitude (Debye)      :      5.01611

Rotational constants in cm-1:     0.011339     0.009872     0.006821
Rotational constants in MHz :   339.937272   295.958088   204.487385

                             ****ORCA TERMINATED NORMALLY****
TOTAL RUN TIME: 0 days 1 hours 50 minutes 47 seconds 967 msec
