                         Program Version 4.2.0 -  RELEASE  -
|  1> ! ri-mp2 cc-pvtz cc-pvtz/c TightSCF  NoKeepInts
|  2>
|  3> %scf
|  4>   MaxCore 4096
|  5> end
|  6> *xyz  0  1
|  7>     C       14.9565854   14.4454573   16.0080115
|  8>     C       16.1422335   14.4179094   16.9920449
|  9>     O       17.3035464   15.0008180   16.3634634
| 10>     C       17.3382522   16.3477931   16.1442545
| 11>     O       16.8724015   16.8114914   15.1193959
| 12>     C       17.6828242   17.1676397   17.3597964
| 13>     C       17.3574090   18.4821924   17.4601011
| 14>     C       16.5072018   19.2942714   16.5069359
| 15>     N       17.8696250   19.2502550   18.5106549
| 16>     C       18.8846529   18.8483412   19.3386759
| 17>     S       19.5872102   19.8753143   20.4280345
| 18>     N       19.2976264   17.5463362   19.2063855
| 19>     C       18.5779743   16.5184360   18.4319702
| 20>     C       17.8259386   15.6129819   19.4010169
| 21>     C       18.2076220   14.2666385   19.5550935
| 22>     C       17.5171374   13.4249173   20.4431472
| 23>     C       16.4408965   13.9344411   21.1893372
| 24>     C       16.0657292   15.2773250   21.0482083
| 25>     O       15.0271521   15.7726536   21.7665500
| 26>     C       16.7525986   16.1121236   20.1613997
| 27>     H       14.6297555   15.4737099   15.8094091
| 28>     H       14.1032706   13.8935990   16.4201393
| 29>     H       15.2361512   13.9823857   15.0532837
| 30>     H       15.8594880   14.9580851   17.9018633
| 31>     H       16.3611859   13.3773832   17.2641900
| 32>     H       15.5668529   18.7738246   16.2854596
| 33>     H       17.0316266   19.4400371   15.5536491
| 34>     H       16.2484144   20.2836567   16.9018443
| 35>     H       17.5907452   20.2140438   18.6043161
| 36>     H       20.0336787   17.2712293   19.8441143
| 37>     H       19.3297746   15.9107235   17.9084812
| 38>     H       19.0386373   13.8683753   18.9783272
| 39>     H       17.8185386   12.3843427   20.5534990
| 40>     H       15.9057531   13.2883092   21.8777995
| 41>     H       14.7282927   15.0749507   22.3693694
| 42>     H       16.4502173   17.1500079   20.0737775
| 43> *
| 44>
| 45>                          ****END OF INPUT****

CARTESIAN COORDINATES (ANGSTROEM)
---------------------------------
  C     14.956585   14.445457   16.008011
  C     16.142233   14.417909   16.992045
  O     17.303546   15.000818   16.363463
  C     17.338252   16.347793   16.144254
  O     16.872401   16.811491   15.119396
  C     17.682824   17.167640   17.359796
  C     17.357409   18.482192   17.460101
  C     16.507202   19.294271   16.506936
  N     17.869625   19.250255   18.510655
  C     18.884653   18.848341   19.338676
  S     19.587210   19.875314   20.428034
  N     19.297626   17.546336   19.206385
  C     18.577974   16.518436   18.431970
  C     17.825939   15.612982   19.401017
  C     18.207622   14.266638   19.555094
  C     17.517137   13.424917   20.443147
  C     16.440897   13.934441   21.189337
  C     16.065729   15.277325   21.048208
  O     15.027152   15.772654   21.766550
  C     16.752599   16.112124   20.161400
  H     14.629755   15.473710   15.809409
  H     14.103271   13.893599   16.420139
  H     15.236151   13.982386   15.053284
  H     15.859488   14.958085   17.901863
  H     16.361186   13.377383   17.264190
  H     15.566853   18.773825   16.285460
  H     17.031627   19.440037   15.553649
  H     16.248414   20.283657   16.901844
  H     17.590745   20.214044   18.604316
  H     20.033679   17.271229   19.844114
  H     19.329775   15.910723   17.908481
  H     19.038637   13.868375   18.978327
  H     17.818539   12.384343   20.553499
  H     15.905753   13.288309   21.877799
  H     14.728293   15.074951   22.369369
  H     16.450217   17.150008   20.073777

 Total Charge           Charge          ....    0
 Multiplicity           Mult            ....    1
 Number of Electrons    NEL             ....  154
 Basis Dimension        Dim             ....  828

ORBITAL ENERGIES
----------------

  NO   OCC          E(Eh)            E(eV)
   0   2.0000     -91.891807     -2500.5032
   1   2.0000     -20.602370      -560.6190
   2   2.0000     -20.581435      -560.0493
   3   2.0000     -20.549780      -559.1879
   4   2.0000     -15.632017      -425.3688
   5   2.0000     -15.610654      -424.7875
   6   2.0000     -11.393436      -310.0312
   7   2.0000     -11.386345      -309.8382
   8   2.0000     -11.338072      -308.5246
   9   2.0000     -11.320388      -308.0434
  10   2.0000     -11.313914      -307.8672
  11   2.0000     -11.296312      -307.3883
  12   2.0000     -11.264913      -306.5339
  13   2.0000     -11.261533      -306.4419
  14   2.0000     -11.260044      -306.4014
  15   2.0000     -11.254740      -306.2571
  16   2.0000     -11.249503      -306.1145
  17   2.0000     -11.243798      -305.9593
  18   2.0000     -11.243651      -305.9553
  19   2.0000     -11.219465      -305.2972
  20   2.0000      -8.896819      -242.0948
  21   2.0000      -6.578381      -179.0068
  22   2.0000      -6.576390      -178.9527
  23   2.0000      -6.575791      -178.9364
  24   2.0000      -1.445900       -39.3449
  25   2.0000      -1.422080       -38.6968
  26   2.0000      -1.353498       -36.8306
  27   2.0000      -1.343249       -36.5517
  28   2.0000      -1.241622       -33.7863
  29   2.0000      -1.162951       -31.6455
  30   2.0000      -1.122148       -30.5352
  31   2.0000      -1.047262       -28.4974
  32   2.0000      -1.029874       -28.0243
  33   2.0000      -1.021386       -27.7933
  34   2.0000      -0.999395       -27.1949
  35   2.0000      -0.987024       -26.8583
  36   2.0000      -0.926590       -25.2138
  37   2.0000      -0.884712       -24.0742
  38   2.0000      -0.850643       -23.1472
  39   2.0000      -0.844917       -22.9914
  40   2.0000      -0.839860       -22.8538
  41   2.0000      -0.829421       -22.5697
  42   2.0000      -0.753004       -20.4903
  43   2.0000      -0.735936       -20.0258
  44   2.0000      -0.717781       -19.5318
  45   2.0000      -0.701420       -19.0866
  46   2.0000      -0.692345       -18.8397
  47   2.0000      -0.680521       -18.5179
  48   2.0000      -0.668037       -18.1782
  49   2.0000      -0.666407       -18.1339
  50   2.0000      -0.651634       -17.7319
  51   2.0000      -0.649316       -17.6688
  52   2.0000      -0.639212       -17.3939
  53   2.0000      -0.612599       -16.6697
  54   2.0000      -0.608012       -16.5448
  55   2.0000      -0.602312       -16.3897
  56   2.0000      -0.598781       -16.2937
  57   2.0000      -0.582271       -15.8444
  58   2.0000      -0.574057       -15.6209
  59   2.0000      -0.569905       -15.5079
  60   2.0000      -0.559780       -15.2324
  61   2.0000      -0.544015       -14.8034
  62   2.0000      -0.537182       -14.6175
  63   2.0000      -0.529734       -14.4148
  64   2.0000      -0.521236       -14.1835
  65   2.0000      -0.517787       -14.0897
  66   2.0000      -0.505976       -13.7683
  67   2.0000      -0.497773       -13.5451
  68   2.0000      -0.478928       -13.0323
  69   2.0000      -0.465961       -12.6794
  70   2.0000      -0.455009       -12.3814
  71   2.0000      -0.443533       -12.0691
  72   2.0000      -0.359081        -9.7711
  73   2.0000      -0.354345        -9.6422
  74   2.0000      -0.331611        -9.0236
  75   2.0000      -0.327816        -8.9203
  76   2.0000      -0.318788        -8.6747
  77   0.0000       0.068711         1.8697
  78   0.0000       0.099610         2.7105
  79   0.0000       0.120908         3.2901
  80   0.0000       0.127409         3.4670
  81   0.0000       0.131690         3.5835

MULLIKEN ATOMIC CHARGES
-----------------------
   0 C :   -0.267396
   1 C :    0.024640
   2 O :   -0.378649
   3 C :    0.482893
   4 O :   -0.392557
   5 C :   -0.266904
   6 C :    0.153808
   7 C :   -0.271053
   8 N :   -0.126286
   9 C :    0.206431
  10 S :   -0.433280
  11 N :   -0.193011
  12 C :    0.039279
  13 C :    0.035851
  14 C :   -0.166013
  15 C :   -0.134176
  16 C :   -0.273541
  17 C :    0.307770
  18 O :   -0.355678
  19 C :   -0.259671
  20 H :    0.095902
  21 H :    0.092358
  22 H :    0.104882
  23 H :    0.105360
  24 H :    0.109454
  25 H :    0.125776
  26 H :    0.138256
  27 H :    0.094544
  28 H :    0.198666
  29 H :    0.191621
  30 H :    0.150355
  31 H :    0.149490
  32 H :    0.164919
  33 H :    0.134092
  34 H :    0.241790
  35 H :    0.170077
Sum of atomic charges:    0.0000000

LOEWDIN ATOMIC CHARGES
----------------------
   0 C :    0.106064
   1 C :   -0.021232
   2 O :    0.282802
   3 C :   -0.420752
   4 O :    0.127092
   5 C :   -0.099775
   6 C :   -0.060160
   7 C :    0.130570
   8 N :    0.406659
   9 C :   -0.457539
  10 S :   -0.030741
  11 N :    0.396464
  12 C :   -0.052395
  13 C :   -0.040391
  14 C :    0.016494
  15 C :    0.042562
  16 C :   -0.000617
  17 C :   -0.191187
  18 O :    0.396740
  19 C :    0.029978
  20 H :   -0.029968
  21 H :   -0.029164
  22 H :   -0.023484
  23 H :   -0.035145
  24 H :   -0.022790
  25 H :   -0.006598
  26 H :   -0.002619
  27 H :   -0.022883
  28 H :   -0.057349
  29 H :   -0.065062
  30 H :   -0.006107
  31 H :   -0.028645
  32 H :   -0.019639
  33 H :   -0.034135
  34 H :   -0.152484
  35 H :   -0.024564

  Mayer bond orders larger than 0.100000
B(  0-C ,  1-C ) :   0.9816 B(  0-C , 20-H ) :   0.9730 B(  0-C , 21-H ) :   0.9762
B(  0-C , 22-H ) :   0.9785 B(  1-C ,  2-O ) :   0.8794 B(  1-C , 23-H ) :   0.9634
B(  1-C , 24-H ) :   0.9804 B(  2-O ,  3-C ) :   1.1086 B(  3-C ,  4-O ) :   2.0422
B(  3-C ,  5-C ) :   1.0296 B(  5-C ,  6-C ) :   1.6625 B(  5-C , 12-C ) :   0.9675
B(  6-C ,  7-C ) :   0.9697 B(  6-C ,  8-N ) :   1.1495 B(  7-C , 25-H ) :   0.9666
B(  7-C , 26-H ) :   0.9554 B(  7-C , 27-H ) :   0.9876 B(  8-N ,  9-C ) :   1.1775
B(  8-N , 28-H ) :   0.9485 B(  9-C , 10-S ) :   1.6184 B(  9-C , 11-N ) :   1.2988
B( 11-N , 12-C ) :   0.9814 B( 11-N , 29-H ) :   0.9541 B( 12-C , 13-C ) :   0.9508
B( 12-C , 30-H ) :   1.0025 B( 13-C , 14-C ) :   1.3551 B( 13-C , 19-C ) :   1.3661
B( 14-C , 15-C ) :   1.3846 B( 14-C , 31-H ) :   0.9757 B( 15-C , 16-C ) :   1.3687
B( 15-C , 32-H ) :   0.9693 B( 16-C , 17-C ) :   1.3264 B( 16-C , 33-H ) :   0.9833
B( 17-C , 18-O ) :   1.1153 B( 17-C , 19-C ) :   1.3773 B( 18-O , 34-H ) :   0.9789
B( 19-C , 35-H ) :   0.9567

MP2 TOTAL ENERGY:    -1274.329062688 Eh
FINAL SINGLE POINT ENERGY     -1274.329062688355

DIPOLE MOMENT
-------------
                                X             Y             Z
Electronic contribution:     10.79576       8.73376       7.00010
Nuclear contribution   :    -11.92584     -10.27035      -6.64910
                        -----------------------------------------
Total Dipole Moment    :     -1.13008      -1.53659       0.35100
                        -----------------------------------------
Magnitude (a.u.)       :      1.93943
Magnitude (Debye)      :      4.92963

Rotational constants in cm-1:     0.011539     0.009556     0.006426
Rotational constants in MHz :   345.934859   286.475479   192.644422

                             ****ORCA TERMINATED NORMALLY****
TOTAL RUN TIME: 0 days 1 hours 54 minutes 29 seconds 747 msec
