                         Program Version 4.2.0 -  RELEASE  -
|  1> ! ri-mp2 cc-pvtz cc-pvtz/c TightSCF  NoKeepInts
|  2>
|  3> %scf
|  4>   MaxCore 4096
|  5> end
|  6> *xyz  0  1
|  7>     C       14.9681642   16.1577819   17.3966157
|  8>     C       15.6293642   14.7777142   17.1818491
|  9>     O       16.9233980   14.7827339   16.5208844
| 10>     C       17.8805368   15.7631826   16.4017264
| 11>     O       18.6523488   15.7458279   15.4613811
| 12>     C       17.8491834   16.9273763   17.3324711
| 13>     C       17.5752265   18.1677465   16.8687199
| 14>     C       17.1747872   18.5253314   15.4540526
| 15>     N       17.6525748   19.2691475   17.7237448
| 16>     C       17.9956047   19.2044178   19.0488679
| 17>     S       17.9971086   20.5450572   20.0167149
| 18>     N       18.3284731   17.9662052   19.5406335
| 19>     C       18.3843867   16.7157653   18.7572506
| 20>     C       17.7791801   15.5371780   19.5181887
| 21>     C       18.3368416   14.2528337   19.3698889
| 22>     C       17.8063189   13.1543849   20.0664303
| 23>     C       16.7123062   13.3397132   20.9280054
| 24>     C       16.1595824   14.6168932   21.0888991
| 25>     O       15.1002826   14.7996549   21.9159694
| 26>     C       16.6882708   15.7088245   20.3929529
| 27>     H       15.4365131   16.7333517   18.1996251
| 28>     H       13.9188568   16.0183087   17.6840886
| 29>     H       14.9773643   16.7464828   16.4723786
| 30>     H       15.7245416   14.2827738   18.1558805
| 31>     H       14.9500197   14.1555605   16.5850151
| 32>     H       16.6463867   17.7006625   14.9601692
| 33>     H       18.0662066   18.7410398   14.8510774
| 34>     H       16.5165531   19.4016644   15.4190997
| 35>     H       17.4324742   20.1887807   17.3749701
| 36>     H       18.5598137   17.9473195   20.5261654
| 37>     H       19.4525325   16.4822556   18.6386935
| 38>     H       19.1811338   14.1020216   18.7008775
| 39>     H       18.2434163   12.1654678   19.9361729
| 40>     H       16.2994806   12.4934441   21.4676808
| 41>     H       14.9107983   13.9496351   22.3419171
| 42>     H       16.2369693   16.6854615   20.5349421
| 43> *
| 44>
| 45>                          ****END OF INPUT****

CARTESIAN COORDINATES (ANGSTROEM)
---------------------------------
  C     14.968164   16.157782   17.396616
  C     15.629364   14.777714   17.181849
  O     16.923398   14.782734   16.520884
  C     17.880537   15.763183   16.401726
  O     18.652349   15.745828   15.461381
  C     17.849183   16.927376   17.332471
  C     17.575226   18.167746   16.868720
  C     17.174787   18.525331   15.454053
  N     17.652575   19.269147   17.723745
  C     17.995605   19.204418   19.048868
  S     17.997109   20.545057   20.016715
  N     18.328473   17.966205   19.540633
  C     18.384387   16.715765   18.757251
  C     17.779180   15.537178   19.518189
  C     18.336842   14.252834   19.369889
  C     17.806319   13.154385   20.066430
  C     16.712306   13.339713   20.928005
  C     16.159582   14.616893   21.088899
  O     15.100283   14.799655   21.915969
  C     16.688271   15.708824   20.392953
  H     15.436513   16.733352   18.199625
  H     13.918857   16.018309   17.684089
  H     14.977364   16.746483   16.472379
  H     15.724542   14.282774   18.155880
  H     14.950020   14.155560   16.585015
  H     16.646387   17.700662   14.960169
  H     18.066207   18.741040   14.851077
  H     16.516553   19.401664   15.419100
  H     17.432474   20.188781   17.374970
  H     18.559814   17.947319   20.526165
  H     19.452533   16.482256   18.638693
  H     19.181134   14.102022   18.700878
  H     18.243416   12.165468   19.936173
  H     16.299481   12.493444   21.467681
  H     14.910798   13.949635   22.341917
  H     16.236969   16.685461   20.534942

 Total Charge           Charge          ....    0
 Multiplicity           Mult            ....    1
 Number of Electrons    NEL             ....  154
 Basis Dimension        Dim             ....  828

ORBITAL ENERGIES
----------------

  NO   OCC          E(Eh)            E(eV)
   0   2.0000     -91.889972     -2500.4533
   1   2.0000     -20.605810      -560.7126
   2   2.0000     -20.593294      -560.3720
   3   2.0000     -20.549025      -559.1674
   4   2.0000     -15.625434      -425.1897
   5   2.0000     -15.612714      -424.8435
   6   2.0000     -11.397205      -310.1337
   7   2.0000     -11.386710      -309.8481
   8   2.0000     -11.323949      -308.1403
   9   2.0000     -11.323822      -308.1369
  10   2.0000     -11.319884      -308.0297
  11   2.0000     -11.305379      -307.6350
  12   2.0000     -11.273398      -306.7648
  13   2.0000     -11.264712      -306.5284
  14   2.0000     -11.259054      -306.3744
  15   2.0000     -11.257911      -306.3433
  16   2.0000     -11.253262      -306.2168
  17   2.0000     -11.249366      -306.1108
  18   2.0000     -11.248463      -306.0862
  19   2.0000     -11.235163      -305.7243
  20   2.0000      -8.895091      -242.0477
  21   2.0000      -6.576681      -178.9606
  22   2.0000      -6.574653      -178.9054
  23   2.0000      -6.574079      -178.8898
  24   2.0000      -1.439878       -39.1811
  25   2.0000      -1.425662       -38.7942
  26   2.0000      -1.353672       -36.8353
  27   2.0000      -1.338983       -36.4356
  28   2.0000      -1.240295       -33.7502
  29   2.0000      -1.167349       -31.7652
  30   2.0000      -1.124252       -30.5924
  31   2.0000      -1.051628       -28.6162
  32   2.0000      -1.037374       -28.2284
  33   2.0000      -1.025689       -27.9104
  34   2.0000      -1.003886       -27.3171
  35   2.0000      -0.989956       -26.9381
  36   2.0000      -0.928650       -25.2699
  37   2.0000      -0.900576       -24.5059
  38   2.0000      -0.852257       -23.1911
  39   2.0000      -0.845836       -23.0164
  40   2.0000      -0.841052       -22.8862
  41   2.0000      -0.830690       -22.6042
  42   2.0000      -0.748408       -20.3652
  43   2.0000      -0.739007       -20.1094
  44   2.0000      -0.723188       -19.6789
  45   2.0000      -0.704376       -19.1670
  46   2.0000      -0.690743       -18.7961
  47   2.0000      -0.677278       -18.4297
  48   2.0000      -0.675929       -18.3930
  49   2.0000      -0.660059       -17.9611
  50   2.0000      -0.657208       -17.8835
  51   2.0000      -0.653168       -17.7736
  52   2.0000      -0.638496       -17.3744
  53   2.0000      -0.617377       -16.7997
  54   2.0000      -0.613848       -16.7037
  55   2.0000      -0.609058       -16.5733
  56   2.0000      -0.605104       -16.4657
  57   2.0000      -0.583842       -15.8871
  58   2.0000      -0.579190       -15.7606
  59   2.0000      -0.572489       -15.5782
  60   2.0000      -0.568310       -15.4645
  61   2.0000      -0.556034       -15.1305
  62   2.0000      -0.541195       -14.7267
  63   2.0000      -0.533656       -14.5215
  64   2.0000      -0.525340       -14.2952
  65   2.0000      -0.516131       -14.0446
  66   2.0000      -0.506217       -13.7749
  67   2.0000      -0.498302       -13.5595
  68   2.0000      -0.490613       -13.3503
  69   2.0000      -0.467955       -12.7337
  70   2.0000      -0.450918       -12.2701
  71   2.0000      -0.446524       -12.1505
  72   2.0000      -0.360237        -9.8025
  73   2.0000      -0.349559        -9.5120
  74   2.0000      -0.331534        -9.0215
  75   2.0000      -0.329594        -8.9687
  76   2.0000      -0.318246        -8.6599
  77   0.0000       0.090860         2.4724
  78   0.0000       0.097329         2.6485
  79   0.0000       0.119754         3.2587
  80   0.0000       0.123489         3.3603
  81   0.0000       0.126813         3.4508

MULLIKEN ATOMIC CHARGES
-----------------------
   0 C :   -0.337237
   1 C :    0.036301
   2 O :   -0.326286
   3 C :    0.378545
   4 O :   -0.372809
   5 C :   -0.204228
   6 C :    0.153060
   7 C :   -0.299658
   8 N :   -0.138337
   9 C :    0.215095
  10 S :   -0.443936
  11 N :   -0.237545
  12 C :    0.108198
  13 C :   -0.015757
  14 C :   -0.193741
  15 C :   -0.129483
  16 C :   -0.277990
  17 C :    0.321708
  18 O :   -0.355984
  19 C :   -0.275789
  20 H :    0.112200
  21 H :    0.126697
  22 H :    0.104796
  23 H :    0.102397
  24 H :    0.128561
  25 H :    0.115463
  26 H :    0.147626
  27 H :    0.102943
  28 H :    0.196600
  29 H :    0.207091
  30 H :    0.163183
  31 H :    0.156638
  32 H :    0.165261
  33 H :    0.134852
  34 H :    0.242790
  35 H :    0.188775
Sum of atomic charges:   -0.0000000

LOEWDIN ATOMIC CHARGES
----------------------
   0 C :    0.103019
   1 C :   -0.011354
   2 O :    0.293944
   3 C :   -0.421680
   4 O :    0.126913
   5 C :   -0.084858
   6 C :   -0.091555
   7 C :    0.128068
   8 N :    0.404006
   9 C :   -0.454568
  10 S :   -0.038855
  11 N :    0.395725
  12 C :   -0.050728
  13 C :   -0.041118
  14 C :    0.021928
  15 C :    0.046091
  16 C :    0.000161
  17 C :   -0.194386
  18 O :    0.397245
  19 C :    0.026797
  20 H :   -0.034739
  21 H :   -0.020221
  22 H :   -0.030313
  23 H :   -0.029397
  24 H :   -0.021471
  25 H :   -0.010984
  26 H :   -0.004380
  27 H :   -0.019640
  28 H :   -0.057803
  29 H :   -0.065575
  30 H :   -0.009104
  31 H :   -0.024370
  32 H :   -0.017124
  33 H :   -0.033196
  34 H :   -0.151633
  35 H :   -0.024846

  Mayer bond orders larger than 0.100000
B(  0-C ,  1-C ) :   0.9588 B(  0-C , 20-H ) :   0.9685 B(  0-C , 21-H ) :   0.9759
B(  0-C , 22-H ) :   0.9759 B(  1-C ,  2-O ) :   0.9054 B(  1-C , 23-H ) :   0.9679
B(  1-C , 24-H ) :   0.9819 B(  2-O ,  3-C ) :   1.1900 B(  3-C ,  4-O ) :   2.1129
B(  3-C ,  5-C ) :   0.8980 B(  5-C ,  6-C ) :   1.7214 B(  5-C , 12-C ) :   0.9493
B(  6-C ,  7-C ) :   0.9482 B(  6-C ,  8-N ) :   1.1275 B(  7-C , 25-H ) :   0.9764
B(  7-C , 26-H ) :   0.9610 B(  7-C , 27-H ) :   0.9819 B(  8-N ,  9-C ) :   1.2076
B(  8-N , 28-H ) :   0.9512 B(  9-C , 10-S ) :   1.6031 B(  9-C , 11-N ) :   1.2878
B( 11-N , 12-C ) :   0.9816 B( 11-N , 29-H ) :   0.9412 B( 12-C , 13-C ) :   0.9480
B( 12-C , 30-H ) :   0.9980 B( 13-C , 14-C ) :   1.3789 B( 13-C , 19-C ) :   1.3383
B( 14-C , 15-C ) :   1.4054 B( 14-C , 31-H ) :   0.9715 B( 15-C , 16-C ) :   1.3542
B( 15-C , 32-H ) :   0.9694 B( 16-C , 17-C ) :   1.3344 B( 16-C , 33-H ) :   0.9841
B( 17-C , 18-O ) :   1.1115 B( 17-C , 19-C ) :   1.3600 B( 18-O , 34-H ) :   0.9780
B( 19-C , 35-H ) :   0.9503

MP2 TOTAL ENERGY:    -1274.322332800 Eh
FINAL SINGLE POINT ENERGY     -1274.322332799703

DIPOLE MOMENT
-------------
                                X             Y             Z
Electronic contribution:      8.26396       5.32507       5.75135
Nuclear contribution   :     -9.47158      -6.90905      -5.61685
                        -----------------------------------------
Total Dipole Moment    :     -1.20762      -1.58398       0.13450
                        -----------------------------------------
Magnitude (a.u.)       :      1.99635
Magnitude (Debye)      :      5.07433

Rotational constants in cm-1:     0.013025     0.009001     0.006527
Rotational constants in MHz :   390.465763   269.840970   195.687558

                             ****ORCA TERMINATED NORMALLY****
TOTAL RUN TIME: 0 days 1 hours 51 minutes 37 seconds 626 msec
