                         Program Version 4.2.0 -  RELEASE  -
|  1> ! ri-mp2 cc-pvtz cc-pvtz/c TightSCF  NoKeepInts
|  2>
|  3> %scf
|  4>   MaxCore 4096
|  5> end
|  6> *xyz  0  1
|  7>     C       15.3946497   13.6824929   16.0626016
|  8>     C       15.1634926   15.1799477   16.3552262
|  9>     O       16.2985430   15.9952665   15.9874500
| 10>     C       17.5223955   15.8333346   16.5757533
| 11>     O       18.0511975   14.7435038   16.7107735
| 12>     C       17.8856429   16.9893943   17.4591455
| 13>     C       17.5235804   18.2757324   17.2211140
| 14>     C       16.7455853   18.8126388   16.0375787
| 15>     N       17.9442854   19.2880848   18.0891636
| 16>     C       18.8247759   19.1158560   19.1247494
| 17>     S       19.3546317   20.3888679   20.0380314
| 18>     N       19.2435801   17.8315430   19.3658766
| 19>     C       18.7124079   16.6286237   18.6970768
| 20>     C       17.8846554   15.7941434   19.6710765
| 21>     C       18.1811863   14.4339741   19.8754636
| 22>     C       17.4126296   13.6579115   20.7591013
| 23>     C       16.3363559   14.2459397   21.4450022
| 24>     C       16.0347554   15.5992078   21.2409979
| 25>     O       14.9903352   16.1678114   21.8944313
| 26>     C       16.8010586   16.3689087   20.3602467
| 27>     H       15.8480132   13.5435061   15.0732090
| 28>     H       14.4423301   13.1393488   16.0821929
| 29>     H       16.0491421   13.2254289   16.8149581
| 30>     H       14.2910554   15.5190946   15.7822336
| 31>     H       14.9351001   15.3124144   17.4214455
| 32>     H       17.0829334   18.3473154   15.1028480
| 33>     H       16.8631760   19.8962065   15.9146067
| 34>     H       15.6747952   18.6026710   16.1502643
| 35>     H       17.6492696   20.2379430   17.9281569
| 36>     H       19.8692961   17.7284195   20.1544564
| 37>     H       19.5693588   16.0248396   18.3647673
| 38>     H       19.0009263   13.9720157   19.3304125
| 39>     H       17.6493423   12.6052486   20.9034363
| 40>     H       15.7389957   13.6495254   22.1265357
| 41>     H       14.6255407   15.4998022   22.4942380
| 42>     H       16.5519807   17.4150374   20.2193787
| 43> *
| 44>
| 45>                          ****END OF INPUT****

CARTESIAN COORDINATES (ANGSTROEM)
---------------------------------
  C     15.394650   13.682493   16.062602
  C     15.163493   15.179948   16.355226
  O     16.298543   15.995266   15.987450
  C     17.522395   15.833335   16.575753
  O     18.051198   14.743504   16.710773
  C     17.885643   16.989394   17.459145
  C     17.523580   18.275732   17.221114
  C     16.745585   18.812639   16.037579
  N     17.944285   19.288085   18.089164
  C     18.824776   19.115856   19.124749
  S     19.354632   20.388868   20.038031
  N     19.243580   17.831543   19.365877
  C     18.712408   16.628624   18.697077
  C     17.884655   15.794143   19.671077
  C     18.181186   14.433974   19.875464
  C     17.412630   13.657911   20.759101
  C     16.336356   14.245940   21.445002
  C     16.034755   15.599208   21.240998
  O     14.990335   16.167811   21.894431
  C     16.801059   16.368909   20.360247
  H     15.848013   13.543506   15.073209
  H     14.442330   13.139349   16.082193
  H     16.049142   13.225429   16.814958
  H     14.291055   15.519095   15.782234
  H     14.935100   15.312414   17.421445
  H     17.082933   18.347315   15.102848
  H     16.863176   19.896206   15.914607
  H     15.674795   18.602671   16.150264
  H     17.649270   20.237943   17.928157
  H     19.869296   17.728419   20.154456
  H     19.569359   16.024840   18.364767
  H     19.000926   13.972016   19.330413
  H     17.649342   12.605249   20.903436
  H     15.738996   13.649525   22.126536
  H     14.625541   15.499802   22.494238
  H     16.551981   17.415037   20.219379

 Total Charge           Charge          ....    0
 Multiplicity           Mult            ....    1
 Number of Electrons    NEL             ....  154
 Basis Dimension        Dim             ....  828

ORBITAL ENERGIES
----------------

  NO   OCC          E(Eh)            E(eV)
   0   2.0000     -91.888386     -2500.4101
   1   2.0000     -20.595236      -560.4249
   2   2.0000     -20.587630      -560.2179
   3   2.0000     -20.553542      -559.2903
   4   2.0000     -15.627957      -425.2583
   5   2.0000     -15.607741      -424.7082
   6   2.0000     -11.396762      -310.1217
   7   2.0000     -11.383717      -309.7667
   8   2.0000     -11.333515      -308.4006
   9   2.0000     -11.311422      -307.7995
  10   2.0000     -11.307536      -307.6937
  11   2.0000     -11.303797      -307.5920
  12   2.0000     -11.259211      -306.3787
  13   2.0000     -11.258967      -306.3721
  14   2.0000     -11.256960      -306.3174
  15   2.0000     -11.251551      -306.1703
  16   2.0000     -11.241117      -305.8863
  17   2.0000     -11.237080      -305.7765
  18   2.0000     -11.234247      -305.6994
  19   2.0000     -11.219876      -305.3083
  20   2.0000      -8.893465      -242.0035
  21   2.0000      -6.575044      -178.9161
  22   2.0000      -6.573035      -178.8614
  23   2.0000      -6.572451      -178.8455
  24   2.0000      -1.448471       -39.4149
  25   2.0000      -1.415012       -38.5044
  26   2.0000      -1.357876       -36.9497
  27   2.0000      -1.339161       -36.4404
  28   2.0000      -1.237373       -33.6706
  29   2.0000      -1.155464       -31.4418
  30   2.0000      -1.120375       -30.4870
  31   2.0000      -1.043457       -28.3939
  32   2.0000      -1.031434       -28.0667
  33   2.0000      -1.012984       -27.5647
  34   2.0000      -0.998218       -27.1629
  35   2.0000      -0.983466       -26.7615
  36   2.0000      -0.922831       -25.1115
  37   2.0000      -0.888901       -24.1882
  38   2.0000      -0.848666       -23.0934
  39   2.0000      -0.838192       -22.8084
  40   2.0000      -0.831593       -22.6288
  41   2.0000      -0.823242       -22.4016
  42   2.0000      -0.746402       -20.3106
  43   2.0000      -0.729167       -19.8416
  44   2.0000      -0.727444       -19.7947
  45   2.0000      -0.693558       -18.8727
  46   2.0000      -0.685355       -18.6495
  47   2.0000      -0.680939       -18.5293
  48   2.0000      -0.671688       -18.2775
  49   2.0000      -0.666354       -18.1324
  50   2.0000      -0.646653       -17.5963
  51   2.0000      -0.644251       -17.5309
  52   2.0000      -0.635714       -17.2987
  53   2.0000      -0.604668       -16.4539
  54   2.0000      -0.602891       -16.4055
  55   2.0000      -0.599002       -16.2997
  56   2.0000      -0.597647       -16.2628
  57   2.0000      -0.579273       -15.7628
  58   2.0000      -0.574846       -15.6424
  59   2.0000      -0.571943       -15.5634
  60   2.0000      -0.560709       -15.2577
  61   2.0000      -0.547663       -14.9027
  62   2.0000      -0.535441       -14.5701
  63   2.0000      -0.521692       -14.1960
  64   2.0000      -0.519287       -14.1305
  65   2.0000      -0.511248       -13.9118
  66   2.0000      -0.499900       -13.6030
  67   2.0000      -0.495147       -13.4736
  68   2.0000      -0.480325       -13.0703
  69   2.0000      -0.464697       -12.6451
  70   2.0000      -0.456114       -12.4115
  71   2.0000      -0.446714       -12.1557
  72   2.0000      -0.353776        -9.6267
  73   2.0000      -0.347235        -9.4488
  74   2.0000      -0.327709        -8.9174
  75   2.0000      -0.318526        -8.6675
  76   2.0000      -0.315373        -8.5817
  77   0.0000       0.072963         1.9854
  78   0.0000       0.106409         2.8955
  79   0.0000       0.120593         3.2815
  80   0.0000       0.132758         3.6125
  81   0.0000       0.137874         3.7517

MULLIKEN ATOMIC CHARGES
-----------------------
   0 C :   -0.275730
   1 C :    0.041585
   2 O :   -0.378963
   3 C :    0.453288
   4 O :   -0.405431
   5 C :   -0.179126
   6 C :    0.140628
   7 C :   -0.282099
   8 N :   -0.124009
   9 C :    0.202641
  10 S :   -0.440214
  11 N :   -0.201166
  12 C :    0.052054
  13 C :    0.049583
  14 C :   -0.167780
  15 C :   -0.133011
  16 C :   -0.280512
  17 C :    0.313291
  18 O :   -0.358836
  19 C :   -0.280886
  20 H :    0.100306
  21 H :    0.090543
  22 H :    0.115324
  23 H :    0.101636
  24 H :    0.090092
  25 H :    0.125618
  26 H :    0.103522
  27 H :    0.123999
  28 H :    0.197052
  29 H :    0.194276
  30 H :    0.155201
  31 H :    0.157254
  32 H :    0.161160
  33 H :    0.130131
  34 H :    0.240700
  35 H :    0.167879
Sum of atomic charges:   -0.0000000

LOEWDIN ATOMIC CHARGES
----------------------
   0 C :    0.105014
   1 C :   -0.014630
   2 O :    0.285156
   3 C :   -0.411735
   4 O :    0.130469
   5 C :   -0.093533
   6 C :   -0.072053
   7 C :    0.125581
   8 N :    0.404188
   9 C :   -0.457890
  10 S :   -0.036709
  11 N :    0.397201
  12 C :   -0.045873
  13 C :   -0.040362
  14 C :    0.021043
  15 C :    0.041011
  16 C :   -0.002277
  17 C :   -0.193931
  18 O :    0.393378
  19 C :    0.028059
  20 H :   -0.024353
  21 H :   -0.030168
  22 H :   -0.027008
  23 H :   -0.023936
  24 H :   -0.030839
  25 H :   -0.007750
  26 H :   -0.020036
  27 H :   -0.010144
  28 H :   -0.058825
  29 H :   -0.064041
  30 H :   -0.005118
  31 H :   -0.024829
  32 H :   -0.020583
  33 H :   -0.035817
  34 H :   -0.154236
  35 H :   -0.024425

  Mayer bond orders larger than 0.100000
B(  0-C ,  1-C ) :   0.9796 B(  0-C , 20-H ) :   0.9754 B(  0-C , 21-H ) :   0.9749
B(  0-C , 22-H ) :   0.9715 B(  1-C ,  2-O ) :   0.9030 B(  1-C , 23-H ) :   0.9821
B(  1-C , 24-H ) :   0.9724 B(  2-O ,  3-C ) :   1.0767 B(  3-C ,  4-O ) :   2.0126
B(  3-C ,  5-C ) :   1.0352 B(  5-C ,  6-C ) :   1.6682 B(  5-C , 12-C ) :   0.9625
B(  6-C ,  7-C ) :   0.9524 B(  6-C ,  8-N ) :   1.1399 B(  7-C , 25-H ) :   0.9691
B(  7-C , 26-H ) :   0.9889 B(  7-C , 27-H ) :   0.9639 B(  8-N ,  9-C ) :   1.1841
B(  8-N , 28-H ) :   0.9495 B(  9-C , 10-S ) :   1.6101 B(  9-C , 11-N ) :   1.3007
B( 11-N , 12-C ) :   0.9925 B( 11-N , 29-H ) :   0.9516 B( 12-C , 13-C ) :   0.9444
B( 12-C , 30-H ) :   0.9988 B( 13-C , 14-C ) :   1.3770 B( 13-C , 19-C ) :   1.3666
B( 14-C , 15-C ) :   1.3935 B( 14-C , 31-H ) :   0.9636 B( 15-C , 16-C ) :   1.3634
B( 15-C , 32-H ) :   0.9706 B( 16-C , 17-C ) :   1.3313 B( 16-C , 33-H ) :   0.9852
B( 17-C , 18-O ) :   1.1093 B( 17-C , 19-C ) :   1.3739 B( 18-O , 34-H ) :   0.9800
B( 19-C , 35-H ) :   0.9582

MP2 TOTAL ENERGY:    -1274.327429270 Eh
FINAL SINGLE POINT ENERGY     -1274.327429269772

DIPOLE MOMENT
-------------
                                X             Y             Z
Electronic contribution:     10.29326      10.50850       8.12649
Nuclear contribution   :    -11.84440     -11.65842      -8.77674
                        -----------------------------------------
Total Dipole Moment    :     -1.55114      -1.14992      -0.65025
                        -----------------------------------------
Magnitude (a.u.)       :      2.03745
Magnitude (Debye)      :      5.17878

Rotational constants in cm-1:     0.011722     0.009028     0.006311
Rotational constants in MHz :   351.427815   270.645042   189.209623

                             ****ORCA TERMINATED NORMALLY****
TOTAL RUN TIME: 0 days 1 hours 40 minutes 50 seconds 361 msec
