                         Program Version 4.2.0 -  RELEASE  -
|  1> ! ri-mp2 cc-pvtz cc-pvtz/c TightSCF  NoKeepInts
|  2>
|  3> %scf
|  4>   MaxCore 4096
|  5> end
|  6> *xyz  0  1
|  7>     C       15.4053315   14.1524074   17.2416686
|  8>     C       16.4735111   14.0793068   16.1348137
|  9>     O       17.5382998   15.0118995   16.4134167
| 10>     C       17.3369735   16.3375788   16.1464613
| 11>     O       16.6553873   16.6916001   15.1995678
| 12>     C       17.6803376   17.2289019   17.3094924
| 13>     C       17.3458805   18.5450280   17.3436292
| 14>     C       16.5412183   19.3185123   16.3207932
| 15>     N       17.8027386   19.3554579   18.3878930
| 16>     C       18.7467158   18.9810132   19.3069965
| 17>     S       19.3712618   20.0471540   20.4066441
| 18>     N       19.1597448   17.6739208   19.2570785
| 19>     C       18.5153654   16.6218469   18.4501188
| 20>     C       17.7059873   15.7175836   19.3737563
| 21>     C       18.1755805   14.4293595   19.6928842
| 22>     C       17.4567033   13.6038034   20.5740855
| 23>     C       16.2590888   14.0704016   21.1426782
| 24>     C       15.7914986   15.3546726   20.8315478
| 25>     O       14.6363485   15.8085912   21.3794619
| 26>     C       16.5101966   16.1749179   19.9564468
| 27>     H       15.8169661   13.8204340   18.2001882
| 28>     H       14.5586629   13.5001124   16.9966818
| 29>     H       15.0232103   15.1742350   17.3576563
| 30>     H       16.8827279   13.0613836   16.1075133
| 31>     H       16.0213368   14.2824706   15.1542885
| 32>     H       15.5528356   18.8619230   16.1825690
| 33>     H       17.0452650   19.3087312   15.3459444
| 34>     H       16.3834994   20.3663489   16.6017679
| 35>     H       17.5180425   20.3210161   18.4293328
| 36>     H       19.8353724   17.4185391   19.9655952
| 37>     H       19.3135581   16.0201601   17.9930126
| 38>     H       19.1022327   14.0666294   19.2562053
| 39>     H       17.8284344   12.6092070   20.8145277
| 40>     H       15.7004200   13.4367898   21.8237036
| 41>     H       14.3175159   15.1290714   21.9923356
| 42>     H       16.1387504   17.1709910   19.7432436
| 43> *
| 44>
| 45>                          ****END OF INPUT****

CARTESIAN COORDINATES (ANGSTROEM)
---------------------------------
  C     15.405332   14.152407   17.241669
  C     16.473511   14.079307   16.134814
  O     17.538300   15.011900   16.413417
  C     17.336973   16.337579   16.146461
  O     16.655387   16.691600   15.199568
  C     17.680338   17.228902   17.309492
  C     17.345880   18.545028   17.343629
  C     16.541218   19.318512   16.320793
  N     17.802739   19.355458   18.387893
  C     18.746716   18.981013   19.306997
  S     19.371262   20.047154   20.406644
  N     19.159745   17.673921   19.257078
  C     18.515365   16.621847   18.450119
  C     17.705987   15.717584   19.373756
  C     18.175580   14.429359   19.692884
  C     17.456703   13.603803   20.574085
  C     16.259089   14.070402   21.142678
  C     15.791499   15.354673   20.831548
  O     14.636349   15.808591   21.379462
  C     16.510197   16.174918   19.956447
  H     15.816966   13.820434   18.200188
  H     14.558663   13.500112   16.996682
  H     15.023210   15.174235   17.357656
  H     16.882728   13.061384   16.107513
  H     16.021337   14.282471   15.154288
  H     15.552836   18.861923   16.182569
  H     17.045265   19.308731   15.345944
  H     16.383499   20.366349   16.601768
  H     17.518042   20.321016   18.429333
  H     19.835372   17.418539   19.965595
  H     19.313558   16.020160   17.993013
  H     19.102233   14.066629   19.256205
  H     17.828434   12.609207   20.814528
  H     15.700420   13.436790   21.823704
  H     14.317516   15.129071   21.992336
  H     16.138750   17.170991   19.743244

 Total Charge           Charge          ....    0
 Multiplicity           Mult            ....    1
 Number of Electrons    NEL             ....  154
 Basis Dimension        Dim             ....  828

ORBITAL ENERGIES
----------------

  NO   OCC          E(Eh)            E(eV)
   0   2.0000     -91.889812     -2500.4489
   1   2.0000     -20.598786      -560.5215
   2   2.0000     -20.592218      -560.3427
   3   2.0000     -20.544261      -559.0378
   4   2.0000     -15.630428      -425.3256
   5   2.0000     -15.608572      -424.7308
   6   2.0000     -11.394515      -310.0605
   7   2.0000     -11.384472      -309.7872
   8   2.0000     -11.337177      -308.5003
   9   2.0000     -11.315967      -307.9231
  10   2.0000     -11.310205      -307.7663
  11   2.0000     -11.294523      -307.3396
  12   2.0000     -11.261255      -306.4343
  13   2.0000     -11.260054      -306.4016
  14   2.0000     -11.257580      -306.3343
  15   2.0000     -11.252891      -306.2067
  16   2.0000     -11.245193      -305.9973
  17   2.0000     -11.239911      -305.8535
  18   2.0000     -11.239566      -305.8441
  19   2.0000     -11.220529      -305.3261
  20   2.0000      -8.894843      -242.0410
  21   2.0000      -6.576411      -178.9532
  22   2.0000      -6.574415      -178.8989
  23   2.0000      -6.573822      -178.8828
  24   2.0000      -1.449153       -39.4335
  25   2.0000      -1.418437       -38.5976
  26   2.0000      -1.352330       -36.7988
  27   2.0000      -1.341383       -36.5009
  28   2.0000      -1.239584       -33.7308
  29   2.0000      -1.159155       -31.5422
  30   2.0000      -1.120794       -30.4983
  31   2.0000      -1.043739       -28.4016
  32   2.0000      -1.032601       -28.0985
  33   2.0000      -1.017130       -27.6775
  34   2.0000      -0.997047       -27.1310
  35   2.0000      -0.985063       -26.8049
  36   2.0000      -0.923828       -25.1386
  37   2.0000      -0.892365       -24.2825
  38   2.0000      -0.847772       -23.0690
  39   2.0000      -0.840249       -22.8643
  40   2.0000      -0.835550       -22.7365
  41   2.0000      -0.814634       -22.1673
  42   2.0000      -0.754891       -20.5416
  43   2.0000      -0.733773       -19.9670
  44   2.0000      -0.722508       -19.6604
  45   2.0000      -0.698115       -18.9967
  46   2.0000      -0.690002       -18.7759
  47   2.0000      -0.677819       -18.4444
  48   2.0000      -0.668638       -18.1946
  49   2.0000      -0.666181       -18.1277
  50   2.0000      -0.648706       -17.6522
  51   2.0000      -0.643957       -17.5230
  52   2.0000      -0.636228       -17.3126
  53   2.0000      -0.609554       -16.5868
  54   2.0000      -0.605112       -16.4659
  55   2.0000      -0.600080       -16.3290
  56   2.0000      -0.599724       -16.3193
  57   2.0000      -0.579506       -15.7692
  58   2.0000      -0.571271       -15.5451
  59   2.0000      -0.565901       -15.3989
  60   2.0000      -0.555670       -15.1206
  61   2.0000      -0.545964       -14.8564
  62   2.0000      -0.536952       -14.6112
  63   2.0000      -0.527414       -14.3517
  64   2.0000      -0.527147       -14.3444
  65   2.0000      -0.514270       -13.9940
  66   2.0000      -0.503497       -13.7008
  67   2.0000      -0.499984       -13.6053
  68   2.0000      -0.476716       -12.9721
  69   2.0000      -0.464284       -12.6338
  70   2.0000      -0.452366       -12.3095
  71   2.0000      -0.444884       -12.1059
  72   2.0000      -0.356608        -9.7038
  73   2.0000      -0.351389        -9.5618
  74   2.0000      -0.329266        -8.9598
  75   2.0000      -0.324072        -8.8185
  76   2.0000      -0.316808        -8.6208
  77   0.0000       0.071598         1.9483
  78   0.0000       0.105071         2.8591
  79   0.0000       0.122220         3.3258
  80   0.0000       0.130962         3.5637
  81   0.0000       0.135909         3.6983

MULLIKEN ATOMIC CHARGES
-----------------------
   0 C :   -0.316435
   1 C :    0.031862
   2 O :   -0.375819
   3 C :    0.462377
   4 O :   -0.424006
   5 C :   -0.224957
   6 C :    0.150763
   7 C :   -0.269727
   8 N :   -0.123803
   9 C :    0.212426
  10 S :   -0.437780
  11 N :   -0.201211
  12 C :    0.042592
  13 C :    0.076357
  14 C :   -0.189056
  15 C :   -0.131118
  16 C :   -0.280832
  17 C :    0.314074
  18 O :   -0.358772
  19 C :   -0.261133
  20 H :    0.107088
  21 H :    0.113089
  22 H :    0.105503
  23 H :    0.108826
  24 H :    0.118964
  25 H :    0.129600
  26 H :    0.133839
  27 H :    0.094715
  28 H :    0.198475
  29 H :    0.193057
  30 H :    0.150274
  31 H :    0.149354
  32 H :    0.161540
  33 H :    0.131466
  34 H :    0.241471
  35 H :    0.166941
Sum of atomic charges:    0.0000000

LOEWDIN ATOMIC CHARGES
----------------------
   0 C :    0.105232
   1 C :   -0.015654
   2 O :    0.292567
   3 C :   -0.415986
   4 O :    0.105424
   5 C :   -0.096546
   6 C :   -0.058114
   7 C :    0.130928
   8 N :    0.407099
   9 C :   -0.456271
  10 S :   -0.033579
  11 N :    0.396627
  12 C :   -0.052812
  13 C :   -0.036522
  14 C :    0.011885
  15 C :    0.039799
  16 C :   -0.002537
  17 C :   -0.189481
  18 O :    0.396306
  19 C :    0.033812
  20 H :   -0.026707
  21 H :   -0.026167
  22 H :   -0.027990
  23 H :   -0.025008
  24 H :   -0.028811
  25 H :   -0.005541
  26 H :   -0.003323
  27 H :   -0.023343
  28 H :   -0.057567
  29 H :   -0.065303
  30 H :   -0.007735
  31 H :   -0.029823
  32 H :   -0.020715
  33 H :   -0.035286
  34 H :   -0.153292
  35 H :   -0.025567

  Mayer bond orders larger than 0.100000
B(  0-C ,  1-C ) :   0.9591 B(  0-C , 20-H ) :   0.9732 B(  0-C , 21-H ) :   0.9780
B(  0-C , 22-H ) :   0.9736 B(  1-C ,  2-O ) :   0.8853 B(  1-C , 23-H ) :   0.9851
B(  1-C , 24-H ) :   0.9801 B(  2-O ,  3-C ) :   1.1241 B(  3-C ,  4-O ) :   1.9850
B(  3-C ,  5-C ) :   1.0683 B(  5-C ,  6-C ) :   1.6524 B(  5-C , 12-C ) :   0.9735
B(  6-C ,  7-C ) :   0.9700 B(  6-C ,  8-N ) :   1.1573 B(  7-C , 25-H ) :   0.9623
B(  7-C , 26-H ) :   0.9581 B(  7-C , 27-H ) :   0.9897 B(  8-N ,  9-C ) :   1.1795
B(  8-N , 28-H ) :   0.9480 B(  9-C , 10-S ) :   1.6103 B(  9-C , 11-N ) :   1.3048
B( 11-N , 12-C ) :   0.9736 B( 11-N , 29-H ) :   0.9535 B( 12-C , 13-C ) :   0.9423
B( 12-C , 30-H ) :   1.0037 B( 13-C , 14-C ) :   1.3535 B( 13-C , 19-C ) :   1.3692
B( 14-C , 15-C ) :   1.3883 B( 14-C , 31-H ) :   0.9730 B( 15-C , 16-C ) :   1.3612
B( 15-C , 32-H ) :   0.9715 B( 16-C , 17-C ) :   1.3315 B( 16-C , 33-H ) :   0.9851
B( 17-C , 18-O ) :   1.1121 B( 17-C , 19-C ) :   1.3710 B( 18-O , 34-H ) :   0.9794
B( 19-C , 35-H ) :   0.9579

MP2 TOTAL ENERGY:    -1274.341828579 Eh
FINAL SINGLE POINT ENERGY     -1274.341828578609

DIPOLE MOMENT
-------------
                                X             Y             Z
Electronic contribution:      9.04072       9.96695       5.59482
Nuclear contribution   :     -9.94177     -11.65949      -5.72062
                        -----------------------------------------
Total Dipole Moment    :     -0.90105      -1.69254      -0.12580
                        -----------------------------------------
Magnitude (a.u.)       :      1.92156
Magnitude (Debye)      :      4.88422

Rotational constants in cm-1:     0.012134     0.009307     0.006547
Rotational constants in MHz :   363.768927   279.021672   196.261382

                             ****ORCA TERMINATED NORMALLY****
TOTAL RUN TIME: 0 days 1 hours 47 minutes 2 seconds 355 msec
