                         Program Version 5.0.0 -  RELEASE  -
|  1> ! ri-mp2 cc-pvtz cc-pvtz/c TightSCF NoKeepInts
|  2>
|  3> %scf
|  4>   MaxCore 4096
|  5> end
|  6> *xyz  0  1
|  7>     C       14.7936248   14.3250119   16.4699591
|  8>     C       15.6824972   14.8670533   15.3336820
|  9>     O       16.3963974   16.0165009   15.8243843
| 10>     C       17.5026388   15.8408270   16.6059573
| 11>     O       18.0708401   14.7646198   16.6998029
| 12>     C       17.8148289   16.9968554   17.5125115
| 13>     C       17.3604958   18.2667544   17.3455494
| 14>     C       16.4833395   18.8067639   16.2345667
| 15>     N       17.7626424   19.2699324   18.2337773
| 16>     C       18.7117623   19.1195353   19.2100313
| 17>     S       19.2179556   20.3922190   20.1372489
| 18>     N       19.2204678   17.8569059   19.3782318
| 19>     C       18.7147259   16.6472140   18.7029734
| 20>     C       17.9796874   15.7487118   19.6944298
| 21>     C       18.3583084   14.4027668   19.8529739
| 22>     C       17.6788933   13.5688387   20.7567559
| 23>     C       16.6102134   14.0841108   21.5097425
| 24>     C       16.2273175   15.4230055   21.3522585
| 25>     O       15.1912359   15.9217193   22.0727932
| 26>     C       16.9052811   16.2504730   20.4516825
| 27>     H       15.4056416   13.9670076   17.3081105
| 28>     H       14.1842926   13.4859471   16.1131522
| 29>     H       14.1193084   15.1059166   16.8426213
| 30>     H       16.3717550   14.0910086   14.9730235
| 31>     H       15.0422886   15.1693188   14.4951041
| 32>     H       16.8732113   18.5126156   15.2521544
| 33>     H       16.4193214   19.9016028   16.2394799
| 34>     H       15.4619511   18.4160582   16.3240220
| 35>     H       17.4005057   20.2039537   18.1271004
| 36>     H       19.8953100   17.7655146   20.1266511
| 37>     H       19.5834626   16.0952413   18.3158811
| 38>     H       19.1723962   13.9968006   19.2574136
| 39>     H       17.9778808   12.5278286   20.8649441
| 40>     H       16.0814159   13.4430107   22.2070630
| 41>     H       14.8811983   15.2162910   22.6601601
| 42>     H       16.5939068   17.2840651   20.3478063
| 43> *
| 44>
| 45>                          ****END OF INPUT****

CARTESIAN COORDINATES (ANGSTROEM)
---------------------------------
  C     14.793625   14.325012   16.469959
  C     15.682497   14.867053   15.333682
  O     16.396397   16.016501   15.824384
  C     17.502639   15.840827   16.605957
  O     18.070840   14.764620   16.699803
  C     17.814829   16.996855   17.512511
  C     17.360496   18.266754   17.345549
  C     16.483339   18.806764   16.234567
  N     17.762642   19.269932   18.233777
  C     18.711762   19.119535   19.210031
  S     19.217956   20.392219   20.137249
  N     19.220468   17.856906   19.378232
  C     18.714726   16.647214   18.702973
  C     17.979687   15.748712   19.694430
  C     18.358308   14.402767   19.852974
  C     17.678893   13.568839   20.756756
  C     16.610213   14.084111   21.509743
  C     16.227318   15.423005   21.352259
  O     15.191236   15.921719   22.072793
  C     16.905281   16.250473   20.451683
  H     15.405642   13.967008   17.308111
  H     14.184293   13.485947   16.113152
  H     14.119308   15.105917   16.842621
  H     16.371755   14.091009   14.973024
  H     15.042289   15.169319   14.495104
  H     16.873211   18.512616   15.252154
  H     16.419321   19.901603   16.239480
  H     15.461951   18.416058   16.324022
  H     17.400506   20.203954   18.127100
  H     19.895310   17.765515   20.126651
  H     19.583463   16.095241   18.315881
  H     19.172396   13.996801   19.257414
  H     17.977881   12.527829   20.864944
  H     16.081416   13.443011   22.207063
  H     14.881198   15.216291   22.660160
  H     16.593907   17.284065   20.347806

 Total Charge           Charge          ....    0
 Multiplicity           Mult            ....    1
 Number of Electrons    NEL             ....  154
 Basis Dimension        Dim             ....  828

ORBITAL ENERGIES
----------------

  NO   OCC          E(Eh)            E(eV)
   0   2.0000     -91.888173     -2500.4043
   1   2.0000     -20.602214      -560.6148
   2   2.0000     -20.592246      -560.3435
   3   2.0000     -20.546136      -559.0888
   4   2.0000     -15.628432      -425.2713
   5   2.0000     -15.606963      -424.6870
   6   2.0000     -11.396284      -310.1087
   7   2.0000     -11.383154      -309.7514
   8   2.0000     -11.336217      -308.4741
   9   2.0000     -11.308179      -307.7112
  10   2.0000     -11.305893      -307.6490
  11   2.0000     -11.299219      -307.4674
  12   2.0000     -11.260479      -306.4132
  13   2.0000     -11.258807      -306.3677
  14   2.0000     -11.253987      -306.2366
  15   2.0000     -11.248362      -306.0835
  16   2.0000     -11.238022      -305.8021
  17   2.0000     -11.234065      -305.6945
  18   2.0000     -11.231081      -305.6132
  19   2.0000     -11.226844      -305.4980
  20   2.0000      -8.893237      -241.9973
  21   2.0000      -6.574814      -178.9098
  22   2.0000      -6.572807      -178.8552
  23   2.0000      -6.572221      -178.8392
  24   2.0000      -1.453901       -39.5627
  25   2.0000      -1.411993       -38.4223
  26   2.0000      -1.357117       -36.9290
  27   2.0000      -1.339392       -36.4467
  28   2.0000      -1.237108       -33.6634
  29   2.0000      -1.152821       -31.3699
  30   2.0000      -1.119847       -30.4726
  31   2.0000      -1.042404       -28.3653
  32   2.0000      -1.034090       -28.1390
  33   2.0000      -1.010089       -27.4859
  34   2.0000      -0.997737       -27.1498
  35   2.0000      -0.983243       -26.7554
  36   2.0000      -0.921642       -25.0791
  37   2.0000      -0.893692       -24.3186
  38   2.0000      -0.847579       -23.0638
  39   2.0000      -0.835428       -22.7331
  40   2.0000      -0.828503       -22.5447
  41   2.0000      -0.814961       -22.1762
  42   2.0000      -0.754723       -20.5371
  43   2.0000      -0.736187       -20.0327
  44   2.0000      -0.725261       -19.7354
  45   2.0000      -0.691247       -18.8098
  46   2.0000      -0.685643       -18.6573
  47   2.0000      -0.679255       -18.4835
  48   2.0000      -0.671495       -18.2723
  49   2.0000      -0.656101       -17.8534
  50   2.0000      -0.651142       -17.7185
  51   2.0000      -0.644618       -17.5409
  52   2.0000      -0.632069       -17.1995
  53   2.0000      -0.610393       -16.6096
  54   2.0000      -0.600559       -16.3420
  55   2.0000      -0.599874       -16.3234
  56   2.0000      -0.595588       -16.2068
  57   2.0000      -0.580817       -15.8048
  58   2.0000      -0.574343       -15.6287
  59   2.0000      -0.563206       -15.3256
  60   2.0000      -0.557601       -15.1731
  61   2.0000      -0.549029       -14.9398
  62   2.0000      -0.534151       -14.5350
  63   2.0000      -0.531856       -14.4725
  64   2.0000      -0.517463       -14.0809
  65   2.0000      -0.509431       -13.8623
  66   2.0000      -0.497573       -13.5397
  67   2.0000      -0.494826       -13.4649
  68   2.0000      -0.481983       -13.1154
  69   2.0000      -0.463352       -12.6085
  70   2.0000      -0.459860       -12.5134
  71   2.0000      -0.451985       -12.2991
  72   2.0000      -0.354262        -9.6399
  73   2.0000      -0.344630        -9.3779
  74   2.0000      -0.327324        -8.9069
  75   2.0000      -0.315944        -8.5973
  76   2.0000      -0.314350        -8.5539
  77   0.0000       0.075824         2.0633
  78   0.0000       0.112074         3.0497
  79   0.0000       0.120361         3.2752
  80   0.0000       0.135396         3.6843
  81   0.0000       0.142006         3.8642

MULLIKEN ATOMIC CHARGES
-----------------------
   0 C :   -0.289590
   1 C :    0.025424
   2 O :   -0.352302
   3 C :    0.441964
   4 O :   -0.428329
   5 C :   -0.167386
   6 C :    0.141514
   7 C :   -0.283862
   8 N :   -0.122320
   9 C :    0.202377
  10 S :   -0.439287
  11 N :   -0.198826
  12 C :    0.040908
  13 C :    0.054076
  14 C :   -0.162946
  15 C :   -0.134534
  16 C :   -0.279860
  17 C :    0.312538
  18 O :   -0.358939
  19 C :   -0.273222
  20 H :    0.118849
  21 H :    0.094732
  22 H :    0.092714
  23 H :    0.113093
  24 H :    0.106415
  25 H :    0.126494
  26 H :    0.101531
  27 H :    0.126969
  28 H :    0.196902
  29 H :    0.193909
  30 H :    0.153698
  31 H :    0.154189
  32 H :    0.159614
  33 H :    0.128633
  34 H :    0.240128
  35 H :    0.164734
Sum of atomic charges:    0.0000000

LOEWDIN ATOMIC CHARGES
----------------------
   0 C :    0.105922
   1 C :   -0.018126
   2 O :    0.305146
   3 C :   -0.414435
   4 O :    0.103853
   5 C :   -0.091029
   6 C :   -0.066296
   7 C :    0.125311
   8 N :    0.404793
   9 C :   -0.458551
  10 S :   -0.035963
  11 N :    0.397840
  12 C :   -0.046291
  13 C :   -0.039378
  14 C :    0.021799
  15 C :    0.040344
  16 C :   -0.002402
  17 C :   -0.192686
  18 O :    0.393159
  19 C :    0.028650
  20 H :   -0.022416
  21 H :   -0.026422
  22 H :   -0.029255
  23 H :   -0.027625
  24 H :   -0.026650
  25 H :   -0.008225
  26 H :   -0.020983
  27 H :   -0.009989
  28 H :   -0.059089
  29 H :   -0.063687
  30 H :   -0.005055
  31 H :   -0.025177
  32 H :   -0.021113
  33 H :   -0.036261
  34 H :   -0.154822
  35 H :   -0.024892

  Mayer bond orders larger than 0.100000
B(  0-C ,  1-C ) :   0.9635 B(  0-C , 20-H ) :   0.9737 B(  0-C , 21-H ) :   0.9758
B(  0-C , 22-H ) :   0.9776 B(  1-C ,  2-O ) :   0.8917 B(  1-C , 23-H ) :   0.9771
B(  1-C , 24-H ) :   0.9844 B(  2-O ,  3-C ) :   1.1492 B(  3-C ,  4-O ) :   1.9834
B(  3-C ,  5-C ) :   1.0490 B(  5-C ,  6-C ) :   1.6477 B(  5-C , 12-C ) :   0.9666
B(  6-C ,  7-C ) :   0.9555 B(  6-C ,  8-N ) :   1.1475 B(  7-C , 25-H ) :   0.9662
B(  7-C , 26-H ) :   0.9907 B(  7-C , 27-H ) :   0.9634 B(  8-N ,  9-C ) :   1.1793
B(  8-N , 28-H ) :   0.9489 B(  9-C , 10-S ) :   1.6107 B(  9-C , 11-N ) :   1.3038
B( 11-N , 12-C ) :   0.9922 B( 11-N , 29-H ) :   0.9518 B( 12-C , 13-C ) :   0.9452
B( 12-C , 30-H ) :   0.9999 B( 13-C , 14-C ) :   1.3756 B( 13-C , 19-C ) :   1.3701
B( 14-C , 15-C ) :   1.3946 B( 14-C , 31-H ) :   0.9646 B( 15-C , 16-C ) :   1.3623
B( 15-C , 32-H ) :   0.9713 B( 16-C , 17-C ) :   1.3313 B( 16-C , 33-H ) :   0.9858
B( 17-C , 18-O ) :   1.1082 B( 17-C , 19-C ) :   1.3782 B( 18-O , 34-H ) :   0.9805
B( 19-C , 35-H ) :   0.9584

MP2 TOTAL ENERGY:    -1274.347964889 Eh
FINAL SINGLE POINT ENERGY     -1274.347964889286

DIPOLE MOMENT
-------------
                                X             Y             Z
Electronic contribution:     10.83216       9.67635       8.48037
Nuclear contribution   :    -12.30788     -10.92694      -9.51236
                        -----------------------------------------
Total Dipole Moment    :     -1.47572      -1.25059      -1.03199
                        -----------------------------------------
Magnitude (a.u.)       :      2.19243
Magnitude (Debye)      :      5.57271

Rotational constants in cm-1:     0.011004     0.009221     0.006202
Rotational constants in MHz :   329.878265   276.449467   185.924393

                             ****ORCA TERMINATED NORMALLY****
TOTAL RUN TIME: 0 days 1 hours 30 minutes 0 seconds 607 msec
