                         Program Version 4.2.0 -  RELEASE  -
|  1> ! ri-mp2 cc-pvtz cc-pvtz/c TightSCF  NoKeepInts
|  2>
|  3> %scf
|  4>   MaxCore 4096
|  5> end
|  6> *xyz  0  1
|  7>     C       15.8091730   14.4273302   14.2345631
|  8>     C       15.1247463   14.7686728   15.5708475
|  9>     O       15.8724079   15.8243338   16.2020610
| 10>     C       16.9033899   15.5202989   17.0449269
| 11>     O       17.2638189   14.3721020   17.2490884
| 12>     C       17.5416988   16.6992101   17.7263767
| 13>     C       17.3066244   18.0058558   17.4308206
| 14>     C       16.3748074   18.5801966   16.3829311
| 15>     N       18.0208852   19.0071745   18.0980556
| 16>     C       19.0757543   18.7884469   18.9439089
| 17>     S       19.9543303   20.0354035   19.5833505
| 18>     N       19.3644077   17.4793402   19.2324586
| 19>     C       18.5323788   16.3279403   18.8367564
| 20>     C       17.8085236   15.7501683   20.0504474
| 21>     C       17.9337000   14.3857374   20.3711705
| 22>     C       17.2691002   13.8474433   21.4858355
| 23>     C       16.4713110   14.6801478   22.2887573
| 24>     C       16.3408063   16.0388504   21.9710648
| 25>     O       15.5664289   16.8443924   22.7410428
| 26>     C       17.0031498   16.5716310   20.8606710
| 27>     H       15.8846845   15.3170983   13.5974554
| 28>     H       15.2361659   13.6643352   13.6939098
| 29>     H       16.8197644   14.0353724   14.4062880
| 30>     H       14.1062545   15.1217440   15.3646194
| 31>     H       15.0516212   13.8810646   16.2146159
| 32>     H       16.6073191   18.1733085   15.3909135
| 33>     H       16.4416028   19.6722297   16.3072756
| 34>     H       15.3314637   18.3327680   16.6153328
| 35>     H       17.8241082   19.9750158   17.8995839
| 36>     H       20.1260416   17.3443672   19.8848235
| 37>     H       19.2063759   15.5552282   18.4394000
| 38>     H       18.5363044   13.7357453   19.7413555
| 39>     H       17.3692997   12.7889216   21.7187670
| 40>     H       15.9546816   14.2681369   23.1491108
| 41>     H       15.2228725   16.3053574   23.4691353
| 42>     H       16.8909975   17.6266307   20.6362791
| 43> *
| 44>
| 45>                          ****END OF INPUT****

CARTESIAN COORDINATES (ANGSTROEM)
---------------------------------
  C     15.809173   14.427330   14.234563
  C     15.124746   14.768673   15.570847
  O     15.872408   15.824334   16.202061
  C     16.903390   15.520299   17.044927
  O     17.263819   14.372102   17.249088
  C     17.541699   16.699210   17.726377
  C     17.306624   18.005856   17.430821
  C     16.374807   18.580197   16.382931
  N     18.020885   19.007174   18.098056
  C     19.075754   18.788447   18.943909
  S     19.954330   20.035404   19.583351
  N     19.364408   17.479340   19.232459
  C     18.532379   16.327940   18.836756
  C     17.808524   15.750168   20.050447
  C     17.933700   14.385737   20.371171
  C     17.269100   13.847443   21.485836
  C     16.471311   14.680148   22.288757
  C     16.340806   16.038850   21.971065
  O     15.566429   16.844392   22.741043
  C     17.003150   16.571631   20.860671
  H     15.884685   15.317098   13.597455
  H     15.236166   13.664335   13.693910
  H     16.819764   14.035372   14.406288
  H     14.106254   15.121744   15.364619
  H     15.051621   13.881065   16.214616
  H     16.607319   18.173309   15.390913
  H     16.441603   19.672230   16.307276
  H     15.331464   18.332768   16.615333
  H     17.824108   19.975016   17.899584
  H     20.126042   17.344367   19.884823
  H     19.206376   15.555228   18.439400
  H     18.536304   13.735745   19.741356
  H     17.369300   12.788922   21.718767
  H     15.954682   14.268137   23.149111
  H     15.222872   16.305357   23.469135
  H     16.890998   17.626631   20.636279

 Total Charge           Charge          ....    0
 Multiplicity           Mult            ....    1
 Number of Electrons    NEL             ....  154
 Basis Dimension        Dim             ....  828

ORBITAL ENERGIES
----------------

  NO   OCC          E(Eh)            E(eV)
   0   2.0000     -91.888124     -2500.4030
   1   2.0000     -20.605065      -560.6923
   2   2.0000     -20.590585      -560.2983
   3   2.0000     -20.544870      -559.0543
   4   2.0000     -15.628720      -425.2791
   5   2.0000     -15.606539      -424.6755
   6   2.0000     -11.396910      -310.1257
   7   2.0000     -11.382831      -309.7426
   8   2.0000     -11.337473      -308.5083
   9   2.0000     -11.306363      -307.6618
  10   2.0000     -11.304922      -307.6226
  11   2.0000     -11.300204      -307.4942
  12   2.0000     -11.261076      -306.4295
  13   2.0000     -11.258949      -306.3716
  14   2.0000     -11.252412      -306.1937
  15   2.0000     -11.246477      -306.0322
  16   2.0000     -11.236155      -305.7513
  17   2.0000     -11.232370      -305.6483
  18   2.0000     -11.229240      -305.5631
  19   2.0000     -11.228999      -305.5566
  20   2.0000      -8.893181      -241.9958
  21   2.0000      -6.574757      -178.9082
  22   2.0000      -6.572752      -178.8537
  23   2.0000      -6.572165      -178.8377
  24   2.0000      -1.454596       -39.5816
  25   2.0000      -1.410317       -38.3767
  26   2.0000      -1.357403       -36.9368
  27   2.0000      -1.339566       -36.4514
  28   2.0000      -1.236971       -33.6597
  29   2.0000      -1.151198       -31.3257
  30   2.0000      -1.119166       -30.4540
  31   2.0000      -1.042466       -28.3670
  32   2.0000      -1.035356       -28.1735
  33   2.0000      -1.008497       -27.4426
  34   2.0000      -0.997158       -27.1340
  35   2.0000      -0.982728       -26.7414
  36   2.0000      -0.920868       -25.0581
  37   2.0000      -0.893426       -24.3114
  38   2.0000      -0.847601       -23.0644
  39   2.0000      -0.834602       -22.7107
  40   2.0000      -0.826767       -22.4975
  41   2.0000      -0.816455       -22.2169
  42   2.0000      -0.757208       -20.6047
  43   2.0000      -0.735530       -20.0148
  44   2.0000      -0.724187       -19.7061
  45   2.0000      -0.689883       -18.7727
  46   2.0000      -0.684863       -18.6361
  47   2.0000      -0.679854       -18.4998
  48   2.0000      -0.671805       -18.2807
  49   2.0000      -0.656783       -17.8720
  50   2.0000      -0.647853       -17.6290
  51   2.0000      -0.642053       -17.4711
  52   2.0000      -0.629881       -17.1399
  53   2.0000      -0.613088       -16.6830
  54   2.0000      -0.599791       -16.3211
  55   2.0000      -0.598503       -16.2861
  56   2.0000      -0.593859       -16.1597
  57   2.0000      -0.584506       -15.9052
  58   2.0000      -0.572114       -15.5680
  59   2.0000      -0.564485       -15.3604
  60   2.0000      -0.560729       -15.2582
  61   2.0000      -0.545420       -14.8416
  62   2.0000      -0.533933       -14.5290
  63   2.0000      -0.532975       -14.5030
  64   2.0000      -0.516264       -14.0483
  65   2.0000      -0.509657       -13.8685
  66   2.0000      -0.499378       -13.5888
  67   2.0000      -0.494788       -13.4639
  68   2.0000      -0.480237       -13.0679
  69   2.0000      -0.464388       -12.6366
  70   2.0000      -0.456380       -12.4187
  71   2.0000      -0.454880       -12.3779
  72   2.0000      -0.354450        -9.6451
  73   2.0000      -0.343124        -9.3369
  74   2.0000      -0.327177        -8.9029
  75   2.0000      -0.315444        -8.5837
  76   2.0000      -0.312702        -8.5091
  77   0.0000       0.075894         2.0652
  78   0.0000       0.114750         3.1225
  79   0.0000       0.121292         3.3005
  80   0.0000       0.136722         3.7204
  81   0.0000       0.140733         3.8295

MULLIKEN ATOMIC CHARGES
-----------------------
   0 C :   -0.287631
   1 C :    0.027885
   2 O :   -0.343604
   3 C :    0.458266
   4 O :   -0.439962
   5 C :   -0.183039
   6 C :    0.146384
   7 C :   -0.283899
   8 N :   -0.119699
   9 C :    0.200622
  10 S :   -0.438781
  11 N :   -0.196092
  12 C :    0.032000
  13 C :    0.059204
  14 C :   -0.160011
  15 C :   -0.133886
  16 C :   -0.278524
  17 C :    0.311730
  18 O :   -0.359271
  19 C :   -0.272507
  20 H :    0.091128
  21 H :    0.096777
  22 H :    0.111036
  23 H :    0.106191
  24 H :    0.112385
  25 H :    0.126504
  26 H :    0.101554
  27 H :    0.128908
  28 H :    0.196590
  29 H :    0.193443
  30 H :    0.153223
  31 H :    0.152792
  32 H :    0.158575
  33 H :    0.127621
  34 H :    0.239937
  35 H :    0.164152
Sum of atomic charges:   -0.0000000

LOEWDIN ATOMIC CHARGES
----------------------
   0 C :    0.104317
   1 C :   -0.016289
   2 O :    0.308185
   3 C :   -0.414056
   4 O :    0.099743
   5 C :   -0.090652
   6 C :   -0.063662
   7 C :    0.124856
   8 N :    0.405065
   9 C :   -0.459293
  10 S :   -0.035606
  11 N :    0.398107
  12 C :   -0.046819
  13 C :   -0.038728
  14 C :    0.022398
  15 C :    0.040909
  16 C :   -0.002182
  17 C :   -0.192441
  18 O :    0.392946
  19 C :    0.028422
  20 H :   -0.030379
  21 H :   -0.026044
  22 H :   -0.024241
  23 H :   -0.026963
  24 H :   -0.026256
  25 H :   -0.009164
  26 H :   -0.021349
  27 H :   -0.009089
  28 H :   -0.059248
  29 H :   -0.063526
  30 H :   -0.005354
  31 H :   -0.025441
  32 H :   -0.021361
  33 H :   -0.036486
  34 H :   -0.154998
  35 H :   -0.025321

  Mayer bond orders larger than 0.100000
B(  0-C ,  1-C ) :   0.9644 B(  0-C , 20-H ) :   0.9782 B(  0-C , 21-H ) :   0.9761
B(  0-C , 22-H ) :   0.9763 B(  1-C ,  2-O ) :   0.8925 B(  1-C , 23-H ) :   0.9848
B(  1-C , 24-H ) :   0.9749 B(  2-O ,  3-C ) :   1.1667 B(  3-C ,  4-O ) :   1.9493
B(  3-C ,  5-C ) :   1.0791 B(  5-C ,  6-C ) :   1.6401 B(  5-C , 12-C ) :   0.9681
B(  6-C ,  7-C ) :   0.9561 B(  6-C ,  8-N ) :   1.1548 B(  7-C , 25-H ) :   0.9646
B(  7-C , 26-H ) :   0.9913 B(  7-C , 27-H ) :   0.9641 B(  8-N ,  9-C ) :   1.1761
B(  8-N , 28-H ) :   0.9486 B(  9-C , 10-S ) :   1.6112 B(  9-C , 11-N ) :   1.3054
B( 11-N , 12-C ) :   0.9933 B( 11-N , 29-H ) :   0.9519 B( 12-C , 13-C ) :   0.9471
B( 12-C , 30-H ) :   1.0009 B( 13-C , 14-C ) :   1.3744 B( 13-C , 19-C ) :   1.3695
B( 14-C , 15-C ) :   1.3946 B( 14-C , 31-H ) :   0.9653 B( 15-C , 16-C ) :   1.3624
B( 15-C , 32-H ) :   0.9716 B( 16-C , 17-C ) :   1.3316 B( 16-C , 33-H ) :   0.9861
B( 17-C , 18-O ) :   1.1078 B( 17-C , 19-C ) :   1.3796 B( 18-O , 34-H ) :   0.9807
B( 19-C , 35-H ) :   0.9584

MP2 TOTAL ENERGY:    -1274.349820484 Eh
FINAL SINGLE POINT ENERGY     -1274.349820484290

DIPOLE MOMENT
-------------
                                X             Y             Z
Electronic contribution:      9.51924       8.58009      12.67927
Nuclear contribution   :    -11.22243      -9.62552     -13.60219
                        -----------------------------------------
Total Dipole Moment    :     -1.70319      -1.04543      -0.92292
                        -----------------------------------------
Magnitude (a.u.)       :      2.20127
Magnitude (Debye)      :      5.59517

Rotational constants in cm-1:     0.010612     0.008628     0.005674
Rotational constants in MHz :   318.143159   258.648020   170.096521

                             ****ORCA TERMINATED NORMALLY****
TOTAL RUN TIME: 0 days 1 hours 39 minutes 23 seconds 663 msec
