                         Program Version 4.2.0 -  RELEASE  -
|  1> ! ri-mp2 cc-pvtz cc-pvtz/c TightSCF  NoKeepInts
|  2>
|  3> %scf
|  4>   MaxCore 4096
|  5> end
|  6> *xyz  0  1
|  7>     C       15.7622038   13.4854248   15.0829356
|  8>     C       15.2769114   14.6354483   15.9842691
|  9>     O       16.4087483   15.3689485   16.4997621
| 10>     C       16.1246043   16.4261467   17.3216694
| 11>     O       14.9944671   16.8465912   17.5037891
| 12>     C       17.3267865   17.2125366   17.7094287
| 13>     C       17.4473389   18.4928635   17.2902023
| 14>     C       16.5543030   19.1867372   16.2835375
| 15>     N       18.4751180   19.2982799   17.7841982
| 16>     C       19.3056473   18.9363018   18.8121241
| 17>     S       20.3393838   20.0168634   19.5175851
| 18>     N       19.1960017   17.6440750   19.2665086
| 19>     C       18.3436404   16.5945301   18.6746696
| 20>     C       17.7406068   15.7479089   19.7924792
| 21>     C       18.3137845   14.5022661   20.1132032
| 22>     C       17.8157631   13.7344788   21.1798897
| 23>     C       16.7294780   14.2123325   21.9312002
| 24>     C       16.1650344   15.4584551   21.6260491
| 25>     O       15.1223459   15.9233078   22.3587027
| 26>     C       16.6724012   16.2277583   20.5724210
| 27>     H       16.6966225   13.7440977   14.5681290
| 28>     H       15.0053689   13.2586333   14.3183864
| 29>     H       15.9252958   12.5832218   15.6856554
| 30>     H       14.6459756   15.3105383   15.3876854
| 31>     H       14.6691606   14.2400245   16.8089965
| 32>     H       16.2099820   18.4809432   15.5158515
| 33>     H       17.0772297   19.9974723   15.7598752
| 34>     H       15.6614262   19.5986525   16.7724878
| 35>     H       18.5451760   20.2583935   17.4857067
| 36>     H       19.7402075   17.4344338   20.0938305
| 37>     H       18.9926266   15.9445665   18.0720704
| 38>     H       19.1614339   14.1326915   19.5426598
| 39>     H       18.2725677   12.7767393   21.4246495
| 40>     H       16.3394369   13.6233459   22.7555760
| 41>     H       14.8577677   15.2179045   22.9680116
| 42>     H       16.2321540   17.1990868   20.3698038
| 43> *
| 44>
| 45>                          ****END OF INPUT****

CARTESIAN COORDINATES (ANGSTROEM)
---------------------------------
  C     15.762204   13.485425   15.082936
  C     15.276911   14.635448   15.984269
  O     16.408748   15.368949   16.499762
  C     16.124604   16.426147   17.321669
  O     14.994467   16.846591   17.503789
  C     17.326786   17.212537   17.709429
  C     17.447339   18.492863   17.290202
  C     16.554303   19.186737   16.283538
  N     18.475118   19.298280   17.784198
  C     19.305647   18.936302   18.812124
  S     20.339384   20.016863   19.517585
  N     19.196002   17.644075   19.266509
  C     18.343640   16.594530   18.674670
  C     17.740607   15.747909   19.792479
  C     18.313784   14.502266   20.113203
  C     17.815763   13.734479   21.179890
  C     16.729478   14.212333   21.931200
  C     16.165034   15.458455   21.626049
  O     15.122346   15.923308   22.358703
  C     16.672401   16.227758   20.572421
  H     16.696623   13.744098   14.568129
  H     15.005369   13.258633   14.318386
  H     15.925296   12.583222   15.685655
  H     14.645976   15.310538   15.387685
  H     14.669161   14.240025   16.808996
  H     16.209982   18.480943   15.515852
  H     17.077230   19.997472   15.759875
  H     15.661426   19.598653   16.772488
  H     18.545176   20.258394   17.485707
  H     19.740208   17.434434   20.093830
  H     18.992627   15.944567   18.072070
  H     19.161434   14.132691   19.542660
  H     18.272568   12.776739   21.424650
  H     16.339437   13.623346   22.755576
  H     14.857768   15.217904   22.968012
  H     16.232154   17.199087   20.369804

 Total Charge           Charge          ....    0
 Multiplicity           Mult            ....    1
 Number of Electrons    NEL             ....  154
 Basis Dimension        Dim             ....  828

ORBITAL ENERGIES
----------------

  NO   OCC          E(Eh)            E(eV)
   0   2.0000     -91.884285     -2500.2985
   1   2.0000     -20.608599      -560.7885
   2   2.0000     -20.596439      -560.4576
   3   2.0000     -20.551154      -559.2253
   4   2.0000     -15.620618      -425.0586
   5   2.0000     -15.604944      -424.6321
   6   2.0000     -11.393988      -310.0462
   7   2.0000     -11.380199      -309.6710
   8   2.0000     -11.321658      -308.0780
   9   2.0000     -11.315275      -307.9043
  10   2.0000     -11.311132      -307.7916
  11   2.0000     -11.296614      -307.3965
  12   2.0000     -11.264458      -306.5215
  13   2.0000     -11.257550      -306.3335
  14   2.0000     -11.254156      -306.2412
  15   2.0000     -11.253629      -306.2268
  16   2.0000     -11.246649      -306.0369
  17   2.0000     -11.243397      -305.9484
  18   2.0000     -11.241229      -305.8894
  19   2.0000     -11.233009      -305.6657
  20   2.0000      -8.889438      -241.8939
  21   2.0000      -6.571032      -178.8069
  22   2.0000      -6.569011      -178.7519
  23   2.0000      -6.568438      -178.7363
  24   2.0000      -1.454954       -39.5913
  25   2.0000      -1.416419       -38.5427
  26   2.0000      -1.359225       -36.9864
  27   2.0000      -1.333637       -36.2901
  28   2.0000      -1.233831       -33.5743
  29   2.0000      -1.159506       -31.5518
  30   2.0000      -1.120085       -30.4791
  31   2.0000      -1.044917       -28.4336
  32   2.0000      -1.039868       -28.2962
  33   2.0000      -1.016899       -27.6712
  34   2.0000      -0.996795       -27.1242
  35   2.0000      -0.982518       -26.7357
  36   2.0000      -0.921791       -25.0832
  37   2.0000      -0.886880       -24.1332
  38   2.0000      -0.844279       -22.9740
  39   2.0000      -0.836300       -22.7569
  40   2.0000      -0.835016       -22.7219
  41   2.0000      -0.818084       -22.2612
  42   2.0000      -0.763118       -20.7655
  43   2.0000      -0.732344       -19.9281
  44   2.0000      -0.724481       -19.7141
  45   2.0000      -0.696481       -18.9522
  46   2.0000      -0.685915       -18.6647
  47   2.0000      -0.680773       -18.5248
  48   2.0000      -0.676920       -18.4199
  49   2.0000      -0.666159       -18.1271
  50   2.0000      -0.651648       -17.7322
  51   2.0000      -0.646768       -17.5995
  52   2.0000      -0.631582       -17.1862
  53   2.0000      -0.608089       -16.5469
  54   2.0000      -0.601460       -16.3666
  55   2.0000      -0.598297       -16.2805
  56   2.0000      -0.588403       -16.0112
  57   2.0000      -0.577037       -15.7020
  58   2.0000      -0.573438       -15.6040
  59   2.0000      -0.570155       -15.5147
  60   2.0000      -0.564799       -15.3690
  61   2.0000      -0.553176       -15.0527
  62   2.0000      -0.539819       -14.6892
  63   2.0000      -0.526133       -14.3168
  64   2.0000      -0.515084       -14.0161
  65   2.0000      -0.508738       -13.8435
  66   2.0000      -0.506960       -13.7951
  67   2.0000      -0.497438       -13.5360
  68   2.0000      -0.489487       -13.3196
  69   2.0000      -0.460812       -12.5393
  70   2.0000      -0.460317       -12.5259
  71   2.0000      -0.455483       -12.3943
  72   2.0000      -0.353199        -9.6110
  73   2.0000      -0.348034        -9.4705
  74   2.0000      -0.326066        -8.8727
  75   2.0000      -0.322301        -8.7702
  76   2.0000      -0.312646        -8.5075
  77   0.0000       0.093836         2.5534
  78   0.0000       0.103160         2.8071
  79   0.0000       0.122465         3.3324
  80   0.0000       0.131826         3.5872
  81   0.0000       0.134948         3.6721

MULLIKEN ATOMIC CHARGES
-----------------------
   0 C :   -0.268543
   1 C :    0.053765
   2 O :   -0.334152
   3 C :    0.380264
   4 O :   -0.408334
   5 C :   -0.122748
   6 C :    0.136160
   7 C :   -0.285856
   8 N :   -0.135059
   9 C :    0.223331
  10 S :   -0.450292
  11 N :   -0.219252
  12 C :    0.100001
  13 C :   -0.047912
  14 C :   -0.188902
  15 C :   -0.131437
  16 C :   -0.267992
  17 C :    0.306582
  18 O :   -0.352166
  19 C :   -0.198598
  20 H :    0.100674
  21 H :    0.093043
  22 H :    0.095832
  23 H :    0.082862
  24 H :    0.091288
  25 H :    0.114356
  26 H :    0.099509
  27 H :    0.138394
  28 H :    0.194612
  29 H :    0.202809
  30 H :    0.142062
  31 H :    0.152942
  32 H :    0.160891
  33 H :    0.131561
  34 H :    0.239886
  35 H :    0.170421
Sum of atomic charges:   -0.0000000

LOEWDIN ATOMIC CHARGES
----------------------
   0 C :    0.108655
   1 C :   -0.015893
   2 O :    0.292957
   3 C :   -0.414441
   4 O :    0.116702
   5 C :   -0.083540
   6 C :   -0.086447
   7 C :    0.128728
   8 N :    0.402068
   9 C :   -0.450764
  10 S :   -0.042718
  11 N :    0.392610
  12 C :   -0.049307
  13 C :   -0.044334
  14 C :    0.011970
  15 C :    0.041301
  16 C :    0.004013
  17 C :   -0.187711
  18 O :    0.397760
  19 C :    0.042650
  20 H :   -0.025084
  21 H :   -0.022638
  22 H :   -0.028080
  23 H :   -0.031454
  24 H :   -0.027930
  25 H :   -0.008301
  26 H :   -0.019700
  27 H :   -0.006370
  28 H :   -0.058729
  29 H :   -0.066254
  30 H :   -0.015403
  31 H :   -0.028944
  32 H :   -0.020162
  33 H :   -0.033473
  34 H :   -0.153712
  35 H :   -0.018022

  Mayer bond orders larger than 0.100000
B(  0-C ,  1-C ) :   0.9511 B(  0-C , 20-H ) :   0.9738 B(  0-C , 21-H ) :   0.9823
B(  0-C , 22-H ) :   0.9857 B(  1-C ,  2-O ) :   0.9103 B(  1-C , 23-H ) :   0.9823
B(  1-C , 24-H ) :   0.9798 B(  2-O ,  3-C ) :   1.2014 B(  3-C ,  4-O ) :   1.9988
B(  3-C ,  5-C ) :   0.9323 B(  5-C ,  6-C ) :   1.7232 B(  5-C , 12-C ) :   0.9628
B(  6-C ,  7-C ) :   0.9493 B(  6-C ,  8-N ) :   1.1323 B(  7-C , 25-H ) :   0.9756
B(  7-C , 26-H ) :   0.9853 B(  7-C , 27-H ) :   0.9624 B(  8-N ,  9-C ) :   1.2008
B(  8-N , 28-H ) :   0.9516 B(  9-C , 10-S ) :   1.5941 B(  9-C , 11-N ) :   1.3011
B( 11-N , 12-C ) :   0.9711 B( 11-N , 29-H ) :   0.9446 B( 12-C , 13-C ) :   0.9746
B( 12-C , 30-H ) :   0.9953 B( 13-C , 14-C ) :   1.3648 B( 13-C , 19-C ) :   1.3692
B( 14-C , 15-C ) :   1.3947 B( 14-C , 31-H ) :   0.9724 B( 15-C , 16-C ) :   1.3674
B( 15-C , 32-H ) :   0.9704 B( 16-C , 17-C ) :   1.3289 B( 16-C , 33-H ) :   0.9847
B( 17-C , 18-O ) :   1.1060 B( 17-C , 19-C ) :   1.3635 B( 18-O , 34-H ) :   0.9800
B( 19-C , 35-H ) :   0.9564

MP2 TOTAL ENERGY:    -1274.337114534 Eh
FINAL SINGLE POINT ENERGY     -1274.337114534360

DIPOLE MOMENT
-------------
                                X             Y             Z
Electronic contribution:      8.14711      10.86514      11.22886
Nuclear contribution   :     -9.10388     -12.86224     -12.03277
                        -----------------------------------------
Total Dipole Moment    :     -0.95677      -1.99710      -0.80391
                        -----------------------------------------
Magnitude (a.u.)       :      2.35586
Magnitude (Debye)      :      5.98812

Rotational constants in cm-1:     0.010356     0.008551     0.005734
Rotational constants in MHz :   310.474597   256.361552   171.892811

                             ****ORCA TERMINATED NORMALLY****
TOTAL RUN TIME: 0 days 1 hours 35 minutes 13 seconds 714 msec
