                         Program Version 4.2.0 -  RELEASE  -
|  1> ! ri-mp2 cc-pvtz cc-pvtz/c TightSCF  NoKeepInts
|  2>
|  3> %scf
|  4>   MaxCore 4096
|  5> end
|  6> *xyz  0  1
|  7>     C       15.2219417   15.2178356   17.4201841
|  8>     C       15.5253841   15.3687694   15.9144647
|  9>     O       16.9391404   15.3785168   15.5920315
| 10>     C       17.9724098   15.5921316   16.4682966
| 11>     O       18.8555581   14.7603814   16.5719610
| 12>     C       17.9176483   16.7959636   17.3661500
| 13>     C       17.3774748   17.9924989   17.0191033
| 14>     C       16.7755163   18.4037347   15.6916671
| 15>     N       17.4503682   19.0713321   17.9049114
| 16>     C       18.1938368   19.0916850   19.0548493
| 17>     S       18.3227561   20.4534775   19.9838455
| 18>     N       18.8268932   17.9232324   19.3941014
| 19>     C       18.6325553   16.6280165   18.7142725
| 20>     C       17.9019555   15.6396667   19.6214121
| 21>     C       18.3274928   14.3002486   19.6944506
| 22>     C       17.6561569   13.3768142   20.5128430
| 23>     C       16.5480567   13.7944854   21.2687687
| 24>     C       16.1205799   15.1270593   21.2014908
| 25>     O       15.0450471   15.5319957   21.9224855
| 26>     C       16.7911385   16.0443506   20.3862916
| 27>     H       15.8287585   14.4214602   17.8703682
| 28>     H       14.1680730   14.9506215   17.5644282
| 29>     H       15.3921735   16.1533483   17.9630089
| 30>     H       15.0661540   14.5251989   15.3826125
| 31>     H       15.0412124   16.2763769   15.5377067
| 32>     H       17.0973514   17.7538933   14.8696362
| 33>     H       17.0904794   19.4174813   15.4128855
| 34>     H       15.6805396   18.3999192   15.7343803
| 35>     H       17.0047784   19.9432042   17.6661566
| 36>     H       19.3550707   17.9583754   20.2568401
| 37>     H       19.6319294   16.2163235   18.5093705
| 38>     H       19.1768428   13.9692727   19.1004536
| 39>     H       17.9938611   12.3426139   20.5538761
| 40>     H       16.0251237   13.0835878   21.8999161
| 41>     H       14.7543036   14.7785437   22.4582084
| 42>     H       16.4384380   17.0695832   20.3505711
| 43> *
| 44>
| 45>                          ****END OF INPUT****

CARTESIAN COORDINATES (ANGSTROEM)
---------------------------------
  C     15.221942   15.217836   17.420184
  C     15.525384   15.368769   15.914465
  O     16.939140   15.378517   15.592031
  C     17.972410   15.592132   16.468297
  O     18.855558   14.760381   16.571961
  C     17.917648   16.795964   17.366150
  C     17.377475   17.992499   17.019103
  C     16.775516   18.403735   15.691667
  N     17.450368   19.071332   17.904911
  C     18.193837   19.091685   19.054849
  S     18.322756   20.453478   19.983845
  N     18.826893   17.923232   19.394101
  C     18.632555   16.628017   18.714272
  C     17.901955   15.639667   19.621412
  C     18.327493   14.300249   19.694451
  C     17.656157   13.376814   20.512843
  C     16.548057   13.794485   21.268769
  C     16.120580   15.127059   21.201491
  O     15.045047   15.531996   21.922486
  C     16.791138   16.044351   20.386292
  H     15.828758   14.421460   17.870368
  H     14.168073   14.950622   17.564428
  H     15.392174   16.153348   17.963009
  H     15.066154   14.525199   15.382613
  H     15.041212   16.276377   15.537707
  H     17.097351   17.753893   14.869636
  H     17.090479   19.417481   15.412885
  H     15.680540   18.399919   15.734380
  H     17.004778   19.943204   17.666157
  H     19.355071   17.958375   20.256840
  H     19.631929   16.216324   18.509370
  H     19.176843   13.969273   19.100454
  H     17.993861   12.342614   20.553876
  H     16.025124   13.083588   21.899916
  H     14.754304   14.778544   22.458208
  H     16.438438   17.069583   20.350571

 Total Charge           Charge          ....    0
 Multiplicity           Mult            ....    1
 Number of Electrons    NEL             ....  154
 Basis Dimension        Dim             ....  828

ORBITAL ENERGIES
----------------

  NO   OCC          E(Eh)            E(eV)
   0   2.0000     -91.890958     -2500.4801
   1   2.0000     -20.596932      -560.4710
   2   2.0000     -20.592084      -560.3391
   3   2.0000     -20.549907      -559.1914
   4   2.0000     -15.630232      -425.3202
   5   2.0000     -15.610159      -424.7740
   6   2.0000     -11.398466      -310.1680
   7   2.0000     -11.386476      -309.8418
   8   2.0000     -11.337493      -308.5089
   9   2.0000     -11.313224      -307.8485
  10   2.0000     -11.310584      -307.7766
  11   2.0000     -11.310135      -307.7644
  12   2.0000     -11.266677      -306.5819
  13   2.0000     -11.266378      -306.5737
  14   2.0000     -11.259563      -306.3883
  15   2.0000     -11.253357      -306.2194
  16   2.0000     -11.243085      -305.9399
  17   2.0000     -11.238620      -305.8184
  18   2.0000     -11.234980      -305.7193
  19   2.0000     -11.232918      -305.6632
  20   2.0000      -8.896039      -242.0735
  21   2.0000      -6.577620      -178.9861
  22   2.0000      -6.575603      -178.9313
  23   2.0000      -6.575020      -178.9154
  24   2.0000      -1.444364       -39.3031
  25   2.0000      -1.416754       -38.5518
  26   2.0000      -1.356196       -36.9040
  27   2.0000      -1.342732       -36.5376
  28   2.0000      -1.240705       -33.7613
  29   2.0000      -1.157667       -31.5017
  30   2.0000      -1.123354       -30.5680
  31   2.0000      -1.045834       -28.4586
  32   2.0000      -1.037894       -28.2425
  33   2.0000      -1.015911       -27.6444
  34   2.0000      -1.005156       -27.3517
  35   2.0000      -0.989073       -26.9141
  36   2.0000      -0.927168       -25.2295
  37   2.0000      -0.899593       -24.4792
  38   2.0000      -0.854110       -23.2415
  39   2.0000      -0.840691       -22.8764
  40   2.0000      -0.833587       -22.6831
  41   2.0000      -0.825605       -22.4658
  42   2.0000      -0.744781       -20.2665
  43   2.0000      -0.732916       -19.9437
  44   2.0000      -0.729919       -19.8621
  45   2.0000      -0.694597       -18.9010
  46   2.0000      -0.686702       -18.6861
  47   2.0000      -0.680724       -18.5234
  48   2.0000      -0.674748       -18.3608
  49   2.0000      -0.662470       -18.0267
  50   2.0000      -0.655757       -17.8441
  51   2.0000      -0.651119       -17.7179
  52   2.0000      -0.640874       -17.4391
  53   2.0000      -0.624076       -16.9820
  54   2.0000      -0.608413       -16.5558
  55   2.0000      -0.604913       -16.4605
  56   2.0000      -0.601091       -16.3565
  57   2.0000      -0.585834       -15.9414
  58   2.0000      -0.575492       -15.6599
  59   2.0000      -0.564961       -15.3734
  60   2.0000      -0.561292       -15.2735
  61   2.0000      -0.550517       -14.9803
  62   2.0000      -0.542156       -14.7528
  63   2.0000      -0.535428       -14.5697
  64   2.0000      -0.521572       -14.1927
  65   2.0000      -0.512848       -13.9553
  66   2.0000      -0.500469       -13.6184
  67   2.0000      -0.491031       -13.3616
  68   2.0000      -0.485493       -13.2109
  69   2.0000      -0.471971       -12.8430
  70   2.0000      -0.457100       -12.4383
  71   2.0000      -0.448564       -12.2060
  72   2.0000      -0.357819        -9.7367
  73   2.0000      -0.347965        -9.4686
  74   2.0000      -0.330311        -8.9882
  75   2.0000      -0.321877        -8.7587
  76   2.0000      -0.318913        -8.6781
  77   0.0000       0.074183         2.0186
  78   0.0000       0.107657         2.9295
  79   0.0000       0.115923         3.1544
  80   0.0000       0.131307         3.5730
  81   0.0000       0.134440         3.6583

MULLIKEN ATOMIC CHARGES
-----------------------
   0 C :   -0.343963
   1 C :    0.034334
   2 O :   -0.351729
   3 C :    0.457372
   4 O :   -0.386649
   5 C :   -0.241279
   6 C :    0.174957
   7 C :   -0.342968
   8 N :   -0.131097
   9 C :    0.191583
  10 S :   -0.437526
  11 N :   -0.209798
  12 C :    0.062208
  13 C :    0.032168
  14 C :   -0.198455
  15 C :   -0.134316
  16 C :   -0.279296
  17 C :    0.319984
  18 O :   -0.358901
  19 C :   -0.277302
  20 H :    0.131383
  21 H :    0.120772
  22 H :    0.111002
  23 H :    0.127282
  24 H :    0.088865
  25 H :    0.146624
  26 H :    0.130182
  27 H :    0.121443
  28 H :    0.197923
  29 H :    0.197762
  30 H :    0.163307
  31 H :    0.171893
  32 H :    0.163367
  33 H :    0.131442
  34 H :    0.240935
  35 H :    0.176490
Sum of atomic charges:   -0.0000000

LOEWDIN ATOMIC CHARGES
----------------------
   0 C :    0.104856
   1 C :   -0.015613
   2 O :    0.287690
   3 C :   -0.418792
   4 O :    0.124830
   5 C :   -0.086005
   6 C :   -0.080936
   7 C :    0.125724
   8 N :    0.404121
   9 C :   -0.460480
  10 S :   -0.035214
  11 N :    0.397969
  12 C :   -0.044517
  13 C :   -0.042512
  14 C :    0.020172
  15 C :    0.041514
  16 C :   -0.001906
  17 C :   -0.193687
  18 O :    0.394567
  19 C :    0.029220
  20 H :   -0.018153
  21 H :   -0.021928
  22 H :   -0.034739
  23 H :   -0.020740
  24 H :   -0.037701
  25 H :   -0.007324
  26 H :   -0.012122
  27 H :   -0.018842
  28 H :   -0.057154
  29 H :   -0.063037
  30 H :   -0.002609
  31 H :   -0.022647
  32 H :   -0.019358
  33 H :   -0.035255
  34 H :   -0.153758
  35 H :   -0.025636

  Mayer bond orders larger than 0.100000
B(  0-C ,  1-C ) :   0.9606 B(  0-C , 20-H ) :   0.9658 B(  0-C , 21-H ) :   0.9758
B(  0-C , 22-H ) :   0.9711 B(  1-C ,  2-O ) :   0.8999 B(  1-C , 23-H ) :   0.9819
B(  1-C , 24-H ) :   0.9751 B(  2-O ,  3-C ) :   1.1488 B(  3-C ,  4-O ) :   2.0691
B(  3-C ,  5-C ) :   0.9556 B(  5-C ,  6-C ) :   1.6702 B(  5-C , 12-C ) :   0.9610
B(  6-C ,  7-C ) :   0.9414 B(  6-C ,  8-N ) :   1.1241 B(  7-C , 25-H ) :   0.9715
B(  7-C , 26-H ) :   0.9788 B(  7-C , 27-H ) :   0.9656 B(  8-N ,  9-C ) :   1.1861
B(  8-N , 28-H ) :   0.9510 B(  9-C , 10-S ) :   1.6136 B(  9-C , 11-N ) :   1.2955
B( 11-N , 12-C ) :   0.9882 B( 11-N , 29-H ) :   0.9507 B( 12-C , 13-C ) :   0.9477
B( 12-C , 30-H ) :   0.9978 B( 13-C , 14-C ) :   1.3887 B( 13-C , 19-C ) :   1.3415
B( 14-C , 15-C ) :   1.3973 B( 14-C , 31-H ) :   0.9584 B( 15-C , 16-C ) :   1.3604
B( 15-C , 32-H ) :   0.9705 B( 16-C , 17-C ) :   1.3308 B( 16-C , 33-H ) :   0.9849
B( 17-C , 18-O ) :   1.1102 B( 17-C , 19-C ) :   1.3697 B( 18-O , 34-H ) :   0.9799
B( 19-C , 35-H ) :   0.9574

MP2 TOTAL ENERGY:    -1274.331085874 Eh
FINAL SINGLE POINT ENERGY     -1274.331085873695

DIPOLE MOMENT
-------------
                                X             Y             Z
Electronic contribution:      9.49366       6.66995       6.14854
Nuclear contribution   :    -11.09205      -7.65762      -6.70165
                        -----------------------------------------
Total Dipole Moment    :     -1.59839      -0.98767      -0.55312
                        -----------------------------------------
Magnitude (a.u.)       :      1.95865
Magnitude (Debye)      :      4.97848

Rotational constants in cm-1:     0.011472     0.009799     0.006790
Rotational constants in MHz :   343.926411   293.763623   203.565083

                             ****ORCA TERMINATED NORMALLY****
TOTAL RUN TIME: 0 days 2 hours 38 minutes 14 seconds 892 msec
