                         Program Version 5.0.0 -  RELEASE  -
|  1> ! ri-mp2 cc-pvtz cc-pvtz/c TightSCF NoKeepInts
|  2>
|  3> %scf
|  4>   MaxCore 4096
|  5> end
|  6> *xyz  0  1
|  7>     C       14.1704605   15.3601917   16.1607822
|  8>     C       15.4692540   15.3422508   16.9840815
|  9>     O       16.5694567   15.4030909   16.0554726
| 10>     C       17.8274461   15.6931610   16.5062258
| 11>     O       18.7126673   14.8613300   16.4263218
| 12>     C       17.9348359   16.8762737   17.4179297
| 13>     C       17.3172048   18.0593977   17.1837520
| 14>     C       16.4703057   18.4303947   15.9851428
| 15>     N       17.4971591   19.1244713   18.0699044
| 16>     C       18.3630560   19.1182198   19.1324133
| 17>     S       18.5763542   20.4514207   20.0868999
| 18>     N       19.0402501   17.9470583   19.3678197
| 19>     C       18.8190384   16.6771362   18.6486486
| 20>     C       18.2036886   15.6265201   19.5680727
| 21>     C       18.7461863   14.3300522   19.6290295
| 22>     C       18.1661023   13.3488265   20.4501499
| 23>     C       17.0305793   13.6644916   21.2153615
| 24>     C       16.4829582   14.9527016   21.1524069
| 25>     O       15.3777821   15.2575246   21.8777051
| 26>     C       17.0621651   15.9274336   20.3339619
| 27>     H       13.2956317   15.3160383   16.8209432
| 28>     H       14.1330950   14.4962424   15.4851907
| 29>     H       14.1008838   16.2723835   15.5563078
| 30>     H       15.4618617   16.1949315   17.6737000
| 31>     H       15.5314848   14.4214845   17.5800400
| 32>     H       16.7099641   17.8137614   15.1098670
| 33>     H       16.6335188   19.4730102   15.6845677
| 34>     H       15.4033274   18.3069293   16.2040510
| 35>     H       17.0162143   19.9957379   17.9097317
| 36>     H       19.6542736   17.9638460   20.1723923
| 37>     H       19.7974300   16.3092234   18.3057940
| 38>     H       19.6116045   14.0766446   19.0204680
| 39>     H       18.5930044   12.3478055   20.4837424
| 40>     H       16.5777341   12.9079346   21.8477504
| 41>     H       15.1679619   14.4856676   22.4253904
| 42>     H       16.6220592   16.9184122   20.3019814
| 43> *
| 44>
| 45>                          ****END OF INPUT****

CARTESIAN COORDINATES (ANGSTROEM)
---------------------------------
  C     14.170461   15.360192   16.160782
  C     15.469254   15.342251   16.984081
  O     16.569457   15.403091   16.055473
  C     17.827446   15.693161   16.506226
  O     18.712667   14.861330   16.426322
  C     17.934836   16.876274   17.417930
  C     17.317205   18.059398   17.183752
  C     16.470306   18.430395   15.985143
  N     17.497159   19.124471   18.069904
  C     18.363056   19.118220   19.132413
  S     18.576354   20.451421   20.086900
  N     19.040250   17.947058   19.367820
  C     18.819038   16.677136   18.648649
  C     18.203689   15.626520   19.568073
  C     18.746186   14.330052   19.629030
  C     18.166102   13.348826   20.450150
  C     17.030579   13.664492   21.215362
  C     16.482958   14.952702   21.152407
  O     15.377782   15.257525   21.877705
  C     17.062165   15.927434   20.333962
  H     13.295632   15.316038   16.820943
  H     14.133095   14.496242   15.485191
  H     14.100884   16.272384   15.556308
  H     15.461862   16.194931   17.673700
  H     15.531485   14.421485   17.580040
  H     16.709964   17.813761   15.109867
  H     16.633519   19.473010   15.684568
  H     15.403327   18.306929   16.204051
  H     17.016214   19.995738   17.909732
  H     19.654274   17.963846   20.172392
  H     19.797430   16.309223   18.305794
  H     19.611604   14.076645   19.020468
  H     18.593004   12.347805   20.483742
  H     16.577734   12.907935   21.847750
  H     15.167962   14.485668   22.425390
  H     16.622059   16.918412   20.301981

 Total Charge           Charge          ....    0
 Multiplicity           Mult            ....    1
 Number of Electrons    NEL             ....  154
 Basis Dimension        Dim             ....  828

ORBITAL ENERGIES
----------------

  NO   OCC          E(Eh)            E(eV)
   0   2.0000     -91.890899     -2500.4785
   1   2.0000     -20.598819      -560.5224
   2   2.0000     -20.592239      -560.3433
   3   2.0000     -20.553417      -559.2869
   4   2.0000     -15.629950      -425.3126
   5   2.0000     -15.610968      -424.7960
   6   2.0000     -11.395176      -310.0785
   7   2.0000     -11.387026      -309.8567
   8   2.0000     -11.334549      -308.4288
   9   2.0000     -11.315147      -307.9008
  10   2.0000     -11.311635      -307.8052
  11   2.0000     -11.303681      -307.5888
  12   2.0000     -11.266298      -306.5716
  13   2.0000     -11.263035      -306.4828
  14   2.0000     -11.260977      -306.4268
  15   2.0000     -11.254948      -306.2627
  16   2.0000     -11.244693      -305.9836
  17   2.0000     -11.240922      -305.8810
  18   2.0000     -11.237590      -305.7904
  19   2.0000     -11.235775      -305.7410
  20   2.0000      -8.895987      -242.0721
  21   2.0000      -6.577566      -178.9847
  22   2.0000      -6.575551      -178.9298
  23   2.0000      -6.574967      -178.9140
  24   2.0000      -1.449498       -39.4429
  25   2.0000      -1.418612       -38.6024
  26   2.0000      -1.359547       -36.9951
  27   2.0000      -1.341839       -36.5133
  28   2.0000      -1.240386       -33.7526
  29   2.0000      -1.159759       -31.5587
  30   2.0000      -1.124649       -30.6032
  31   2.0000      -1.047439       -28.5023
  32   2.0000      -1.040239       -28.3063
  33   2.0000      -1.017067       -27.6758
  34   2.0000      -1.003982       -27.3198
  35   2.0000      -0.989046       -26.9133
  36   2.0000      -0.926764       -25.2185
  37   2.0000      -0.880898       -23.9705
  38   2.0000      -0.854209       -23.2442
  39   2.0000      -0.842883       -22.9360
  40   2.0000      -0.835697       -22.7405
  41   2.0000      -0.834856       -22.7176
  42   2.0000      -0.758165       -20.6307
  43   2.0000      -0.738976       -20.1085
  44   2.0000      -0.731252       -19.8984
  45   2.0000      -0.696685       -18.9578
  46   2.0000      -0.687867       -18.7178
  47   2.0000      -0.683579       -18.6011
  48   2.0000      -0.676267       -18.4022
  49   2.0000      -0.660985       -17.9863
  50   2.0000      -0.652115       -17.7450
  51   2.0000      -0.642600       -17.4860
  52   2.0000      -0.640460       -17.4278
  53   2.0000      -0.618889       -16.8408
  54   2.0000      -0.607307       -16.5257
  55   2.0000      -0.606866       -16.5137
  56   2.0000      -0.602431       -16.3930
  57   2.0000      -0.583948       -15.8900
  58   2.0000      -0.577361       -15.7108
  59   2.0000      -0.567440       -15.4408
  60   2.0000      -0.560878       -15.2623
  61   2.0000      -0.554594       -15.0913
  62   2.0000      -0.540649       -14.7118
  63   2.0000      -0.530643       -14.4395
  64   2.0000      -0.524285       -14.2665
  65   2.0000      -0.515716       -14.0333
  66   2.0000      -0.502247       -13.6668
  67   2.0000      -0.497618       -13.5409
  68   2.0000      -0.488058       -13.2807
  69   2.0000      -0.468322       -12.7437
  70   2.0000      -0.462164       -12.5761
  71   2.0000      -0.450822       -12.2675
  72   2.0000      -0.357440        -9.7264
  73   2.0000      -0.350791        -9.5455
  74   2.0000      -0.330294        -8.9878
  75   2.0000      -0.322682        -8.7806
  76   2.0000      -0.318759        -8.6739
  77   0.0000       0.074792         2.0352
  78   0.0000       0.104330         2.8390
  79   0.0000       0.116873         3.1803
  80   0.0000       0.130074         3.5395
  81   0.0000       0.134770         3.6673

MULLIKEN ATOMIC CHARGES
-----------------------
   0 C :   -0.265793
   1 C :    0.006597
   2 O :   -0.343316
   3 C :    0.444135
   4 O :   -0.380839
   5 C :   -0.228987
   6 C :    0.147876
   7 C :   -0.316589
   8 N :   -0.130077
   9 C :    0.200137
  10 S :   -0.437999
  11 N :   -0.204553
  12 C :    0.058152
  13 C :    0.042283
  14 C :   -0.178306
  15 C :   -0.131035
  16 C :   -0.279479
  17 C :    0.314457
  18 O :   -0.358496
  19 C :   -0.291087
  20 H :    0.094991
  21 H :    0.109737
  22 H :    0.091803
  23 H :    0.098942
  24 H :    0.124786
  25 H :    0.139029
  26 H :    0.127576
  27 H :    0.119234
  28 H :    0.197605
  29 H :    0.195803
  30 H :    0.160587
  31 H :    0.163478
  32 H :    0.162660
  33 H :    0.131795
  34 H :    0.241749
  35 H :    0.173146
Sum of atomic charges:   -0.0000000

LOEWDIN ATOMIC CHARGES
----------------------
   0 C :    0.109711
   1 C :   -0.020700
   2 O :    0.295822
   3 C :   -0.417761
   4 O :    0.130954
   5 C :   -0.091025
   6 C :   -0.086930
   7 C :    0.127597
   8 N :    0.403283
   9 C :   -0.457423
  10 S :   -0.035109
  11 N :    0.397199
  12 C :   -0.045806
  13 C :   -0.043247
  14 C :    0.022567
  15 C :    0.044016
  16 C :   -0.001046
  17 C :   -0.194854
  18 O :    0.393580
  19 C :    0.027713
  20 H :   -0.023592
  21 H :   -0.022987
  22 H :   -0.031342
  23 H :   -0.039693
  24 H :   -0.025145
  25 H :   -0.006720
  26 H :   -0.013710
  27 H :   -0.015853
  28 H :   -0.057636
  29 H :   -0.063535
  30 H :   -0.003240
  31 H :   -0.022658
  32 H :   -0.019125
  33 H :   -0.034925
  34 H :   -0.153129
  35 H :   -0.025253

  Mayer bond orders larger than 0.100000
B(  0-C ,  1-C ) :   0.9768 B(  0-C , 20-H ) :   0.9759 B(  0-C , 21-H ) :   0.9791
B(  0-C , 22-H ) :   0.9781 B(  1-C ,  2-O ) :   0.8948 B(  1-C , 23-H ) :   0.9640
B(  1-C , 24-H ) :   0.9773 B(  2-O ,  3-C ) :   1.1462 B(  3-C ,  4-O ) :   2.0931
B(  3-C ,  5-C ) :   0.9536 B(  5-C ,  6-C ) :   1.6675 B(  5-C , 12-C ) :   0.9621
B(  6-C ,  7-C ) :   0.9464 B(  6-C ,  8-N ) :   1.1295 B(  7-C , 25-H ) :   0.9724
B(  7-C , 26-H ) :   0.9818 B(  7-C , 27-H ) :   0.9628 B(  8-N ,  9-C ) :   1.1863
B(  8-N , 28-H ) :   0.9507 B(  9-C , 10-S ) :   1.6139 B(  9-C , 11-N ) :   1.2947
B( 11-N , 12-C ) :   0.9985 B( 11-N , 29-H ) :   0.9510 B( 12-C , 13-C ) :   0.9425
B( 12-C , 30-H ) :   0.9981 B( 13-C , 14-C ) :   1.3847 B( 13-C , 19-C ) :   1.3511
B( 14-C , 15-C ) :   1.3953 B( 14-C , 31-H ) :   0.9613 B( 15-C , 16-C ) :   1.3644
B( 15-C , 32-H ) :   0.9704 B( 16-C , 17-C ) :   1.3286 B( 16-C , 33-H ) :   0.9846
B( 17-C , 18-O ) :   1.1112 B( 17-C , 19-C ) :   1.3735 B( 18-O , 34-H ) :   0.9793
B( 19-C , 35-H ) :   0.9579

MP2 TOTAL ENERGY:    -1274.333011045 Eh
FINAL SINGLE POINT ENERGY     -1274.333011044593

DIPOLE MOMENT
-------------
                                X             Y             Z
Electronic contribution:     12.04787       6.56081       7.42478
Nuclear contribution   :    -13.51042      -7.57403      -7.70136
                        -----------------------------------------
Total Dipole Moment    :     -1.46256      -1.01322      -0.27658
                        -----------------------------------------
Magnitude (a.u.)       :      1.80061
Magnitude (Debye)      :      4.57678

Rotational constants in cm-1:     0.011119     0.009356     0.006808
Rotational constants in MHz :   333.333900   280.494123   204.086523

                             ****ORCA TERMINATED NORMALLY****
TOTAL RUN TIME: 0 days 2 hours 7 minutes 56 seconds 376 msec
