                         Program Version 4.2.0 -  RELEASE  -
|  1> ! ri-mp2 cc-pvtz cc-pvtz/c TightSCF  NoKeepInts
|  2>
|  3> %scf
|  4>   MaxCore 4096
|  5> end
|  6> *xyz  0  1
|  7>     C       14.7510810   14.5047435   17.3397829
|  8>     C       15.5869210   15.5719984   16.6149884
|  9>     O       16.9011307   15.0129406   16.4286022
| 10>     C       18.0831611   15.7082581   16.4864172
| 11>     O       19.1218750   15.0905513   16.3443432
| 12>     C       18.0664288   16.9093418   17.3706324
| 13>     C       17.5757444   18.0993377   16.9573728
| 14>     C       16.9812137   18.4103392   15.6007206
| 15>     N       17.6389010   19.2088028   17.8028293
| 16>     C       18.2687714   19.2231148   19.0207773
| 17>     S       18.3510996   20.5965955   19.9376824
| 18>     N       18.8222859   18.0389832   19.4448289
| 19>     C       18.7050508   16.7422112   18.7470183
| 20>     C       17.9262674   15.7267230   19.5773372
| 21>     C       18.3647758   14.3919656   19.6490463
| 22>     C       17.6469235   13.4410624   20.3932594
| 23>     C       16.4773910   13.8262423   21.0702739
| 24>     C       16.0315481   15.1524976   20.9934856
| 25>     O       14.8927918   15.5236955   21.6306002
| 26>     C       16.7468173   16.0969422   20.2503755
| 27>     H       15.2187512   14.2299336   18.2932060
| 28>     H       14.6664777   13.5989322   16.7265592
| 29>     H       13.7407217   14.8773646   17.5469926
| 30>     H       15.1358637   15.8321986   15.6487447
| 31>     H       15.5968534   16.4611430   17.2548642
| 32>     H       17.1632130   17.6102190   14.8726612
| 33>     H       17.4230809   19.3230007   15.1803784
| 34>     H       15.8971702   18.5624687   15.6705871
| 35>     H       17.2512901   20.0905776   17.5054280
| 36>     H       19.2619525   18.0752943   20.3559024
| 37>     H       19.7220948   16.3509683   18.5957290
| 38>     H       19.2591336   14.0870072   19.1096193
| 39>     H       17.9950609   12.4104143   20.4360593
| 40>     H       15.9186215   13.0936386   21.6432035
| 41>     H       14.5769210   14.7559411   22.1308458
| 42>     H       16.3796145   17.1165514   20.2028453
| 43> *
| 44>
| 45>                          ****END OF INPUT****

CARTESIAN COORDINATES (ANGSTROEM)
---------------------------------
  C     14.751081   14.504744   17.339783
  C     15.586921   15.571998   16.614988
  O     16.901131   15.012941   16.428602
  C     18.083161   15.708258   16.486417
  O     19.121875   15.090551   16.344343
  C     18.066429   16.909342   17.370632
  C     17.575744   18.099338   16.957373
  C     16.981214   18.410339   15.600721
  N     17.638901   19.208803   17.802829
  C     18.268771   19.223115   19.020777
  S     18.351100   20.596595   19.937682
  N     18.822286   18.038983   19.444829
  C     18.705051   16.742211   18.747018
  C     17.926267   15.726723   19.577337
  C     18.364776   14.391966   19.649046
  C     17.646923   13.441062   20.393259
  C     16.477391   13.826242   21.070274
  C     16.031548   15.152498   20.993486
  O     14.892792   15.523696   21.630600
  C     16.746817   16.096942   20.250375
  H     15.218751   14.229934   18.293206
  H     14.666478   13.598932   16.726559
  H     13.740722   14.877365   17.546993
  H     15.135864   15.832199   15.648745
  H     15.596853   16.461143   17.254864
  H     17.163213   17.610219   14.872661
  H     17.423081   19.323001   15.180378
  H     15.897170   18.562469   15.670587
  H     17.251290   20.090578   17.505428
  H     19.261952   18.075294   20.355902
  H     19.722095   16.350968   18.595729
  H     19.259134   14.087007   19.109619
  H     17.995061   12.410414   20.436059
  H     15.918622   13.093639   21.643203
  H     14.576921   14.755941   22.130846
  H     16.379614   17.116551   20.202845

 Total Charge           Charge          ....    0
 Multiplicity           Mult            ....    1
 Number of Electrons    NEL             ....  154
 Basis Dimension        Dim             ....  828

ORBITAL ENERGIES
----------------

  NO   OCC          E(Eh)            E(eV)
   0   2.0000     -91.889407     -2500.4379
   1   2.0000     -20.603105      -560.6390
   2   2.0000     -20.599788      -560.5487
   3   2.0000     -20.551607      -559.2377
   4   2.0000     -15.625740      -425.1980
   5   2.0000     -15.611593      -424.8131
   6   2.0000     -11.397322      -310.1369
   7   2.0000     -11.386366      -309.8388
   8   2.0000     -11.326193      -308.2014
   9   2.0000     -11.316542      -307.9388
  10   2.0000     -11.315813      -307.9189
  11   2.0000     -11.303698      -307.5893
  12   2.0000     -11.270881      -306.6963
  13   2.0000     -11.264700      -306.5281
  14   2.0000     -11.263695      -306.5007
  15   2.0000     -11.256751      -306.3118
  16   2.0000     -11.245722      -306.0117
  17   2.0000     -11.242048      -305.9117
  18   2.0000     -11.239172      -305.8334
  19   2.0000     -11.228266      -305.5366
  20   2.0000      -8.894530      -242.0325
  21   2.0000      -6.576121      -178.9454
  22   2.0000      -6.574092      -178.8901
  23   2.0000      -6.573520      -178.8746
  24   2.0000      -1.450561       -39.4718
  25   2.0000      -1.419583       -38.6288
  26   2.0000      -1.360126       -37.0109
  27   2.0000      -1.339416       -36.4474
  28   2.0000      -1.239467       -33.7276
  29   2.0000      -1.161229       -31.5987
  30   2.0000      -1.125820       -30.6351
  31   2.0000      -1.049281       -28.5524
  32   2.0000      -1.039312       -28.2811
  33   2.0000      -1.018734       -27.7212
  34   2.0000      -1.005264       -27.3546
  35   2.0000      -0.989180       -26.9169
  36   2.0000      -0.927992       -25.2519
  37   2.0000      -0.882154       -24.0046
  38   2.0000      -0.854650       -23.2562
  39   2.0000      -0.841488       -22.8980
  40   2.0000      -0.836892       -22.7730
  41   2.0000      -0.836040       -22.7498
  42   2.0000      -0.757591       -20.6151
  43   2.0000      -0.739445       -20.1213
  44   2.0000      -0.731360       -19.9013
  45   2.0000      -0.698094       -18.9961
  46   2.0000      -0.689466       -18.7613
  47   2.0000      -0.682999       -18.5854
  48   2.0000      -0.676862       -18.4184
  49   2.0000      -0.661486       -17.9999
  50   2.0000      -0.655693       -17.8423
  51   2.0000      -0.646110       -17.5816
  52   2.0000      -0.639739       -17.4082
  53   2.0000      -0.612518       -16.6675
  54   2.0000      -0.609093       -16.5743
  55   2.0000      -0.606622       -16.5070
  56   2.0000      -0.601537       -16.3686
  57   2.0000      -0.586411       -15.9571
  58   2.0000      -0.578195       -15.7335
  59   2.0000      -0.568223       -15.4621
  60   2.0000      -0.560171       -15.2430
  61   2.0000      -0.556411       -15.1407
  62   2.0000      -0.545695       -14.8491
  63   2.0000      -0.530701       -14.4411
  64   2.0000      -0.519858       -14.1461
  65   2.0000      -0.514194       -13.9919
  66   2.0000      -0.502534       -13.6746
  67   2.0000      -0.502028       -13.6609
  68   2.0000      -0.488321       -13.2879
  69   2.0000      -0.470170       -12.7940
  70   2.0000      -0.453517       -12.3408
  71   2.0000      -0.450997       -12.2722
  72   2.0000      -0.356474        -9.7002
  73   2.0000      -0.352010        -9.5787
  74   2.0000      -0.329167        -8.9571
  75   2.0000      -0.324332        -8.8255
  76   2.0000      -0.317664        -8.6441
  77   0.0000       0.088481         2.4077
  78   0.0000       0.104031         2.8308
  79   0.0000       0.108447         2.9510
  80   0.0000       0.127597         3.4721
  81   0.0000       0.131546         3.5796

MULLIKEN ATOMIC CHARGES
-----------------------
   0 C :   -0.264309
   1 C :    0.009167
   2 O :   -0.305997
   3 C :    0.385309
   4 O :   -0.377089
   5 C :   -0.153417
   6 C :    0.115126
   7 C :   -0.321234
   8 N :   -0.136509
   9 C :    0.205033
  10 S :   -0.442096
  11 N :   -0.214814
  12 C :    0.059552
  13 C :    0.030559
  14 C :   -0.192587
  15 C :   -0.127749
  16 C :   -0.278914
  17 C :    0.301847
  18 O :   -0.361055
  19 C :   -0.260712
  20 H :    0.113470
  21 H :    0.104859
  22 H :    0.088627
  23 H :    0.109012
  24 H :    0.092204
  25 H :    0.121457
  26 H :    0.136082
  27 H :    0.123376
  28 H :    0.195901
  29 H :    0.198621
  30 H :    0.166169
  31 H :    0.165569
  32 H :    0.163406
  33 H :    0.132680
  34 H :    0.241753
  35 H :    0.176703
Sum of atomic charges:   -0.0000000

LOEWDIN ATOMIC CHARGES
----------------------
   0 C :    0.111662
   1 C :   -0.025332
   2 O :    0.318489
   3 C :   -0.420553
   4 O :    0.128059
   5 C :   -0.080892
   6 C :   -0.109893
   7 C :    0.124799
   8 N :    0.400221
   9 C :   -0.455589
  10 S :   -0.038906
  11 N :    0.397557
  12 C :   -0.043100
  13 C :   -0.041315
  14 C :    0.024052
  15 C :    0.045902
  16 C :   -0.001287
  17 C :   -0.194104
  18 O :    0.395319
  19 C :    0.026892
  20 H :   -0.022156
  21 H :   -0.026373
  22 H :   -0.025840
  23 H :   -0.035241
  24 H :   -0.039575
  25 H :   -0.009289
  26 H :   -0.009948
  27 H :   -0.016268
  28 H :   -0.058706
  29 H :   -0.063658
  30 H :   -0.001996
  31 H :   -0.021951
  32 H :   -0.018431
  33 H :   -0.034926
  34 H :   -0.152952
  35 H :   -0.024670

  Mayer bond orders larger than 0.100000
B(  0-C ,  1-C ) :   0.9790 B(  0-C , 20-H ) :   0.9710 B(  0-C , 21-H ) :   0.9818
B(  0-C , 22-H ) :   0.9756 B(  1-C ,  2-O ) :   0.9202 B(  1-C , 23-H ) :   0.9763
B(  1-C , 24-H ) :   0.9616 B(  2-O ,  3-C ) :   1.1556 B(  3-C ,  4-O ) :   2.0937
B(  3-C ,  5-C ) :   0.9231 B(  5-C ,  6-C ) :   1.6969 B(  5-C , 12-C ) :   0.9634
B(  6-C ,  7-C ) :   0.9455 B(  6-C ,  8-N ) :   1.1080 B(  7-C , 25-H ) :   0.9814
B(  7-C , 26-H ) :   0.9726 B(  7-C , 27-H ) :   0.9651 B(  8-N ,  9-C ) :   1.1975
B(  8-N , 28-H ) :   0.9528 B(  9-C , 10-S ) :   1.6097 B(  9-C , 11-N ) :   1.2860
B( 11-N , 12-C ) :   0.9965 B( 11-N , 29-H ) :   0.9487 B( 12-C , 13-C ) :   0.9466
B( 12-C , 30-H ) :   0.9966 B( 13-C , 14-C ) :   1.3864 B( 13-C , 19-C ) :   1.3478
B( 14-C , 15-C ) :   1.3974 B( 14-C , 31-H ) :   0.9624 B( 15-C , 16-C ) :   1.3595
B( 15-C , 32-H ) :   0.9705 B( 16-C , 17-C ) :   1.3309 B( 16-C , 33-H ) :   0.9853
B( 17-C , 18-O ) :   1.1065 B( 17-C , 19-C ) :   1.3720 B( 18-O , 34-H ) :   0.9791
B( 19-C , 35-H ) :   0.9560

MP2 TOTAL ENERGY:    -1274.328332405 Eh
FINAL SINGLE POINT ENERGY     -1274.328332404546

DIPOLE MOMENT
-------------
                                X             Y             Z
Electronic contribution:     10.39368       7.99060       6.08329
Nuclear contribution   :    -11.96406      -9.00509      -6.64308
                        -----------------------------------------
Total Dipole Moment    :     -1.57039      -1.01449      -0.55979
                        -----------------------------------------
Magnitude (a.u.)       :      1.95158
Magnitude (Debye)      :      4.96053

Rotational constants in cm-1:     0.012503     0.009105     0.006897
Rotational constants in MHz :   374.815985   272.961405   206.766298

                             ****ORCA TERMINATED NORMALLY****
TOTAL RUN TIME: 0 days 1 hours 52 minutes 27 seconds 244 msec
