                         Program Version 4.2.0 -  RELEASE  -
|  1> ! ri-mp2 cc-pvtz cc-pvtz/c TightSCF  NoKeepInts
|  2>
|  3> %scf
|  4>   MaxCore 4096
|  5> end
|  6> *xyz  0  1
|  7>     C       14.7927453   14.4786824   17.3113971
|  8>     C       15.5559720   15.6288269   16.6347614
|  9>     O       16.8447299   15.1029717   16.2569375
| 10>     C       18.0662169   15.6788351   16.5116170
| 11>     O       19.0697103   14.9960108   16.4230173
| 12>     C       18.0636853   16.8960528   17.3761432
| 13>     C       17.5693364   18.0839791   16.9586427
| 14>     C       16.9691059   18.3910764   15.6035604
| 15>     N       17.6427575   19.1999400   17.7947684
| 16>     C       18.2805778   19.2225010   19.0083444
| 17>     S       18.3706720   20.6024674   19.9146373
| 18>     N       18.8351024   18.0408434   19.4374340
| 19>     C       18.7153123   16.7403409   18.7476304
| 20>     C       17.9370090   15.7315309   19.5863628
| 21>     C       18.3885547   14.4033705   19.6912435
| 22>     C       17.6650133   13.4576441   20.4365690
| 23>     C       16.4760811   13.8410586   21.0799974
| 24>     C       16.0176572   15.1606474   20.9702060
| 25>     O       14.8605430   15.5300029   21.5743997
| 26>     C       16.7395546   16.1002129   20.2274254
| 27>     H       15.3443459   14.1123902   18.1864298
| 28>     H       14.6587998   13.6413152   16.6152508
| 29>     H       13.8028808   14.8130332   17.6446447
| 30>     H       15.0112497   15.9799651   15.7489699
| 31>     H       15.6212374   16.4480982   17.3588403
| 32>     H       17.1353455   17.5817164   14.8818118
| 33>     H       17.4201929   19.2936638   15.1715501
| 34>     H       15.8877129   18.5581130   15.6791756
| 35>     H       17.2549114   20.0802255   17.4931692
| 36>     H       19.2800488   18.0831074   20.3457211
| 37>     H       19.7312240   16.3475923   18.5925712
| 38>     H       19.2971783   14.0987108   19.1760129
| 39>     H       18.0233831   12.4318748   20.5053458
| 40>     H       15.9124949   13.1121056   21.6529282
| 41>     H       14.5425303   14.7681604   22.0823800
| 42>     H       16.3631278   17.1149327   20.1541042
| 43> *
| 44>
| 45>                          ****END OF INPUT****

CARTESIAN COORDINATES (ANGSTROEM)
---------------------------------
  C     14.792745   14.478682   17.311397
  C     15.555972   15.628827   16.634761
  O     16.844730   15.102972   16.256937
  C     18.066217   15.678835   16.511617
  O     19.069710   14.996011   16.423017
  C     18.063685   16.896053   17.376143
  C     17.569336   18.083979   16.958643
  C     16.969106   18.391076   15.603560
  N     17.642757   19.199940   17.794768
  C     18.280578   19.222501   19.008344
  S     18.370672   20.602467   19.914637
  N     18.835102   18.040843   19.437434
  C     18.715312   16.740341   18.747630
  C     17.937009   15.731531   19.586363
  C     18.388555   14.403370   19.691243
  C     17.665013   13.457644   20.436569
  C     16.476081   13.841059   21.079997
  C     16.017657   15.160647   20.970206
  O     14.860543   15.530003   21.574400
  C     16.739555   16.100213   20.227425
  H     15.344346   14.112390   18.186430
  H     14.658800   13.641315   16.615251
  H     13.802881   14.813033   17.644645
  H     15.011250   15.979965   15.748970
  H     15.621237   16.448098   17.358840
  H     17.135345   17.581716   14.881812
  H     17.420193   19.293664   15.171550
  H     15.887713   18.558113   15.679176
  H     17.254911   20.080226   17.493169
  H     19.280049   18.083107   20.345721
  H     19.731224   16.347592   18.592571
  H     19.297178   14.098711   19.176013
  H     18.023383   12.431875   20.505346
  H     15.912495   13.112106   21.652928
  H     14.542530   14.768160   22.082380
  H     16.363128   17.114933   20.154104

 Total Charge           Charge          ....    0
 Multiplicity           Mult            ....    1
 Number of Electrons    NEL             ....  154
 Basis Dimension        Dim             ....  828

ORBITAL ENERGIES
----------------

  NO   OCC          E(Eh)            E(eV)
   0   2.0000     -91.890427     -2500.4657
   1   2.0000     -20.602235      -560.6153
   2   2.0000     -20.600433      -560.5663
   3   2.0000     -20.548654      -559.1573
   4   2.0000     -15.627600      -425.2486
   5   2.0000     -15.612101      -424.8269
   6   2.0000     -11.397885      -310.1522
   7   2.0000     -11.387293      -309.8640
   8   2.0000     -11.329337      -308.2869
   9   2.0000     -11.317223      -307.9573
  10   2.0000     -11.315223      -307.9029
  11   2.0000     -11.303815      -307.5924
  12   2.0000     -11.270405      -306.6833
  13   2.0000     -11.264786      -306.5304
  14   2.0000     -11.264126      -306.5124
  15   2.0000     -11.257320      -306.3273
  16   2.0000     -11.246422      -306.0307
  17   2.0000     -11.242848      -305.9334
  18   2.0000     -11.239803      -305.8506
  19   2.0000     -11.227456      -305.5146
  20   2.0000      -8.895539      -242.0599
  21   2.0000      -6.577125      -178.9727
  22   2.0000      -6.575100      -178.9176
  23   2.0000      -6.574525      -178.9019
  24   2.0000      -1.447671       -39.3931
  25   2.0000      -1.420209       -38.6458
  26   2.0000      -1.358670       -36.9713
  27   2.0000      -1.340740       -36.4834
  28   2.0000      -1.240415       -33.7534
  29   2.0000      -1.162040       -31.6207
  30   2.0000      -1.126424       -30.6516
  31   2.0000      -1.049749       -28.5651
  32   2.0000      -1.038571       -28.2610
  33   2.0000      -1.019353       -27.7380
  34   2.0000      -1.005832       -27.3701
  35   2.0000      -0.989969       -26.9384
  36   2.0000      -0.928503       -25.2659
  37   2.0000      -0.882516       -24.0145
  38   2.0000      -0.855456       -23.2781
  39   2.0000      -0.842262       -22.9191
  40   2.0000      -0.837531       -22.7904
  41   2.0000      -0.836299       -22.7568
  42   2.0000      -0.756065       -20.5736
  43   2.0000      -0.740679       -20.1549
  44   2.0000      -0.731758       -19.9121
  45   2.0000      -0.698638       -19.0109
  46   2.0000      -0.689240       -18.7552
  47   2.0000      -0.681711       -18.5503
  48   2.0000      -0.677279       -18.4297
  49   2.0000      -0.660755       -17.9801
  50   2.0000      -0.656587       -17.8666
  51   2.0000      -0.647161       -17.6101
  52   2.0000      -0.640426       -17.4269
  53   2.0000      -0.612691       -16.6722
  54   2.0000      -0.608772       -16.5655
  55   2.0000      -0.606364       -16.5000
  56   2.0000      -0.600605       -16.3433
  57   2.0000      -0.584850       -15.9146
  58   2.0000      -0.579036       -15.7564
  59   2.0000      -0.569525       -15.4976
  60   2.0000      -0.560035       -15.2393
  61   2.0000      -0.557838       -15.1795
  62   2.0000      -0.547938       -14.9101
  63   2.0000      -0.529832       -14.4175
  64   2.0000      -0.519518       -14.1368
  65   2.0000      -0.514673       -14.0050
  66   2.0000      -0.502907       -13.6848
  67   2.0000      -0.502075       -13.6621
  68   2.0000      -0.488558       -13.2943
  69   2.0000      -0.471537       -12.8312
  70   2.0000      -0.451136       -12.2760
  71   2.0000      -0.450906       -12.2698
  72   2.0000      -0.357176        -9.7193
  73   2.0000      -0.352874        -9.6022
  74   2.0000      -0.330088        -8.9821
  75   2.0000      -0.325061        -8.8454
  76   2.0000      -0.318676        -8.6716
  77   0.0000       0.084759         2.3064
  78   0.0000       0.103722         2.8224
  79   0.0000       0.111840         3.0433
  80   0.0000       0.127247         3.4626
  81   0.0000       0.133705         3.6383

MULLIKEN ATOMIC CHARGES
-----------------------
   0 C :   -0.262624
   1 C :    0.007591
   2 O :   -0.310186
   3 C :    0.393610
   4 O :   -0.384095
   5 C :   -0.174564
   6 C :    0.124479
   7 C :   -0.322200
   8 N :   -0.136335
   9 C :    0.203201
  10 S :   -0.440276
  11 N :   -0.212321
  12 C :    0.067549
  13 C :    0.030832
  14 C :   -0.194108
  15 C :   -0.126422
  16 C :   -0.280775
  17 C :    0.309840
  18 O :   -0.360904
  19 C :   -0.273934
  20 H :    0.110117
  21 H :    0.106644
  22 H :    0.089518
  23 H :    0.108832
  24 H :    0.097460
  25 H :    0.126569
  26 H :    0.137069
  27 H :    0.123039
  28 H :    0.196582
  29 H :    0.197987
  30 H :    0.164637
  31 H :    0.167453
  32 H :    0.163930
  33 H :    0.132682
  34 H :    0.241984
  35 H :    0.177141
Sum of atomic charges:   -0.0000000

LOEWDIN ATOMIC CHARGES
----------------------
   0 C :    0.110351
   1 C :   -0.022827
   2 O :    0.312615
   3 C :   -0.418360
   4 O :    0.122412
   5 C :   -0.083392
   6 C :   -0.103976
   7 C :    0.125793
   8 N :    0.401095
   9 C :   -0.455932
  10 S :   -0.037298
  11 N :    0.397362
  12 C :   -0.044147
  13 C :   -0.042742
  14 C :    0.023396
  15 C :    0.045662
  16 C :   -0.000702
  17 C :   -0.193690
  18 O :    0.395200
  19 C :    0.027082
  20 H :   -0.022192
  21 H :   -0.026211
  22 H :   -0.025993
  23 H :   -0.034242
  24 H :   -0.039497
  25 H :   -0.007663
  26 H :   -0.009936
  27 H :   -0.016217
  28 H :   -0.057962
  29 H :   -0.063573
  30 H :   -0.002150
  31 H :   -0.021630
  32 H :   -0.018312
  33 H :   -0.034717
  34 H :   -0.152755
  35 H :   -0.024856

  Mayer bond orders larger than 0.100000
B(  0-C ,  1-C ) :   0.9803 B(  0-C , 20-H ) :   0.9711 B(  0-C , 21-H ) :   0.9813
B(  0-C , 22-H ) :   0.9757 B(  1-C ,  2-O ) :   0.9097 B(  1-C , 23-H ) :   0.9764
B(  1-C , 24-H ) :   0.9607 B(  2-O ,  3-C ) :   1.1854 B(  3-C ,  4-O ) :   2.0897
B(  3-C ,  5-C ) :   0.9260 B(  5-C ,  6-C ) :   1.6870 B(  5-C , 12-C ) :   0.9612
B(  6-C ,  7-C ) :   0.9454 B(  6-C ,  8-N ) :   1.1146 B(  7-C , 25-H ) :   0.9804
B(  7-C , 26-H ) :   0.9724 B(  7-C , 27-H ) :   0.9649 B(  8-N ,  9-C ) :   1.1943
B(  8-N , 28-H ) :   0.9521 B(  9-C , 10-S ) :   1.6121 B(  9-C , 11-N ) :   1.2876
B( 11-N , 12-C ) :   0.9989 B( 11-N , 29-H ) :   0.9493 B( 12-C , 13-C ) :   0.9439
B( 12-C , 30-H ) :   0.9966 B( 13-C , 14-C ) :   1.3877 B( 13-C , 19-C ) :   1.3458
B( 14-C , 15-C ) :   1.3954 B( 14-C , 31-H ) :   0.9612 B( 15-C , 16-C ) :   1.3607
B( 15-C , 32-H ) :   0.9704 B( 16-C , 17-C ) :   1.3300 B( 16-C , 33-H ) :   0.9852
B( 17-C , 18-O ) :   1.1060 B( 17-C , 19-C ) :   1.3722 B( 18-O , 34-H ) :   0.9790
B( 19-C , 35-H ) :   0.9561

MP2 TOTAL ENERGY:    -1274.333390459 Eh
FINAL SINGLE POINT ENERGY     -1274.333390458866

DIPOLE MOMENT
-------------
                                X             Y             Z
Electronic contribution:     10.30267       8.08221       5.96707
Nuclear contribution   :    -11.83954      -9.02700      -6.41536
                        -----------------------------------------
Total Dipole Moment    :     -1.53687      -0.94479      -0.44829
                        -----------------------------------------
Magnitude (a.u.)       :      1.85891
Magnitude (Debye)      :      4.72497

Rotational constants in cm-1:     0.012482     0.009105     0.006915
Rotational constants in MHz :   374.204387   272.958053   207.293764

                             ****ORCA TERMINATED NORMALLY****
TOTAL RUN TIME: 0 days 1 hours 54 minutes 40 seconds 472 msec
