                         Program Version 5.0.0 -  RELEASE  -
|  1> ! ri-mp2 cc-pvtz cc-pvtz/c TightSCF NoKeepInts
|  2>
|  3> %scf
|  4>   MaxCore 4096
|  5> end
|  6> *xyz  0  1
|  7>     C       15.1000264   14.3461204   16.9766519
|  8>     C       16.4526448   13.9541195   16.3390598
|  9>     O       17.4483417   14.9919581   16.4796399
| 10>     C       17.1443048   16.3119926   16.2955724
| 11>     O       16.3814084   16.6795997   15.4186742
| 12>     C       17.7252121   17.2034160   17.3587830
| 13>     C       17.5448998   18.5487618   17.3575173
| 14>     C       16.7562435   19.3673962   16.3579112
| 15>     N       18.1560478   19.3386838   18.3360651
| 16>     C       19.0566172   18.8814293   19.2608600
| 17>     S       19.8250476   19.9005704   20.3128212
| 18>     N       19.2935111   17.5304670   19.2675447
| 19>     C       18.5512485   16.5362080   18.4710369
| 20>     C       17.6856299   15.6836383   19.3940843
| 21>     C       17.9642966   14.3152119   19.5706677
| 22>     C       17.1666106   13.5263449   20.4165456
| 23>     C       16.0842405   14.1111748   21.0957879
| 24>     C       15.8085078   15.4751879   20.9284734
| 25>     O       14.7639773   16.0426410   21.5823064
| 26>     C       16.6029854   16.2572611   20.0845315
| 27>     H       15.2365355   14.6775131   18.0125842
| 28>     H       14.4248020   13.4822698   16.9870047
| 29>     H       14.6011693   15.1451491   16.4151061
| 30>     H       16.8251423   13.0331473   16.8053914
| 31>     H       16.2907864   13.7486512   15.2725771
| 32>     H       17.1470302   19.2187357   15.3431902
| 33>     H       16.7824994   20.4430490   16.5677745
| 34>     H       15.7036252   19.0566273   16.3513025
| 35>     H       17.9969062   20.3335323   18.3426821
| 36>     H       19.9367307   17.2187661   19.9837465
| 37>     H       19.2933370   15.8838672   17.9895722
| 38>     H       18.7985348   13.8599899   19.0435089
| 39>     H       17.3889495   12.4684041   20.5449580
| 40>     H       15.4657838   13.5063822   21.7508850
| 41>     H       14.3670110   15.3615599   22.1457652
| 42>     H       16.3763551   17.3121733   19.9734171
| 43> *
| 44>
| 45>                          ****END OF INPUT****

CARTESIAN COORDINATES (ANGSTROEM)
---------------------------------
  C     15.100026   14.346120   16.976652
  C     16.452645   13.954119   16.339060
  O     17.448342   14.991958   16.479640
  C     17.144305   16.311993   16.295572
  O     16.381408   16.679600   15.418674
  C     17.725212   17.203416   17.358783
  C     17.544900   18.548762   17.357517
  C     16.756244   19.367396   16.357911
  N     18.156048   19.338684   18.336065
  C     19.056617   18.881429   19.260860
  S     19.825048   19.900570   20.312821
  N     19.293511   17.530467   19.267545
  C     18.551248   16.536208   18.471037
  C     17.685630   15.683638   19.394084
  C     17.964297   14.315212   19.570668
  C     17.166611   13.526345   20.416546
  C     16.084240   14.111175   21.095788
  C     15.808508   15.475188   20.928473
  O     14.763977   16.042641   21.582306
  C     16.602985   16.257261   20.084532
  H     15.236535   14.677513   18.012584
  H     14.424802   13.482270   16.987005
  H     14.601169   15.145149   16.415106
  H     16.825142   13.033147   16.805391
  H     16.290786   13.748651   15.272577
  H     17.147030   19.218736   15.343190
  H     16.782499   20.443049   16.567774
  H     15.703625   19.056627   16.351302
  H     17.996906   20.333532   18.342682
  H     19.936731   17.218766   19.983746
  H     19.293337   15.883867   17.989572
  H     18.798535   13.859990   19.043509
  H     17.388949   12.468404   20.544958
  H     15.465784   13.506382   21.750885
  H     14.367011   15.361560   22.145765
  H     16.376355   17.312173   19.973417

 Total Charge           Charge          ....    0
 Multiplicity           Mult            ....    1
 Number of Electrons    NEL             ....  154
 Basis Dimension        Dim             ....  828

ORBITAL ENERGIES
----------------

  NO   OCC          E(Eh)            E(eV)
   0   2.0000     -91.889715     -2500.4463
   1   2.0000     -20.598975      -560.5266
   2   2.0000     -20.591635      -560.3269
   3   2.0000     -20.542336      -558.9854
   4   2.0000     -15.629995      -425.3138
   5   2.0000     -15.608929      -424.7405
   6   2.0000     -11.394362      -310.0564
   7   2.0000     -11.384697      -309.7933
   8   2.0000     -11.336642      -308.4857
   9   2.0000     -11.316527      -307.9383
  10   2.0000     -11.309885      -307.7576
  11   2.0000     -11.298990      -307.4612
  12   2.0000     -11.261906      -306.4520
  13   2.0000     -11.259024      -306.3736
  14   2.0000     -11.258190      -306.3509
  15   2.0000     -11.252527      -306.1968
  16   2.0000     -11.245929      -306.0173
  17   2.0000     -11.240871      -305.8796
  18   2.0000     -11.240726      -305.8757
  19   2.0000     -11.221345      -305.3483
  20   2.0000      -8.894764      -242.0388
  21   2.0000      -6.576335      -178.9512
  22   2.0000      -6.574334      -178.8967
  23   2.0000      -6.573744      -178.8807
  24   2.0000      -1.446276       -39.3552
  25   2.0000      -1.418704       -38.6049
  26   2.0000      -1.351893       -36.7869
  27   2.0000      -1.340921       -36.4883
  28   2.0000      -1.239365       -33.7248
  29   2.0000      -1.160020       -31.5658
  30   2.0000      -1.121070       -30.5059
  31   2.0000      -1.044289       -28.4165
  32   2.0000      -1.032583       -28.0980
  33   2.0000      -1.017873       -27.6977
  34   2.0000      -0.996562       -27.1178
  35   2.0000      -0.985311       -26.8117
  36   2.0000      -0.923809       -25.1381
  37   2.0000      -0.896636       -24.3987
  38   2.0000      -0.847885       -23.0721
  39   2.0000      -0.840364       -22.8675
  40   2.0000      -0.836612       -22.7654
  41   2.0000      -0.816529       -22.2189
  42   2.0000      -0.747523       -20.3411
  43   2.0000      -0.733832       -19.9686
  44   2.0000      -0.722731       -19.6665
  45   2.0000      -0.698071       -18.9955
  46   2.0000      -0.690135       -18.7795
  47   2.0000      -0.675238       -18.3742
  48   2.0000      -0.670495       -18.2451
  49   2.0000      -0.661976       -18.0133
  50   2.0000      -0.650418       -17.6988
  51   2.0000      -0.641863       -17.4660
  52   2.0000      -0.634744       -17.2723
  53   2.0000      -0.619640       -16.8613
  54   2.0000      -0.609271       -16.5791
  55   2.0000      -0.602244       -16.3879
  56   2.0000      -0.599985       -16.3264
  57   2.0000      -0.579557       -15.7705
  58   2.0000      -0.571206       -15.5433
  59   2.0000      -0.566441       -15.4136
  60   2.0000      -0.552377       -15.0310
  61   2.0000      -0.544117       -14.8062
  62   2.0000      -0.534001       -14.5309
  63   2.0000      -0.526905       -14.3378
  64   2.0000      -0.525952       -14.3119
  65   2.0000      -0.514305       -13.9949
  66   2.0000      -0.502433       -13.6719
  67   2.0000      -0.500864       -13.6292
  68   2.0000      -0.481431       -13.1004
  69   2.0000      -0.464982       -12.6528
  70   2.0000      -0.453635       -12.3440
  71   2.0000      -0.443732       -12.0746
  72   2.0000      -0.355293        -9.6680
  73   2.0000      -0.351743        -9.5714
  74   2.0000      -0.329232        -8.9589
  75   2.0000      -0.324526        -8.8308
  76   2.0000      -0.316903        -8.6234
  77   0.0000       0.073081         1.9886
  78   0.0000       0.104105         2.8328
  79   0.0000       0.123970         3.3734
  80   0.0000       0.130779         3.5587
  81   0.0000       0.136620         3.7176

MULLIKEN ATOMIC CHARGES
-----------------------
   0 C :   -0.329142
   1 C :    0.032262
   2 O :   -0.381723
   3 C :    0.485985
   4 O :   -0.430162
   5 C :   -0.237816
   6 C :    0.153676
   7 C :   -0.271855
   8 N :   -0.122307
   9 C :    0.209285
  10 S :   -0.438110
  11 N :   -0.203021
  12 C :    0.056597
  13 C :    0.032636
  14 C :   -0.173000
  15 C :   -0.137330
  16 C :   -0.270093
  17 C :    0.305124
  18 O :   -0.359172
  19 C :   -0.252370
  20 H :    0.110928
  21 H :    0.102393
  22 H :    0.124351
  23 H :    0.111185
  24 H :    0.120282
  25 H :    0.132544
  26 H :    0.095343
  27 H :    0.131356
  28 H :    0.198008
  29 H :    0.193914
  30 H :    0.152187
  31 H :    0.156341
  32 H :    0.162033
  33 H :    0.132103
  34 H :    0.240945
  35 H :    0.166624
Sum of atomic charges:   -0.0000000

LOEWDIN ATOMIC CHARGES
----------------------
   0 C :    0.105734
   1 C :   -0.014237
   2 O :    0.293707
   3 C :   -0.416430
   4 O :    0.103079
   5 C :   -0.095890
   6 C :   -0.058031
   7 C :    0.131748
   8 N :    0.406732
   9 C :   -0.456927
  10 S :   -0.034227
  11 N :    0.396669
  12 C :   -0.052044
  13 C :   -0.040063
  14 C :    0.015909
  15 C :    0.039386
  16 C :   -0.001734
  17 C :   -0.191160
  18 O :    0.396436
  19 C :    0.031080
  20 H :   -0.027640
  21 H :   -0.025732
  22 H :   -0.026724
  23 H :   -0.025993
  24 H :   -0.028373
  25 H :   -0.003396
  26 H :   -0.023354
  27 H :   -0.004928
  28 H :   -0.057459
  29 H :   -0.064663
  30 H :   -0.009391
  31 H :   -0.029189
  32 H :   -0.020882
  33 H :   -0.035067
  34 H :   -0.153359
  35 H :   -0.023588

  Mayer bond orders larger than 0.100000
B(  0-C ,  1-C ) :   0.9555 B(  0-C , 20-H ) :   0.9688 B(  0-C , 21-H ) :   0.9781
B(  0-C , 22-H ) :   0.9736 B(  1-C ,  2-O ) :   0.8849 B(  1-C , 23-H ) :   0.9818
B(  1-C , 24-H ) :   0.9864 B(  2-O ,  3-C ) :   1.1359 B(  3-C ,  4-O ) :   1.9836
B(  3-C ,  5-C ) :   1.0620 B(  5-C ,  6-C ) :   1.6531 B(  5-C , 12-C ) :   0.9699
B(  6-C ,  7-C ) :   0.9664 B(  6-C ,  8-N ) :   1.1617 B(  7-C , 25-H ) :   0.9596
B(  7-C , 26-H ) :   0.9901 B(  7-C , 27-H ) :   0.9610 B(  8-N ,  9-C ) :   1.1815
B(  8-N , 28-H ) :   0.9478 B(  9-C , 10-S ) :   1.6104 B(  9-C , 11-N ) :   1.3041
B( 11-N , 12-C ) :   0.9859 B( 11-N , 29-H ) :   0.9524 B( 12-C , 13-C ) :   0.9352
B( 12-C , 30-H ) :   1.0020 B( 13-C , 14-C ) :   1.3602 B( 13-C , 19-C ) :   1.3842
B( 14-C , 15-C ) :   1.3846 B( 14-C , 31-H ) :   0.9701 B( 15-C , 16-C ) :   1.3632
B( 15-C , 32-H ) :   0.9708 B( 16-C , 17-C ) :   1.3319 B( 16-C , 33-H ) :   0.9844
B( 17-C , 18-O ) :   1.1118 B( 17-C , 19-C ) :   1.3718 B( 18-O , 34-H ) :   0.9796
B( 19-C , 35-H ) :   0.9580

MP2 TOTAL ENERGY:    -1274.344201564 Eh
FINAL SINGLE POINT ENERGY     -1274.344201564315

DIPOLE MOMENT
-------------
                                X             Y             Z
Electronic contribution:     10.01696       9.52353       6.21767
Nuclear contribution   :    -11.03231     -11.22349      -6.36449
                        -----------------------------------------
Total Dipole Moment    :     -1.01535      -1.69996      -0.14682
                        -----------------------------------------
Magnitude (a.u.)       :      1.98554
Magnitude (Debye)      :      5.04684

Rotational constants in cm-1:     0.012467     0.008998     0.006484
Rotational constants in MHz :   373.741333   269.756313   194.398955

                             ****ORCA TERMINATED NORMALLY****
TOTAL RUN TIME: 0 days 2 hours 9 minutes 22 seconds 916 msec
