                         Program Version 4.2.0 -  RELEASE  -
|  1> ! ri-mp2 cc-pvtz cc-pvtz/c TightSCF  NoKeepInts
|  2>
|  3> %scf
|  4>   MaxCore 4096
|  5> end
|  6> *xyz  0  1
|  7>     C       15.0999378   14.1375842   15.3343753
|  8>     C       16.3752069   13.8817461   16.1655042
|  9>     O       16.9994618   15.0454718   16.7719500
| 10>     C       16.6225987   16.3651961   16.6917535
| 11>     O       15.7628255   16.7942663   15.9437674
| 12>     C       17.4654703   17.2388846   17.5830877
| 13>     C       17.3653862   18.5934056   17.5861908
| 14>     C       16.4417386   19.4503548   16.7465822
| 15>     N       18.1971057   19.3571909   18.4107517
| 16>     C       19.2115457   18.8572338   19.1821553
| 17>     S       20.2091755   19.8409273   20.0614450
| 18>     N       19.3606539   17.4943050   19.1876936
| 19>     C       18.4502345   16.5366177   18.5340558
| 20>     C       17.7267755   15.7098320   19.5932916
| 21>     C       17.9941125   14.3346511   19.7306116
| 22>     C       17.3286310   13.5706516   20.7041269
| 23>     C       16.3901651   14.1868947   21.5494267
| 24>     C       16.1250112   15.5570229   21.4185196
| 25>     O       15.2207593   16.1551783   22.2343596
| 26>     C       16.7888725   16.3146954   20.4488358
| 27>     H       14.3247606   14.6243420   15.9396036
| 28>     H       14.6902286   13.1887226   14.9681101
| 29>     H       15.3161069   14.7647259   14.4603456
| 30>     H       16.1263076   13.1723371   16.9653813
| 31>     H       17.1131032   13.3874409   15.5207381
| 32>     H       15.3929594   19.1982778   16.9494789
| 33>     H       16.6189741   19.2758146   15.6777140
| 34>     H       16.5650662   20.5238786   16.9310803
| 35>     H       18.1027397   20.3601757   18.4186095
| 36>     H       20.0920364   17.1525754   19.7976409
| 37>     H       19.0722624   15.8610992   17.9303209
| 38>     H       18.7164889   13.8552797   19.0755717
| 39>     H       17.5408575   12.5074552   20.8017769
| 40>     H       15.8738699   13.6014017   22.3030126
| 41>     H       14.8905624   15.4812859   22.8471908
| 42>     H       16.5750079   17.3750776   20.3689406
| 43> *
| 44>
| 45>                          ****END OF INPUT****

CARTESIAN COORDINATES (ANGSTROEM)
---------------------------------
  C     15.099938   14.137584   15.334375
  C     16.375207   13.881746   16.165504
  O     16.999462   15.045472   16.771950
  C     16.622599   16.365196   16.691754
  O     15.762825   16.794266   15.943767
  C     17.465470   17.238885   17.583088
  C     17.365386   18.593406   17.586191
  C     16.441739   19.450355   16.746582
  N     18.197106   19.357191   18.410752
  C     19.211546   18.857234   19.182155
  S     20.209175   19.840927   20.061445
  N     19.360654   17.494305   19.187694
  C     18.450235   16.536618   18.534056
  C     17.726775   15.709832   19.593292
  C     17.994112   14.334651   19.730612
  C     17.328631   13.570652   20.704127
  C     16.390165   14.186895   21.549427
  C     16.125011   15.557023   21.418520
  O     15.220759   16.155178   22.234360
  C     16.788873   16.314695   20.448836
  H     14.324761   14.624342   15.939604
  H     14.690229   13.188723   14.968110
  H     15.316107   14.764726   14.460346
  H     16.126308   13.172337   16.965381
  H     17.113103   13.387441   15.520738
  H     15.392959   19.198278   16.949479
  H     16.618974   19.275815   15.677714
  H     16.565066   20.523879   16.931080
  H     18.102740   20.360176   18.418609
  H     20.092036   17.152575   19.797641
  H     19.072262   15.861099   17.930321
  H     18.716489   13.855280   19.075572
  H     17.540857   12.507455   20.801777
  H     15.873870   13.601402   22.303013
  H     14.890562   15.481286   22.847191
  H     16.575008   17.375078   20.368941

 Total Charge           Charge          ....    0
 Multiplicity           Mult            ....    1
 Number of Electrons    NEL             ....  154
 Basis Dimension        Dim             ....  828

ORBITAL ENERGIES
----------------

  NO   OCC          E(Eh)            E(eV)
   0   2.0000     -91.887516     -2500.3864
   1   2.0000     -20.598985      -560.5269
   2   2.0000     -20.595517      -560.4325
   3   2.0000     -20.539494      -558.9080
   4   2.0000     -15.627489      -425.2456
   5   2.0000     -15.606703      -424.6800
   6   2.0000     -11.398376      -310.1656
   7   2.0000     -11.382477      -309.7330
   8   2.0000     -11.334357      -308.4235
   9   2.0000     -11.312531      -307.8296
  10   2.0000     -11.306863      -307.6754
  11   2.0000     -11.303908      -307.5950
  12   2.0000     -11.258358      -306.3555
  13   2.0000     -11.257753      -306.3390
  14   2.0000     -11.254131      -306.2405
  15   2.0000     -11.250740      -306.1482
  16   2.0000     -11.241866      -305.9067
  17   2.0000     -11.237167      -305.7789
  18   2.0000     -11.237116      -305.7775
  19   2.0000     -11.223038      -305.3944
  20   2.0000      -8.892593      -241.9798
  21   2.0000      -6.574172      -178.8923
  22   2.0000      -6.572164      -178.8377
  23   2.0000      -6.571581      -178.8218
  24   2.0000      -1.441914       -39.2365
  25   2.0000      -1.415159       -38.5084
  26   2.0000      -1.354185       -36.8492
  27   2.0000      -1.338626       -36.4259
  28   2.0000      -1.237068       -33.6623
  29   2.0000      -1.156221       -31.4624
  30   2.0000      -1.118385       -30.4328
  31   2.0000      -1.041400       -28.3379
  32   2.0000      -1.036796       -28.2127
  33   2.0000      -1.013834       -27.5878
  34   2.0000      -0.994186       -27.0532
  35   2.0000      -0.982416       -26.7329
  36   2.0000      -0.921017       -25.0621
  37   2.0000      -0.898506       -24.4496
  38   2.0000      -0.846046       -23.0221
  39   2.0000      -0.836807       -22.7707
  40   2.0000      -0.832867       -22.6635
  41   2.0000      -0.817812       -22.2538
  42   2.0000      -0.743952       -20.2440
  43   2.0000      -0.729325       -19.8459
  44   2.0000      -0.717334       -19.5197
  45   2.0000      -0.694543       -18.8995
  46   2.0000      -0.686626       -18.6840
  47   2.0000      -0.673954       -18.3392
  48   2.0000      -0.669879       -18.2283
  49   2.0000      -0.662293       -18.0219
  50   2.0000      -0.650141       -17.6912
  51   2.0000      -0.643054       -17.4984
  52   2.0000      -0.634733       -17.2720
  53   2.0000      -0.605681       -16.4814
  54   2.0000      -0.599451       -16.3119
  55   2.0000      -0.598726       -16.2922
  56   2.0000      -0.597191       -16.2504
  57   2.0000      -0.581208       -15.8155
  58   2.0000      -0.575366       -15.6565
  59   2.0000      -0.569637       -15.5006
  60   2.0000      -0.560634       -15.2556
  61   2.0000      -0.538762       -14.6604
  62   2.0000      -0.535177       -14.5629
  63   2.0000      -0.525193       -14.2912
  64   2.0000      -0.522694       -14.2232
  65   2.0000      -0.511937       -13.9305
  66   2.0000      -0.501471       -13.6457
  67   2.0000      -0.498005       -13.5514
  68   2.0000      -0.483862       -13.1666
  69   2.0000      -0.462270       -12.5790
  70   2.0000      -0.450548       -12.2600
  71   2.0000      -0.439910       -11.9706
  72   2.0000      -0.352611        -9.5950
  73   2.0000      -0.348183        -9.4745
  74   2.0000      -0.326986        -8.8977
  75   2.0000      -0.320210        -8.7133
  76   2.0000      -0.314681        -8.5629
  77   0.0000       0.078237         2.1289
  78   0.0000       0.107803         2.9335
  79   0.0000       0.125363         3.4113
  80   0.0000       0.133667         3.6373
  81   0.0000       0.137345         3.7373

MULLIKEN ATOMIC CHARGES
-----------------------
   0 C :   -0.288101
   1 C :    0.053203
   2 O :   -0.362435
   3 C :    0.457830
   4 O :   -0.431839
   5 C :   -0.197712
   6 C :    0.146154
   7 C :   -0.273206
   8 N :   -0.119907
   9 C :    0.212197
  10 S :   -0.442323
  11 N :   -0.204201
  12 C :    0.049703
  13 C :    0.069563
  14 C :   -0.183410
  15 C :   -0.132841
  16 C :   -0.279017
  17 C :    0.316109
  18 O :   -0.356831
  19 C :   -0.269690
  20 H :    0.108082
  21 H :    0.096944
  22 H :    0.112645
  23 H :    0.091488
  24 H :    0.087904
  25 H :    0.130995
  26 H :    0.130732
  27 H :    0.094658
  28 H :    0.197015
  29 H :    0.194349
  30 H :    0.148954
  31 H :    0.148418
  32 H :    0.159952
  33 H :    0.129291
  34 H :    0.240513
  35 H :    0.164815
Sum of atomic charges:   -0.0000000

LOEWDIN ATOMIC CHARGES
----------------------
   0 C :    0.102299
   1 C :   -0.008130
   2 O :    0.295699
   3 C :   -0.411471
   4 O :    0.106713
   5 C :   -0.092976
   6 C :   -0.059499
   7 C :    0.130395
   8 N :    0.406252
   9 C :   -0.456898
  10 S :   -0.037316
  11 N :    0.396511
  12 C :   -0.053122
  13 C :   -0.038130
  14 C :    0.014301
  15 C :    0.038519
  16 C :   -0.001956
  17 C :   -0.189526
  18 O :    0.395046
  19 C :    0.031422
  20 H :   -0.024905
  21 H :   -0.027852
  22 H :   -0.025137
  23 H :   -0.027704
  24 H :   -0.028626
  25 H :   -0.005064
  26 H :   -0.004432
  27 H :   -0.023804
  28 H :   -0.057857
  29 H :   -0.064756
  30 H :   -0.012104
  31 H :   -0.030486
  32 H :   -0.021693
  33 H :   -0.035819
  34 H :   -0.154103
  35 H :   -0.023792

  Mayer bond orders larger than 0.100000
B(  0-C ,  1-C ) :   0.9839 B(  0-C , 20-H ) :   0.9741 B(  0-C , 21-H ) :   0.9729
B(  0-C , 22-H ) :   0.9734 B(  1-C ,  2-O ) :   0.9017 B(  1-C , 23-H ) :   0.9753
B(  1-C , 24-H ) :   0.9790 B(  2-O ,  3-C ) :   1.1486 B(  3-C ,  4-O ) :   1.9740
B(  3-C ,  5-C ) :   1.0641 B(  5-C ,  6-C ) :   1.6556 B(  5-C , 12-C ) :   0.9763
B(  6-C ,  7-C ) :   0.9677 B(  6-C ,  8-N ) :   1.1613 B(  7-C , 25-H ) :   0.9609
B(  7-C , 26-H ) :   0.9600 B(  7-C , 27-H ) :   0.9909 B(  8-N ,  9-C ) :   1.1839
B(  8-N , 28-H ) :   0.9480 B(  9-C , 10-S ) :   1.6049 B(  9-C , 11-N ) :   1.3061
B( 11-N , 12-C ) :   0.9854 B( 11-N , 29-H ) :   0.9516 B( 12-C , 13-C ) :   0.9369
B( 12-C , 30-H ) :   1.0033 B( 13-C , 14-C ) :   1.3538 B( 13-C , 19-C ) :   1.3828
B( 14-C , 15-C ) :   1.3925 B( 14-C , 31-H ) :   0.9721 B( 15-C , 16-C ) :   1.3639
B( 15-C , 32-H ) :   0.9707 B( 16-C , 17-C ) :   1.3316 B( 16-C , 33-H ) :   0.9853
B( 17-C , 18-O ) :   1.1096 B( 17-C , 19-C ) :   1.3723 B( 18-O , 34-H ) :   0.9800
B( 19-C , 35-H ) :   0.9584

MP2 TOTAL ENERGY:    -1274.338436956 Eh
FINAL SINGLE POINT ENERGY     -1274.338436956117

DIPOLE MOMENT
-------------
                                X             Y             Z
Electronic contribution:      9.76107      10.02136       9.79455
Nuclear contribution   :    -10.76809     -11.84359     -10.24870
                        -----------------------------------------
Total Dipole Moment    :     -1.00701      -1.82223      -0.45415
                        -----------------------------------------
Magnitude (a.u.)       :      2.13093
Magnitude (Debye)      :      5.41638

Rotational constants in cm-1:     0.011186     0.008722     0.006026
Rotational constants in MHz :   335.353397   261.476931   180.664134

                             ****ORCA TERMINATED NORMALLY****
TOTAL RUN TIME: 0 days 1 hours 51 minutes 53 seconds 574 msec
