                         Program Version 4.2.0 -  RELEASE  -
|  1> ! ri-mp2 cc-pvtz cc-pvtz/c TightSCF  NoKeepInts
|  2>
|  3> %scf
|  4>   MaxCore 4096
|  5> end
|  6> *xyz  0  1
|  7>     C       15.2138581   14.0950676   15.2511841
|  8>     C       15.9940021   14.0206485   16.5818227
|  9>     O       16.9582246   15.0873461   16.7391430
| 10>     C       16.6647444   16.4218859   16.6218738
| 11>     O       15.7094896   16.8504969   15.9997335
| 12>     C       17.5021343   17.2649034   17.5463099
| 13>     C       17.4030294   18.6185206   17.5877815
| 14>     C       16.4889374   19.4985911   16.7618932
| 15>     N       18.2320280   19.3573266   18.4373694
| 16>     C       19.2511047   18.8350840   19.1878899
| 17>     S       20.2509269   19.7923931   20.0933759
| 18>     N       19.4044704   17.4730214   19.1474842
| 19>     C       18.4878201   16.5345725   18.4749779
| 20>     C       17.7674484   15.6851547   19.5187691
| 21>     C       18.0550808   14.3127325   19.6425947
| 22>     C       17.3898874   13.5260515   20.5980092
| 23>     C       16.4315468   14.1167660   21.4391852
| 24>     C       16.1467741   15.4842489   21.3225213
| 25>     O       15.2233797   16.0577833   22.1345151
| 26>     C       16.8098170   16.2643144   20.3702140
| 27>     H       14.4158763   14.8461416   15.2944028
| 28>     H       14.7410222   13.1296480   15.0349498
| 29>     H       15.8838055   14.3408958   14.4179334
| 30>     H       15.2814463   14.0425417   17.4171015
| 31>     H       16.5265786   13.0622573   16.6283335
| 32>     H       15.4375806   19.2823393   16.9913363
| 33>     H       16.6348451   19.3103944   15.6906541
| 34>     H       16.6528644   20.5688662   16.9333722
| 35>     H       18.1344550   20.3592154   18.4787883
| 36>     H       20.1407523   17.1139986   19.7414165
| 37>     H       19.1022763   15.8705765   17.8508598
| 38>     H       18.7930667   13.8530853   18.9906348
| 39>     H       17.6186215   12.4653316   20.6856563
| 40>     H       15.9159766   13.5139442   22.1795586
| 41>     H       14.9034258   15.3738330   22.7416545
| 42>     H       16.5797025   17.3220223   20.3007001
| 43> *
| 44>
| 45>                          ****END OF INPUT****

CARTESIAN COORDINATES (ANGSTROEM)
---------------------------------
  C     15.213858   14.095068   15.251184
  C     15.994002   14.020649   16.581823
  O     16.958225   15.087346   16.739143
  C     16.664744   16.421886   16.621874
  O     15.709490   16.850497   15.999733
  C     17.502134   17.264903   17.546310
  C     17.403029   18.618521   17.587781
  C     16.488937   19.498591   16.761893
  N     18.232028   19.357327   18.437369
  C     19.251105   18.835084   19.187890
  S     20.250927   19.792393   20.093376
  N     19.404470   17.473021   19.147484
  C     18.487820   16.534572   18.474978
  C     17.767448   15.685155   19.518769
  C     18.055081   14.312732   19.642595
  C     17.389887   13.526051   20.598009
  C     16.431547   14.116766   21.439185
  C     16.146774   15.484249   21.322521
  O     15.223380   16.057783   22.134515
  C     16.809817   16.264314   20.370214
  H     14.415876   14.846142   15.294403
  H     14.741022   13.129648   15.034950
  H     15.883805   14.340896   14.417933
  H     15.281446   14.042542   17.417101
  H     16.526579   13.062257   16.628334
  H     15.437581   19.282339   16.991336
  H     16.634845   19.310394   15.690654
  H     16.652864   20.568866   16.933372
  H     18.134455   20.359215   18.478788
  H     20.140752   17.113999   19.741416
  H     19.102276   15.870577   17.850860
  H     18.793067   13.853085   18.990635
  H     17.618621   12.465332   20.685656
  H     15.915977   13.513944   22.179559
  H     14.903426   15.373833   22.741654
  H     16.579702   17.322022   20.300700

 Total Charge           Charge          ....    0
 Multiplicity           Mult            ....    1
 Number of Electrons    NEL             ....  154
 Basis Dimension        Dim             ....  828

ORBITAL ENERGIES
----------------

  NO   OCC          E(Eh)            E(eV)
   0   2.0000     -91.888304     -2500.4079
   1   2.0000     -20.596726      -560.4654
   2   2.0000     -20.596189      -560.4508
   3   2.0000     -20.542537      -558.9908
   4   2.0000     -15.628389      -425.2701
   5   2.0000     -15.607576      -424.7037
   6   2.0000     -11.396852      -310.1241
   7   2.0000     -11.383331      -309.7562
   8   2.0000     -11.334975      -308.4404
   9   2.0000     -11.313925      -307.8675
  10   2.0000     -11.308298      -307.7144
  11   2.0000     -11.300926      -307.5138
  12   2.0000     -11.259647      -306.3906
  13   2.0000     -11.258253      -306.3526
  14   2.0000     -11.255421      -306.2756
  15   2.0000     -11.251692      -306.1741
  16   2.0000     -11.243018      -305.9381
  17   2.0000     -11.238269      -305.8089
  18   2.0000     -11.238069      -305.8034
  19   2.0000     -11.219668      -305.3027
  20   2.0000      -8.893373      -242.0010
  21   2.0000      -6.574950      -178.9135
  22   2.0000      -6.572944      -178.8589
  23   2.0000      -6.572358      -178.8430
  24   2.0000      -1.445512       -39.3344
  25   2.0000      -1.416367       -38.5413
  26   2.0000      -1.354982       -36.8709
  27   2.0000      -1.339457       -36.4485
  28   2.0000      -1.237937       -33.6860
  29   2.0000      -1.157366       -31.4935
  30   2.0000      -1.119349       -30.4590
  31   2.0000      -1.042232       -28.3606
  32   2.0000      -1.034674       -28.1549
  33   2.0000      -1.015088       -27.6219
  34   2.0000      -0.994616       -27.0649
  35   2.0000      -0.983046       -26.7500
  36   2.0000      -0.922038       -25.0899
  37   2.0000      -0.894047       -24.3282
  38   2.0000      -0.846857       -23.0441
  39   2.0000      -0.837910       -22.8007
  40   2.0000      -0.833999       -22.6943
  41   2.0000      -0.819451       -22.2984
  42   2.0000      -0.749112       -20.3844
  43   2.0000      -0.730836       -19.8871
  44   2.0000      -0.719676       -19.5834
  45   2.0000      -0.695638       -18.9293
  46   2.0000      -0.687991       -18.7212
  47   2.0000      -0.679500       -18.4901
  48   2.0000      -0.668671       -18.1955
  49   2.0000      -0.655793       -17.8450
  50   2.0000      -0.650416       -17.6987
  51   2.0000      -0.644951       -17.5500
  52   2.0000      -0.634123       -17.2554
  53   2.0000      -0.607033       -16.5182
  54   2.0000      -0.601303       -16.3623
  55   2.0000      -0.598665       -16.2905
  56   2.0000      -0.597068       -16.2471
  57   2.0000      -0.582604       -15.8535
  58   2.0000      -0.574993       -15.6464
  59   2.0000      -0.570462       -15.5230
  60   2.0000      -0.562366       -15.3027
  61   2.0000      -0.538515       -14.6537
  62   2.0000      -0.535139       -14.5619
  63   2.0000      -0.524740       -14.2789
  64   2.0000      -0.520208       -14.1556
  65   2.0000      -0.512513       -13.9462
  66   2.0000      -0.501264       -13.6401
  67   2.0000      -0.499019       -13.5790
  68   2.0000      -0.483967       -13.1694
  69   2.0000      -0.463649       -12.6165
  70   2.0000      -0.455098       -12.3838
  71   2.0000      -0.439546       -11.9606
  72   2.0000      -0.353401        -9.6165
  73   2.0000      -0.349328        -9.5057
  74   2.0000      -0.327777        -8.9193
  75   2.0000      -0.321448        -8.7471
  76   2.0000      -0.315536        -8.5862
  77   0.0000       0.075764         2.0616
  78   0.0000       0.106753         2.9049
  79   0.0000       0.124942         3.3998
  80   0.0000       0.132635         3.6092
  81   0.0000       0.137860         3.7514

MULLIKEN ATOMIC CHARGES
-----------------------
   0 C :   -0.286123
   1 C :    0.049249
   2 O :   -0.370763
   3 C :    0.461608
   4 O :   -0.429433
   5 C :   -0.209955
   6 C :    0.149951
   7 C :   -0.272969
   8 N :   -0.120958
   9 C :    0.212724
  10 S :   -0.441127
  11 N :   -0.205156
  12 C :    0.059857
  13 C :    0.064891
  14 C :   -0.189949
  15 C :   -0.130008
  16 C :   -0.280564
  17 C :    0.315841
  18 O :   -0.356300
  19 C :   -0.269212
  20 H :    0.120441
  21 H :    0.093021
  22 H :    0.096416
  23 H :    0.093514
  24 H :    0.099968
  25 H :    0.132339
  26 H :    0.129449
  27 H :    0.095227
  28 H :    0.197213
  29 H :    0.194456
  30 H :    0.149184
  31 H :    0.150241
  32 H :    0.160512
  33 H :    0.130398
  34 H :    0.240718
  35 H :    0.165295
Sum of atomic charges:    0.0000000

LOEWDIN ATOMIC CHARGES
----------------------
   0 C :    0.103178
   1 C :   -0.011734
   2 O :    0.295271
   3 C :   -0.412381
   4 O :    0.109248
   5 C :   -0.094254
   6 C :   -0.059514
   7 C :    0.130754
   8 N :    0.406410
   9 C :   -0.456529
  10 S :   -0.036324
  11 N :    0.396295
  12 C :   -0.052504
  13 C :   -0.037692
  14 C :    0.014122
  15 C :    0.038663
  16 C :   -0.002692
  17 C :   -0.189669
  18 O :    0.395355
  19 C :    0.030983
  20 H :   -0.026655
  21 H :   -0.030146
  22 H :   -0.025909
  23 H :   -0.028421
  24 H :   -0.024716
  25 H :   -0.004850
  26 H :   -0.004426
  27 H :   -0.023488
  28 H :   -0.057713
  29 H :   -0.064779
  30 H :   -0.010820
  31 H :   -0.030331
  32 H :   -0.021415
  33 H :   -0.035692
  34 H :   -0.153906
  35 H :   -0.023718

  Mayer bond orders larger than 0.100000
B(  0-C ,  1-C ) :   0.9773 B(  0-C , 20-H ) :   0.9723 B(  0-C , 21-H ) :   0.9776
B(  0-C , 22-H ) :   0.9759 B(  1-C ,  2-O ) :   0.8918 B(  1-C , 23-H ) :   0.9731
B(  1-C , 24-H ) :   0.9829 B(  2-O ,  3-C ) :   1.1317 B(  3-C ,  4-O ) :   1.9734
B(  3-C ,  5-C ) :   1.0684 B(  5-C ,  6-C ) :   1.6556 B(  5-C , 12-C ) :   0.9740
B(  6-C ,  7-C ) :   0.9673 B(  6-C ,  8-N ) :   1.1617 B(  7-C , 25-H ) :   0.9596
B(  7-C , 26-H ) :   0.9611 B(  7-C , 27-H ) :   0.9909 B(  8-N ,  9-C ) :   1.1832
B(  8-N , 28-H ) :   0.9479 B(  9-C , 10-S ) :   1.6059 B(  9-C , 11-N ) :   1.3059
B( 11-N , 12-C ) :   0.9839 B( 11-N , 29-H ) :   0.9517 B( 12-C , 13-C ) :   0.9355
B( 12-C , 30-H ) :   1.0023 B( 13-C , 14-C ) :   1.3540 B( 13-C , 19-C ) :   1.3841
B( 14-C , 15-C ) :   1.3914 B( 14-C , 31-H ) :   0.9723 B( 15-C , 16-C ) :   1.3636
B( 15-C , 32-H ) :   0.9706 B( 16-C , 17-C ) :   1.3313 B( 16-C , 33-H ) :   0.9849
B( 17-C , 18-O ) :   1.1108 B( 17-C , 19-C ) :   1.3716 B( 18-O , 34-H ) :   0.9798
B( 19-C , 35-H ) :   0.9582

MP2 TOTAL ENERGY:    -1274.339758634 Eh
FINAL SINGLE POINT ENERGY     -1274.339758634452

DIPOLE MOMENT
-------------
                                X             Y             Z
Electronic contribution:     10.14021       9.88122       9.31912
Nuclear contribution   :    -11.17708     -11.60190      -9.63214
                        -----------------------------------------
Total Dipole Moment    :     -1.03687      -1.72069      -0.31302
                        -----------------------------------------
Magnitude (a.u.)       :      2.03319
Magnitude (Debye)      :      5.16795

Rotational constants in cm-1:     0.011525     0.008728     0.006088
Rotational constants in MHz :   345.514722   261.656438   182.517869

                             ****ORCA TERMINATED NORMALLY****
TOTAL RUN TIME: 0 days 1 hours 46 minutes 29 seconds 125 msec
