                         Program Version 4.2.0 -  RELEASE  -
|  1> ! ri-mp2 cc-pvtz cc-pvtz/c TightSCF  NoKeepInts
|  2>
|  3> %scf
|  4>   MaxCore 4096
|  5> end
|  6> *xyz  0  1
|  7>     C       14.9448584   14.5686940   16.5071948
|  8>     C       16.3844900   14.0937312   16.8020847
|  9>     O       17.4059761   15.0187773   16.3473346
| 10>     C       17.1767285   16.3598402   16.2021529
| 11>     O       16.5168702   16.7857549   15.2708739
| 12>     C       17.6851198   17.2035685   17.3410826
| 13>     C       17.4372770   18.5370088   17.4199063
| 14>     C       16.5982020   19.3751975   16.4789811
| 15>     N       18.0190993   19.2988538   18.4379401
| 16>     C       18.9914955   18.8473354   19.2897219
| 17>     S       19.7527382   19.8495990   20.3629674
| 18>     N       19.3146808   17.5180415   19.1943917
| 19>     C       18.5619286   16.5247458   18.4078350
| 20>     C       17.7718595   15.6395659   19.3651814
| 21>     C       18.3037572   14.4031435   19.7781040
| 22>     C       17.5877911   13.5748146   20.6586555
| 23>     C       16.3323979   13.9882684   21.1358559
| 24>     C       15.8059286   15.2247521   20.7384219
| 25>     O       14.5956364   15.6285487   21.1992113
| 26>     C       16.5200385   16.0471572   19.8617640
| 27>     H       14.7106548   15.4933962   17.0494255
| 28>     H       14.2225268   13.8060157   16.8219234
| 29>     H       14.8025840   14.7435613   15.4330226
| 30>     H       16.4744272   13.9331733   17.8812172
| 31>     H       16.5491708   13.1215231   16.3201858
| 32>     H       15.5831412   18.9660806   16.3971772
| 33>     H       17.0328247   19.3739141   15.4710503
| 34>     H       16.5070701   20.4196239   16.7993883
| 35>     H       17.8023200   20.2801048   18.5106658
| 36>     H       20.0177368   17.2087559   19.8529189
| 37>     H       19.2931613   15.8946350   17.8816280
| 38>     H       19.2747206   14.0808179   19.4108841
| 39>     H       18.0069331   12.6195292   20.9708820
| 40>     H       15.7762567   13.3524308   21.8171661
| 41>     H       14.2896980   14.9663344   21.8374815
| 42>     H       16.0969005   17.0047054   19.5793220
| 43> *
| 44>
| 45>                          ****END OF INPUT****

CARTESIAN COORDINATES (ANGSTROEM)
---------------------------------
  C     14.944858   14.568694   16.507195
  C     16.384490   14.093731   16.802085
  O     17.405976   15.018777   16.347335
  C     17.176728   16.359840   16.202153
  O     16.516870   16.785755   15.270874
  C     17.685120   17.203568   17.341083
  C     17.437277   18.537009   17.419906
  C     16.598202   19.375197   16.478981
  N     18.019099   19.298854   18.437940
  C     18.991495   18.847335   19.289722
  S     19.752738   19.849599   20.362967
  N     19.314681   17.518041   19.194392
  C     18.561929   16.524746   18.407835
  C     17.771860   15.639566   19.365181
  C     18.303757   14.403144   19.778104
  C     17.587791   13.574815   20.658655
  C     16.332398   13.988268   21.135856
  C     15.805929   15.224752   20.738422
  O     14.595636   15.628549   21.199211
  C     16.520038   16.047157   19.861764
  H     14.710655   15.493396   17.049426
  H     14.222527   13.806016   16.821923
  H     14.802584   14.743561   15.433023
  H     16.474427   13.933173   17.881217
  H     16.549171   13.121523   16.320186
  H     15.583141   18.966081   16.397177
  H     17.032825   19.373914   15.471050
  H     16.507070   20.419624   16.799388
  H     17.802320   20.280105   18.510666
  H     20.017737   17.208756   19.852919
  H     19.293161   15.894635   17.881628
  H     19.274721   14.080818   19.410884
  H     18.006933   12.619529   20.970882
  H     15.776257   13.352431   21.817166
  H     14.289698   14.966334   21.837481
  H     16.096901   17.004705   19.579322

 Total Charge           Charge          ....    0
 Multiplicity           Mult            ....    1
 Number of Electrons    NEL             ....  154
 Basis Dimension        Dim             ....  828

ORBITAL ENERGIES
----------------

  NO   OCC          E(Eh)            E(eV)
   0   2.0000     -91.890379     -2500.4643
   1   2.0000     -20.603309      -560.6445
   2   2.0000     -20.581823      -560.0599
   3   2.0000     -20.544436      -559.0425
   4   2.0000     -15.630936      -425.3394
   5   2.0000     -15.609638      -424.7598
   6   2.0000     -11.393067      -310.0211
   7   2.0000     -11.385131      -309.8052
   8   2.0000     -11.337560      -308.5107
   9   2.0000     -11.321138      -308.0638
  10   2.0000     -11.311528      -307.8023
  11   2.0000     -11.296723      -307.3995
  12   2.0000     -11.265595      -306.5524
  13   2.0000     -11.262521      -306.4688
  14   2.0000     -11.258773      -306.3668
  15   2.0000     -11.253316      -306.2183
  16   2.0000     -11.249709      -306.1201
  17   2.0000     -11.244217      -305.9707
  18   2.0000     -11.244162      -305.9692
  19   2.0000     -11.223302      -305.4016
  20   2.0000      -8.895419      -242.0567
  21   2.0000      -6.576988      -178.9689
  22   2.0000      -6.574989      -178.9146
  23   2.0000      -6.574398      -178.8985
  24   2.0000      -1.440690       -39.2032
  25   2.0000      -1.422926       -38.7198
  26   2.0000      -1.349541       -36.7229
  27   2.0000      -1.342121       -36.5210
  28   2.0000      -1.240726       -33.7619
  29   2.0000      -1.163572       -31.6624
  30   2.0000      -1.121535       -30.5185
  31   2.0000      -1.046936       -28.4886
  32   2.0000      -1.030374       -28.0379
  33   2.0000      -1.021963       -27.8090
  34   2.0000      -0.998561       -27.1722
  35   2.0000      -0.986005       -26.8306
  36   2.0000      -0.925787       -25.1919
  37   2.0000      -0.892481       -24.2857
  38   2.0000      -0.849879       -23.1264
  39   2.0000      -0.843962       -22.9654
  40   2.0000      -0.839367       -22.8403
  41   2.0000      -0.823068       -22.3968
  42   2.0000      -0.746346       -20.3091
  43   2.0000      -0.735771       -20.0213
  44   2.0000      -0.716085       -19.4857
  45   2.0000      -0.701722       -19.0948
  46   2.0000      -0.691206       -18.8087
  47   2.0000      -0.674459       -18.3530
  48   2.0000      -0.668388       -18.1878
  49   2.0000      -0.663188       -18.0463
  50   2.0000      -0.653362       -17.7789
  51   2.0000      -0.647145       -17.6097
  52   2.0000      -0.639096       -17.3907
  53   2.0000      -0.618987       -16.8435
  54   2.0000      -0.613956       -16.7066
  55   2.0000      -0.604779       -16.4569
  56   2.0000      -0.601885       -16.3781
  57   2.0000      -0.582978       -15.8636
  58   2.0000      -0.572397       -15.5757
  59   2.0000      -0.567750       -15.4493
  60   2.0000      -0.549048       -14.9404
  61   2.0000      -0.540046       -14.6954
  62   2.0000      -0.535762       -14.5788
  63   2.0000      -0.531408       -14.4603
  64   2.0000      -0.523870       -14.2552
  65   2.0000      -0.515981       -14.0406
  66   2.0000      -0.505901       -13.7663
  67   2.0000      -0.493797       -13.4369
  68   2.0000      -0.485405       -13.2085
  69   2.0000      -0.463110       -12.6019
  70   2.0000      -0.452541       -12.3143
  71   2.0000      -0.440897       -11.9974
  72   2.0000      -0.357620        -9.7313
  73   2.0000      -0.355722        -9.6797
  74   2.0000      -0.331590        -9.0230
  75   2.0000      -0.327241        -8.9047
  76   2.0000      -0.317784        -8.6474
  77   0.0000       0.071225         1.9381
  78   0.0000       0.100533         2.7356
  79   0.0000       0.120945         3.2911
  80   0.0000       0.127326         3.4647
  81   0.0000       0.130898         3.5619

MULLIKEN ATOMIC CHARGES
-----------------------
   0 C :   -0.300907
   1 C :    0.031727
   2 O :   -0.391893
   3 C :    0.486859
   4 O :   -0.405547
   5 C :   -0.274883
   6 C :    0.162972
   7 C :   -0.269515
   8 N :   -0.124590
   9 C :    0.218038
  10 S :   -0.439814
  11 N :   -0.208643
  12 C :    0.066518
  13 C :    0.037664
  14 C :   -0.193639
  15 C :   -0.130338
  16 C :   -0.275487
  17 C :    0.306854
  18 O :   -0.356581
  19 C :   -0.241047
  20 H :    0.094477
  21 H :    0.103593
  22 H :    0.123068
  23 H :    0.103177
  24 H :    0.114090
  25 H :    0.128222
  26 H :    0.136209
  27 H :    0.095059
  28 H :    0.198064
  29 H :    0.193445
  30 H :    0.151751
  31 H :    0.150721
  32 H :    0.162917
  33 H :    0.133538
  34 H :    0.242582
  35 H :    0.171339
Sum of atomic charges:   -0.0000000

LOEWDIN ATOMIC CHARGES
----------------------
   0 C :    0.104855
   1 C :   -0.011340
   2 O :    0.279950
   3 C :   -0.419329
   4 O :    0.118382
   5 C :   -0.099051
   6 C :   -0.057619
   7 C :    0.131089
   8 N :    0.407668
   9 C :   -0.454845
  10 S :   -0.034201
  11 N :    0.396199
  12 C :   -0.052949
  13 C :   -0.036724
  14 C :    0.011210
  15 C :    0.042656
  16 C :   -0.001511
  17 C :   -0.189665
  18 O :    0.396783
  19 C :    0.030357
  20 H :   -0.030624
  21 H :   -0.025026
  22 H :   -0.023082
  23 H :   -0.034499
  24 H :   -0.025053
  25 H :   -0.005941
  26 H :   -0.002605
  27 H :   -0.023308
  28 H :   -0.057286
  29 H :   -0.065970
  30 H :   -0.007372
  31 H :   -0.029534
  32 H :   -0.019264
  33 H :   -0.034167
  34 H :   -0.152138
  35 H :   -0.026048

  Mayer bond orders larger than 0.100000
B(  0-C ,  1-C ) :   0.9739 B(  0-C , 20-H ) :   0.9732 B(  0-C , 21-H ) :   0.9742
B(  0-C , 22-H ) :   0.9721 B(  1-C ,  2-O ) :   0.8951 B(  1-C , 23-H ) :   0.9685
B(  1-C , 24-H ) :   0.9826 B(  2-O ,  3-C ) :   1.0959 B(  3-C ,  4-O ) :   2.0190
B(  3-C ,  5-C ) :   1.0584 B(  5-C ,  6-C ) :   1.6456 B(  5-C , 12-C ) :   0.9709
B(  6-C ,  7-C ) :   0.9686 B(  6-C ,  8-N ) :   1.1609 B(  7-C , 25-H ) :   0.9630
B(  7-C , 26-H ) :   0.9569 B(  7-C , 27-H ) :   0.9893 B(  8-N ,  9-C ) :   1.1828
B(  8-N , 28-H ) :   0.9478 B(  9-C , 10-S ) :   1.6044 B(  9-C , 11-N ) :   1.3066
B( 11-N , 12-C ) :   0.9602 B( 11-N , 29-H ) :   0.9529 B( 12-C , 13-C ) :   0.9499
B( 12-C , 30-H ) :   1.0003 B( 13-C , 14-C ) :   1.3473 B( 13-C , 19-C ) :   1.3692
B( 14-C , 15-C ) :   1.3986 B( 14-C , 31-H ) :   0.9737 B( 15-C , 16-C ) :   1.3616
B( 15-C , 32-H ) :   0.9701 B( 16-C , 17-C ) :   1.3305 B( 16-C , 33-H ) :   0.9841
B( 17-C , 18-O ) :   1.1146 B( 17-C , 19-C ) :   1.3715 B( 18-O , 34-H ) :   0.9787
B( 19-C , 35-H ) :   0.9558

MP2 TOTAL ENERGY:    -1274.332741455 Eh
FINAL SINGLE POINT ENERGY     -1274.332741455150

DIPOLE MOMENT
-------------
                                X             Y             Z
Electronic contribution:     10.17643       8.72489       5.84461
Nuclear contribution   :    -11.22349     -10.33657      -5.53482
                        -----------------------------------------
Total Dipole Moment    :     -1.04707      -1.61168       0.30979
                        -----------------------------------------
Magnitude (a.u.)       :      1.94675
Magnitude (Debye)      :      4.94824

Rotational constants in cm-1:     0.012196     0.009155     0.006569
Rotational constants in MHz :   365.612125   274.458386   196.932869

                             ****ORCA TERMINATED NORMALLY****
TOTAL RUN TIME: 0 days 1 hours 45 minutes 51 seconds 60 msec
