                         Program Version 4.2.0 -  RELEASE  -
|  1> ! ri-mp2 cc-pvtz cc-pvtz/c TightSCF  NoKeepInts
|  2>
|  3> %scf
|  4>   MaxCore 4096
|  5> end
|  6> *xyz  0  1
|  7>     C       15.4330203   14.4112776   17.1093859
|  8>     C       15.5184045   15.1814638   15.7715904
|  9>     O       16.7728073   15.8763379   15.5631444
| 10>     C       17.8119891   15.8124029   16.4456473
| 11>     O       18.4484689   14.7837379   16.5968438
| 12>     C       17.9013466   16.9655469   17.4043660
| 13>     C       17.3732405   18.1981215   17.1866699
| 14>     C       16.6166263   18.6867105   15.9685995
| 15>     N       17.5806023   19.2166815   18.1228226
| 16>     C       18.4320189   19.1344751   19.1930528
| 17>     S       18.7282345   20.4334175   20.1728338
| 18>     N       19.0238525   17.9160332   19.4102074
| 19>     C       18.6778964   16.6737543   18.6937602
| 20>     C       17.8955401   15.7279874   19.6022405
| 21>     C       18.2800708   14.3799440   19.7245706
| 22>     C       17.5559296   13.4987327   20.5446348
| 23>     C       16.4360032   13.9682439   21.2513361
| 24>     C       16.0479310   15.3093635   21.1319185
| 25>     O       14.9609068   15.7636859   21.8048206
| 26>     C       16.7700243   16.1839901   20.3138943
| 27>     H       16.1967521   13.6256395   17.1710813
| 28>     H       14.4542221   13.9259394   17.2032031
| 29>     H       15.5504781   15.0869691   17.9642537
| 30>     H       15.3720067   14.4684366   14.9497853
| 31>     H       14.6952759   15.9056413   15.7242104
| 32>     H       15.6008924   18.2746168   15.9500709
| 33>     H       17.1240630   18.3822981   15.0444334
| 34>     H       16.5310485   19.7798009   15.9370182
| 35>     H       17.1576311   20.1197575   17.9789831
| 36>     H       19.6267810   17.8729804   20.2218451
| 37>     H       19.6197215   16.1793778   18.4141635
| 38>     H       19.1350690   14.0090584   19.1638583
| 39>     H       17.8611478   12.4568282   20.6239684
| 40>     H       15.8725182   13.2903021   21.8837309
| 41>     H       14.6342915   15.0350001   22.3538242
| 42>     H       16.4501873   17.2174457   20.2372304
| 43> *
| 44>
| 45>                          ****END OF INPUT****

CARTESIAN COORDINATES (ANGSTROEM)
---------------------------------
  C     15.433020   14.411278   17.109386
  C     15.518404   15.181464   15.771590
  O     16.772807   15.876338   15.563144
  C     17.811989   15.812403   16.445647
  O     18.448469   14.783738   16.596844
  C     17.901347   16.965547   17.404366
  C     17.373241   18.198121   17.186670
  C     16.616626   18.686710   15.968599
  N     17.580602   19.216681   18.122823
  C     18.432019   19.134475   19.193053
  S     18.728234   20.433417   20.172834
  N     19.023852   17.916033   19.410207
  C     18.677896   16.673754   18.693760
  C     17.895540   15.727987   19.602241
  C     18.280071   14.379944   19.724571
  C     17.555930   13.498733   20.544635
  C     16.436003   13.968244   21.251336
  C     16.047931   15.309363   21.131919
  O     14.960907   15.763686   21.804821
  C     16.770024   16.183990   20.313894
  H     16.196752   13.625639   17.171081
  H     14.454222   13.925939   17.203203
  H     15.550478   15.086969   17.964254
  H     15.372007   14.468437   14.949785
  H     14.695276   15.905641   15.724210
  H     15.600892   18.274617   15.950071
  H     17.124063   18.382298   15.044433
  H     16.531049   19.779801   15.937018
  H     17.157631   20.119757   17.978983
  H     19.626781   17.872980   20.221845
  H     19.619722   16.179378   18.414163
  H     19.135069   14.009058   19.163858
  H     17.861148   12.456828   20.623968
  H     15.872518   13.290302   21.883731
  H     14.634291   15.035000   22.353824
  H     16.450187   17.217446   20.237230

 Total Charge           Charge          ....    0
 Multiplicity           Mult            ....    1
 Number of Electrons    NEL             ....  154
 Basis Dimension        Dim             ....  828

ORBITAL ENERGIES
----------------

  NO   OCC          E(Eh)            E(eV)
   0   2.0000     -91.890177     -2500.4588
   1   2.0000     -20.595367      -560.4284
   2   2.0000     -20.583468      -560.1046
   3   2.0000     -20.551515      -559.2352
   4   2.0000     -15.630703      -425.3330
   5   2.0000     -15.608636      -424.7326
   6   2.0000     -11.395696      -310.0926
   7   2.0000     -11.385084      -309.8039
   8   2.0000     -11.338306      -308.5310
   9   2.0000     -11.311565      -307.8033
  10   2.0000     -11.307707      -307.6983
  11   2.0000     -11.306781      -307.6732
  12   2.0000     -11.261526      -306.4417
  13   2.0000     -11.261391      -306.4380
  14   2.0000     -11.257143      -306.3224
  15   2.0000     -11.251567      -306.1707
  16   2.0000     -11.241249      -305.8899
  17   2.0000     -11.237029      -305.7751
  18   2.0000     -11.233445      -305.6776
  19   2.0000     -11.226418      -305.4864
  20   2.0000      -8.895228      -242.0515
  21   2.0000      -6.576801      -178.9639
  22   2.0000      -6.574797      -178.9093
  23   2.0000      -6.574207      -178.8933
  24   2.0000      -1.445863       -39.3439
  25   2.0000      -1.415190       -38.5093
  26   2.0000      -1.354411       -36.8554
  27   2.0000      -1.341528       -36.5048
  28   2.0000      -1.239026       -33.7156
  29   2.0000      -1.155638       -31.4465
  30   2.0000      -1.121213       -30.5097
  31   2.0000      -1.043774       -28.4025
  32   2.0000      -1.032377       -28.0924
  33   2.0000      -1.013464       -27.5777
  34   2.0000      -1.000759       -27.2320
  35   2.0000      -0.986303       -26.8387
  36   2.0000      -0.924393       -25.1540
  37   2.0000      -0.896541       -24.3961
  38   2.0000      -0.850576       -23.1454
  39   2.0000      -0.839157       -22.8346
  40   2.0000      -0.831649       -22.6303
  41   2.0000      -0.820204       -22.3189
  42   2.0000      -0.743812       -20.2402
  43   2.0000      -0.728835       -19.8326
  44   2.0000      -0.727051       -19.7841
  45   2.0000      -0.693202       -18.8630
  46   2.0000      -0.686917       -18.6920
  47   2.0000      -0.676611       -18.4115
  48   2.0000      -0.674751       -18.3609
  49   2.0000      -0.662867       -18.0375
  50   2.0000      -0.650873       -17.7112
  51   2.0000      -0.647497       -17.6193
  52   2.0000      -0.635688       -17.2979
  53   2.0000      -0.626513       -17.0483
  54   2.0000      -0.604072       -16.4376
  55   2.0000      -0.602782       -16.4025
  56   2.0000      -0.599311       -16.3081
  57   2.0000      -0.579024       -15.7560
  58   2.0000      -0.575269       -15.6539
  59   2.0000      -0.564318       -15.3559
  60   2.0000      -0.551672       -15.0118
  61   2.0000      -0.545982       -14.8569
  62   2.0000      -0.537193       -14.6178
  63   2.0000      -0.529089       -14.3972
  64   2.0000      -0.519483       -14.1359
  65   2.0000      -0.511638       -13.9224
  66   2.0000      -0.500022       -13.6063
  67   2.0000      -0.495188       -13.4748
  68   2.0000      -0.481051       -13.0901
  69   2.0000      -0.466058       -12.6821
  70   2.0000      -0.455402       -12.3921
  71   2.0000      -0.449415       -12.2292
  72   2.0000      -0.356238        -9.6937
  73   2.0000      -0.347205        -9.4479
  74   2.0000      -0.329285        -8.9603
  75   2.0000      -0.319292        -8.6884
  76   2.0000      -0.316881        -8.6228
  77   0.0000       0.069988         1.9045
  78   0.0000       0.107299         2.9197
  79   0.0000       0.119769         3.2591
  80   0.0000       0.132556         3.6070
  81   0.0000       0.138129         3.7587

MULLIKEN ATOMIC CHARGES
-----------------------
   0 C :   -0.331753
   1 C :    0.055323
   2 O :   -0.390663
   3 C :    0.501210
   4 O :   -0.405545
   5 C :   -0.221188
   6 C :    0.142619
   7 C :   -0.291342
   8 N :   -0.121463
   9 C :    0.193427
  10 S :   -0.435940
  11 N :   -0.200632
  12 C :    0.046678
  13 C :    0.038074
  14 C :   -0.169912
  15 C :   -0.138422
  16 C :   -0.273797
  17 C :    0.313274
  18 O :   -0.360030
  19 C :   -0.272365
  20 H :    0.125646
  21 H :    0.112242
  22 H :    0.105948
  23 H :    0.111479
  24 H :    0.089234
  25 H :    0.119168
  26 H :    0.135372
  27 H :    0.108204
  28 H :    0.197359
  29 H :    0.194164
  30 H :    0.156985
  31 H :    0.163105
  32 H :    0.162107
  33 H :    0.130837
  34 H :    0.240502
  35 H :    0.170095
Sum of atomic charges:   -0.0000000

LOEWDIN ATOMIC CHARGES
----------------------
   0 C :    0.107750
   1 C :   -0.011746
   2 O :    0.282763
   3 C :   -0.420742
   4 O :    0.123712
   5 C :   -0.095420
   6 C :   -0.067519
   7 C :    0.126714
   8 N :    0.405262
   9 C :   -0.459714
  10 S :   -0.033940
  11 N :    0.397672
  12 C :   -0.045891
  13 C :   -0.040884
  14 C :    0.022770
  15 C :    0.042108
  16 C :   -0.002123
  17 C :   -0.194184
  18 O :    0.394059
  19 C :    0.026758
  20 H :   -0.022485
  21 H :   -0.023667
  22 H :   -0.028941
  23 H :   -0.025415
  24 H :   -0.033610
  25 H :   -0.012138
  26 H :   -0.005713
  27 H :   -0.019612
  28 H :   -0.058705
  29 H :   -0.063744
  30 H :   -0.003785
  31 H :   -0.024194
  32 H :   -0.020290
  33 H :   -0.035704
  34 H :   -0.154141
  35 H :   -0.025261

  Mayer bond orders larger than 0.100000
B(  0-C ,  1-C ) :   0.9658 B(  0-C , 20-H ) :   0.9680 B(  0-C , 21-H ) :   0.9746
B(  0-C , 22-H ) :   0.9679 B(  1-C ,  2-O ) :   0.8969 B(  1-C , 23-H ) :   0.9836
B(  1-C , 24-H ) :   0.9775 B(  2-O ,  3-C ) :   1.0877 B(  3-C ,  4-O ) :   2.0268
B(  3-C ,  5-C ) :   1.0314 B(  5-C ,  6-C ) :   1.6570 B(  5-C , 12-C ) :   0.9601
B(  6-C ,  7-C ) :   0.9526 B(  6-C ,  8-N ) :   1.1441 B(  7-C , 25-H ) :   0.9675
B(  7-C , 26-H ) :   0.9646 B(  7-C , 27-H ) :   0.9896 B(  8-N ,  9-C ) :   1.1788
B(  8-N , 28-H ) :   0.9488 B(  9-C , 10-S ) :   1.6152 B(  9-C , 11-N ) :   1.3019
B( 11-N , 12-C ) :   0.9887 B( 11-N , 29-H ) :   0.9521 B( 12-C , 13-C ) :   0.9466
B( 12-C , 30-H ) :   0.9995 B( 13-C , 14-C ) :   1.3820 B( 13-C , 19-C ) :   1.3569
B( 14-C , 15-C ) :   1.3947 B( 14-C , 31-H ) :   0.9607 B( 15-C , 16-C ) :   1.3625
B( 15-C , 32-H ) :   0.9705 B( 16-C , 17-C ) :   1.3316 B( 16-C , 33-H ) :   0.9847
B( 17-C , 18-O ) :   1.1104 B( 17-C , 19-C ) :   1.3714 B( 18-O , 34-H ) :   0.9802
B( 19-C , 35-H ) :   0.9594

MP2 TOTAL ENERGY:    -1274.330045449 Eh
FINAL SINGLE POINT ENERGY     -1274.330045449241

DIPOLE MOMENT
-------------
                                X             Y             Z
Electronic contribution:      9.71967       9.08821       6.69440
Nuclear contribution   :    -11.22250     -10.24436      -7.36600
                        -----------------------------------------
Total Dipole Moment    :     -1.50283      -1.15615      -0.67160
                        -----------------------------------------
Magnitude (a.u.)       :      2.01152
Magnitude (Debye)      :      5.11288

Rotational constants in cm-1:     0.011541     0.009663     0.006614
Rotational constants in MHz :   345.986143   289.684424   198.285563

                             ****ORCA TERMINATED NORMALLY****
TOTAL RUN TIME: 0 days 2 hours 12 minutes 16 seconds 126 msec
