                         Program Version 4.2.0 -  RELEASE  -
|  1> ! ri-mp2 cc-pvtz cc-pvtz/c TightSCF  NoKeepInts
|  2>
|  3> %scf
|  4>   MaxCore 4096
|  5> end
|  6> *xyz  0  1
|  7>     C       14.2250471   14.9239420   16.4023034
|  8>     C       15.4407562   15.5942105   17.0620656
|  9>     O       16.5837153   15.3066438   16.2328987
| 10>     C       17.8380553   15.8149621   16.4607684
| 11>     O       18.8174884   15.1435786   16.1942903
| 12>     C       17.9298126   16.9562059   17.4204553
| 13>     C       17.3701053   18.1636710   17.1747933
| 14>     C       16.6071123   18.5811557   15.9351123
| 15>     N       17.5492485   19.2102241   18.0817377
| 16>     C       18.3563462   19.1524680   19.1884839
| 17>     S       18.5623972   20.4585241   20.1811718
| 18>     N       18.9825349   17.9547211   19.4345441
| 19>     C       18.7766594   16.7097183   18.6673166
| 20>     C       18.1446336   15.6195662   19.5271026
| 21>     C       18.6029381   14.2929464   19.4318826
| 22>     C       18.0085239   13.2731958   20.1934230
| 23>     C       16.9430745   13.5805855   21.0563749
| 24>     C       16.4784180   14.8991906   21.1491124
| 25>     O       15.4394121   15.1971884   21.9687872
| 26>     C       17.0710809   15.9125656   20.3890374
| 27>     H       13.3207392   15.0899895   17.0003013
| 28>     H       14.3837351   13.8416956   16.3134761
| 29>     H       14.0547740   15.3313160   15.3979899
| 30>     H       15.2451438   16.6673258   17.1479271
| 31>     H       15.5909282   15.1820141   18.0688096
| 32>     H       16.5682473   17.7881043   15.1783252
| 33>     H       17.0850489   19.4471392   15.4593685
| 34>     H       15.5742929   18.8586020   16.1792243
| 35>     H       17.1140494   20.1031337   17.9094888
| 36>     H       19.5568323   17.9367561   20.2680301
| 37>     H       19.7636723   16.3543127   18.3355961
| 38>     H       19.4144094   14.0484175   18.7492832
| 39>     H       18.3703034   12.2499291   20.1063916
| 40>     H       16.4792967   12.7946765   21.6434583
| 41>     H       15.2072657   14.3881962   22.4497878
| 42>     H       16.6909013   16.9251279   20.4748807
| 43> *
| 44>
| 45>                          ****END OF INPUT****

CARTESIAN COORDINATES (ANGSTROEM)
---------------------------------
  C     14.225047   14.923942   16.402303
  C     15.440756   15.594211   17.062066
  O     16.583715   15.306644   16.232899
  C     17.838055   15.814962   16.460768
  O     18.817488   15.143579   16.194290
  C     17.929813   16.956206   17.420455
  C     17.370105   18.163671   17.174793
  C     16.607112   18.581156   15.935112
  N     17.549248   19.210224   18.081738
  C     18.356346   19.152468   19.188484
  S     18.562397   20.458524   20.181172
  N     18.982535   17.954721   19.434544
  C     18.776659   16.709718   18.667317
  C     18.144634   15.619566   19.527103
  C     18.602938   14.292946   19.431883
  C     18.008524   13.273196   20.193423
  C     16.943075   13.580585   21.056375
  C     16.478418   14.899191   21.149112
  O     15.439412   15.197188   21.968787
  C     17.071081   15.912566   20.389037
  H     13.320739   15.089989   17.000301
  H     14.383735   13.841696   16.313476
  H     14.054774   15.331316   15.397990
  H     15.245144   16.667326   17.147927
  H     15.590928   15.182014   18.068810
  H     16.568247   17.788104   15.178325
  H     17.085049   19.447139   15.459368
  H     15.574293   18.858602   16.179224
  H     17.114049   20.103134   17.909489
  H     19.556832   17.936756   20.268030
  H     19.763672   16.354313   18.335596
  H     19.414409   14.048417   18.749283
  H     18.370303   12.249929   20.106392
  H     16.479297   12.794676   21.643458
  H     15.207266   14.388196   22.449788
  H     16.690901   16.925128   20.474881

 Total Charge           Charge          ....    0
 Multiplicity           Mult            ....    1
 Number of Electrons    NEL             ....  154
 Basis Dimension        Dim             ....  828

ORBITAL ENERGIES
----------------

  NO   OCC          E(Eh)            E(eV)
   0   2.0000     -91.890456     -2500.4664
   1   2.0000     -20.600180      -560.5594
   2   2.0000     -20.599364      -560.5372
   3   2.0000     -20.551021      -559.2217
   4   2.0000     -15.627736      -425.2523
   5   2.0000     -15.611816      -424.8191
   6   2.0000     -11.397433      -310.1399
   7   2.0000     -11.387213      -309.8618
   8   2.0000     -11.330698      -308.3240
   9   2.0000     -11.317060      -307.9528
  10   2.0000     -11.314689      -307.8883
  11   2.0000     -11.302490      -307.5564
  12   2.0000     -11.269479      -306.6581
  13   2.0000     -11.264637      -306.5263
  14   2.0000     -11.263684      -306.5004
  15   2.0000     -11.257225      -306.3247
  16   2.0000     -11.246548      -306.0341
  17   2.0000     -11.242343      -305.9197
  18   2.0000     -11.239571      -305.8443
  19   2.0000     -11.233400      -305.6763
  20   2.0000      -8.895566      -242.0607
  21   2.0000      -6.577152      -178.9734
  22   2.0000      -6.575128      -178.9183
  23   2.0000      -6.574551      -178.9026
  24   2.0000      -1.448327       -39.4110
  25   2.0000      -1.420015       -38.6406
  26   2.0000      -1.359855       -37.0035
  27   2.0000      -1.340822       -36.4856
  28   2.0000      -1.240381       -33.7525
  29   2.0000      -1.161778       -31.6136
  30   2.0000      -1.125987       -30.6397
  31   2.0000      -1.049380       -28.5551
  32   2.0000      -1.040260       -28.3069
  33   2.0000      -1.019277       -27.7359
  34   2.0000      -1.005521       -27.3616
  35   2.0000      -0.989727       -26.9318
  36   2.0000      -0.928195       -25.2575
  37   2.0000      -0.880155       -23.9502
  38   2.0000      -0.855832       -23.2884
  39   2.0000      -0.842652       -22.9297
  40   2.0000      -0.837657       -22.7938
  41   2.0000      -0.836678       -22.7672
  42   2.0000      -0.757443       -20.6111
  43   2.0000      -0.740058       -20.1380
  44   2.0000      -0.732364       -19.9286
  45   2.0000      -0.697687       -18.9850
  46   2.0000      -0.688460       -18.7340
  47   2.0000      -0.681946       -18.5567
  48   2.0000      -0.677141       -18.4259
  49   2.0000      -0.664802       -18.0902
  50   2.0000      -0.653775       -17.7901
  51   2.0000      -0.650479       -17.7004
  52   2.0000      -0.640344       -17.4246
  53   2.0000      -0.612113       -16.6564
  54   2.0000      -0.608172       -16.5492
  55   2.0000      -0.604125       -16.4391
  56   2.0000      -0.598360       -16.2822
  57   2.0000      -0.587084       -15.9754
  58   2.0000      -0.578367       -15.7382
  59   2.0000      -0.569006       -15.4834
  60   2.0000      -0.562595       -15.3090
  61   2.0000      -0.558231       -15.1902
  62   2.0000      -0.548554       -14.9269
  63   2.0000      -0.526729       -14.3330
  64   2.0000      -0.523616       -14.2483
  65   2.0000      -0.515901       -14.0384
  66   2.0000      -0.503304       -13.6956
  67   2.0000      -0.502742       -13.6803
  68   2.0000      -0.489801       -13.3282
  69   2.0000      -0.469531       -12.7766
  70   2.0000      -0.455759       -12.4018
  71   2.0000      -0.450263       -12.2523
  72   2.0000      -0.357840        -9.7373
  73   2.0000      -0.352039        -9.5795
  74   2.0000      -0.330088        -8.9822
  75   2.0000      -0.325101        -8.8465
  76   2.0000      -0.318922        -8.6783
  77   0.0000       0.083326         2.2674
  78   0.0000       0.104597         2.8462
  79   0.0000       0.112782         3.0689
  80   0.0000       0.128341         3.4923
  81   0.0000       0.130603         3.5539

MULLIKEN ATOMIC CHARGES
-----------------------
   0 C :   -0.259189
   1 C :    0.017190
   2 O :   -0.312798
   3 C :    0.399289
   4 O :   -0.381135
   5 C :   -0.185795
   6 C :    0.129284
   7 C :   -0.322300
   8 N :   -0.134071
   9 C :    0.202796
  10 S :   -0.440078
  11 N :   -0.214184
  12 C :    0.069042
  13 C :    0.020726
  14 C :   -0.193359
  15 C :   -0.132987
  16 C :   -0.274815
  17 C :    0.321654
  18 O :   -0.358968
  19 C :   -0.282349
  20 H :    0.089952
  21 H :    0.107512
  22 H :    0.096136
  23 H :    0.086816
  24 H :    0.120985
  25 H :    0.128548
  26 H :    0.141127
  27 H :    0.118626
  28 H :    0.195990
  29 H :    0.198350
  30 H :    0.164345
  31 H :    0.169678
  32 H :    0.164107
  33 H :    0.132933
  34 H :    0.241676
  35 H :    0.175266
Sum of atomic charges:   -0.0000000

LOEWDIN ATOMIC CHARGES
----------------------
   0 C :    0.111401
   1 C :   -0.023081
   2 O :    0.303593
   3 C :   -0.415505
   4 O :    0.125320
   5 C :   -0.082933
   6 C :   -0.101330
   7 C :    0.124124
   8 N :    0.401811
   9 C :   -0.456099
  10 S :   -0.036990
  11 N :    0.397251
  12 C :   -0.044378
  13 C :   -0.044585
  14 C :    0.021816
  15 C :    0.045410
  16 C :   -0.000497
  17 C :   -0.195044
  18 O :    0.394797
  19 C :    0.026987
  20 H :   -0.024763
  21 H :   -0.022830
  22 H :   -0.027580
  23 H :   -0.038955
  24 H :   -0.027875
  25 H :   -0.008035
  26 H :   -0.009478
  27 H :   -0.017634
  28 H :   -0.057350
  29 H :   -0.063665
  30 H :   -0.002401
  31 H :   -0.021664
  32 H :   -0.018273
  33 H :   -0.034483
  34 H :   -0.152848
  35 H :   -0.024234

  Mayer bond orders larger than 0.100000
B(  0-C ,  1-C ) :   0.9838 B(  0-C , 20-H ) :   0.9769 B(  0-C , 21-H ) :   0.9787
B(  0-C , 22-H ) :   0.9785 B(  1-C ,  2-O ) :   0.9064 B(  1-C , 23-H ) :   0.9667
B(  1-C , 24-H ) :   0.9684 B(  2-O ,  3-C ) :   1.1871 B(  3-C ,  4-O ) :   2.0976
B(  3-C ,  5-C ) :   0.9212 B(  5-C ,  6-C ) :   1.6883 B(  5-C , 12-C ) :   0.9612
B(  6-C ,  7-C ) :   0.9425 B(  6-C ,  8-N ) :   1.1178 B(  7-C , 25-H ) :   0.9795
B(  7-C , 26-H ) :   0.9686 B(  7-C , 27-H ) :   0.9667 B(  8-N ,  9-C ) :   1.1935
B(  8-N , 28-H ) :   0.9521 B(  9-C , 10-S ) :   1.6119 B(  9-C , 11-N ) :   1.2891
B( 11-N , 12-C ) :   0.9965 B( 11-N , 29-H ) :   0.9491 B( 12-C , 13-C ) :   0.9415
B( 12-C , 30-H ) :   0.9975 B( 13-C , 14-C ) :   1.3877 B( 13-C , 19-C ) :   1.3488
B( 14-C , 15-C ) :   1.3961 B( 14-C , 31-H ) :   0.9602 B( 15-C , 16-C ) :   1.3641
B( 15-C , 32-H ) :   0.9699 B( 16-C , 17-C ) :   1.3283 B( 16-C , 33-H ) :   0.9843
B( 17-C , 18-O ) :   1.1093 B( 17-C , 19-C ) :   1.3656 B( 18-O , 34-H ) :   0.9790
B( 19-C , 35-H ) :   0.9588

MP2 TOTAL ENERGY:    -1274.334180750 Eh
FINAL SINGLE POINT ENERGY     -1274.334180750475

DIPOLE MOMENT
-------------
                                X             Y             Z
Electronic contribution:     11.81536       7.06055       7.37775
Nuclear contribution   :    -13.36464      -8.05570      -7.66484
                        -----------------------------------------
Total Dipole Moment    :     -1.54928      -0.99515      -0.28708
                        -----------------------------------------
Magnitude (a.u.)       :      1.86360
Magnitude (Debye)      :      4.73690

Rotational constants in cm-1:     0.011508     0.009155     0.006733
Rotational constants in MHz :   345.011911   274.465799   201.860177

                             ****ORCA TERMINATED NORMALLY****
TOTAL RUN TIME: 0 days 2 hours 10 minutes 43 seconds 126 msec
