                         Program Version 4.2.0 -  RELEASE  -
|  1> ! ri-mp2 cc-pvtz cc-pvtz/c TightSCF  NoKeepInts
|  2>
|  3> %scf
|  4>   MaxCore 4096
|  5> end
|  6> *xyz  0  1
|  7>     C       14.5622637   15.2517848   16.9515752
|  8>     C       15.7817038   14.7011120   16.1922410
|  9>     O       16.6229015   15.8196636   15.8583155
| 10>     C       17.8575699   15.8914398   16.4324681
| 11>     O       18.5670504   14.9037086   16.5282332
| 12>     C       17.9524406   17.0209493   17.4120176
| 13>     C       17.3562925   18.2264055   17.2345994
| 14>     C       16.5451939   18.6837301   16.0403476
| 15>     N       17.5258760   19.2327890   18.1901841
| 16>     C       18.3690636   19.1539335   19.2676123
| 17>     S       18.5923694   20.4316554   20.2937313
| 18>     N       19.0184030   17.9588369   19.4524409
| 19>     C       18.7684178   16.7304166   18.6743562
| 20>     C       18.0642250   15.6840026   19.5338472
| 21>     C       18.6098377   14.3953967   19.6799318
| 22>     C       17.9525482   13.4225107   20.4515307
| 23>     C       16.7369065   13.7390021   21.0814341
| 24>     C       16.1879832   15.0200218   20.9349276
| 25>     O       15.0082279   15.3256675   21.5313275
| 26>     C       16.8453867   15.9866653   20.1679278
| 27>     H       14.8752023   15.7465484   17.8795861
| 28>     H       13.8752525   14.4383763   17.2147269
| 29>     H       14.0162362   15.9773500   16.3363368
| 30>     H       16.3056887   13.9636796   16.8167482
| 31>     H       15.4501623   14.1998706   15.2738054
| 32>     H       15.5262566   18.2800616   16.0878391
| 33>     H       16.9981766   18.3392872   15.1022711
| 34>     H       16.4712598   19.7762281   15.9774512
| 35>     H       17.0584023   20.1175007   18.0718979
| 36>     H       19.6105983   17.9183393   20.2719976
| 37>     H       19.7420187   16.3263030   18.3612387
| 38>     H       19.5389414   14.1416571   19.1752067
| 39>     H       18.3825777   12.4274912   20.5516281
| 40>     H       16.2242683   12.9893175   21.6749272
| 41>     H       14.7433913   14.5579482   22.0601077
| 42>     H       16.4039055   16.9723495   20.0691824
| 43> *
| 44>
| 45>                          ****END OF INPUT****

CARTESIAN COORDINATES (ANGSTROEM)
---------------------------------
  C     14.562264   15.251785   16.951575
  C     15.781704   14.701112   16.192241
  O     16.622902   15.819664   15.858315
  C     17.857570   15.891440   16.432468
  O     18.567050   14.903709   16.528233
  C     17.952441   17.020949   17.412018
  C     17.356292   18.226405   17.234599
  C     16.545194   18.683730   16.040348
  N     17.525876   19.232789   18.190184
  C     18.369064   19.153934   19.267612
  S     18.592369   20.431655   20.293731
  N     19.018403   17.958837   19.452441
  C     18.768418   16.730417   18.674356
  C     18.064225   15.684003   19.533847
  C     18.609838   14.395397   19.679932
  C     17.952548   13.422511   20.451531
  C     16.736906   13.739002   21.081434
  C     16.187983   15.020022   20.934928
  O     15.008228   15.325667   21.531327
  C     16.845387   15.986665   20.167928
  H     14.875202   15.746548   17.879586
  H     13.875253   14.438376   17.214727
  H     14.016236   15.977350   16.336337
  H     16.305689   13.963680   16.816748
  H     15.450162   14.199871   15.273805
  H     15.526257   18.280062   16.087839
  H     16.998177   18.339287   15.102271
  H     16.471260   19.776228   15.977451
  H     17.058402   20.117501   18.071898
  H     19.610598   17.918339   20.271998
  H     19.742019   16.326303   18.361239
  H     19.538941   14.141657   19.175207
  H     18.382578   12.427491   20.551628
  H     16.224268   12.989318   21.674927
  H     14.743391   14.557948   22.060108
  H     16.403906   16.972349   20.069182

 Total Charge           Charge          ....    0
 Multiplicity           Mult            ....    1
 Number of Electrons    NEL             ....  154
 Basis Dimension        Dim             ....  828

ORBITAL ENERGIES
----------------

  NO   OCC          E(Eh)            E(eV)
   0   2.0000     -91.888782     -2500.4209
   1   2.0000     -20.596548      -560.4606
   2   2.0000     -20.588568      -560.2434
   3   2.0000     -20.553205      -559.2812
   4   2.0000     -15.628218      -425.2654
   5   2.0000     -15.608420      -424.7267
   6   2.0000     -11.394922      -310.0716
   7   2.0000     -11.384287      -309.7822
   8   2.0000     -11.332893      -308.3837
   9   2.0000     -11.312512      -307.8291
  10   2.0000     -11.308858      -307.7297
  11   2.0000     -11.298224      -307.4403
  12   2.0000     -11.259767      -306.3938
  13   2.0000     -11.259713      -306.3924
  14   2.0000     -11.258067      -306.3476
  15   2.0000     -11.252674      -306.2008
  16   2.0000     -11.242268      -305.9177
  17   2.0000     -11.238142      -305.8054
  18   2.0000     -11.235375      -305.7301
  19   2.0000     -11.228663      -305.5475
  20   2.0000      -8.893858      -242.0142
  21   2.0000      -6.575436      -178.9267
  22   2.0000      -6.573427      -178.8720
  23   2.0000      -6.572843      -178.8561
  24   2.0000      -1.452954       -39.5369
  25   2.0000      -1.416287       -38.5391
  26   2.0000      -1.356818       -36.9209
  27   2.0000      -1.339494       -36.4495
  28   2.0000      -1.237869       -33.6841
  29   2.0000      -1.156710       -31.4757
  30   2.0000      -1.121461       -30.5165
  31   2.0000      -1.044889       -28.4329
  32   2.0000      -1.034743       -28.1568
  33   2.0000      -1.014186       -27.5974
  34   2.0000      -0.999476       -27.1971
  35   2.0000      -0.985319       -26.8119
  36   2.0000      -0.923604       -25.1326
  37   2.0000      -0.887305       -24.1448
  38   2.0000      -0.847735       -23.0681
  39   2.0000      -0.838320       -22.8119
  40   2.0000      -0.832776       -22.6610
  41   2.0000      -0.819893       -22.3104
  42   2.0000      -0.757889       -20.6232
  43   2.0000      -0.736414       -20.0388
  44   2.0000      -0.728305       -19.8182
  45   2.0000      -0.694799       -18.9065
  46   2.0000      -0.685723       -18.6595
  47   2.0000      -0.678557       -18.4645
  48   2.0000      -0.676777       -18.4160
  49   2.0000      -0.660760       -17.9802
  50   2.0000      -0.652653       -17.7596
  51   2.0000      -0.645320       -17.5600
  52   2.0000      -0.636603       -17.3229
  53   2.0000      -0.605720       -16.4825
  54   2.0000      -0.603093       -16.4110
  55   2.0000      -0.600089       -16.3292
  56   2.0000      -0.591033       -16.0828
  57   2.0000      -0.580650       -15.8003
  58   2.0000      -0.576452       -15.6860
  59   2.0000      -0.569438       -15.4952
  60   2.0000      -0.561556       -15.2807
  61   2.0000      -0.552754       -15.0412
  62   2.0000      -0.543154       -14.7800
  63   2.0000      -0.521645       -14.1947
  64   2.0000      -0.516830       -14.0637
  65   2.0000      -0.511910       -13.9298
  66   2.0000      -0.501254       -13.6398
  67   2.0000      -0.498259       -13.5583
  68   2.0000      -0.483338       -13.1523
  69   2.0000      -0.464097       -12.6287
  70   2.0000      -0.457899       -12.4601
  71   2.0000      -0.453007       -12.3270
  72   2.0000      -0.353856        -9.6289
  73   2.0000      -0.348291        -9.4775
  74   2.0000      -0.328120        -8.9286
  75   2.0000      -0.319754        -8.7009
  76   2.0000      -0.315694        -8.5905
  77   0.0000       0.072330         1.9682
  78   0.0000       0.105032         2.8581
  79   0.0000       0.119695         3.2571
  80   0.0000       0.131638         3.5820
  81   0.0000       0.138648         3.7728

MULLIKEN ATOMIC CHARGES
-----------------------
   0 C :   -0.293798
   1 C :    0.041263
   2 O :   -0.370220
   3 C :    0.455199
   4 O :   -0.405687
   5 C :   -0.193543
   6 C :    0.139901
   7 C :   -0.283504
   8 N :   -0.124347
   9 C :    0.202290
  10 S :   -0.439791
  11 N :   -0.201263
  12 C :    0.053291
  13 C :    0.058383
  14 C :   -0.164599
  15 C :   -0.132945
  16 C :   -0.279433
  17 C :    0.329406
  18 O :   -0.361926
  19 C :   -0.318006
  20 H :    0.108198
  21 H :    0.105466
  22 H :    0.093084
  23 H :    0.108372
  24 H :    0.104485
  25 H :    0.126158
  26 H :    0.124147
  27 H :    0.105740
  28 H :    0.197176
  29 H :    0.194226
  30 H :    0.155284
  31 H :    0.156802
  32 H :    0.161389
  33 H :    0.130832
  34 H :    0.241071
  35 H :    0.176899
Sum of atomic charges:   -0.0000000

LOEWDIN ATOMIC CHARGES
----------------------
   0 C :    0.103512
   1 C :   -0.012354
   2 O :    0.295704
   3 C :   -0.416623
   4 O :    0.122458
   5 C :   -0.093679
   6 C :   -0.074711
   7 C :    0.126282
   8 N :    0.404222
   9 C :   -0.457467
  10 S :   -0.036438
  11 N :    0.397116
  12 C :   -0.045436
  13 C :   -0.040957
  14 C :    0.021800
  15 C :    0.041546
  16 C :   -0.002159
  17 C :   -0.194018
  18 O :    0.393649
  19 C :    0.028659
  20 H :   -0.027626
  21 H :   -0.024204
  22 H :   -0.031634
  23 H :   -0.024689
  24 H :   -0.028108
  25 H :   -0.010761
  26 H :   -0.007921
  27 H :   -0.019559
  28 H :   -0.058762
  29 H :   -0.064092
  30 H :   -0.004560
  31 H :   -0.024494
  32 H :   -0.020301
  33 H :   -0.035605
  34 H :   -0.153801
  35 H :   -0.024990

  Mayer bond orders larger than 0.100000
B(  0-C ,  1-C ) :   0.9673 B(  0-C , 20-H ) :   0.9724 B(  0-C , 21-H ) :   0.9790
B(  0-C , 22-H ) :   0.9789 B(  1-C ,  2-O ) :   0.8877 B(  1-C , 23-H ) :   0.9694
B(  1-C , 24-H ) :   0.9859 B(  2-O ,  3-C ) :   1.1077 B(  3-C ,  4-O ) :   2.0215
B(  3-C ,  5-C ) :   1.0233 B(  5-C ,  6-C ) :   1.6679 B(  5-C , 12-C ) :   0.9647
B(  6-C ,  7-C ) :   0.9543 B(  6-C ,  8-N ) :   1.1396 B(  7-C , 25-H ) :   0.9631
B(  7-C , 26-H ) :   0.9703 B(  7-C , 27-H ) :   0.9878 B(  8-N ,  9-C ) :   1.1847
B(  8-N , 28-H ) :   0.9497 B(  9-C , 10-S ) :   1.6111 B(  9-C , 11-N ) :   1.2993
B( 11-N , 12-C ) :   0.9933 B( 11-N , 29-H ) :   0.9517 B( 12-C , 13-C ) :   0.9448
B( 12-C , 30-H ) :   0.9982 B( 13-C , 14-C ) :   1.3780 B( 13-C , 19-C ) :   1.3537
B( 14-C , 15-C ) :   1.3943 B( 14-C , 31-H ) :   0.9635 B( 15-C , 16-C ) :   1.3638
B( 15-C , 32-H ) :   0.9708 B( 16-C , 17-C ) :   1.3315 B( 16-C , 33-H ) :   0.9847
B( 17-C , 18-O ) :   1.1052 B( 17-C , 19-C ) :   1.3660 B( 18-O , 34-H ) :   0.9804
B( 19-C , 35-H ) :   0.9560

MP2 TOTAL ENERGY:    -1274.329846645 Eh
FINAL SINGLE POINT ENERGY     -1274.329846645122

DIPOLE MOMENT
-------------
                                X             Y             Z
Electronic contribution:     10.80522       8.01761       6.63535
Nuclear contribution   :    -12.06800      -9.36133      -7.34053
                        -----------------------------------------
Total Dipole Moment    :     -1.26278      -1.34372      -0.70518
                        -----------------------------------------
Magnitude (a.u.)       :      1.97420
Magnitude (Debye)      :      5.01802

Rotational constants in cm-1:     0.011821     0.009290     0.006855
Rotational constants in MHz :   354.374468   278.513040   205.506320

                             ****ORCA TERMINATED NORMALLY****
TOTAL RUN TIME: 0 days 1 hours 46 minutes 29 seconds 355 msec
