                         Program Version 4.2.0 -  RELEASE  -
|  1> ! ri-mp2 cc-pvtz cc-pvtz/c TightSCF  NoKeepInts
|  2>
|  3> %scf
|  4>   MaxCore 4096
|  5> end
|  6> *xyz  0  1
|  7>     C       15.0709925   15.7114358   17.2904776
|  8>     C       15.6034453   15.1155707   15.9708330
|  9>     O       17.0016681   15.3338062   15.6327300
| 10>     C       18.0585039   15.6854813   16.4391326
| 11>     O       19.0276289   14.9512236   16.4997487
| 12>     C       17.8905090   16.8190221   17.4028394
| 13>     C       17.3285958   17.9971083   17.0358556
| 14>     C       16.7943466   18.3675411   15.6655206
| 15>     N       17.3170054   19.0715376   17.9287864
| 16>     C       18.0125612   19.1101785   19.1084877
| 17>     S       18.0425583   20.4647800   20.0563251
| 18>     N       18.6891319   17.9687146   19.4602712
| 19>     C       18.5886674   16.6716129   18.7613210
| 20>     C       17.9179813   15.6186545   19.6418313
| 21>     C       18.3711910   14.2866242   19.6130439
| 22>     C       17.7614668   13.3024832   20.4085158
| 23>     C       16.6873934   13.6508839   21.2443197
| 24>     C       16.2315463   14.9752741   21.2783185
| 25>     O       15.1884062   15.3133261   22.0771582
| 26>     C       16.8401508   15.9532955   20.4851604
| 27>     H       15.6605423   15.3602911   18.1414448
| 28>     H       14.0436869   15.3645405   17.4562576
| 29>     H       15.0345204   16.8031295   17.2875481
| 30>     H       15.4510200   14.0296292   16.0277882
| 31>     H       14.9802398   15.4721603   15.1406754
| 32>     H       15.7246220   18.1502081   15.5737375
| 33>     H       17.3174227   17.8232670   14.8693118
| 34>     H       16.9359993   19.4344503   15.4519095
| 35>     H       16.8430131   19.9250894   17.6789667
| 36>     H       19.1844780   18.0209776   20.3414383
| 37>     H       19.6155670   16.3283619   18.5664643
| 38>     H       19.1974257   14.0100782   18.9613012
| 39>     H       18.1216026   12.2756862   20.3720166
| 40>     H       16.2127064   12.8932592   21.8590547
| 41>     H       14.9381912   14.5228509   22.5788400
| 42>     H       16.4622126   16.9694664   20.5265686
| 43> *
| 44>
| 45>                          ****END OF INPUT****

CARTESIAN COORDINATES (ANGSTROEM)
---------------------------------
  C     15.070992   15.711436   17.290478
  C     15.603445   15.115571   15.970833
  O     17.001668   15.333806   15.632730
  C     18.058504   15.685481   16.439133
  O     19.027629   14.951224   16.499749
  C     17.890509   16.819022   17.402839
  C     17.328596   17.997108   17.035856
  C     16.794347   18.367541   15.665521
  N     17.317005   19.071538   17.928786
  C     18.012561   19.110178   19.108488
  S     18.042558   20.464780   20.056325
  N     18.689132   17.968715   19.460271
  C     18.588667   16.671613   18.761321
  C     17.917981   15.618654   19.641831
  C     18.371191   14.286624   19.613044
  C     17.761467   13.302483   20.408516
  C     16.687393   13.650884   21.244320
  C     16.231546   14.975274   21.278319
  O     15.188406   15.313326   22.077158
  C     16.840151   15.953295   20.485160
  H     15.660542   15.360291   18.141445
  H     14.043687   15.364540   17.456258
  H     15.034520   16.803130   17.287548
  H     15.451020   14.029629   16.027788
  H     14.980240   15.472160   15.140675
  H     15.724622   18.150208   15.573737
  H     17.317423   17.823267   14.869312
  H     16.935999   19.434450   15.451909
  H     16.843013   19.925089   17.678967
  H     19.184478   18.020978   20.341438
  H     19.615567   16.328362   18.566464
  H     19.197426   14.010078   18.961301
  H     18.121603   12.275686   20.372017
  H     16.212706   12.893259   21.859055
  H     14.938191   14.522851   22.578840
  H     16.462213   16.969466   20.526569

 Total Charge           Charge          ....    0
 Multiplicity           Mult            ....    1
 Number of Electrons    NEL             ....  154
 Basis Dimension        Dim             ....  828

ORBITAL ENERGIES
----------------

  NO   OCC          E(Eh)            E(eV)
   0   2.0000     -91.891055     -2500.4827
   1   2.0000     -20.597530      -560.4873
   2   2.0000     -20.590181      -560.2873
   3   2.0000     -20.548769      -559.1604
   4   2.0000     -15.629967      -425.3130
   5   2.0000     -15.610596      -424.7859
   6   2.0000     -11.398101      -310.1581
   7   2.0000     -11.386853      -309.8520
   8   2.0000     -11.334404      -308.4248
   9   2.0000     -11.314306      -307.8779
  10   2.0000     -11.312284      -307.8229
  11   2.0000     -11.311922      -307.8130
  12   2.0000     -11.265970      -306.5626
  13   2.0000     -11.263325      -306.4907
  14   2.0000     -11.261426      -306.4390
  15   2.0000     -11.254610      -306.2535
  16   2.0000     -11.243747      -305.9579
  17   2.0000     -11.239462      -305.8413
  18   2.0000     -11.235880      -305.7438
  19   2.0000     -11.235637      -305.7372
  20   2.0000      -8.896134      -242.0761
  21   2.0000      -6.577715      -178.9887
  22   2.0000      -6.575699      -178.9339
  23   2.0000      -6.575115      -178.9180
  24   2.0000      -1.441120       -39.2149
  25   2.0000      -1.417354       -38.5682
  26   2.0000      -1.353050       -36.8184
  27   2.0000      -1.341858       -36.5138
  28   2.0000      -1.240243       -33.7487
  29   2.0000      -1.158396       -31.5215
  30   2.0000      -1.123938       -30.5839
  31   2.0000      -1.046482       -28.4762
  32   2.0000      -1.040460       -28.3124
  33   2.0000      -1.016697       -27.6657
  34   2.0000      -1.003897       -27.3174
  35   2.0000      -0.990114       -26.9424
  36   2.0000      -0.927233       -25.2313
  37   2.0000      -0.900417       -24.5016
  38   2.0000      -0.853076       -23.2134
  39   2.0000      -0.840859       -22.8809
  40   2.0000      -0.834179       -22.6992
  41   2.0000      -0.825411       -22.4606
  42   2.0000      -0.745904       -20.2971
  43   2.0000      -0.732405       -19.9297
  44   2.0000      -0.729375       -19.8473
  45   2.0000      -0.694879       -18.9086
  46   2.0000      -0.687041       -18.6953
  47   2.0000      -0.676505       -18.4086
  48   2.0000      -0.674251       -18.3473
  49   2.0000      -0.662921       -18.0390
  50   2.0000      -0.654601       -17.8126
  51   2.0000      -0.651959       -17.7407
  52   2.0000      -0.642697       -17.4887
  53   2.0000      -0.616520       -16.7764
  54   2.0000      -0.605036       -16.4639
  55   2.0000      -0.603616       -16.4252
  56   2.0000      -0.601862       -16.3775
  57   2.0000      -0.589438       -16.0394
  58   2.0000      -0.575535       -15.6611
  59   2.0000      -0.569425       -15.4948
  60   2.0000      -0.564497       -15.3607
  61   2.0000      -0.556212       -15.1353
  62   2.0000      -0.544679       -14.8215
  63   2.0000      -0.531872       -14.4730
  64   2.0000      -0.522070       -14.2062
  65   2.0000      -0.513792       -13.9810
  66   2.0000      -0.501039       -13.6340
  67   2.0000      -0.489154       -13.3106
  68   2.0000      -0.483677       -13.1615
  69   2.0000      -0.469555       -12.7773
  70   2.0000      -0.457883       -12.4596
  71   2.0000      -0.447302       -12.1717
  72   2.0000      -0.356569        -9.7027
  73   2.0000      -0.348488        -9.4829
  74   2.0000      -0.330444        -8.9918
  75   2.0000      -0.322754        -8.7826
  76   2.0000      -0.319038        -8.6815
  77   0.0000       0.076807         2.0900
  78   0.0000       0.107093         2.9141
  79   0.0000       0.116168         3.1611
  80   0.0000       0.128685         3.5017
  81   0.0000       0.131418         3.5761

MULLIKEN ATOMIC CHARGES
-----------------------
   0 C :   -0.351978
   1 C :    0.043191
   2 O :   -0.358876
   3 C :    0.439680
   4 O :   -0.383101
   5 C :   -0.222420
   6 C :    0.149275
   7 C :   -0.309640
   8 N :   -0.137096
   9 C :    0.198119
  10 S :   -0.437532
  11 N :   -0.221533
  12 C :    0.089750
  13 C :    0.015254
  14 C :   -0.207142
  15 C :   -0.137599
  16 C :   -0.275729
  17 C :    0.318739
  18 O :   -0.357462
  19 C :   -0.270643
  20 H :    0.134121
  21 H :    0.127344
  22 H :    0.102465
  23 H :    0.117902
  24 H :    0.104745
  25 H :    0.116641
  26 H :    0.139981
  27 H :    0.120664
  28 H :    0.198040
  29 H :    0.200636
  30 H :    0.164589
  31 H :    0.177086
  32 H :    0.163788
  33 H :    0.131959
  34 H :    0.240920
  35 H :    0.175860
Sum of atomic charges:   -0.0000000

LOEWDIN ATOMIC CHARGES
----------------------
   0 C :    0.105336
   1 C :   -0.013176
   2 O :    0.281404
   3 C :   -0.417182
   4 O :    0.123686
   5 C :   -0.087315
   6 C :   -0.083352
   7 C :    0.128335
   8 N :    0.404178
   9 C :   -0.458374
  10 S :   -0.035353
  11 N :    0.397726
  12 C :   -0.043160
  13 C :   -0.043753
  14 C :    0.018927
  15 C :    0.042977
  16 C :   -0.001818
  17 C :   -0.194060
  18 O :    0.395197
  19 C :    0.026861
  20 H :   -0.025794
  21 H :   -0.019166
  22 H :   -0.036192
  23 H :   -0.022139
  24 H :   -0.026679
  25 H :   -0.017907
  26 H :   -0.005898
  27 H :   -0.014297
  28 H :   -0.058210
  29 H :   -0.063586
  30 H :   -0.002390
  31 H :   -0.022210
  32 H :   -0.018911
  33 H :   -0.035164
  34 H :   -0.153675
  35 H :   -0.024865

  Mayer bond orders larger than 0.100000
B(  0-C ,  1-C ) :   0.9639 B(  0-C , 20-H ) :   0.9620 B(  0-C , 21-H ) :   0.9774
B(  0-C , 22-H ) :   0.9718 B(  1-C ,  2-O ) :   0.8980 B(  1-C , 23-H ) :   0.9803
B(  1-C , 24-H ) :   0.9803 B(  2-O ,  3-C ) :   1.1393 B(  3-C ,  4-O ) :   2.0672
B(  3-C ,  5-C ) :   0.9597 B(  5-C ,  6-C ) :   1.6840 B(  5-C , 12-C ) :   0.9462
B(  6-C ,  7-C ) :   0.9459 B(  6-C ,  8-N ) :   1.1100 B(  7-C , 25-H ) :   0.9645
B(  7-C , 26-H ) :   0.9698 B(  7-C , 27-H ) :   0.9839 B(  8-N ,  9-C ) :   1.1896
B(  8-N , 28-H ) :   0.9502 B(  9-C , 10-S ) :   1.6117 B(  9-C , 11-N ) :   1.2916
B( 11-N , 12-C ) :   0.9837 B( 11-N , 29-H ) :   0.9492 B( 12-C , 13-C ) :   0.9513
B( 12-C , 30-H ) :   0.9951 B( 13-C , 14-C ) :   1.3914 B( 13-C , 19-C ) :   1.3432
B( 14-C , 15-C ) :   1.3999 B( 14-C , 31-H ) :   0.9567 B( 15-C , 16-C ) :   1.3604
B( 15-C , 32-H ) :   0.9703 B( 16-C , 17-C ) :   1.3309 B( 16-C , 33-H ) :   0.9846
B( 17-C , 18-O ) :   1.1104 B( 17-C , 19-C ) :   1.3684 B( 18-O , 34-H ) :   0.9797
B( 19-C , 35-H ) :   0.9590

MP2 TOTAL ENERGY:    -1274.323971154 Eh
FINAL SINGLE POINT ENERGY     -1274.323971154102

DIPOLE MOMENT
-------------
                                X             Y             Z
Electronic contribution:      9.32956       6.34670       6.69396
Nuclear contribution   :    -10.87344      -7.47427      -7.25755
                        -----------------------------------------
Total Dipole Moment    :     -1.54387      -1.12757      -0.56359
                        -----------------------------------------
Magnitude (a.u.)       :      1.99313
Magnitude (Debye)      :      5.06615

Rotational constants in cm-1:     0.011317     0.009759     0.006726
Rotational constants in MHz :   339.263144   292.561974   201.646099

                             ****ORCA TERMINATED NORMALLY****
TOTAL RUN TIME: 0 days 1 hours 48 minutes 20 seconds 780 msec
