                         Program Version 4.2.0 -  RELEASE  -
|  1> ! ri-mp2 cc-pvtz cc-pvtz/c TightSCF  NoKeepInts
|  2>
|  3> %scf
|  4>   MaxCore 4096
|  5> end
|  6> *xyz  0  1
|  7>     C       15.2804054   14.3850523   17.1963963
|  8>     C       15.3665125   15.5661775   16.2084417
|  9>     O       16.6878092   15.6518989   15.6306626
| 10>     C       17.8042444   15.6872527   16.4190273
| 11>     O       18.5220186   14.7089047   16.5237600
| 12>     C       17.9099259   16.8646315   17.3455395
| 13>     C       17.4528371   18.1087844   17.0493248
| 14>     C       16.8062047   18.5827273   15.7626772
| 15>     N       17.6674519   19.1599627   17.9456228
| 16>     C       18.4720539   19.0923840   19.0520963
| 17>     S       18.7723243   20.4192590   19.9920617
| 18>     N       19.0171191   17.8663219   19.3378160
| 19>     C       18.6724648   16.6070173   18.6505578
| 20>     C       17.8884012   15.6874801   19.5809291
| 21>     C       18.2738878   14.3436801   19.7402961
| 22>     C       17.5487505   13.4857305   20.5839070
| 23>     C       16.4272477   13.9745227   21.2752341
| 24>     C       16.0381831   15.3115037   21.1175632
| 25>     O       14.9491347   15.7837171   21.7745210
| 26>     C       16.7611876   16.1633343   20.2765269
| 27>     H       15.9014047   14.5510074   18.0812379
| 28>     H       15.6105978   13.4552553   16.7158552
| 29>     H       14.2473298   14.2447371   17.5363246
| 30>     H       14.6309809   15.4249194   15.4059780
| 31>     H       15.1122778   16.4903774   16.7412276
| 32>     H       17.1778331   18.0233915   14.8950736
| 33>     H       17.0281926   19.6383897   15.5616370
| 34>     H       15.7163328   18.4756819   15.7979933
| 35>     H       17.2862731   20.0714362   17.7465963
| 36>     H       19.5891738   17.8379850   20.1723266
| 37>     H       19.6155074   16.1038130   18.3909150
| 38>     H       19.1299099   13.9578221   19.1909947
| 39>     H       17.8540427   12.4464214   20.6929295
| 40>     H       15.8630077   13.3140284   21.9252981
| 41>     H       14.6237686   15.0717924   22.3460496
| 42>     H       16.4422026   17.1945992   20.1706015
| 43> *
| 44>
| 45>                          ****END OF INPUT****

CARTESIAN COORDINATES (ANGSTROEM)
---------------------------------
  C     15.280405   14.385052   17.196396
  C     15.366513   15.566178   16.208442
  O     16.687809   15.651899   15.630663
  C     17.804244   15.687253   16.419027
  O     18.522019   14.708905   16.523760
  C     17.909926   16.864632   17.345539
  C     17.452837   18.108784   17.049325
  C     16.806205   18.582727   15.762677
  N     17.667452   19.159963   17.945623
  C     18.472054   19.092384   19.052096
  S     18.772324   20.419259   19.992062
  N     19.017119   17.866322   19.337816
  C     18.672465   16.607017   18.650558
  C     17.888401   15.687480   19.580929
  C     18.273888   14.343680   19.740296
  C     17.548751   13.485731   20.583907
  C     16.427248   13.974523   21.275234
  C     16.038183   15.311504   21.117563
  O     14.949135   15.783717   21.774521
  C     16.761188   16.163334   20.276527
  H     15.901405   14.551007   18.081238
  H     15.610598   13.455255   16.715855
  H     14.247330   14.244737   17.536325
  H     14.630981   15.424919   15.405978
  H     15.112278   16.490377   16.741228
  H     17.177833   18.023391   14.895074
  H     17.028193   19.638390   15.561637
  H     15.716333   18.475682   15.797993
  H     17.286273   20.071436   17.746596
  H     19.589174   17.837985   20.172327
  H     19.615507   16.103813   18.390915
  H     19.129910   13.957822   19.190995
  H     17.854043   12.446421   20.692929
  H     15.863008   13.314028   21.925298
  H     14.623769   15.071792   22.346050
  H     16.442203   17.194599   20.170601

 Total Charge           Charge          ....    0
 Multiplicity           Mult            ....    1
 Number of Electrons    NEL             ....  154
 Basis Dimension        Dim             ....  828

ORBITAL ENERGIES
----------------

  NO   OCC          E(Eh)            E(eV)
   0   2.0000     -91.890998     -2500.4812
   1   2.0000     -20.597697      -560.4918
   2   2.0000     -20.587703      -560.2199
   3   2.0000     -20.553348      -559.2850
   4   2.0000     -15.630892      -425.3382
   5   2.0000     -15.610102      -424.7725
   6   2.0000     -11.396198      -310.1063
   7   2.0000     -11.386413      -309.8401
   8   2.0000     -11.338723      -308.5423
   9   2.0000     -11.314404      -307.8806
  10   2.0000     -11.310117      -307.7639
  11   2.0000     -11.307070      -307.6810
  12   2.0000     -11.264416      -306.5203
  13   2.0000     -11.264380      -306.5194
  14   2.0000     -11.259874      -306.3968
  15   2.0000     -11.254411      -306.2481
  16   2.0000     -11.244044      -305.9660
  17   2.0000     -11.239858      -305.8521
  18   2.0000     -11.236521      -305.7613
  19   2.0000     -11.223984      -305.4201
  20   2.0000      -8.896069      -242.0743
  21   2.0000      -6.577645      -178.9868
  22   2.0000      -6.575634      -178.9321
  23   2.0000      -6.575047      -178.9161
  24   2.0000      -1.447230       -39.3811
  25   2.0000      -1.417494       -38.5720
  26   2.0000      -1.357824       -36.9483
  27   2.0000      -1.342712       -36.5370
  28   2.0000      -1.240623       -33.7591
  29   2.0000      -1.158603       -31.5272
  30   2.0000      -1.123286       -30.5662
  31   2.0000      -1.046143       -28.4670
  32   2.0000      -1.032843       -28.1051
  33   2.0000      -1.016270       -27.6541
  34   2.0000      -1.003613       -27.3097
  35   2.0000      -0.988179       -26.8897
  36   2.0000      -0.926515       -25.2118
  37   2.0000      -0.891697       -24.2643
  38   2.0000      -0.853718       -23.2309
  39   2.0000      -0.841428       -22.8964
  40   2.0000      -0.834448       -22.7065
  41   2.0000      -0.828442       -22.5430
  42   2.0000      -0.745455       -20.2849
  43   2.0000      -0.733451       -19.9582
  44   2.0000      -0.729587       -19.8531
  45   2.0000      -0.695811       -18.9340
  46   2.0000      -0.686762       -18.6877
  47   2.0000      -0.681192       -18.5362
  48   2.0000      -0.676398       -18.4057
  49   2.0000      -0.663676       -18.0595
  50   2.0000      -0.653491       -17.7824
  51   2.0000      -0.648981       -17.6597
  52   2.0000      -0.638947       -17.3866
  53   2.0000      -0.620798       -16.8928
  54   2.0000      -0.607049       -16.5186
  55   2.0000      -0.605316       -16.4715
  56   2.0000      -0.601080       -16.3562
  57   2.0000      -0.581909       -15.8346
  58   2.0000      -0.575324       -15.6554
  59   2.0000      -0.566646       -15.4192
  60   2.0000      -0.556725       -15.1493
  61   2.0000      -0.548600       -14.9282
  62   2.0000      -0.541174       -14.7261
  63   2.0000      -0.531043       -14.4504
  64   2.0000      -0.520701       -14.1690
  65   2.0000      -0.512817       -13.9545
  66   2.0000      -0.501108       -13.6359
  67   2.0000      -0.490578       -13.3493
  68   2.0000      -0.486427       -13.2363
  69   2.0000      -0.468373       -12.7451
  70   2.0000      -0.459313       -12.4985
  71   2.0000      -0.448670       -12.2089
  72   2.0000      -0.358772        -9.7627
  73   2.0000      -0.350108        -9.5269
  74   2.0000      -0.330295        -8.9878
  75   2.0000      -0.322125        -8.7655
  76   2.0000      -0.319045        -8.6816
  77   0.0000       0.071621         1.9489
  78   0.0000       0.104827         2.8525
  79   0.0000       0.118077         3.2130
  80   0.0000       0.130661         3.5555
  81   0.0000       0.136661         3.7187

MULLIKEN ATOMIC CHARGES
-----------------------
   0 C :   -0.286101
   1 C :    0.024864
   2 O :   -0.365867
   3 C :    0.457241
   4 O :   -0.386626
   5 C :   -0.222037
   6 C :    0.147272
   7 C :   -0.308896
   8 N :   -0.126915
   9 C :    0.195082
  10 S :   -0.436999
  11 N :   -0.200423
  12 C :    0.054679
  13 C :    0.000495
  14 C :   -0.160355
  15 C :   -0.139470
  16 C :   -0.268613
  17 C :    0.299163
  18 O :   -0.359187
  19 C :   -0.238176
  20 H :    0.107878
  21 H :    0.113390
  22 H :    0.098184
  23 H :    0.119579
  24 H :    0.081207
  25 H :    0.141559
  26 H :    0.118343
  27 H :    0.121532
  28 H :    0.197507
  29 H :    0.194976
  30 H :    0.159230
  31 H :    0.162841
  32 H :    0.161607
  33 H :    0.132048
  34 H :    0.241154
  35 H :    0.169833
Sum of atomic charges:   -0.0000000

LOEWDIN ATOMIC CHARGES
----------------------
   0 C :    0.111669
   1 C :   -0.021532
   2 O :    0.287512
   3 C :   -0.419563
   4 O :    0.128350
   5 C :   -0.091706
   6 C :   -0.075759
   7 C :    0.127367
   8 N :    0.404406
   9 C :   -0.459863
  10 S :   -0.034242
  11 N :    0.397682
  12 C :   -0.045804
  13 C :   -0.045045
  14 C :    0.021333
  15 C :    0.043336
  16 C :   -0.000744
  17 C :   -0.193358
  18 O :    0.394657
  19 C :    0.026798
  20 H :   -0.027896
  21 H :   -0.021275
  22 H :   -0.025579
  23 H :   -0.021270
  24 H :   -0.040921
  25 H :   -0.006582
  26 H :   -0.015659
  27 H :   -0.016520
  28 H :   -0.057665
  29 H :   -0.063266
  30 H :   -0.003285
  31 H :   -0.023098
  32 H :   -0.019353
  33 H :   -0.034985
  34 H :   -0.153519
  35 H :   -0.024623

  Mayer bond orders larger than 0.100000
B(  0-C ,  1-C ) :   0.9766 B(  0-C , 20-H ) :   0.9659 B(  0-C , 21-H ) :   0.9755
B(  0-C , 22-H ) :   0.9768 B(  1-C ,  2-O ) :   0.8976 B(  1-C , 23-H ) :   0.9789
B(  1-C , 24-H ) :   0.9708 B(  2-O ,  3-C ) :   1.1128 B(  3-C ,  4-O ) :   2.0653
B(  3-C ,  5-C ) :   0.9843 B(  5-C ,  6-C ) :   1.6685 B(  5-C , 12-C ) :   0.9597
B(  6-C ,  7-C ) :   0.9438 B(  6-C ,  8-N ) :   1.1367 B(  7-C , 25-H ) :   0.9680
B(  7-C , 26-H ) :   0.9851 B(  7-C , 27-H ) :   0.9657 B(  8-N ,  9-C ) :   1.1828
B(  8-N , 28-H ) :   0.9502 B(  9-C , 10-S ) :   1.6145 B(  9-C , 11-N ) :   1.2987
B( 11-N , 12-C ) :   0.9944 B( 11-N , 29-H ) :   0.9517 B( 12-C , 13-C ) :   0.9449
B( 12-C , 30-H ) :   0.9979 B( 13-C , 14-C ) :   1.3888 B( 13-C , 19-C ) :   1.3659
B( 14-C , 15-C ) :   1.3927 B( 14-C , 31-H ) :   0.9613 B( 15-C , 16-C ) :   1.3633
B( 15-C , 32-H ) :   0.9714 B( 16-C , 17-C ) :   1.3317 B( 16-C , 33-H ) :   0.9844
B( 17-C , 18-O ) :   1.1120 B( 17-C , 19-C ) :   1.3716 B( 18-O , 34-H ) :   0.9796
B( 19-C , 35-H ) :   0.9575

MP2 TOTAL ENERGY:    -1274.333897062 Eh
FINAL SINGLE POINT ENERGY     -1274.333897062280

DIPOLE MOMENT
-------------
                                X             Y             Z
Electronic contribution:      9.82973       8.24257       5.88681
Nuclear contribution   :    -11.35270      -9.15574      -6.31695
                        -----------------------------------------
Total Dipole Moment    :     -1.52298      -0.91317      -0.43013
                        -----------------------------------------
Magnitude (a.u.)       :      1.82712
Magnitude (Debye)      :      4.64416

Rotational constants in cm-1:     0.011754     0.009590     0.006719
Rotational constants in MHz :   352.372052   287.513352   201.423688

                             ****ORCA TERMINATED NORMALLY****
TOTAL RUN TIME: 0 days 1 hours 48 minutes 12 seconds 987 msec
