                         Program Version 5.0.0 -  RELEASE  -
|  1> ! ri-mp2 cc-pvtz cc-pvtz/c TightSCF NoKeepInts
|  2>
|  3> %scf
|  4>   MaxCore 4096
|  5> end
|  6> *xyz  0  1
|  7>     C       14.8243536   15.0017684   16.1581686
|  8>     C       15.9859563   14.6388808   17.1024950
|  9>     O       17.2304861   14.8773403   16.4118083
| 10>     C       17.6616650   16.1494004   16.1599654
| 11>     O       17.6604169   16.5672979   15.0168123
| 12>     C       17.7649903   17.0496085   17.3583162
| 13>     C       17.3478473   18.3386491   17.3157433
| 14>     C       16.5739909   19.0072780   16.2006777
| 15>     N       17.6704792   19.2126919   18.3573081
| 16>     C       18.5940211   18.9434807   19.3329364
| 17>     S       19.0644030   20.0852526   20.4326340
| 18>     N       19.1150003   17.6733088   19.3475654
| 19>     C       18.6017572   16.5432545   18.5488116
| 20>     C       17.8834827   15.5618252   19.4686091
| 21>     C       18.2506473   14.2027686   19.4803303
| 22>     C       17.5900311   13.2905151   20.3200176
| 23>     C       16.5574767   13.7404132   21.1602122
| 24>     C       16.1946171   15.0939488   21.1588129
| 25>     O       15.1953020   15.5308362   21.9652183
| 26>     C       16.8518049   15.9996763   20.3202101
| 27>     H       14.8199220   16.0736349   15.9280859
| 28>     H       13.8619246   14.7489111   16.6192660
| 29>     H       14.9081283   14.4478722   15.2144578
| 30>     H       15.8902663   15.2334202   18.0141955
| 31>     H       15.9166686   13.5777194   17.3745874
| 32>     H       15.7907371   18.3454058   15.8124612
| 33>     H       17.2420715   19.2447674   15.3624428
| 34>     H       16.0882141   19.9365196   16.5207845
| 35>     H       17.3171041   20.1563653   18.3434086
| 36>     H       19.7799458   17.4996828   20.0907835
| 37>     H       19.4743068   16.0236524   18.1277810
| 38>     H       19.0447351   13.8487149   18.8274492
| 39>     H       17.8796703   12.2407542   20.3185024
| 40>     H       16.0450130   13.0390083   21.8108161
| 41>     H       14.9137828   14.7838679   22.5150342
| 42>     H       16.5557805   17.0435084   20.3372910
| 43> *
| 44>
| 45>                          ****END OF INPUT****

CARTESIAN COORDINATES (ANGSTROEM)
---------------------------------
  C     14.824354   15.001768   16.158169
  C     15.985956   14.638881   17.102495
  O     17.230486   14.877340   16.411808
  C     17.661665   16.149400   16.159965
  O     17.660417   16.567298   15.016812
  C     17.764990   17.049609   17.358316
  C     17.347847   18.338649   17.315743
  C     16.573991   19.007278   16.200678
  N     17.670479   19.212692   18.357308
  C     18.594021   18.943481   19.332936
  S     19.064403   20.085253   20.432634
  N     19.115000   17.673309   19.347565
  C     18.601757   16.543254   18.548812
  C     17.883483   15.561825   19.468609
  C     18.250647   14.202769   19.480330
  C     17.590031   13.290515   20.320018
  C     16.557477   13.740413   21.160212
  C     16.194617   15.093949   21.158813
  O     15.195302   15.530836   21.965218
  C     16.851805   15.999676   20.320210
  H     14.819922   16.073635   15.928086
  H     13.861925   14.748911   16.619266
  H     14.908128   14.447872   15.214458
  H     15.890266   15.233420   18.014195
  H     15.916669   13.577719   17.374587
  H     15.790737   18.345406   15.812461
  H     17.242072   19.244767   15.362443
  H     16.088214   19.936520   16.520785
  H     17.317104   20.156365   18.343409
  H     19.779946   17.499683   20.090783
  H     19.474307   16.023652   18.127781
  H     19.044735   13.848715   18.827449
  H     17.879670   12.240754   20.318502
  H     16.045013   13.039008   21.810816
  H     14.913783   14.783868   22.515034
  H     16.555781   17.043508   20.337291

 Total Charge           Charge          ....    0
 Multiplicity           Mult            ....    1
 Number of Electrons    NEL             ....  154
 Basis Dimension        Dim             ....  828

ORBITAL ENERGIES
----------------

  NO   OCC          E(Eh)            E(eV)
   0   2.0000     -91.891753     -2500.5017
   1   2.0000     -20.602748      -560.6293
   2   2.0000     -20.585284      -560.1541
   3   2.0000     -20.552899      -559.2728
   4   2.0000     -15.630192      -425.3191
   5   2.0000     -15.611690      -424.8157
   6   2.0000     -11.394221      -310.0525
   7   2.0000     -11.386765      -309.8496
   8   2.0000     -11.334784      -308.4352
   9   2.0000     -11.320971      -308.0593
  10   2.0000     -11.317439      -307.9632
  11   2.0000     -11.297332      -307.4160
  12   2.0000     -11.266331      -306.5724
  13   2.0000     -11.262030      -306.4554
  14   2.0000     -11.260542      -306.4149
  15   2.0000     -11.256123      -306.2947
  16   2.0000     -11.250336      -306.1372
  17   2.0000     -11.244857      -305.9881
  18   2.0000     -11.244548      -305.9797
  19   2.0000     -11.226372      -305.4851
  20   2.0000      -8.896789      -242.0939
  21   2.0000      -6.578357      -179.0062
  22   2.0000      -6.576357      -178.9518
  23   2.0000      -6.575763      -178.9356
  24   2.0000      -1.446411       -39.3589
  25   2.0000      -1.422520       -38.7087
  26   2.0000      -1.355489       -36.8847
  27   2.0000      -1.342386       -36.5282
  28   2.0000      -1.241699       -33.7884
  29   2.0000      -1.163695       -31.6657
  30   2.0000      -1.123053       -30.5598
  31   2.0000      -1.048582       -28.5334
  32   2.0000      -1.032510       -28.0960
  33   2.0000      -1.022189       -27.8152
  34   2.0000      -1.001749       -27.2590
  35   2.0000      -0.988360       -26.8946
  36   2.0000      -0.927775       -25.2461
  37   2.0000      -0.887692       -24.1553
  38   2.0000      -0.851602       -23.1733
  39   2.0000      -0.844943       -22.9921
  40   2.0000      -0.840972       -22.8840
  41   2.0000      -0.832269       -22.6472
  42   2.0000      -0.753709       -20.5095
  43   2.0000      -0.736690       -20.0464
  44   2.0000      -0.719247       -19.5717
  45   2.0000      -0.701763       -19.0959
  46   2.0000      -0.692546       -18.8451
  47   2.0000      -0.682074       -18.5602
  48   2.0000      -0.672169       -18.2907
  49   2.0000      -0.667725       -18.1697
  50   2.0000      -0.653080       -17.7712
  51   2.0000      -0.649007       -17.6604
  52   2.0000      -0.637586       -17.3496
  53   2.0000      -0.613180       -16.6855
  54   2.0000      -0.611158       -16.6304
  55   2.0000      -0.604388       -16.4462
  56   2.0000      -0.602403       -16.3922
  57   2.0000      -0.582522       -15.8512
  58   2.0000      -0.576842       -15.6967
  59   2.0000      -0.568274       -15.4635
  60   2.0000      -0.556170       -15.1342
  61   2.0000      -0.551531       -15.0079
  62   2.0000      -0.542154       -14.7528
  63   2.0000      -0.530329       -14.4310
  64   2.0000      -0.524779       -14.2800
  65   2.0000      -0.518423       -14.1070
  66   2.0000      -0.506263       -13.7761
  67   2.0000      -0.499828       -13.6010
  68   2.0000      -0.479416       -13.0456
  69   2.0000      -0.468880       -12.7589
  70   2.0000      -0.453870       -12.3504
  71   2.0000      -0.447228       -12.1697
  72   2.0000      -0.359026        -9.7696
  73   2.0000      -0.353817        -9.6279
  74   2.0000      -0.331496        -9.0205
  75   2.0000      -0.328621        -8.9422
  76   2.0000      -0.319657        -8.6983
  77   0.0000       0.074043         2.0148
  78   0.0000       0.099498         2.7075
  79   0.0000       0.119236         3.2446
  80   0.0000       0.127013         3.4562
  81   0.0000       0.130393         3.5482

MULLIKEN ATOMIC CHARGES
-----------------------
   0 C :   -0.272276
   1 C :    0.025521
   2 O :   -0.356524
   3 C :    0.415617
   4 O :   -0.371463
   5 C :   -0.227070
   6 C :    0.153651
   7 C :   -0.277658
   8 N :   -0.124676
   9 C :    0.196202
  10 S :   -0.433103
  11 N :   -0.192924
  12 C :    0.036176
  13 C :    0.026085
  14 C :   -0.156565
  15 C :   -0.145842
  16 C :   -0.271045
  17 C :    0.302765
  18 O :   -0.354278
  19 C :   -0.253390
  20 H :    0.083596
  21 H :    0.096850
  22 H :    0.110623
  23 H :    0.104226
  24 H :    0.119958
  25 H :    0.121013
  26 H :    0.142165
  27 H :    0.095977
  28 H :    0.198021
  29 H :    0.191803
  30 H :    0.152411
  31 H :    0.148019
  32 H :    0.165015
  33 H :    0.134896
  34 H :    0.241434
  35 H :    0.174791
Sum of atomic charges:    0.0000000

LOEWDIN ATOMIC CHARGES
----------------------
   0 C :    0.106879
   1 C :   -0.020309
   2 O :    0.289869
   3 C :   -0.423518
   4 O :    0.133100
   5 C :   -0.095509
   6 C :   -0.071282
   7 C :    0.130131
   8 N :    0.405559
   9 C :   -0.458450
  10 S :   -0.031778
  11 N :    0.396539
  12 C :   -0.051569
  13 C :   -0.043411
  14 C :    0.018213
  15 C :    0.043209
  16 C :   -0.000189
  17 C :   -0.191882
  18 O :    0.397144
  19 C :    0.030375
  20 H :   -0.032661
  21 H :   -0.026728
  22 H :   -0.022255
  23 H :   -0.039378
  24 H :   -0.021397
  25 H :   -0.010913
  26 H :   -0.002719
  27 H :   -0.021767
  28 H :   -0.057521
  29 H :   -0.064477
  30 H :   -0.006875
  31 H :   -0.028009
  32 H :   -0.019159
  33 H :   -0.033971
  34 H :   -0.152506
  35 H :   -0.022785

  Mayer bond orders larger than 0.100000
B(  0-C ,  1-C ) :   0.9815 B(  0-C , 20-H ) :   0.9754 B(  0-C , 21-H ) :   0.9769
B(  0-C , 22-H ) :   0.9786 B(  1-C ,  2-O ) :   0.8801 B(  1-C , 23-H ) :   0.9582
B(  1-C , 24-H ) :   0.9793 B(  2-O ,  3-C ) :   1.1449 B(  3-C ,  4-O ) :   2.0934
B(  3-C ,  5-C ) :   0.9613 B(  5-C ,  6-C ) :   1.6872 B(  5-C , 12-C ) :   0.9608
B(  6-C ,  7-C ) :   0.9605 B(  6-C ,  8-N ) :   1.1344 B(  7-C , 25-H ) :   0.9723
B(  7-C , 26-H ) :   0.9562 B(  7-C , 27-H ) :   0.9852 B(  8-N ,  9-C ) :   1.1841
B(  8-N , 28-H ) :   0.9497 B(  9-C , 10-S ) :   1.6207 B(  9-C , 11-N ) :   1.2893
B( 11-N , 12-C ) :   0.9963 B( 11-N , 29-H ) :   0.9524 B( 12-C , 13-C ) :   0.9446
B( 12-C , 30-H ) :   1.0096 B( 13-C , 14-C ) :   1.3706 B( 13-C , 19-C ) :   1.3574
B( 14-C , 15-C ) :   1.3902 B( 14-C , 31-H ) :   0.9728 B( 15-C , 16-C ) :   1.3660
B( 15-C , 32-H ) :   0.9698 B( 16-C , 17-C ) :   1.3276 B( 16-C , 33-H ) :   0.9830
B( 17-C , 18-O ) :   1.1158 B( 17-C , 19-C ) :   1.3748 B( 18-O , 34-H ) :   0.9790
B( 19-C , 35-H ) :   0.9569

MP2 TOTAL ENERGY:    -1274.325707653 Eh
FINAL SINGLE POINT ENERGY     -1274.325707652524

DIPOLE MOMENT
-------------
                                X             Y             Z
Electronic contribution:     10.85298       7.44603       7.28626
Nuclear contribution   :    -12.11040      -9.03318      -6.95430
                        -----------------------------------------
Total Dipole Moment    :     -1.25742      -1.58716       0.33197
                        -----------------------------------------
Magnitude (a.u.)       :      2.05192
Magnitude (Debye)      :      5.21557

Rotational constants in cm-1:     0.011316     0.009845     0.006440
Rotational constants in MHz :   339.251402   295.149587   193.063241

                             ****ORCA TERMINATED NORMALLY****
TOTAL RUN TIME: 0 days 1 hours 48 minutes 33 seconds 268 msec
