                         Program Version 4.2.0 -  RELEASE  -
|  1> ! ri-mp2 cc-pvtz cc-pvtz/c TightSCF  NoKeepInts
|  2>
|  3> %scf
|  4>   MaxCore 4096
|  5> end
|  6> *xyz  0  1
|  7>     C       14.3778849   15.4744678   16.6091062
|  8>     C       15.7938487   14.8871323   16.7301151
|  9>     O       16.6783769   15.6506678   15.8891165
| 10>     C       17.9325157   15.8964647   16.3650565
| 11>     O       18.7379583   14.9841800   16.4232115
| 12>     C       17.9369605   16.9878500   17.3906713
| 13>     C       17.2829723   18.1613068   17.2129054
| 14>     C       16.5019992   18.5953114   15.9900022
| 15>     N       17.3784872   19.1639341   18.1819142
| 16>     C       18.2253941   19.1276953   19.2591054
| 17>     S       18.3697425   20.4077196   20.2960546
| 18>     N       18.9477523   17.9729921   19.4338716
| 19>     C       18.7618793   16.7326735   18.6553244
| 20>     C       18.1152537   15.6475494   19.5121012
| 21>     C       18.6600215   14.3508530   19.5467814
| 22>     C       18.0562552   13.3397615   20.3127055
| 23>     C       16.8953385   13.6257941   21.0508369
| 24>     C       16.3465686   14.9146220   21.0164328
| 25>     O       15.2183024   15.1912173   21.7171242
| 26>     C       16.9490674   15.9187457   20.2521348
| 27>     H       14.3317977   16.4747968   17.0543253
| 28>     H       13.6561591   14.8383481   17.1359752
| 29>     H       14.0727208   15.5409040   15.5573081
| 30>     H       16.1070373   14.9216465   17.7812704
| 31>     H       15.7998073   13.8366329   16.4108754
| 32>     H       15.4562971   18.2755168   16.0564070
| 33>     H       16.9241773   18.1661109   15.0727822
| 34>     H       16.5126455   19.6846871   15.8610969
| 35>     H       16.8607974   20.0209765   18.0673817
| 36>     H       19.5464945   17.9645854   20.2498175
| 37>     H       19.7561833   16.3801723   18.3442467
| 38>     H       19.5470935   14.1215335   18.9604099
| 39>     H       18.4860034   12.3395267   20.3262966
| 40>     H       16.4247622   12.8468604   21.6417241
| 41>     H       14.9931315   14.4002480   22.2300064
| 42>     H       16.5053128   16.9085156   20.2395050
| 43> *
| 44>
| 45>                          ****END OF INPUT****

CARTESIAN COORDINATES (ANGSTROEM)
---------------------------------
  C     14.377885   15.474468   16.609106
  C     15.793849   14.887132   16.730115
  O     16.678377   15.650668   15.889117
  C     17.932516   15.896465   16.365057
  O     18.737958   14.984180   16.423212
  C     17.936961   16.987850   17.390671
  C     17.282972   18.161307   17.212905
  C     16.501999   18.595311   15.990002
  N     17.378487   19.163934   18.181914
  C     18.225394   19.127695   19.259105
  S     18.369742   20.407720   20.296055
  N     18.947752   17.972992   19.433872
  C     18.761879   16.732674   18.655324
  C     18.115254   15.647549   19.512101
  C     18.660021   14.350853   19.546781
  C     18.056255   13.339761   20.312705
  C     16.895339   13.625794   21.050837
  C     16.346569   14.914622   21.016433
  O     15.218302   15.191217   21.717124
  C     16.949067   15.918746   20.252135
  H     14.331798   16.474797   17.054325
  H     13.656159   14.838348   17.135975
  H     14.072721   15.540904   15.557308
  H     16.107037   14.921646   17.781270
  H     15.799807   13.836633   16.410875
  H     15.456297   18.275517   16.056407
  H     16.924177   18.166111   15.072782
  H     16.512646   19.684687   15.861097
  H     16.860797   20.020976   18.067382
  H     19.546495   17.964585   20.249817
  H     19.756183   16.380172   18.344247
  H     19.547093   14.121533   18.960410
  H     18.486003   12.339527   20.326297
  H     16.424762   12.846860   21.641724
  H     14.993132   14.400248   22.230006
  H     16.505313   16.908516   20.239505

 Total Charge           Charge          ....    0
 Multiplicity           Mult            ....    1
 Number of Electrons    NEL             ....  154
 Basis Dimension        Dim             ....  828

ORBITAL ENERGIES
----------------

  NO   OCC          E(Eh)            E(eV)
   0   2.0000     -91.890319     -2500.4627
   1   2.0000     -20.598397      -560.5109
   2   2.0000     -20.578756      -559.9764
   3   2.0000     -20.558289      -559.4195
   4   2.0000     -15.629406      -425.2978
   5   2.0000     -15.610025      -424.7704
   6   2.0000     -11.393895      -310.0436
   7   2.0000     -11.386028      -309.8296
   8   2.0000     -11.333596      -308.4028
   9   2.0000     -11.315186      -307.9019
  10   2.0000     -11.311315      -307.7965
  11   2.0000     -11.297882      -307.4310
  12   2.0000     -11.261900      -306.4519
  13   2.0000     -11.261265      -306.4346
  14   2.0000     -11.260674      -306.4185
  15   2.0000     -11.255200      -306.2696
  16   2.0000     -11.244823      -305.9872
  17   2.0000     -11.240474      -305.8688
  18   2.0000     -11.237422      -305.7858
  19   2.0000     -11.232771      -305.6592
  20   2.0000      -8.895393      -242.0559
  21   2.0000      -6.576970      -178.9685
  22   2.0000      -6.574960      -178.9137
  23   2.0000      -6.574374      -178.8978
  24   2.0000      -1.451436       -39.4956
  25   2.0000      -1.418237       -38.5922
  26   2.0000      -1.355893       -36.8957
  27   2.0000      -1.340970       -36.4896
  28   2.0000      -1.239421       -33.7264
  29   2.0000      -1.159082       -31.5402
  30   2.0000      -1.123063       -30.5601
  31   2.0000      -1.046739       -28.4832
  32   2.0000      -1.034954       -28.1625
  33   2.0000      -1.016722       -27.6664
  34   2.0000      -1.001438       -27.2505
  35   2.0000      -0.987596       -26.8738
  36   2.0000      -0.925570       -25.1860
  37   2.0000      -0.881475       -23.9862
  38   2.0000      -0.850052       -23.1311
  39   2.0000      -0.841212       -22.8905
  40   2.0000      -0.835100       -22.7242
  41   2.0000      -0.830292       -22.5934
  42   2.0000      -0.756623       -20.5888
  43   2.0000      -0.735561       -20.0156
  44   2.0000      -0.730243       -19.8709
  45   2.0000      -0.696595       -18.9553
  46   2.0000      -0.687220       -18.7002
  47   2.0000      -0.681575       -18.5466
  48   2.0000      -0.675604       -18.3841
  49   2.0000      -0.657573       -17.8935
  50   2.0000      -0.654066       -17.7980
  51   2.0000      -0.643244       -17.5036
  52   2.0000      -0.634758       -17.2726
  53   2.0000      -0.614471       -16.7206
  54   2.0000      -0.607180       -16.5222
  55   2.0000      -0.605082       -16.4651
  56   2.0000      -0.601967       -16.3804
  57   2.0000      -0.580089       -15.7850
  58   2.0000      -0.575551       -15.6615
  59   2.0000      -0.568558       -15.4712
  60   2.0000      -0.561132       -15.2692
  61   2.0000      -0.551494       -15.0069
  62   2.0000      -0.545377       -14.8405
  63   2.0000      -0.524351       -14.2683
  64   2.0000      -0.516943       -14.0667
  65   2.0000      -0.514207       -13.9923
  66   2.0000      -0.502900       -13.6846
  67   2.0000      -0.498813       -13.5734
  68   2.0000      -0.481719       -13.1082
  69   2.0000      -0.467475       -12.7207
  70   2.0000      -0.455194       -12.3864
  71   2.0000      -0.452830       -12.3221
  72   2.0000      -0.356724        -9.7069
  73   2.0000      -0.350321        -9.5327
  74   2.0000      -0.329669        -8.9707
  75   2.0000      -0.322672        -8.7804
  76   2.0000      -0.317820        -8.6483
  77   0.0000       0.069671         1.8958
  78   0.0000       0.101373         2.7585
  79   0.0000       0.117981         3.2104
  80   0.0000       0.129873         3.5340
  81   0.0000       0.132667         3.6100

MULLIKEN ATOMIC CHARGES
-----------------------
   0 C :   -0.288978
   1 C :    0.038647
   2 O :   -0.376674
   3 C :    0.463174
   4 O :   -0.384215
   5 C :   -0.207764
   6 C :    0.129266
   7 C :   -0.290701
   8 N :   -0.125683
   9 C :    0.195507
  10 S :   -0.437466
  11 N :   -0.202699
  12 C :    0.059295
  13 C :    0.009666
  14 C :   -0.160950
  15 C :   -0.138740
  16 C :   -0.274682
  17 C :    0.309652
  18 O :   -0.358593
  19 C :   -0.260226
  20 H :    0.087910
  21 H :    0.108881
  22 H :    0.105112
  23 H :    0.098616
  24 H :    0.115661
  25 H :    0.123089
  26 H :    0.126297
  27 H :    0.113211
  28 H :    0.197823
  29 H :    0.194670
  30 H :    0.159240
  31 H :    0.163676
  32 H :    0.162615
  33 H :    0.132687
  34 H :    0.241235
  35 H :    0.171439
Sum of atomic charges:   -0.0000000

LOEWDIN ATOMIC CHARGES
----------------------
   0 C :    0.107672
   1 C :   -0.011956
   2 O :    0.280953
   3 C :   -0.420585
   4 O :    0.137597
   5 C :   -0.093731
   6 C :   -0.078617
   7 C :    0.127762
   8 N :    0.404055
   9 C :   -0.458130
  10 S :   -0.035110
  11 N :    0.396842
  12 C :   -0.044661
  13 C :   -0.043884
  14 C :    0.021030
  15 C :    0.043292
  16 C :   -0.001343
  17 C :   -0.195123
  18 O :    0.394629
  19 C :    0.026632
  20 H :   -0.033058
  21 H :   -0.022204
  22 H :   -0.025709
  23 H :   -0.029897
  24 H :   -0.027086
  25 H :   -0.013880
  26 H :   -0.007384
  27 H :   -0.017261
  28 H :   -0.058122
  29 H :   -0.064029
  30 H :   -0.003516
  31 H :   -0.023225
  32 H :   -0.019275
  33 H :   -0.034903
  34 H :   -0.153445
  35 H :   -0.024329

  Mayer bond orders larger than 0.100000
B(  0-C ,  1-C ) :   0.9742 B(  0-C , 20-H ) :   0.9779 B(  0-C , 21-H ) :   0.9777
B(  0-C , 22-H ) :   0.9757 B(  1-C ,  2-O ) :   0.8899 B(  1-C , 23-H ) :   0.9618
B(  1-C , 24-H ) :   0.9859 B(  2-O ,  3-C ) :   1.0913 B(  3-C ,  4-O ) :   2.0527
B(  3-C ,  5-C ) :   0.9966 B(  5-C ,  6-C ) :   1.6726 B(  5-C , 12-C ) :   0.9576
B(  6-C ,  7-C ) :   0.9538 B(  6-C ,  8-N ) :   1.1307 B(  7-C , 25-H ) :   0.9631
B(  7-C , 26-H ) :   0.9714 B(  7-C , 27-H ) :   0.9858 B(  8-N ,  9-C ) :   1.1859
B(  8-N , 28-H ) :   0.9506 B(  9-C , 10-S ) :   1.6143 B(  9-C , 11-N ) :   1.2953
B( 11-N , 12-C ) :   0.9930 B( 11-N , 29-H ) :   0.9516 B( 12-C , 13-C ) :   0.9482
B( 12-C , 30-H ) :   0.9974 B( 13-C , 14-C ) :   1.3874 B( 13-C , 19-C ) :   1.3547
B( 14-C , 15-C ) :   1.3955 B( 14-C , 31-H ) :   0.9605 B( 15-C , 16-C ) :   1.3647
B( 15-C , 32-H ) :   0.9705 B( 16-C , 17-C ) :   1.3293 B( 16-C , 33-H ) :   0.9842
B( 17-C , 18-O ) :   1.1122 B( 17-C , 19-C ) :   1.3734 B( 18-O , 34-H ) :   0.9794
B( 19-C , 35-H ) :   0.9593

MP2 TOTAL ENERGY:    -1274.319102861 Eh
FINAL SINGLE POINT ENERGY     -1274.319102861352

DIPOLE MOMENT
-------------
                                X             Y             Z
Electronic contribution:     11.04704       7.23730       6.80600
Nuclear contribution   :    -12.25773      -8.46281      -7.26464
                        -----------------------------------------
Total Dipole Moment    :     -1.21069      -1.22551      -0.45864
                        -----------------------------------------
Magnitude (a.u.)       :      1.78269
Magnitude (Debye)      :      4.53124

Rotational constants in cm-1:     0.011564     0.009436     0.006947
Rotational constants in MHz :   346.670428   282.888942   208.273912

                             ****ORCA TERMINATED NORMALLY****
TOTAL RUN TIME: 0 days 1 hours 54 minutes 2 seconds 966 msec
