                         Program Version 5.0.0 -  RELEASE  -
|  1> ! ri-mp2 cc-pvtz cc-pvtz/c TightSCF NoKeepInts
|  2>
|  3> %scf
|  4>   MaxCore 4096
|  5> end
|  6> *xyz  0  1
|  7>     C       14.9068120   14.0729626   16.1674499
|  8>     C       16.4392688   13.9699226   15.9956426
|  9>     O       17.1490963   15.0457542   16.6508638
| 10>     C       16.7740057   16.3628244   16.5923543
| 11>     O       15.9854182   16.7910482   15.7678225
| 12>     C       17.5964884   17.2276631   17.5082261
| 13>     C       17.5316178   18.5835369   17.4878505
| 14>     C       16.6745134   19.4485330   16.5884475
| 15>     N       18.3357075   19.3375085   18.3478985
| 16>     C       19.2805306   18.8213199   19.1936983
| 17>     S       20.2443633   19.7908071   20.1248883
| 18>     N       19.3877414   17.4547319   19.2309757
| 19>     C       18.5045257   16.5112866   18.5213771
| 20>     C       17.6946506   15.7010946   19.5295332
| 21>     C       17.9029234   14.3156064   19.6646260
| 22>     C       17.1536472   13.5666356   20.5875740
| 23>     C       16.1899352   14.2082862   21.3841390
| 24>     C       15.9828805   15.5885284   21.2550953
| 25>     O       15.0535148   16.2109944   22.0230743
| 26>     C       16.7299152   16.3311801   20.3355900
| 27>     H       14.6458609   14.3067673   17.2073208
| 28>     H       14.4333897   13.1191340   15.9057731
| 29>     H       14.4740991   14.8400242   15.5142590
| 30>     H       16.7871402   13.0146863   16.4091186
| 31>     H       16.6743048   13.9749636   14.9231384
| 32>     H       16.9087172   19.2582525   15.5332859
| 33>     H       16.8089084   20.5214140   16.7689636
| 34>     H       15.6110385   19.2193235   16.7336464
| 35>     H       18.2712053   20.3428133   18.3343034
| 36>     H       20.0654862   17.1024634   19.8945867
| 37>     H       19.1519269   15.8226864   17.9605110
| 38>     H       18.6434487   13.8163278   19.0456414
| 39>     H       17.3203296   12.4951649   20.6831423
| 40>     H       15.6088119   13.6342729   22.0983243
| 41>     H       14.6656833   15.5440855   22.6092475
| 42>     H       16.5590931   17.3993959   20.2556107
| 43> *
| 44>
| 45>                          ****END OF INPUT****

CARTESIAN COORDINATES (ANGSTROEM)
---------------------------------
  C     14.906812   14.072963   16.167450
  C     16.439269   13.969923   15.995643
  O     17.149096   15.045754   16.650864
  C     16.774006   16.362824   16.592354
  O     15.985418   16.791048   15.767822
  C     17.596488   17.227663   17.508226
  C     17.531618   18.583537   17.487851
  C     16.674513   19.448533   16.588448
  N     18.335708   19.337508   18.347898
  C     19.280531   18.821320   19.193698
  S     20.244363   19.790807   20.124888
  N     19.387741   17.454732   19.230976
  C     18.504526   16.511287   18.521377
  C     17.694651   15.701095   19.529533
  C     17.902923   14.315606   19.664626
  C     17.153647   13.566636   20.587574
  C     16.189935   14.208286   21.384139
  C     15.982881   15.588528   21.255095
  O     15.053515   16.210994   22.023074
  C     16.729915   16.331180   20.335590
  H     14.645861   14.306767   17.207321
  H     14.433390   13.119134   15.905773
  H     14.474099   14.840024   15.514259
  H     16.787140   13.014686   16.409119
  H     16.674305   13.974964   14.923138
  H     16.908717   19.258253   15.533286
  H     16.808908   20.521414   16.768964
  H     15.611038   19.219324   16.733646
  H     18.271205   20.342813   18.334303
  H     20.065486   17.102463   19.894587
  H     19.151927   15.822686   17.960511
  H     18.643449   13.816328   19.045641
  H     17.320330   12.495165   20.683142
  H     15.608812   13.634273   22.098324
  H     14.665683   15.544085   22.609247
  H     16.559093   17.399396   20.255611

 Total Charge           Charge          ....    0
 Multiplicity           Mult            ....    1
 Number of Electrons    NEL             ....  154
 Basis Dimension        Dim             ....  828

ORBITAL ENERGIES
----------------

  NO   OCC          E(Eh)            E(eV)
   0   2.0000     -91.888050     -2500.4010
   1   2.0000     -20.599319      -560.5360
   2   2.0000     -20.596269      -560.4530
   3   2.0000     -20.541166      -558.9535
   4   2.0000     -15.628060      -425.2611
   5   2.0000     -15.607398      -424.6989
   6   2.0000     -11.396283      -310.1086
   7   2.0000     -11.383154      -309.7514
   8   2.0000     -11.334979      -308.4405
   9   2.0000     -11.313388      -307.8529
  10   2.0000     -11.307557      -307.6943
  11   2.0000     -11.301570      -307.5314
  12   2.0000     -11.259126      -306.3764
  13   2.0000     -11.258355      -306.3554
  14   2.0000     -11.254802      -306.2587
  15   2.0000     -11.251317      -306.1639
  16   2.0000     -11.242820      -305.9327
  17   2.0000     -11.238197      -305.8069
  18   2.0000     -11.237895      -305.7987
  19   2.0000     -11.222628      -305.3832
  20   2.0000      -8.893123      -241.9942
  21   2.0000      -6.574701      -178.9067
  22   2.0000      -6.572694      -178.8521
  23   2.0000      -6.572109      -178.8362
  24   2.0000      -1.446868       -39.3713
  25   2.0000      -1.415939       -38.5296
  26   2.0000      -1.354054       -36.8457
  27   2.0000      -1.339115       -36.4392
  28   2.0000      -1.237617       -33.6773
  29   2.0000      -1.157219       -31.4895
  30   2.0000      -1.119474       -30.4624
  31   2.0000      -1.042135       -28.3579
  32   2.0000      -1.035623       -28.1807
  33   2.0000      -1.014648       -27.6100
  34   2.0000      -0.994690       -27.0669
  35   2.0000      -0.983235       -26.7552
  36   2.0000      -0.921738       -25.0818
  37   2.0000      -0.897597       -24.4249
  38   2.0000      -0.846454       -23.0332
  39   2.0000      -0.837335       -22.7850
  40   2.0000      -0.833704       -22.6862
  41   2.0000      -0.817149       -22.2358
  42   2.0000      -0.748145       -20.3581
  43   2.0000      -0.731355       -19.9012
  44   2.0000      -0.721234       -19.6258
  45   2.0000      -0.695262       -18.9190
  46   2.0000      -0.687722       -18.7139
  47   2.0000      -0.677805       -18.4440
  48   2.0000      -0.670554       -18.2467
  49   2.0000      -0.656851       -17.8738
  50   2.0000      -0.650529       -17.7018
  51   2.0000      -0.641490       -17.4558
  52   2.0000      -0.634078       -17.2541
  53   2.0000      -0.612350       -16.6629
  54   2.0000      -0.606096       -16.4927
  55   2.0000      -0.599628       -16.3167
  56   2.0000      -0.598212       -16.2782
  57   2.0000      -0.577026       -15.7017
  58   2.0000      -0.571316       -15.5463
  59   2.0000      -0.570008       -15.5107
  60   2.0000      -0.560113       -15.2415
  61   2.0000      -0.541502       -14.7350
  62   2.0000      -0.535323       -14.5669
  63   2.0000      -0.524908       -14.2835
  64   2.0000      -0.520222       -14.1559
  65   2.0000      -0.512995       -13.9593
  66   2.0000      -0.502451       -13.6724
  67   2.0000      -0.499150       -13.5826
  68   2.0000      -0.484584       -13.1862
  69   2.0000      -0.463033       -12.5998
  70   2.0000      -0.454966       -12.3803
  71   2.0000      -0.442736       -12.0474
  72   2.0000      -0.353180        -9.6105
  73   2.0000      -0.349029        -9.4976
  74   2.0000      -0.327517        -8.9122
  75   2.0000      -0.320943        -8.7333
  76   2.0000      -0.315285        -8.5793
  77   0.0000       0.077095         2.0979
  78   0.0000       0.106823         2.9068
  79   0.0000       0.125194         3.4067
  80   0.0000       0.133072         3.6211
  81   0.0000       0.137405         3.7390

MULLIKEN ATOMIC CHARGES
-----------------------
   0 C :   -0.310650
   1 C :    0.040714
   2 O :   -0.357464
   3 C :    0.470660
   4 O :   -0.435511
   5 C :   -0.217713
   6 C :    0.149309
   7 C :   -0.273721
   8 N :   -0.119356
   9 C :    0.211397
  10 S :   -0.441457
  11 N :   -0.205014
  12 C :    0.058401
  13 C :    0.061685
  14 C :   -0.185095
  15 C :   -0.130619
  16 C :   -0.278878
  17 C :    0.316720
  18 O :   -0.356538
  19 C :   -0.271213
  20 H :    0.101846
  21 H :    0.094949
  22 H :    0.127594
  23 H :    0.104786
  24 H :    0.100863
  25 H :    0.131594
  26 H :    0.094844
  27 H :    0.130536
  28 H :    0.196805
  29 H :    0.194843
  30 H :    0.150372
  31 H :    0.150051
  32 H :    0.159699
  33 H :    0.129777
  34 H :    0.240616
  35 H :    0.165166
Sum of atomic charges:    0.0000000

LOEWDIN ATOMIC CHARGES
----------------------
   0 C :    0.104591
   1 C :   -0.011907
   2 O :    0.300438
   3 C :   -0.412218
   4 O :    0.101540
   5 C :   -0.093257
   6 C :   -0.059528
   7 C :    0.131020
   8 N :    0.406340
   9 C :   -0.456669
  10 S :   -0.036694
  11 N :    0.396580
  12 C :   -0.052628
  13 C :   -0.039310
  14 C :    0.014515
  15 C :    0.038873
  16 C :   -0.001651
  17 C :   -0.190060
  18 O :    0.395145
  19 C :    0.031121
  20 H :   -0.026527
  21 H :   -0.028106
  22 H :   -0.025848
  23 H :   -0.025476
  24 H :   -0.028583
  25 H :   -0.004044
  26 H :   -0.023611
  27 H :   -0.004971
  28 H :   -0.057752
  29 H :   -0.064584
  30 H :   -0.011928
  31 H :   -0.030164
  32 H :   -0.021549
  33 H :   -0.035584
  34 H :   -0.153970
  35 H :   -0.023544

  Mayer bond orders larger than 0.100000
B(  0-C ,  1-C ) :   0.9619 B(  0-C , 20-H ) :   0.9751 B(  0-C , 21-H ) :   0.9772
B(  0-C , 22-H ) :   0.9719 B(  1-C ,  2-O ) :   0.9029 B(  1-C , 23-H ) :   0.9838
B(  1-C , 24-H ) :   0.9830 B(  2-O ,  3-C ) :   1.1633 B(  3-C ,  4-O ) :   1.9633
B(  3-C ,  5-C ) :   1.0557 B(  5-C ,  6-C ) :   1.6547 B(  5-C , 12-C ) :   0.9710
B(  6-C ,  7-C ) :   0.9675 B(  6-C ,  8-N ) :   1.1642 B(  7-C , 25-H ) :   0.9600
B(  7-C , 26-H ) :   0.9904 B(  7-C , 27-H ) :   0.9611 B(  8-N ,  9-C ) :   1.1840
B(  8-N , 28-H ) :   0.9479 B(  9-C , 10-S ) :   1.6060 B(  9-C , 11-N ) :   1.3056
B( 11-N , 12-C ) :   0.9891 B( 11-N , 29-H ) :   0.9514 B( 12-C , 13-C ) :   0.9347
B( 12-C , 30-H ) :   1.0029 B( 13-C , 14-C ) :   1.3554 B( 13-C , 19-C ) :   1.3814
B( 14-C , 15-C ) :   1.3918 B( 14-C , 31-H ) :   0.9712 B( 15-C , 16-C ) :   1.3637
B( 15-C , 32-H ) :   0.9708 B( 16-C , 17-C ) :   1.3317 B( 16-C , 33-H ) :   0.9851
B( 17-C , 18-O ) :   1.1099 B( 17-C , 19-C ) :   1.3713 B( 18-O , 34-H ) :   0.9799
B( 19-C , 35-H ) :   0.9585

MP2 TOTAL ENERGY:    -1274.344725416 Eh
FINAL SINGLE POINT ENERGY     -1274.344725415611

DIPOLE MOMENT
-------------
                                X             Y             Z
Electronic contribution:     10.36767       9.90388       8.40604
Nuclear contribution   :    -11.43491     -11.67160      -8.83148
                        -----------------------------------------
Total Dipole Moment    :     -1.06724      -1.76771      -0.42544
                        -----------------------------------------
Magnitude (a.u.)       :      2.10827
Magnitude (Debye)      :      5.35881

Rotational constants in cm-1:     0.011727     0.008687     0.006150
Rotational constants in MHz :   351.579890   260.439847   184.372627

                             ****ORCA TERMINATED NORMALLY****
TOTAL RUN TIME: 0 days 1 hours 57 minutes 32 seconds 467 msec
