                         Program Version 4.2.0 -  RELEASE  -
|  1> ! ri-mp2 cc-pvtz cc-pvtz/c TightSCF  NoKeepInts
|  2>
|  3> %scf
|  4>   MaxCore 4096
|  5> end
|  6> *xyz  0  1
|  7>     C       15.2536535   14.0122084   16.5047591
|  8>     C       15.5128880   15.0416761   15.3797539
|  9>     O       16.4545013   16.0758892   15.7531485
| 10>     C       17.5025686   15.8737191   16.6066106
| 11>     O       18.0899764   14.8078496   16.6881822
| 12>     C       17.8061522   17.0299771   17.5164708
| 13>     C       17.3620918   18.3032879   17.3458871
| 14>     C       16.5048691   18.8536676   16.2244039
| 15>     N       17.7534647   19.3008199   18.2453339
| 16>     C       18.6783716   19.1404070   19.2428698
| 17>     S       19.1701076   20.4060372   20.1873414
| 18>     N       19.1741455   17.8737994   19.4183598
| 19>     C       18.6797912   16.6706280   18.7234921
| 20>     C       17.9204178   15.7662458   19.6910606
| 21>     C       18.2837066   14.4147477   19.8375803
| 22>     C       17.5802494   13.5747475   20.7169618
| 23>     C       16.5026976   14.0895043   21.4575287
| 24>     C       16.1349700   15.4339564   21.3118712
| 25>     O       15.0900624   15.9321778   22.0198326
| 26>     C       16.8366073   16.2673900   20.4352187
| 27>     H       16.0937280   13.3164032   16.6191442
| 28>     H       14.3660624   13.4127289   16.2697228
| 29>     H       15.0788016   14.5130082   17.4655083
| 30>     H       15.8970274   14.5042761   14.5027461
| 31>     H       14.5651491   15.5128691   15.0894880
| 32>     H       15.4849323   18.4542416   16.2850068
| 33>     H       16.9195059   18.5783128   15.2465760
| 34>     H       16.4316430   19.9477646   16.2446673
| 35>     H       17.4012979   20.2380291   18.1334964
| 36>     H       19.8313707   17.7749637   20.1813754
| 37>     H       19.5555644   16.1194712   18.3511833
| 38>     H       19.1046714   14.0094095   19.2509582
| 39>     H       17.8678094   12.5295856   20.8158744
| 40>     H       15.9554388   13.4437290   22.1360614
| 41>     H       14.7662840   15.2233181   22.5956085
| 42>     H       16.5364210   17.3051533   20.3399161
| 43> *
| 44>
| 45>                          ****END OF INPUT****

CARTESIAN COORDINATES (ANGSTROEM)
---------------------------------
  C     15.253654   14.012208   16.504759
  C     15.512888   15.041676   15.379754
  O     16.454501   16.075889   15.753148
  C     17.502569   15.873719   16.606611
  O     18.089976   14.807850   16.688182
  C     17.806152   17.029977   17.516471
  C     17.362092   18.303288   17.345887
  C     16.504869   18.853668   16.224404
  N     17.753465   19.300820   18.245334
  C     18.678372   19.140407   19.242870
  S     19.170108   20.406037   20.187341
  N     19.174146   17.873799   19.418360
  C     18.679791   16.670628   18.723492
  C     17.920418   15.766246   19.691061
  C     18.283707   14.414748   19.837580
  C     17.580249   13.574747   20.716962
  C     16.502698   14.089504   21.457529
  C     16.134970   15.433956   21.311871
  O     15.090062   15.932178   22.019833
  C     16.836607   16.267390   20.435219
  H     16.093728   13.316403   16.619144
  H     14.366062   13.412729   16.269723
  H     15.078802   14.513008   17.465508
  H     15.897027   14.504276   14.502746
  H     14.565149   15.512869   15.089488
  H     15.484932   18.454242   16.285007
  H     16.919506   18.578313   15.246576
  H     16.431643   19.947765   16.244667
  H     17.401298   20.238029   18.133496
  H     19.831371   17.774964   20.181375
  H     19.555564   16.119471   18.351183
  H     19.104671   14.009409   19.250958
  H     17.867809   12.529586   20.815874
  H     15.955439   13.443729   22.136061
  H     14.766284   15.223318   22.595608
  H     16.536421   17.305153   20.339916

 Total Charge           Charge          ....    0
 Multiplicity           Mult            ....    1
 Number of Electrons    NEL             ....  154
 Basis Dimension        Dim             ....  828

ORBITAL ENERGIES
----------------

  NO   OCC          E(Eh)            E(eV)
   0   2.0000     -91.888085     -2500.4019
   1   2.0000     -20.596593      -560.4618
   2   2.0000     -20.592887      -560.3609
   3   2.0000     -20.545874      -559.0817
   4   2.0000     -15.628263      -425.2667
   5   2.0000     -15.606866      -424.6844
   6   2.0000     -11.396473      -310.1138
   7   2.0000     -11.382993      -309.7470
   8   2.0000     -11.336043      -308.4694
   9   2.0000     -11.308807      -307.7283
  10   2.0000     -11.305544      -307.6395
  11   2.0000     -11.305043      -307.6259
  12   2.0000     -11.260016      -306.4006
  13   2.0000     -11.258477      -306.3587
  14   2.0000     -11.254396      -306.2477
  15   2.0000     -11.248836      -306.0964
  16   2.0000     -11.238557      -305.8167
  17   2.0000     -11.234641      -305.7101
  18   2.0000     -11.231430      -305.6227
  19   2.0000     -11.225970      -305.4742
  20   2.0000      -8.893149      -241.9949
  21   2.0000      -6.574728      -178.9074
  22   2.0000      -6.572720      -178.8528
  23   2.0000      -6.572135      -178.8369
  24   2.0000      -1.448231       -39.4084
  25   2.0000      -1.412653       -38.4402
  26   2.0000      -1.355627       -36.8885
  27   2.0000      -1.339247       -36.4428
  28   2.0000      -1.236999       -33.6604
  29   2.0000      -1.153161       -31.3791
  30   2.0000      -1.119359       -30.4593
  31   2.0000      -1.042058       -28.3558
  32   2.0000      -1.033348       -28.1188
  33   2.0000      -1.010569       -27.4990
  34   2.0000      -0.997773       -27.1508
  35   2.0000      -0.983171       -26.7535
  36   2.0000      -0.921923       -25.0868
  37   2.0000      -0.897210       -24.4143
  38   2.0000      -0.847988       -23.0749
  39   2.0000      -0.836144       -22.7526
  40   2.0000      -0.829017       -22.5587
  41   2.0000      -0.816767       -22.2254
  42   2.0000      -0.744716       -20.2648
  43   2.0000      -0.731532       -19.9060
  44   2.0000      -0.725389       -19.7388
  45   2.0000      -0.691003       -18.8032
  46   2.0000      -0.685099       -18.6425
  47   2.0000      -0.677237       -18.4285
  48   2.0000      -0.671851       -18.2820
  49   2.0000      -0.659970       -17.9587
  50   2.0000      -0.651313       -17.7231
  51   2.0000      -0.644402       -17.5351
  52   2.0000      -0.632834       -17.2203
  53   2.0000      -0.618524       -16.8309
  54   2.0000      -0.601301       -16.3622
  55   2.0000      -0.600293       -16.3348
  56   2.0000      -0.596366       -16.2280
  57   2.0000      -0.577725       -15.7207
  58   2.0000      -0.574218       -15.6253
  59   2.0000      -0.564282       -15.3549
  60   2.0000      -0.555395       -15.1131
  61   2.0000      -0.543869       -14.7994
  62   2.0000      -0.537523       -14.6267
  63   2.0000      -0.525158       -14.2903
  64   2.0000      -0.517154       -14.0725
  65   2.0000      -0.510193       -13.8831
  66   2.0000      -0.501565       -13.6483
  67   2.0000      -0.495774       -13.4907
  68   2.0000      -0.479056       -13.0358
  69   2.0000      -0.463281       -12.6065
  70   2.0000      -0.456988       -12.4353
  71   2.0000      -0.449488       -12.2312
  72   2.0000      -0.353811        -9.6277
  73   2.0000      -0.345054        -9.3894
  74   2.0000      -0.327269        -8.9054
  75   2.0000      -0.316201        -8.6043
  76   2.0000      -0.314486        -8.5576
  77   0.0000       0.075188         2.0460
  78   0.0000       0.111230         3.0267
  79   0.0000       0.121392         3.3033
  80   0.0000       0.134751         3.6668
  81   0.0000       0.140971         3.8360

MULLIKEN ATOMIC CHARGES
-----------------------
   0 C :   -0.316066
   1 C :    0.052508
   2 O :   -0.360829
   3 C :    0.451663
   4 O :   -0.424608
   5 C :   -0.180863
   6 C :    0.143440
   7 C :   -0.281983
   8 N :   -0.121800
   9 C :    0.202212
  10 S :   -0.439581
  11 N :   -0.199636
  12 C :    0.044573
  13 C :    0.054182
  14 C :   -0.165889
  15 C :   -0.133001
  16 C :   -0.279985
  17 C :    0.312536
  18 O :   -0.359005
  19 C :   -0.277035
  20 H :    0.128073
  21 H :    0.099562
  22 H :    0.103009
  23 H :    0.098628
  24 H :    0.099792
  25 H :    0.124056
  26 H :    0.128684
  27 H :    0.102126
  28 H :    0.196773
  29 H :    0.194140
  30 H :    0.154325
  31 H :    0.155499
  32 H :    0.159676
  33 H :    0.128838
  34 H :    0.240238
  35 H :    0.165750
Sum of atomic charges:   -0.0000000

LOEWDIN ATOMIC CHARGES
----------------------
   0 C :    0.105463
   1 C :   -0.010765
   2 O :    0.294334
   3 C :   -0.415872
   4 O :    0.110876
   5 C :   -0.092012
   6 C :   -0.066024
   7 C :    0.125096
   8 N :    0.404778
   9 C :   -0.458731
  10 S :   -0.036236
  11 N :    0.397891
  12 C :   -0.046416
  13 C :   -0.039576
  14 C :    0.022307
  15 C :    0.040694
  16 C :   -0.002517
  17 C :   -0.193444
  18 O :    0.393138
  19 C :    0.027739
  20 H :   -0.024021
  21 H :   -0.026596
  22 H :   -0.026237
  23 H :   -0.028586
  24 H :   -0.026347
  25 H :   -0.010229
  26 H :   -0.007551
  27 H :   -0.021207
  28 H :   -0.059181
  29 H :   -0.063711
  30 H :   -0.005193
  31 H :   -0.025010
  32 H :   -0.021069
  33 H :   -0.036235
  34 H :   -0.154718
  35 H :   -0.024832

  Mayer bond orders larger than 0.100000
B(  0-C ,  1-C ) :   0.9601 B(  0-C , 20-H ) :   0.9720 B(  0-C , 21-H ) :   0.9756
B(  0-C , 22-H ) :   0.9719 B(  1-C ,  2-O ) :   0.9010 B(  1-C , 23-H ) :   0.9837
B(  1-C , 24-H ) :   0.9828 B(  2-O ,  3-C ) :   1.1382 B(  3-C ,  4-O ) :   1.9906
B(  3-C ,  5-C ) :   1.0419 B(  5-C ,  6-C ) :   1.6514 B(  5-C , 12-C ) :   0.9627
B(  6-C ,  7-C ) :   0.9546 B(  6-C ,  8-N ) :   1.1495 B(  7-C , 25-H ) :   0.9646
B(  7-C , 26-H ) :   0.9651 B(  7-C , 27-H ) :   0.9912 B(  8-N ,  9-C ) :   1.1795
B(  8-N , 28-H ) :   0.9487 B(  9-C , 10-S ) :   1.6103 B(  9-C , 11-N ) :   1.3042
B( 11-N , 12-C ) :   0.9917 B( 11-N , 29-H ) :   0.9518 B( 12-C , 13-C ) :   0.9456
B( 12-C , 30-H ) :   1.0001 B( 13-C , 14-C ) :   1.3771 B( 13-C , 19-C ) :   1.3674
B( 14-C , 15-C ) :   1.3942 B( 14-C , 31-H ) :   0.9638 B( 15-C , 16-C ) :   1.3621
B( 15-C , 32-H ) :   0.9712 B( 16-C , 17-C ) :   1.3316 B( 16-C , 33-H ) :   0.9856
B( 17-C , 18-O ) :   1.1087 B( 17-C , 19-C ) :   1.3767 B( 18-O , 34-H ) :   0.9804
B( 19-C , 35-H ) :   0.9583

MP2 TOTAL ENERGY:    -1274.340284137 Eh
FINAL SINGLE POINT ENERGY     -1274.340284136621

DIPOLE MOMENT
-------------
                                X             Y             Z
Electronic contribution:     10.08883      10.15586       8.46777
Nuclear contribution   :    -11.65780     -11.41736      -9.43537
                        -----------------------------------------
Total Dipole Moment    :     -1.56897      -1.26150      -0.96760
                        -----------------------------------------
Magnitude (a.u.)       :      2.23368
Magnitude (Debye)      :      5.67756

Rotational constants in cm-1:     0.011171     0.009236     0.006208
Rotational constants in MHz :   334.906400   276.895957   186.096208

                             ****ORCA TERMINATED NORMALLY****
TOTAL RUN TIME: 0 days 1 hours 38 minutes 10 seconds 233 msec
