                         Program Version 4.2.0 -  RELEASE  -
|  1> ! ri-mp2 cc-pvtz cc-pvtz/c TightSCF  NoKeepInts
|  2>
|  3> %scf
|  4>   MaxCore 4096
|  5> end
|  6> *xyz  0  1
|  7>     C       14.9317750   14.3053591   14.7328431
|  8>     C       15.2934719   14.6423161   16.1890788
|  9>     O       16.2824032   15.6880097   16.1541818
| 10>     C       17.4434880   15.5494362   16.8587072
| 11>     O       17.9191901   14.4551690   17.1134286
| 12>     C       17.8424584   16.7845217   17.6136506
| 13>     C       17.4810246   18.0494485   17.2741154
| 14>     C       16.6462235   18.4931281   16.0901939
| 15>     N       17.9596425   19.1320311   18.0194242
| 16>     C       18.9080663   19.0470834   19.0043400
| 17>     S       19.5135126   20.3935891   19.7499442
| 18>     N       19.3299943   17.7854698   19.3392773
| 19>     C       18.7292485   16.5347596   18.8387331
| 20>     C       17.9460616   15.8376129   19.9482728
| 21>     C       18.2286622   14.5018607   20.2888288
| 22>     C       17.5084833   13.8538799   21.3063677
| 23>     C       16.4955486   14.5467812   21.9908104
| 24>     C       16.2080626   15.8759887   21.6522612
| 25>     O       15.2260287   16.5457568   22.3067545
| 26>     C       16.9261709   16.5180510   20.6385765
| 27>     H       14.5461226   15.1912737   14.2133856
| 28>     H       14.1632158   13.5236823   14.6983004
| 29>     H       15.8146192   13.9419770   14.1918566
| 30>     H       14.4028386   14.9885518   16.7291141
| 31>     H       15.6646365   13.7369768   16.6885944
| 32>     H       16.9820824   18.0008754   15.1688914
| 33>     H       16.7034539   19.5741571   15.9141780
| 34>     H       15.5904310   18.2372098   16.2434685
| 35>     H       17.6626769   20.0665063   17.7879265
| 36>     H       20.0070322   17.7480860   20.0903896
| 37>     H       19.5505011   15.8725004   18.5285639
| 38>     H       18.9999060   13.9581659   19.7485573
| 39>     H       17.7333765   12.8184793   21.5558104
| 40>     H       15.9358269   14.0495894   22.7759516
| 41>     H       14.8810101   15.9554638   22.9932928
| 42>     H       16.6897533   17.5482524   20.3959288
| 43> *
| 44>
| 45>                          ****END OF INPUT****

CARTESIAN COORDINATES (ANGSTROEM)
---------------------------------
  C     14.931775   14.305359   14.732843
  C     15.293472   14.642316   16.189079
  O     16.282403   15.688010   16.154182
  C     17.443488   15.549436   16.858707
  O     17.919190   14.455169   17.113429
  C     17.842458   16.784522   17.613651
  C     17.481025   18.049449   17.274115
  C     16.646224   18.493128   16.090194
  N     17.959643   19.132031   18.019424
  C     18.908066   19.047083   19.004340
  S     19.513513   20.393589   19.749944
  N     19.329994   17.785470   19.339277
  C     18.729249   16.534760   18.838733
  C     17.946062   15.837613   19.948273
  C     18.228662   14.501861   20.288829
  C     17.508483   13.853880   21.306368
  C     16.495549   14.546781   21.990810
  C     16.208063   15.875989   21.652261
  O     15.226029   16.545757   22.306754
  C     16.926171   16.518051   20.638576
  H     14.546123   15.191274   14.213386
  H     14.163216   13.523682   14.698300
  H     15.814619   13.941977   14.191857
  H     14.402839   14.988552   16.729114
  H     15.664636   13.736977   16.688594
  H     16.982082   18.000875   15.168891
  H     16.703454   19.574157   15.914178
  H     15.590431   18.237210   16.243468
  H     17.662677   20.066506   17.787927
  H     20.007032   17.748086   20.090390
  H     19.550501   15.872500   18.528564
  H     18.999906   13.958166   19.748557
  H     17.733376   12.818479   21.555810
  H     15.935827   14.049589   22.775952
  H     14.881010   15.955464   22.993293
  H     16.689753   17.548252   20.395929

 Total Charge           Charge          ....    0
 Multiplicity           Mult            ....    1
 Number of Electrons    NEL             ....  154
 Basis Dimension        Dim             ....  828

ORBITAL ENERGIES
----------------

  NO   OCC          E(Eh)            E(eV)
   0   2.0000     -91.888116     -2500.4028
   1   2.0000     -20.597553      -560.4879
   2   2.0000     -20.592442      -560.3488
   3   2.0000     -20.548680      -559.1580
   4   2.0000     -15.628278      -425.2671
   5   2.0000     -15.606925      -424.6860
   6   2.0000     -11.396246      -310.1076
   7   2.0000     -11.383141      -309.7510
   8   2.0000     -11.335326      -308.4499
   9   2.0000     -11.308320      -307.7150
  10   2.0000     -11.306200      -307.6573
  11   2.0000     -11.298910      -307.4590
  12   2.0000     -11.260266      -306.4074
  13   2.0000     -11.259238      -306.3794
  14   2.0000     -11.254207      -306.2425
  15   2.0000     -11.248483      -306.0868
  16   2.0000     -11.238095      -305.8041
  17   2.0000     -11.234176      -305.6975
  18   2.0000     -11.231248      -305.6178
  19   2.0000     -11.229953      -305.5825
  20   2.0000      -8.893182      -241.9958
  21   2.0000      -6.574760      -178.9083
  22   2.0000      -6.572752      -178.8537
  23   2.0000      -6.572167      -178.8378
  24   2.0000      -1.453166       -39.5427
  25   2.0000      -1.412178       -38.4273
  26   2.0000      -1.357451       -36.9381
  27   2.0000      -1.339253       -36.4429
  28   2.0000      -1.237017       -33.6610
  29   2.0000      -1.152804       -31.3694
  30   2.0000      -1.119819       -30.4718
  31   2.0000      -1.043663       -28.3995
  32   2.0000      -1.036090       -28.1934
  33   2.0000      -1.010206       -27.4891
  34   2.0000      -0.997725       -27.1495
  35   2.0000      -0.983164       -26.7533
  36   2.0000      -0.921452       -25.0740
  37   2.0000      -0.887144       -24.1404
  38   2.0000      -0.847478       -23.0610
  39   2.0000      -0.835883       -22.7455
  40   2.0000      -0.828646       -22.5486
  41   2.0000      -0.820491       -22.3267
  42   2.0000      -0.759482       -20.6666
  43   2.0000      -0.735770       -20.0213
  44   2.0000      -0.725564       -19.7436
  45   2.0000      -0.691004       -18.8032
  46   2.0000      -0.685169       -18.6444
  47   2.0000      -0.680270       -18.5111
  48   2.0000      -0.672933       -18.3114
  49   2.0000      -0.655293       -17.8314
  50   2.0000      -0.647602       -17.6222
  51   2.0000      -0.641570       -17.4580
  52   2.0000      -0.628837       -17.1115
  53   2.0000      -0.617943       -16.8151
  54   2.0000      -0.601048       -16.3553
  55   2.0000      -0.600613       -16.3435
  56   2.0000      -0.595749       -16.2111
  57   2.0000      -0.580781       -15.8039
  58   2.0000      -0.573870       -15.6158
  59   2.0000      -0.562977       -15.3194
  60   2.0000      -0.561646       -15.2832
  61   2.0000      -0.546287       -14.8652
  62   2.0000      -0.533878       -14.5275
  63   2.0000      -0.528359       -14.3774
  64   2.0000      -0.517915       -14.0932
  65   2.0000      -0.509999       -13.8778
  66   2.0000      -0.500315       -13.6143
  67   2.0000      -0.495721       -13.4893
  68   2.0000      -0.481074       -13.0907
  69   2.0000      -0.463028       -12.5996
  70   2.0000      -0.460046       -12.5185
  71   2.0000      -0.452928       -12.3248
  72   2.0000      -0.353994        -9.6327
  73   2.0000      -0.344639        -9.3781
  74   2.0000      -0.327281        -8.9058
  75   2.0000      -0.315905        -8.5962
  76   2.0000      -0.314463        -8.5570
  77   0.0000       0.074629         2.0308
  78   0.0000       0.111159         3.0248
  79   0.0000       0.120463         3.2780
  80   0.0000       0.135241         3.6801
  81   0.0000       0.138861         3.7786

MULLIKEN ATOMIC CHARGES
-----------------------
   0 C :   -0.263765
   1 C :    0.029366
   2 O :   -0.358983
   3 C :    0.453205
   4 O :   -0.418972
   5 C :   -0.183641
   6 C :    0.143716
   7 C :   -0.284414
   8 N :   -0.123659
   9 C :    0.201703
  10 S :   -0.439630
  11 N :   -0.198114
  12 C :    0.040278
  13 C :    0.054429
  14 C :   -0.162707
  15 C :   -0.133918
  16 C :   -0.279303
  17 C :    0.311145
  18 O :   -0.359014
  19 C :   -0.272409
  20 H :    0.090021
  21 H :    0.090541
  22 H :    0.101003
  23 H :    0.098475
  24 H :    0.117145
  25 H :    0.126199
  26 H :    0.103155
  27 H :    0.126083
  28 H :    0.196958
  29 H :    0.193851
  30 H :    0.154045
  31 H :    0.154132
  32 H :    0.159461
  33 H :    0.128343
  34 H :    0.240175
  35 H :    0.165100
Sum of atomic charges:   -0.0000000

LOEWDIN ATOMIC CHARGES
----------------------
   0 C :    0.104766
   1 C :   -0.011671
   2 O :    0.302571
   3 C :   -0.414158
   4 O :    0.109825
   5 C :   -0.091929
   6 C :   -0.068275
   7 C :    0.125088
   8 N :    0.404597
   9 C :   -0.458558
  10 S :   -0.036257
  11 N :    0.397594
  12 C :   -0.046120
  13 C :   -0.039108
  14 C :    0.021673
  15 C :    0.040784
  16 C :   -0.002353
  17 C :   -0.192804
  18 O :    0.393006
  19 C :    0.028340
  20 H :   -0.029966
  21 H :   -0.026295
  22 H :   -0.024293
  23 H :   -0.031035
  24 H :   -0.026455
  25 H :   -0.008369
  26 H :   -0.020560
  27 H :   -0.009964
  28 H :   -0.059028
  29 H :   -0.063797
  30 H :   -0.004885
  31 H :   -0.025211
  32 H :   -0.021131
  33 H :   -0.036323
  34 H :   -0.154788
  35 H :   -0.024912

  Mayer bond orders larger than 0.100000
B(  0-C ,  1-C ) :   0.9743 B(  0-C , 20-H ) :   0.9796 B(  0-C , 21-H ) :   0.9761
B(  0-C , 22-H ) :   0.9780 B(  1-C ,  2-O ) :   0.8845 B(  1-C , 23-H ) :   0.9785
B(  1-C , 24-H ) :   0.9725 B(  2-O ,  3-C ) :   1.1245 B(  3-C ,  4-O ) :   1.9999
B(  3-C ,  5-C ) :   1.0457 B(  5-C ,  6-C ) :   1.6565 B(  5-C , 12-C ) :   0.9645
B(  6-C ,  7-C ) :   0.9531 B(  6-C ,  8-N ) :   1.1430 B(  7-C , 25-H ) :   0.9677
B(  7-C , 26-H ) :   0.9904 B(  7-C , 27-H ) :   0.9637 B(  8-N ,  9-C ) :   1.1808
B(  8-N , 28-H ) :   0.9491 B(  9-C , 10-S ) :   1.6105 B(  9-C , 11-N ) :   1.3030
B( 11-N , 12-C ) :   0.9911 B( 11-N , 29-H ) :   0.9519 B( 12-C , 13-C ) :   0.9474
B( 12-C , 30-H ) :   0.9991 B( 13-C , 14-C ) :   1.3764 B( 13-C , 19-C ) :   1.3691
B( 14-C , 15-C ) :   1.3945 B( 14-C , 31-H ) :   0.9646 B( 15-C , 16-C ) :   1.3629
B( 15-C , 32-H ) :   0.9713 B( 16-C , 17-C ) :   1.3314 B( 16-C , 33-H ) :   0.9859
B( 17-C , 18-O ) :   1.1082 B( 17-C , 19-C ) :   1.3784 B( 18-O , 34-H ) :   0.9805
B( 19-C , 35-H ) :   0.9584

MP2 TOTAL ENERGY:    -1274.339099248 Eh
FINAL SINGLE POINT ENERGY     -1274.339099247820

DIPOLE MOMENT
-------------
                                X             Y             Z
Electronic contribution:     11.21328       9.62593      11.10318
Nuclear contribution   :    -12.81217     -10.86093     -11.86601
                        -----------------------------------------
Total Dipole Moment    :     -1.59889      -1.23500      -0.76284
                        -----------------------------------------
Magnitude (a.u.)       :      2.15953
Magnitude (Debye)      :      5.48910

Rotational constants in cm-1:     0.010531     0.008930     0.005882
Rotational constants in MHz :   315.710316   267.722950   176.325341

                             ****ORCA TERMINATED NORMALLY****
TOTAL RUN TIME: 0 days 1 hours 37 minutes 52 seconds 659 msec
