                         Program Version 4.2.0 -  RELEASE  -
|  1> ! ri-mp2 cc-pvtz cc-pvtz/c TightSCF  NoKeepInts
|  2>
|  3> %scf
|  4>   MaxCore 4096
|  5> end
|  6> *xyz  0  1
|  7>     C       15.2851218   14.4379636   16.8674396
|  8>     C       16.7610437   14.1434170   16.5286383
|  9>     O       17.2890360   15.1751336   15.6742129
| 10>     C       17.1717246   16.5292972   15.8667994
| 11>     O       16.8511981   17.2059295   14.9078699
| 12>     C       17.5513722   17.1382577   17.2011975
| 13>     C       17.3079543   18.4526732   17.4618215
| 14>     C       16.5006504   19.4315631   16.6355265
| 15>     N       17.9032794   19.0671564   18.5702726
| 16>     C       18.9853708   18.5494541   19.2339065
| 17>     S       19.8603739   19.4318850   20.3255184
| 18>     N       19.3200172   17.2580412   18.9128920
| 19>     C       18.4015596   16.3436383   18.2124513
| 20>     C       17.5963700   15.6076857   19.2868543
| 21>     C       18.1141679   14.4235052   19.8479934
| 22>     C       17.4041602   13.7268937   20.8401399
| 23>     C       16.1692593   14.2235165   21.2886708
| 24>     C       15.6599424   15.4131802   20.7525140
| 25>     O       14.4703837   15.9005168   21.1856352
| 26>     C       16.3680753   16.1036870   19.7644980
| 27>     H       15.1709336   15.3794016   17.4152721
| 28>     H       14.8694184   13.6348946   17.4882689
| 29>     H       14.6871864   14.5026174   15.9493703
| 30>     H       17.3568884   14.0117163   17.4301969
| 31>     H       16.8098886   13.1892788   15.9878945
| 32>     H       15.5561376   18.9803714   16.3060874
| 33>     H       17.0561914   19.7214064   15.7340244
| 34>     H       16.2493687   20.3468082   17.1841027
| 35>     H       17.6786802   20.0248883   18.7886518
| 36>     H       20.1173458   16.8920460   19.4163118
| 37>     H       19.0080668   15.6149819   17.6564361
| 38>     H       19.0735068   14.0392073   19.5113908
| 39>     H       17.8134642   12.8106613   21.2630118
| 40>     H       15.6178241   13.6908157   22.0566662
| 41>     H       14.1601496   15.3221334   21.8989422
| 42>     H       15.9508884   17.0273765   19.3825199
| 43> *
| 44>
| 45>                          ****END OF INPUT****

CARTESIAN COORDINATES (ANGSTROEM)
---------------------------------
  C     15.285122   14.437964   16.867440
  C     16.761044   14.143417   16.528638
  O     17.289036   15.175134   15.674213
  C     17.171725   16.529297   15.866799
  O     16.851198   17.205929   14.907870
  C     17.551372   17.138258   17.201197
  C     17.307954   18.452673   17.461821
  C     16.500650   19.431563   16.635527
  N     17.903279   19.067156   18.570273
  C     18.985371   18.549454   19.233906
  S     19.860374   19.431885   20.325518
  N     19.320017   17.258041   18.912892
  C     18.401560   16.343638   18.212451
  C     17.596370   15.607686   19.286854
  C     18.114168   14.423505   19.847993
  C     17.404160   13.726894   20.840140
  C     16.169259   14.223517   21.288671
  C     15.659942   15.413180   20.752514
  O     14.470384   15.900517   21.185635
  C     16.368075   16.103687   19.764498
  H     15.170934   15.379402   17.415272
  H     14.869418   13.634895   17.488269
  H     14.687186   14.502617   15.949370
  H     17.356888   14.011716   17.430197
  H     16.809889   13.189279   15.987894
  H     15.556138   18.980371   16.306087
  H     17.056191   19.721406   15.734024
  H     16.249369   20.346808   17.184103
  H     17.678680   20.024888   18.788652
  H     20.117346   16.892046   19.416312
  H     19.008067   15.614982   17.656436
  H     19.073507   14.039207   19.511391
  H     17.813464   12.810661   21.263012
  H     15.617824   13.690816   22.056666
  H     14.160150   15.322133   21.898942
  H     15.950888   17.027376   19.382520

 Total Charge           Charge          ....    0
 Multiplicity           Mult            ....    1
 Number of Electrons    NEL             ....  154
 Basis Dimension        Dim             ....  828

ORBITAL ENERGIES
----------------

  NO   OCC          E(Eh)            E(eV)
   0   2.0000     -91.892638     -2500.5258
   1   2.0000     -20.604885      -560.6874
   2   2.0000     -20.588661      -560.2459
   3   2.0000     -20.539126      -558.8980
   4   2.0000     -15.632918      -425.3933
   5   2.0000     -15.611603      -424.8133
   6   2.0000     -11.393968      -310.0456
   7   2.0000     -11.386385      -309.8393
   8   2.0000     -11.338812      -308.5448
   9   2.0000     -11.322327      -308.0962
  10   2.0000     -11.318935      -308.0039
  11   2.0000     -11.300337      -307.4978
  12   2.0000     -11.270293      -306.6803
  13   2.0000     -11.264641      -306.5265
  14   2.0000     -11.262775      -306.4757
  15   2.0000     -11.253084      -306.2120
  16   2.0000     -11.250322      -306.1368
  17   2.0000     -11.247339      -306.0557
  18   2.0000     -11.246035      -306.0202
  19   2.0000     -11.229343      -305.5660
  20   2.0000      -8.897586      -242.1156
  21   2.0000      -6.579137      -179.0274
  22   2.0000      -6.577161      -178.9737
  23   2.0000      -6.576553      -178.9571
  24   2.0000      -1.440997       -39.2115
  25   2.0000      -1.424453       -38.7613
  26   2.0000      -1.350158       -36.7397
  27   2.0000      -1.344878       -36.5960
  28   2.0000      -1.243252       -33.8306
  29   2.0000      -1.165301       -31.7095
  30   2.0000      -1.121829       -30.5265
  31   2.0000      -1.048672       -28.5358
  32   2.0000      -1.032904       -28.1068
  33   2.0000      -1.024434       -27.8763
  34   2.0000      -1.001615       -27.2553
  35   2.0000      -0.987377       -26.8679
  36   2.0000      -0.928224       -25.2583
  37   2.0000      -0.896157       -24.3857
  38   2.0000      -0.851116       -23.1600
  39   2.0000      -0.850511       -23.1436
  40   2.0000      -0.841853       -22.9080
  41   2.0000      -0.827121       -22.5071
  42   2.0000      -0.753702       -20.5093
  43   2.0000      -0.738477       -20.0950
  44   2.0000      -0.714290       -19.4368
  45   2.0000      -0.704318       -19.1655
  46   2.0000      -0.695811       -18.9340
  47   2.0000      -0.677210       -18.4278
  48   2.0000      -0.671970       -18.2852
  49   2.0000      -0.661678       -18.0052
  50   2.0000      -0.654030       -17.7971
  51   2.0000      -0.652836       -17.7646
  52   2.0000      -0.638049       -17.3622
  53   2.0000      -0.623705       -16.9719
  54   2.0000      -0.616187       -16.7673
  55   2.0000      -0.606453       -16.5024
  56   2.0000      -0.601973       -16.3805
  57   2.0000      -0.585483       -15.9318
  58   2.0000      -0.573333       -15.6012
  59   2.0000      -0.567364       -15.4388
  60   2.0000      -0.550102       -14.9690
  61   2.0000      -0.542932       -14.7739
  62   2.0000      -0.540558       -14.7093
  63   2.0000      -0.536616       -14.6021
  64   2.0000      -0.534534       -14.5454
  65   2.0000      -0.517328       -14.0772
  66   2.0000      -0.510789       -13.8993
  67   2.0000      -0.496247       -13.5036
  68   2.0000      -0.481730       -13.1085
  69   2.0000      -0.466177       -12.6853
  70   2.0000      -0.450757       -12.2657
  71   2.0000      -0.441488       -12.0135
  72   2.0000      -0.363586        -9.8937
  73   2.0000      -0.357594        -9.7306
  74   2.0000      -0.333332        -9.0704
  75   2.0000      -0.328041        -8.9264
  76   2.0000      -0.318696        -8.6721
  77   0.0000       0.071718         1.9515
  78   0.0000       0.102180         2.7805
  79   0.0000       0.117166         3.1882
  80   0.0000       0.121690         3.3114
  81   0.0000       0.129230         3.5165

MULLIKEN ATOMIC CHARGES
-----------------------
   0 C :   -0.308226
   1 C :    0.021256
   2 O :   -0.340098
   3 C :    0.466204
   4 O :   -0.390133
   5 C :   -0.246384
   6 C :    0.123261
   7 C :   -0.270111
   8 N :   -0.121324
   9 C :    0.216010
  10 S :   -0.434620
  11 N :   -0.203456
  12 C :    0.033036
  13 C :    0.078887
  14 C :   -0.230356
  15 C :   -0.127203
  16 C :   -0.277151
  17 C :    0.331171
  18 O :   -0.357199
  19 C :   -0.282591
  20 H :    0.097639
  21 H :    0.105277
  22 H :    0.122354
  23 H :    0.084678
  24 H :    0.124319
  25 H :    0.125629
  26 H :    0.142983
  27 H :    0.093175
  28 H :    0.199687
  29 H :    0.188632
  30 H :    0.162959
  31 H :    0.154716
  32 H :    0.162825
  33 H :    0.133110
  34 H :    0.243136
  35 H :    0.177909
Sum of atomic charges:   -0.0000000

LOEWDIN ATOMIC CHARGES
----------------------
   0 C :    0.107622
   1 C :   -0.023055
   2 O :    0.295875
   3 C :   -0.422973
   4 O :    0.118169
   5 C :   -0.097239
   6 C :   -0.056556
   7 C :    0.128912
   8 N :    0.409762
   9 C :   -0.453619
  10 S :   -0.029232
  11 N :    0.395904
  12 C :   -0.054109
  13 C :   -0.037608
  14 C :    0.005588
  15 C :    0.043562
  16 C :   -0.000343
  17 C :   -0.187642
  18 O :    0.396902
  19 C :    0.031559
  20 H :   -0.033866
  21 H :   -0.022706
  22 H :   -0.022545
  23 H :   -0.046341
  24 H :   -0.019748
  25 H :   -0.006513
  26 H :   -0.001365
  27 H :   -0.023340
  28 H :   -0.056739
  29 H :   -0.068413
  30 H :   -0.004734
  31 H :   -0.031568
  32 H :   -0.018698
  33 H :   -0.034066
  34 H :   -0.151544
  35 H :   -0.029291

  Mayer bond orders larger than 0.100000
B(  0-C ,  1-C ) :   0.9649 B(  0-C , 20-H ) :   0.9716 B(  0-C , 21-H ) :   0.9750
B(  0-C , 22-H ) :   0.9756 B(  1-C ,  2-O ) :   0.9103 B(  1-C , 23-H ) :   0.9707
B(  1-C , 24-H ) :   0.9809 B(  2-O ,  3-C ) :   1.1499 B(  3-C ,  4-O ) :   2.0547
B(  3-C ,  5-C ) :   1.0017 B(  5-C ,  6-C ) :   1.6468 B(  5-C , 12-C ) :   0.9650
B(  6-C ,  7-C ) :   0.9813 B(  6-C ,  8-N ) :   1.1443 B(  7-C , 25-H ) :   0.9665
B(  7-C , 26-H ) :   0.9522 B(  7-C , 27-H ) :   0.9857 B(  8-N ,  9-C ) :   1.1849
B(  8-N , 28-H ) :   0.9491 B(  9-C , 10-S ) :   1.6168 B(  9-C , 11-N ) :   1.2925
B( 11-N , 12-C ) :   0.9506 B( 11-N , 29-H ) :   0.9543 B( 12-C , 13-C ) :   0.9634
B( 12-C , 30-H ) :   0.9960 B( 13-C , 14-C ) :   1.3306 B( 13-C , 19-C ) :   1.3671
B( 14-C , 15-C ) :   1.4077 B( 14-C , 31-H ) :   0.9751 B( 15-C , 16-C ) :   1.3626
B( 15-C , 32-H ) :   0.9695 B( 16-C , 17-C ) :   1.3358 B( 16-C , 33-H ) :   0.9837
B( 17-C , 18-O ) :   1.1175 B( 17-C , 19-C ) :   1.3583 B( 18-O , 34-H ) :   0.9786
B( 19-C , 35-H ) :   0.9486

MP2 TOTAL ENERGY:    -1274.330812699 Eh
FINAL SINGLE POINT ENERGY     -1274.330812698906

DIPOLE MOMENT
-------------
                                X             Y             Z
Electronic contribution:      9.07709       8.42869       3.98492
Nuclear contribution   :    -10.23766     -10.12176      -3.12271
                        -----------------------------------------
Total Dipole Moment    :     -1.16057      -1.69306       0.86221
                        -----------------------------------------
Magnitude (a.u.)       :      2.22639
Magnitude (Debye)      :      5.65902

Rotational constants in cm-1:     0.011159     0.009957     0.006802
Rotational constants in MHz :   334.551297   298.492236   203.914728

                             ****ORCA TERMINATED NORMALLY****
TOTAL RUN TIME: 0 days 1 hours 57 minutes 56 seconds 139 msec
