                         Program Version 4.2.0 -  RELEASE  -
|  1> ! ri-mp2 cc-pvtz cc-pvtz/c TightSCF  NoKeepInts
|  2>
|  3> %scf
|  4>   MaxCore 4096
|  5> end
|  6> *xyz  0  1
|  7>     C       16.1016094   13.0777310   16.0872612
|  8>     C       15.5812972   14.5009646   16.3485994
|  9>     O       16.7242129   15.3429074   16.5692220
| 10>     C       16.5620380   16.6986901   16.5299545
| 11>     O       15.6465865   17.2234373   15.9188160
| 12>     C       17.4684685   17.4185649   17.4902071
| 13>     C       17.4837733   18.7712583   17.6002214
| 14>     C       16.6436836   19.7631287   16.8243826
| 15>     N       18.3734007   19.3931762   18.4813634
| 16>     C       19.3436268   18.7480624   19.2007673
| 17>     S       20.4207718   19.5695055   20.1499174
| 18>     N       19.3800929   17.3814122   19.0912742
| 19>     C       18.3886862   16.5594962   18.3735716
| 20>     C       17.5988608   15.7180552   19.3724019
| 21>     C       17.7641448   14.3208626   19.4145362
| 22>     C       17.0329153   13.5413175   20.3264528
| 23>     C       16.1319072   14.1640973   21.2069097
| 24>     C       15.9694185   15.5558856   21.1719914
| 25>     O       15.1012436   16.1601746   22.0217152
| 26>     C       16.6975765   16.3288314   20.2623603
| 27>     H       16.6597268   12.7053154   16.9549526
| 28>     H       16.7650810   13.0629061   15.2136182
| 29>     H       15.2665796   12.3928095   15.8963822
| 30>     H       15.0124960   14.8388724   15.4713383
| 31>     H       14.9194904   14.5173026   17.2248075
| 32>     H       15.5781140   19.6195725   17.0450511
| 33>     H       16.7757326   19.6206734   15.7442995
| 34>     H       16.8921627   20.8063801   17.0517888
| 35>     H       18.3621136   20.3964008   18.5735382
| 36>     H       20.0826182   16.9311465   19.6635946
| 37>     H       18.9447857   15.8806926   17.7116789
| 38>     H       18.4564439   13.8367602   18.7309455
| 39>     H       17.1660209   12.4611353   20.3495616
| 40>     H       15.5655180   13.5667058   21.9137655
| 41>     H       14.7238807   15.4728064   22.5908732
| 42>     H       16.5619215   17.4049617   20.2558790
| 43> *
| 44>
| 45>                          ****END OF INPUT****

CARTESIAN COORDINATES (ANGSTROEM)
---------------------------------
  C     16.101609   13.077731   16.087261
  C     15.581297   14.500965   16.348599
  O     16.724213   15.342907   16.569222
  C     16.562038   16.698690   16.529954
  O     15.646586   17.223437   15.918816
  C     17.468468   17.418565   17.490207
  C     17.483773   18.771258   17.600221
  C     16.643684   19.763129   16.824383
  N     18.373401   19.393176   18.481363
  C     19.343627   18.748062   19.200767
  S     20.420772   19.569506   20.149917
  N     19.380093   17.381412   19.091274
  C     18.388686   16.559496   18.373572
  C     17.598861   15.718055   19.372402
  C     17.764145   14.320863   19.414536
  C     17.032915   13.541317   20.326453
  C     16.131907   14.164097   21.206910
  C     15.969418   15.555886   21.171991
  O     15.101244   16.160175   22.021715
  C     16.697577   16.328831   20.262360
  H     16.659727   12.705315   16.954953
  H     16.765081   13.062906   15.213618
  H     15.266580   12.392809   15.896382
  H     15.012496   14.838872   15.471338
  H     14.919490   14.517303   17.224807
  H     15.578114   19.619573   17.045051
  H     16.775733   19.620673   15.744299
  H     16.892163   20.806380   17.051789
  H     18.362114   20.396401   18.573538
  H     20.082618   16.931147   19.663595
  H     18.944786   15.880693   17.711679
  H     18.456444   13.836760   18.730946
  H     17.166021   12.461135   20.349562
  H     15.565518   13.566706   21.913766
  H     14.723881   15.472806   22.590873
  H     16.561922   17.404962   20.255879

 Total Charge           Charge          ....    0
 Multiplicity           Mult            ....    1
 Number of Electrons    NEL             ....  154
 Basis Dimension        Dim             ....  828

ORBITAL ENERGIES
----------------

  NO   OCC          E(Eh)            E(eV)
   0   2.0000     -91.889135     -2500.4305
   1   2.0000     -20.598267      -560.5073
   2   2.0000     -20.597339      -560.4821
   3   2.0000     -20.542480      -558.9893
   4   2.0000     -15.629287      -425.2945
   5   2.0000     -15.608598      -424.7315
   6   2.0000     -11.393939      -310.0448
   7   2.0000     -11.384278      -309.7819
   8   2.0000     -11.335954      -308.4670
   9   2.0000     -11.314692      -307.8884
  10   2.0000     -11.309592      -307.7496
  11   2.0000     -11.294720      -307.3450
  12   2.0000     -11.260521      -306.4144
  13   2.0000     -11.258818      -306.3680
  14   2.0000     -11.256237      -306.2978
  15   2.0000     -11.252174      -306.1872
  16   2.0000     -11.243928      -305.9628
  17   2.0000     -11.239247      -305.8355
  18   2.0000     -11.238977      -305.8281
  19   2.0000     -11.229649      -305.5743
  20   2.0000      -8.894194      -242.0233
  21   2.0000      -6.575768      -178.9357
  22   2.0000      -6.573764      -178.8812
  23   2.0000      -6.573176      -178.8652
  24   2.0000      -1.451643       -39.5012
  25   2.0000      -1.416996       -38.5584
  26   2.0000      -1.354440       -36.8562
  27   2.0000      -1.340274       -36.4707
  28   2.0000      -1.238831       -33.7103
  29   2.0000      -1.158415       -31.5221
  30   2.0000      -1.120647       -30.4944
  31   2.0000      -1.043541       -28.3962
  32   2.0000      -1.039267       -28.2799
  33   2.0000      -1.016101       -27.6495
  34   2.0000      -0.995993       -27.1023
  35   2.0000      -0.984652       -26.7937
  36   2.0000      -0.922986       -25.1157
  37   2.0000      -0.886790       -24.1308
  38   2.0000      -0.847062       -23.0497
  39   2.0000      -0.838116       -22.8063
  40   2.0000      -0.834787       -22.7157
  41   2.0000      -0.819038       -22.2872
  42   2.0000      -0.764519       -20.8036
  43   2.0000      -0.733148       -19.9500
  44   2.0000      -0.722237       -19.6531
  45   2.0000      -0.696449       -18.9513
  46   2.0000      -0.686863       -18.6905
  47   2.0000      -0.678808       -18.4713
  48   2.0000      -0.676633       -18.4121
  49   2.0000      -0.660984       -17.9863
  50   2.0000      -0.646588       -17.5946
  51   2.0000      -0.644999       -17.5513
  52   2.0000      -0.636120       -17.3097
  53   2.0000      -0.607905       -16.5419
  54   2.0000      -0.603183       -16.4134
  55   2.0000      -0.600355       -16.3365
  56   2.0000      -0.597942       -16.2708
  57   2.0000      -0.578348       -15.7376
  58   2.0000      -0.571034       -15.5386
  59   2.0000      -0.565976       -15.4010
  60   2.0000      -0.560558       -15.2535
  61   2.0000      -0.545000       -14.8302
  62   2.0000      -0.539983       -14.6937
  63   2.0000      -0.525883       -14.3100
  64   2.0000      -0.521584       -14.1930
  65   2.0000      -0.513766       -13.9803
  66   2.0000      -0.504290       -13.7224
  67   2.0000      -0.499312       -13.5870
  68   2.0000      -0.486073       -13.2267
  69   2.0000      -0.466042       -12.6816
  70   2.0000      -0.458145       -12.4668
  71   2.0000      -0.446055       -12.1378
  72   2.0000      -0.354418        -9.6442
  73   2.0000      -0.350256        -9.5309
  74   2.0000      -0.328542        -8.9401
  75   2.0000      -0.322167        -8.7666
  76   2.0000      -0.316382        -8.6092
  77   0.0000       0.074935         2.0391
  78   0.0000       0.104772         2.8510
  79   0.0000       0.124932         3.3996
  80   0.0000       0.131741         3.5849
  81   0.0000       0.136944         3.7264

MULLIKEN ATOMIC CHARGES
-----------------------
   0 C :   -0.267681
   1 C :    0.025568
   2 O :   -0.355024
   3 C :    0.458834
   4 O :   -0.426303
   5 C :   -0.231311
   6 C :    0.154817
   7 C :   -0.271930
   8 N :   -0.122450
   9 C :    0.211979
  10 S :   -0.439653
  11 N :   -0.205112
  12 C :    0.060516
  13 C :    0.059751
  14 C :   -0.193573
  15 C :   -0.127406
  16 C :   -0.279880
  17 C :    0.315668
  18 O :   -0.356110
  19 C :   -0.268215
  20 H :    0.090339
  21 H :    0.097746
  22 H :    0.093709
  23 H :    0.122953
  24 H :    0.098757
  25 H :    0.132766
  26 H :    0.130187
  27 H :    0.095150
  28 H :    0.197561
  29 H :    0.194841
  30 H :    0.149839
  31 H :    0.154964
  32 H :    0.161462
  33 H :    0.130808
  34 H :    0.240836
  35 H :    0.165596
Sum of atomic charges:   -0.0000000

LOEWDIN ATOMIC CHARGES
----------------------
   0 C :    0.107231
   1 C :   -0.016327
   2 O :    0.306435
   3 C :   -0.414628
   4 O :    0.099910
   5 C :   -0.095687
   6 C :   -0.059077
   7 C :    0.131628
   8 N :    0.406614
   9 C :   -0.456225
  10 S :   -0.035200
  11 N :    0.396315
  12 C :   -0.052266
  13 C :   -0.038273
  14 C :    0.014350
  15 C :    0.038663
  16 C :   -0.002079
  17 C :   -0.189617
  18 O :    0.395505
  19 C :    0.031404
  20 H :   -0.031358
  21 H :   -0.026379
  22 H :   -0.024634
  23 H :   -0.027343
  24 H :   -0.029397
  25 H :   -0.004405
  26 H :   -0.004018
  27 H :   -0.023338
  28 H :   -0.057511
  29 H :   -0.064640
  30 H :   -0.010479
  31 H :   -0.030950
  32 H :   -0.021426
  33 H :   -0.035445
  34 H :   -0.153777
  35 H :   -0.023575

  Mayer bond orders larger than 0.100000
B(  0-C ,  1-C ) :   0.9726 B(  0-C , 20-H ) :   0.9781 B(  0-C , 21-H ) :   0.9771
B(  0-C , 22-H ) :   0.9779 B(  1-C ,  2-O ) :   0.8863 B(  1-C , 23-H ) :   0.9802
B(  1-C , 24-H ) :   0.9714 B(  2-O ,  3-C ) :   1.1604 B(  3-C ,  4-O ) :   1.9892
B(  3-C ,  5-C ) :   1.0551 B(  5-C ,  6-C ) :   1.6550 B(  5-C , 12-C ) :   0.9731
B(  6-C ,  7-C ) :   0.9670 B(  6-C ,  8-N ) :   1.1623 B(  7-C , 25-H ) :   0.9594
B(  7-C , 26-H ) :   0.9612 B(  7-C , 27-H ) :   0.9905 B(  8-N ,  9-C ) :   1.1832
B(  8-N , 28-H ) :   0.9478 B(  9-C , 10-S ) :   1.6074 B(  9-C , 11-N ) :   1.3053
B( 11-N , 12-C ) :   0.9853 B( 11-N , 29-H ) :   0.9517 B( 12-C , 13-C ) :   0.9348
B( 12-C , 30-H ) :   1.0028 B( 13-C , 14-C ) :   1.3602 B( 13-C , 19-C ) :   1.3822
B( 14-C , 15-C ) :   1.3864 B( 14-C , 31-H ) :   0.9698 B( 15-C , 16-C ) :   1.3651
B( 15-C , 32-H ) :   0.9700 B( 16-C , 17-C ) :   1.3312 B( 16-C , 33-H ) :   0.9846
B( 17-C , 18-O ) :   1.1109 B( 17-C , 19-C ) :   1.3719 B( 18-O , 34-H ) :   0.9797
B( 19-C , 35-H ) :   0.9581

MP2 TOTAL ENERGY:    -1274.347763314 Eh
FINAL SINGLE POINT ENERGY     -1274.347763313702

DIPOLE MOMENT
-------------
                                X             Y             Z
Electronic contribution:      8.69468      11.32390       7.76717
Nuclear contribution   :     -9.82917     -12.91415      -8.09542
                        -----------------------------------------
Total Dipole Moment    :     -1.13449      -1.59025      -0.32825
                        -----------------------------------------
Magnitude (a.u.)       :      1.98084
Magnitude (Debye)      :      5.03488

Rotational constants in cm-1:     0.012078     0.008439     0.006236
Rotational constants in MHz :   362.079511   253.007518   186.951262

                             ****ORCA TERMINATED NORMALLY****
TOTAL RUN TIME: 0 days 1 hours 54 minutes 53 seconds 918 msec
