                         Program Version 4.2.0 -  RELEASE  -
|  1> ! ri-mp2 cc-pvtz cc-pvtz/c TightSCF  NoKeepInts
|  2>
|  3> %scf
|  4>   MaxCore 4096
|  5> end
|  6> *xyz  0  1
|  7>     C       14.3938964   15.7238676   16.2585720
|  8>     C       15.4810925   15.3347681   17.2764848
|  9>     O       16.6848807   15.0027822   16.5532772
| 10>     C       17.8239035   15.7680705   16.4786207
| 11>     O       18.8467309   15.2625917   16.0562075
| 12>     C       17.9048132   16.9112696   17.4327827
| 13>     C       17.3638479   18.1199281   17.1643686
| 14>     C       16.6359246   18.5284532   15.9046067
| 15>     N       17.5162628   19.1673650   18.0750635
| 16>     C       18.2659134   19.1006096   19.2210620
| 17>     S       18.4265607   20.4006660   20.2299503
| 18>     N       18.8716391   17.8982153   19.4947897
| 19>     C       18.7139913   16.6604659   18.7044438
| 20>     C       18.0968870   15.5366262   19.5318160
| 21>     C       18.5641190   14.2179695   19.3827340
| 22>     C       17.9862232   13.1660797   20.1125245
| 23>     C       16.9289575   13.4329882   20.9986158
| 24>     C       16.4563071   14.7436953   21.1461518
| 25>     O       15.4251691   15.0029848   21.9885431
| 26>     C       17.0326184   15.7893509   20.4179045
| 27>     H       14.7025203   16.5667442   15.6344576
| 28>     H       13.4663006   15.9990971   16.7752311
| 29>     H       14.1744725   14.8765556   15.5966532
| 30>     H       15.6247516   16.1401667   18.0056087
| 31>     H       15.1445114   14.4492914   17.8316678
| 32>     H       16.6947770   17.7607880   15.1233681
| 33>     H       17.0752928   19.4403450   15.4802978
| 34>     H       15.5771751   18.7291168   16.1084902
| 35>     H       17.0932859   20.0625215   17.8852960
| 36>     H       19.4036127   17.8745933   20.3557779
| 37>     H       19.7184982   16.3369121   18.3933027
| 38>     H       19.3689695   14.0051024   18.6819188
| 39>     H       18.3542624   12.1495474   19.9830923
| 40>     H       16.4778703   12.6222332   21.5613110
| 41>     H       15.2057402   14.1754238   22.4432485
| 42>     H       16.6452211   16.7948142   20.5457591
| 43> *
| 44>
| 45>                          ****END OF INPUT****

CARTESIAN COORDINATES (ANGSTROEM)
---------------------------------
  C     14.393896   15.723868   16.258572
  C     15.481092   15.334768   17.276485
  O     16.684881   15.002782   16.553277
  C     17.823904   15.768071   16.478621
  O     18.846731   15.262592   16.056207
  C     17.904813   16.911270   17.432783
  C     17.363848   18.119928   17.164369
  C     16.635925   18.528453   15.904607
  N     17.516263   19.167365   18.075063
  C     18.265913   19.100610   19.221062
  S     18.426561   20.400666   20.229950
  N     18.871639   17.898215   19.494790
  C     18.713991   16.660466   18.704444
  C     18.096887   15.536626   19.531816
  C     18.564119   14.217969   19.382734
  C     17.986223   13.166080   20.112524
  C     16.928957   13.432988   20.998616
  C     16.456307   14.743695   21.146152
  O     15.425169   15.002985   21.988543
  C     17.032618   15.789351   20.417904
  H     14.702520   16.566744   15.634458
  H     13.466301   15.999097   16.775231
  H     14.174472   14.876556   15.596653
  H     15.624752   16.140167   18.005609
  H     15.144511   14.449291   17.831668
  H     16.694777   17.760788   15.123368
  H     17.075293   19.440345   15.480298
  H     15.577175   18.729117   16.108490
  H     17.093286   20.062521   17.885296
  H     19.403613   17.874593   20.355778
  H     19.718498   16.336912   18.393303
  H     19.368969   14.005102   18.681919
  H     18.354262   12.149547   19.983092
  H     16.477870   12.622233   21.561311
  H     15.205740   14.175424   22.443248
  H     16.645221   16.794814   20.545759

 Total Charge           Charge          ....    0
 Multiplicity           Mult            ....    1
 Number of Electrons    NEL             ....  154
 Basis Dimension        Dim             ....  828

ORBITAL ENERGIES
----------------

  NO   OCC          E(Eh)            E(eV)
   0   2.0000     -91.889506     -2500.4406
   1   2.0000     -20.601347      -560.5911
   2   2.0000     -20.600861      -560.5779
   3   2.0000     -20.551938      -559.2467
   4   2.0000     -15.625173      -425.1826
   5   2.0000     -15.612151      -424.8282
   6   2.0000     -11.398850      -310.1785
   7   2.0000     -11.386560      -309.8441
   8   2.0000     -11.325626      -308.1860
   9   2.0000     -11.317717      -307.9707
  10   2.0000     -11.317282      -307.9589
  11   2.0000     -11.303042      -307.5714
  12   2.0000     -11.268970      -306.6443
  13   2.0000     -11.265271      -306.5436
  14   2.0000     -11.264898      -306.5335
  15   2.0000     -11.257827      -306.3410
  16   2.0000     -11.247052      -306.0478
  17   2.0000     -11.243152      -305.9417
  18   2.0000     -11.240418      -305.8673
  19   2.0000     -11.234962      -305.7189
  20   2.0000      -8.894636      -242.0354
  21   2.0000      -6.576230      -178.9483
  22   2.0000      -6.574198      -178.8930
  23   2.0000      -6.573627      -178.8775
  24   2.0000      -1.448392       -39.4127
  25   2.0000      -1.420682       -38.6587
  26   2.0000      -1.359644       -36.9978
  27   2.0000      -1.339464       -36.4487
  28   2.0000      -1.239898       -33.7394
  29   2.0000      -1.162326       -31.6285
  30   2.0000      -1.126128       -30.6435
  31   2.0000      -1.049891       -28.5690
  32   2.0000      -1.040506       -28.3136
  33   2.0000      -1.019952       -27.7543
  34   2.0000      -1.005680       -27.3659
  35   2.0000      -0.989727       -26.9318
  36   2.0000      -0.928432       -25.2639
  37   2.0000      -0.891000       -24.2454
  38   2.0000      -0.853490       -23.2246
  39   2.0000      -0.841893       -22.9091
  40   2.0000      -0.837839       -22.7988
  41   2.0000      -0.836709       -22.7680
  42   2.0000      -0.755886       -20.5687
  43   2.0000      -0.735376       -20.0106
  44   2.0000      -0.732916       -19.9437
  45   2.0000      -0.698449       -19.0058
  46   2.0000      -0.689669       -18.7669
  47   2.0000      -0.680152       -18.5079
  48   2.0000      -0.677680       -18.4406
  49   2.0000      -0.668173       -18.1819
  50   2.0000      -0.653713       -17.7884
  51   2.0000      -0.640694       -17.4342
  52   2.0000      -0.638298       -17.3690
  53   2.0000      -0.617737       -16.8095
  54   2.0000      -0.609647       -16.5893
  55   2.0000      -0.607622       -16.5342
  56   2.0000      -0.604232       -16.4420
  57   2.0000      -0.589686       -16.0462
  58   2.0000      -0.578931       -15.7535
  59   2.0000      -0.570222       -15.5165
  60   2.0000      -0.567247       -15.4356
  61   2.0000      -0.559471       -15.2240
  62   2.0000      -0.542389       -14.7591
  63   2.0000      -0.536315       -14.5939
  64   2.0000      -0.523163       -14.2360
  65   2.0000      -0.516130       -14.0446
  66   2.0000      -0.503136       -13.6910
  67   2.0000      -0.501431       -13.6446
  68   2.0000      -0.488508       -13.2930
  69   2.0000      -0.471377       -12.8268
  70   2.0000      -0.452387       -12.3101
  71   2.0000      -0.449195       -12.2232
  72   2.0000      -0.356601        -9.7036
  73   2.0000      -0.352239        -9.5849
  74   2.0000      -0.329338        -8.9617
  75   2.0000      -0.325459        -8.8562
  76   2.0000      -0.318301        -8.6614
  77   0.0000       0.090485         2.4622
  78   0.0000       0.104481         2.8431
  79   0.0000       0.113002         3.0749
  80   0.0000       0.126790         3.4501
  81   0.0000       0.128671         3.5013

MULLIKEN ATOMIC CHARGES
-----------------------
   0 C :   -0.272809
   1 C :    0.018427
   2 O :   -0.314579
   3 C :    0.385297
   4 O :   -0.377320
   5 C :   -0.167305
   6 C :    0.131985
   7 C :   -0.339606
   8 N :   -0.137744
   9 C :    0.207958
  10 S :   -0.442764
  11 N :   -0.220950
  12 C :    0.077707
  13 C :    0.015563
  14 C :   -0.188711
  15 C :   -0.131406
  16 C :   -0.277302
  17 C :    0.315258
  18 O :   -0.356883
  19 C :   -0.280131
  20 H :    0.085748
  21 H :    0.095557
  22 H :    0.111417
  23 H :    0.099375
  24 H :    0.127176
  25 H :    0.121924
  26 H :    0.143198
  27 H :    0.124425
  28 H :    0.195796
  29 H :    0.200711
  30 H :    0.165170
  31 H :    0.165243
  32 H :    0.163923
  33 H :    0.133184
  34 H :    0.241926
  35 H :    0.180541
Sum of atomic charges:   -0.0000000

LOEWDIN ATOMIC CHARGES
----------------------
   0 C :    0.104397
   1 C :   -0.018056
   2 O :    0.311897
   3 C :   -0.418492
   4 O :    0.126846
   5 C :   -0.079321
   6 C :   -0.109125
   7 C :    0.123667
   8 N :    0.400504
   9 C :   -0.455493
  10 S :   -0.039305
  11 N :    0.397468
  12 C :   -0.043491
  13 C :   -0.042972
  14 C :    0.024203
  15 C :    0.046291
  16 C :   -0.000345
  17 C :   -0.194101
  18 O :    0.394885
  19 C :    0.027346
  20 H :   -0.035477
  21 H :   -0.025106
  22 H :   -0.023219
  23 H :   -0.040725
  24 H :   -0.020034
  25 H :   -0.010151
  26 H :   -0.009468
  27 H :   -0.016494
  28 H :   -0.058377
  29 H :   -0.063712
  30 H :   -0.002068
  31 H :   -0.021763
  32 H :   -0.018132
  33 H :   -0.034471
  34 H :   -0.152722
  35 H :   -0.024883

  Mayer bond orders larger than 0.100000
B(  0-C ,  1-C ) :   0.9744 B(  0-C , 20-H ) :   0.9772 B(  0-C , 21-H ) :   0.9757
B(  0-C , 22-H ) :   0.9800 B(  1-C ,  2-O ) :   0.8953 B(  1-C , 23-H ) :   0.9591
B(  1-C , 24-H ) :   0.9783 B(  2-O ,  3-C ) :   1.1759 B(  3-C ,  4-O ) :   2.0959
B(  3-C ,  5-C ) :   0.9128 B(  5-C ,  6-C ) :   1.7038 B(  5-C , 12-C ) :   0.9599
B(  6-C ,  7-C ) :   0.9435 B(  6-C ,  8-N ) :   1.1081 B(  7-C , 25-H ) :   0.9825
B(  7-C , 26-H ) :   0.9702 B(  7-C , 27-H ) :   0.9662 B(  8-N ,  9-C ) :   1.2004
B(  8-N , 28-H ) :   0.9530 B(  9-C , 10-S ) :   1.6088 B(  9-C , 11-N ) :   1.2842
B( 11-N , 12-C ) :   0.9941 B( 11-N , 29-H ) :   0.9475 B( 12-C , 13-C ) :   0.9426
B( 12-C , 30-H ) :   0.9975 B( 13-C , 14-C ) :   1.3883 B( 13-C , 19-C ) :   1.3395
B( 14-C , 15-C ) :   1.3988 B( 14-C , 31-H ) :   0.9629 B( 15-C , 16-C ) :   1.3621
B( 15-C , 32-H ) :   0.9697 B( 16-C , 17-C ) :   1.3298 B( 16-C , 33-H ) :   0.9842
B( 17-C , 18-O ) :   1.1109 B( 17-C , 19-C ) :   1.3682 B( 18-O , 34-H ) :   0.9789
B( 19-C , 35-H ) :   0.9564

MP2 TOTAL ENERGY:    -1274.327714245 Eh
FINAL SINGLE POINT ENERGY     -1274.327714245381

DIPOLE MOMENT
-------------
                                X             Y             Z
Electronic contribution:     11.18763       5.33189       7.87574
Nuclear contribution   :    -12.76606      -6.44377      -8.17664
                        -----------------------------------------
Total Dipole Moment    :     -1.57843      -1.11188      -0.30090
                        -----------------------------------------
Magnitude (a.u.)       :      1.95404
Magnitude (Debye)      :      4.96677

Rotational constants in cm-1:     0.011744     0.009243     0.006828
Rotational constants in MHz :   352.064246   277.101515   204.689583

                             ****ORCA TERMINATED NORMALLY****
TOTAL RUN TIME: 0 days 1 hours 47 minutes 14 seconds 521 msec
