                         Program Version 5.0.0 -  RELEASE  -
|  1> ! ri-mp2 cc-pvtz cc-pvtz/c TightSCF NoKeepInts
|  2>
|  3> %scf
|  4>   MaxCore 4096
|  5> end
|  6> *xyz  0  1
|  7>     C       15.2814808   13.9236504   15.3095637
|  8>     C       15.7758062   14.2129526   16.7414036
|  9>     O       16.8665746   15.1520210   16.6989812
| 10>     C       16.6164070   16.4936266   16.6036662
| 11>     O       15.6245063   16.9337985   16.0486595
| 12>     C       17.4843699   17.3031368   17.5286658
| 13>     C       17.3993722   18.6557896   17.6064440
| 14>     C       16.4736799   19.5631441   16.8243470
| 15>     N       18.2567431   19.3651472   18.4528525
| 16>     C       19.2909015   18.8145284   19.1614815
| 17>     S       20.3234797   19.7391565   20.0641073
| 18>     N       19.4311472   17.4526919   19.0808510
| 19>     C       18.4874170   16.5397924   18.4106102
| 20>     C       17.7883777   15.6705958   19.4526156
| 21>     C       18.0780553   14.2960462   19.5435370
| 22>     C       17.4309365   13.4902976   20.4954288
| 23>     C       16.4889860   14.0639364   21.3663850
| 24>     C       16.2026626   15.4334991   21.2828192
| 25>     O       15.2948911   15.9905347   22.1233495
| 26>     C       16.8474220   16.2325280   20.3336851
| 27>     H       14.8225583   14.8111390   14.8573738
| 28>     H       14.5287703   13.1263029   15.3198785
| 29>     H       16.1129905   13.6012321   14.6709826
| 30>     H       14.9555879   14.5976200   17.3629455
| 31>     H       16.1291723   13.2755068   17.1895676
| 32>     H       15.4269056   19.3604337   17.0850195
| 33>     H       16.5811724   19.3895069   15.7461258
| 34>     H       16.6614910   20.6277790   17.0062770
| 35>     H       18.1693567   20.3663947   18.5232076
| 36>     H       20.1804539   17.0721541   19.6443666
| 37>     H       19.0768557   15.8859047   17.7525113
| 38>     H       18.8030450   13.8494421   18.8682259
| 39>     H       17.6611455   12.4280366   20.5573957
| 40>     H       15.9875475   13.4463114   22.1043002
| 41>     H       14.9903938   15.2959522   22.7264248
| 42>     H       16.6163374   17.2914102   20.2899437
| 43> *
| 44>
| 45>                          ****END OF INPUT****

CARTESIAN COORDINATES (ANGSTROEM)
---------------------------------
  C     15.281481   13.923650   15.309564
  C     15.775806   14.212953   16.741404
  O     16.866575   15.152021   16.698981
  C     16.616407   16.493627   16.603666
  O     15.624506   16.933799   16.048659
  C     17.484370   17.303137   17.528666
  C     17.399372   18.655790   17.606444
  C     16.473680   19.563144   16.824347
  N     18.256743   19.365147   18.452852
  C     19.290902   18.814528   19.161482
  S     20.323480   19.739156   20.064107
  N     19.431147   17.452692   19.080851
  C     18.487417   16.539792   18.410610
  C     17.788378   15.670596   19.452616
  C     18.078055   14.296046   19.543537
  C     17.430937   13.490298   20.495429
  C     16.488986   14.063936   21.366385
  C     16.202663   15.433499   21.282819
  O     15.294891   15.990535   22.123349
  C     16.847422   16.232528   20.333685
  H     14.822558   14.811139   14.857374
  H     14.528770   13.126303   15.319878
  H     16.112990   13.601232   14.670983
  H     14.955588   14.597620   17.362945
  H     16.129172   13.275507   17.189568
  H     15.426906   19.360434   17.085020
  H     16.581172   19.389507   15.746126
  H     16.661491   20.627779   17.006277
  H     18.169357   20.366395   18.523208
  H     20.180454   17.072154   19.644367
  H     19.076856   15.885905   17.752511
  H     18.803045   13.849442   18.868226
  H     17.661145   12.428037   20.557396
  H     15.987547   13.446311   22.104300
  H     14.990394   15.295952   22.726425
  H     16.616337   17.291410   20.289944

 Total Charge           Charge          ....    0
 Multiplicity           Mult            ....    1
 Number of Electrons    NEL             ....  154
 Basis Dimension        Dim             ....  828

ORBITAL ENERGIES
----------------

  NO   OCC          E(Eh)            E(eV)
   0   2.0000     -91.889068     -2500.4287
   1   2.0000     -20.597609      -560.4894
   2   2.0000     -20.594732      -560.4112
   3   2.0000     -20.544697      -559.0496
   4   2.0000     -15.629289      -425.2946
   5   2.0000     -15.608433      -424.7271
   6   2.0000     -11.395809      -310.0957
   7   2.0000     -11.384163      -309.7788
   8   2.0000     -11.335843      -308.4640
   9   2.0000     -11.314939      -307.8951
  10   2.0000     -11.309484      -307.7467
  11   2.0000     -11.297584      -307.4229
  12   2.0000     -11.260689      -306.4189
  13   2.0000     -11.259027      -306.3737
  14   2.0000     -11.256418      -306.3027
  15   2.0000     -11.252569      -306.1980
  16   2.0000     -11.243977      -305.9642
  17   2.0000     -11.239263      -305.8359
  18   2.0000     -11.239027      -305.8295
  19   2.0000     -11.218662      -305.2753
  20   2.0000      -8.894130      -242.0216
  21   2.0000      -6.575704      -178.9340
  22   2.0000      -6.573700      -178.8795
  23   2.0000      -6.573112      -178.8635
  24   2.0000      -1.449726       -39.4490
  25   2.0000      -1.417255       -38.5655
  26   2.0000      -1.355120       -36.8747
  27   2.0000      -1.340290       -36.4711
  28   2.0000      -1.238798       -33.7094
  29   2.0000      -1.158407       -31.5218
  30   2.0000      -1.120385       -30.4872
  31   2.0000      -1.043196       -28.3868
  32   2.0000      -1.033826       -28.1318
  33   2.0000      -1.016132       -27.6504
  34   2.0000      -0.995257       -27.0823
  35   2.0000      -0.983864       -26.7723
  36   2.0000      -0.922994       -25.1160
  37   2.0000      -0.889509       -24.2048
  38   2.0000      -0.847598       -23.0643
  39   2.0000      -0.838767       -22.8240
  40   2.0000      -0.834955       -22.7203
  41   2.0000      -0.821023       -22.3412
  42   2.0000      -0.755505       -20.5583
  43   2.0000      -0.732449       -19.9310
  44   2.0000      -0.722375       -19.6568
  45   2.0000      -0.696569       -18.9546
  46   2.0000      -0.688913       -18.7463
  47   2.0000      -0.680491       -18.5171
  48   2.0000      -0.670445       -18.2437
  49   2.0000      -0.654169       -17.8009
  50   2.0000      -0.647714       -17.6252
  51   2.0000      -0.645959       -17.5774
  52   2.0000      -0.632405       -17.2086
  53   2.0000      -0.608127       -16.5480
  54   2.0000      -0.604674       -16.4540
  55   2.0000      -0.599433       -16.3114
  56   2.0000      -0.599265       -16.3068
  57   2.0000      -0.581222       -15.8159
  58   2.0000      -0.574083       -15.6216
  59   2.0000      -0.570870       -15.5342
  60   2.0000      -0.563901       -15.3445
  61   2.0000      -0.539014       -14.6673
  62   2.0000      -0.535524       -14.5724
  63   2.0000      -0.525749       -14.3063
  64   2.0000      -0.517631       -14.0855
  65   2.0000      -0.513351       -13.9690
  66   2.0000      -0.501406       -13.6440
  67   2.0000      -0.498555       -13.5664
  68   2.0000      -0.486666       -13.2429
  69   2.0000      -0.463991       -12.6258
  70   2.0000      -0.455514       -12.3952
  71   2.0000      -0.443935       -12.0801
  72   2.0000      -0.354243        -9.6394
  73   2.0000      -0.350318        -9.5326
  74   2.0000      -0.328535        -8.9399
  75   2.0000      -0.322446        -8.7742
  76   2.0000      -0.316325        -8.6076
  77   0.0000       0.074003         2.0137
  78   0.0000       0.105048         2.8585
  79   0.0000       0.124785         3.3956
  80   0.0000       0.131923         3.5898
  81   0.0000       0.137668         3.7461

MULLIKEN ATOMIC CHARGES
-----------------------
   0 C :   -0.284383
   1 C :    0.044360
   2 O :   -0.367463
   3 C :    0.455173
   4 O :   -0.426677
   5 C :   -0.214468
   6 C :    0.153899
   7 C :   -0.272638
   8 N :   -0.121724
   9 C :    0.212633
  10 S :   -0.440049
  11 N :   -0.205814
  12 C :    0.063311
  13 C :    0.060970
  14 C :   -0.193588
  15 C :   -0.127299
  16 C :   -0.281073
  17 C :    0.315874
  18 O :   -0.356142
  19 C :   -0.267711
  20 H :    0.121814
  21 H :    0.091043
  22 H :    0.090185
  23 H :    0.094405
  24 H :    0.105471
  25 H :    0.132710
  26 H :    0.129291
  27 H :    0.095597
  28 H :    0.197369
  29 H :    0.194785
  30 H :    0.149816
  31 H :    0.150690
  32 H :    0.162154
  33 H :    0.130854
  34 H :    0.240938
  35 H :    0.165687
Sum of atomic charges:   -0.0000000

LOEWDIN ATOMIC CHARGES
----------------------
   0 C :    0.104879
   1 C :   -0.015371
   2 O :    0.299955
   3 C :   -0.413543
   4 O :    0.106832
   5 C :   -0.095218
   6 C :   -0.059283
   7 C :    0.131202
   8 N :    0.406584
   9 C :   -0.456286
  10 S :   -0.035418
  11 N :    0.396242
  12 C :   -0.052259
  13 C :   -0.037692
  14 C :    0.014591
  15 C :    0.038842
  16 C :   -0.002402
  17 C :   -0.189619
  18 O :    0.395523
  19 C :    0.030940
  20 H :   -0.026052
  21 H :   -0.029691
  22 H :   -0.029636
  23 H :   -0.028366
  24 H :   -0.025858
  25 H :   -0.004692
  26 H :   -0.004293
  27 H :   -0.023238
  28 H :   -0.057551
  29 H :   -0.064709
  30 H :   -0.010227
  31 H :   -0.030019
  32 H :   -0.021234
  33 H :   -0.035502
  34 H :   -0.153697
  35 H :   -0.023733

  Mayer bond orders larger than 0.100000
B(  0-C ,  1-C ) :   0.9787 B(  0-C , 20-H ) :   0.9732 B(  0-C , 21-H ) :   0.9782
B(  0-C , 22-H ) :   0.9760 B(  1-C ,  2-O ) :   0.8859 B(  1-C , 23-H ) :   0.9717
B(  1-C , 24-H ) :   0.9804 B(  2-O ,  3-C ) :   1.1308 B(  3-C ,  4-O ) :   1.9698
B(  3-C ,  5-C ) :   1.0638 B(  5-C ,  6-C ) :   1.6526 B(  5-C , 12-C ) :   0.9725
B(  6-C ,  7-C ) :   0.9670 B(  6-C ,  8-N ) :   1.1614 B(  7-C , 25-H ) :   0.9593
B(  7-C , 26-H ) :   0.9614 B(  7-C , 27-H ) :   0.9908 B(  8-N ,  9-C ) :   1.1829
B(  8-N , 28-H ) :   0.9478 B(  9-C , 10-S ) :   1.6068 B(  9-C , 11-N ) :   1.3060
B( 11-N , 12-C ) :   0.9820 B( 11-N , 29-H ) :   0.9516 B( 12-C , 13-C ) :   0.9353
B( 12-C , 30-H ) :   1.0022 B( 13-C , 14-C ) :   1.3531 B( 13-C , 19-C ) :   1.3830
B( 14-C , 15-C ) :   1.3888 B( 14-C , 31-H ) :   0.9727 B( 15-C , 16-C ) :   1.3639
B( 15-C , 32-H ) :   0.9703 B( 16-C , 17-C ) :   1.3309 B( 16-C , 33-H ) :   0.9847
B( 17-C , 18-O ) :   1.1110 B( 17-C , 19-C ) :   1.3714 B( 18-O , 34-H ) :   0.9796
B( 19-C , 35-H ) :   0.9582

MP2 TOTAL ENERGY:    -1274.341743046 Eh
FINAL SINGLE POINT ENERGY     -1274.341743045988

DIPOLE MOMENT
-------------
                                X             Y             Z
Electronic contribution:     10.28520       9.98972       8.89116
Nuclear contribution   :    -11.32699     -11.60468      -9.10355
                        -----------------------------------------
Total Dipole Moment    :     -1.04179      -1.61496      -0.21239
                        -----------------------------------------
Magnitude (a.u.)       :      1.93353
Magnitude (Debye)      :      4.91465

Rotational constants in cm-1:     0.011727     0.008687     0.006126
Rotational constants in MHz :   351.557939   260.426128   183.650434

                             ****ORCA TERMINATED NORMALLY****
TOTAL RUN TIME: 0 days 2 hours 25 minutes 10 seconds 348 msec
