                         Program Version 5.0.0 -  RELEASE  -
|  1> ! ri-mp2 cc-pvtz cc-pvtz/c TightSCF NoKeepInts
|  2>
|  3> %scf
|  4>   MaxCore 4096
|  5> end
|  6> *xyz  0  1
|  7>     C       15.6953336   13.1984386   16.3636241
|  8>     C       15.6559318   14.6536966   16.8574831
|  9>     O       16.8619453   15.2939747   16.4021229
| 10>     C       16.8378902   16.6487950   16.2498473
| 11>     O       16.0123320   17.1685070   15.5200487
| 12>     C       17.5509903   17.3793628   17.3573797
| 13>     C       17.4602418   18.7252002   17.5180491
| 14>     C       16.6287281   19.6957932   16.7064659
| 15>     N       18.2286400   19.3672349   18.4942777
| 16>     C       19.2312261   18.7727812   19.2132189
| 17>     S       20.2035229   19.6327640   20.2381911
| 18>     N       19.3959212   17.4237623   19.0287674
| 19>     C       18.4656681   16.5570766   18.2830345
| 20>     C       17.6888659   15.6931734   19.2709590
| 21>     C       17.9657212   14.3171956   19.3802001
| 22>     C       17.2501694   13.5135731   20.2835946
| 23>     C       16.2543834   14.0911263   21.0896178
| 24>     C       15.9835610   15.4627550   20.9914035
| 25>     O       15.0234410   16.0236132   21.7685109
| 26>     C       16.6949082   16.2596072   20.0891121
| 27>     H       14.7855089   12.6654105   16.6648847
| 28>     H       16.5592822   12.6711638   16.7864986
| 29>     H       15.7681034   13.1642183   15.2693126
| 30>     H       14.7717993   15.1436368   16.4265621
| 31>     H       15.5709904   14.6915277   17.9500930
| 32>     H       15.5638205   19.4379655   16.7699906
| 33>     H       16.9121005   19.6549525   15.6469395
| 34>     H       16.7370149   20.7353883   17.0371630
| 35>     H       18.1273135   20.3600235   18.6333078
| 36>     H       20.1250957   17.0076487   19.5936352
| 37>     H       19.0694304   15.8943625   17.6468834
| 38>     H       18.7327162   13.8670051   18.7553597
| 39>     H       17.4694071   12.4496944   20.3583685
| 40>     H       15.7002280   13.4747289   21.7900606
| 41>     H       14.6897902   15.3355515   22.3639463
| 42>     H       16.4749771   17.3202913   20.0350859
| 43> *
| 44>
| 45>                          ****END OF INPUT****

CARTESIAN COORDINATES (ANGSTROEM)
---------------------------------
  C     15.695334   13.198439   16.363624
  C     15.655932   14.653697   16.857483
  O     16.861945   15.293975   16.402123
  C     16.837890   16.648795   16.249847
  O     16.012332   17.168507   15.520049
  C     17.550990   17.379363   17.357380
  C     17.460242   18.725200   17.518049
  C     16.628728   19.695793   16.706466
  N     18.228640   19.367235   18.494278
  C     19.231226   18.772781   19.213219
  S     20.203523   19.632764   20.238191
  N     19.395921   17.423762   19.028767
  C     18.465668   16.557077   18.283034
  C     17.688866   15.693173   19.270959
  C     17.965721   14.317196   19.380200
  C     17.250169   13.513573   20.283595
  C     16.254383   14.091126   21.089618
  C     15.983561   15.462755   20.991404
  O     15.023441   16.023613   21.768511
  C     16.694908   16.259607   20.089112
  H     14.785509   12.665410   16.664885
  H     16.559282   12.671164   16.786499
  H     15.768103   13.164218   15.269313
  H     14.771799   15.143637   16.426562
  H     15.570990   14.691528   17.950093
  H     15.563821   19.437966   16.769991
  H     16.912101   19.654952   15.646939
  H     16.737015   20.735388   17.037163
  H     18.127313   20.360024   18.633308
  H     20.125096   17.007649   19.593635
  H     19.069430   15.894362   17.646883
  H     18.732716   13.867005   18.755360
  H     17.469407   12.449694   20.358369
  H     15.700228   13.474729   21.790061
  H     14.689790   15.335551   22.363946
  H     16.474977   17.320291   20.035086

 Total Charge           Charge          ....    0
 Multiplicity           Mult            ....    1
 Number of Electrons    NEL             ....  154
 Basis Dimension        Dim             ....  828

ORBITAL ENERGIES
----------------

  NO   OCC          E(Eh)            E(eV)
   0   2.0000     -91.890635     -2500.4713
   1   2.0000     -20.601172      -560.5864
   2   2.0000     -20.584766      -560.1400
   3   2.0000     -20.546781      -559.1063
   4   2.0000     -15.631088      -425.3435
   5   2.0000     -15.609761      -424.7632
   6   2.0000     -11.392975      -310.0186
   7   2.0000     -11.385388      -309.8122
   8   2.0000     -11.337521      -308.5096
   9   2.0000     -11.319117      -308.0088
  10   2.0000     -11.311670      -307.8062
  11   2.0000     -11.292193      -307.2762
  12   2.0000     -11.263639      -306.4992
  13   2.0000     -11.260370      -306.4102
  14   2.0000     -11.259847      -306.3960
  15   2.0000     -11.253302      -306.2179
  16   2.0000     -11.248066      -306.0754
  17   2.0000     -11.242766      -305.9312
  18   2.0000     -11.242395      -305.9211
  19   2.0000     -11.225367      -305.4578
  20   2.0000      -8.895674      -242.0636
  21   2.0000      -6.577242      -178.9759
  22   2.0000      -6.575244      -178.9215
  23   2.0000      -6.574651      -178.9053
  24   2.0000      -1.449164       -39.4338
  25   2.0000      -1.420863       -38.6636
  26   2.0000      -1.352510       -36.8037
  27   2.0000      -1.342153       -36.5218
  28   2.0000      -1.240609       -33.7587
  29   2.0000      -1.161889       -31.6166
  30   2.0000      -1.121446       -30.5161
  31   2.0000      -1.045835       -28.4586
  32   2.0000      -1.034583       -28.1524
  33   2.0000      -1.020076       -27.7577
  34   2.0000      -0.997555       -27.1448
  35   2.0000      -0.985730       -26.8231
  36   2.0000      -0.925250       -25.1773
  37   2.0000      -0.879627       -23.9359
  38   2.0000      -0.849018       -23.1029
  39   2.0000      -0.841835       -22.9075
  40   2.0000      -0.838243       -22.8098
  41   2.0000      -0.826494       -22.4901
  42   2.0000      -0.761598       -20.7241
  43   2.0000      -0.736047       -20.0289
  44   2.0000      -0.724414       -19.7123
  45   2.0000      -0.700236       -19.0544
  46   2.0000      -0.690846       -18.7989
  47   2.0000      -0.678690       -18.4681
  48   2.0000      -0.672908       -18.3108
  49   2.0000      -0.656188       -17.8558
  50   2.0000      -0.648195       -17.6383
  51   2.0000      -0.643902       -17.5215
  52   2.0000      -0.626211       -17.0401
  53   2.0000      -0.625084       -17.0094
  54   2.0000      -0.611651       -16.6439
  55   2.0000      -0.603584       -16.4244
  56   2.0000      -0.600992       -16.3538
  57   2.0000      -0.581445       -15.8219
  58   2.0000      -0.572163       -15.5693
  59   2.0000      -0.565943       -15.4001
  60   2.0000      -0.556809       -15.1516
  61   2.0000      -0.540694       -14.7130
  62   2.0000      -0.533521       -14.5179
  63   2.0000      -0.529327       -14.4037
  64   2.0000      -0.517621       -14.0852
  65   2.0000      -0.515819       -14.0361
  66   2.0000      -0.505166       -13.7463
  67   2.0000      -0.497978       -13.5507
  68   2.0000      -0.487889       -13.2761
  69   2.0000      -0.464680       -12.6446
  70   2.0000      -0.455992       -12.4082
  71   2.0000      -0.445226       -12.1152
  72   2.0000      -0.356958        -9.7133
  73   2.0000      -0.354011        -9.6331
  74   2.0000      -0.330514        -8.9937
  75   2.0000      -0.326475        -8.8838
  76   2.0000      -0.317750        -8.6464
  77   0.0000       0.069022         1.8782
  78   0.0000       0.101930         2.7737
  79   0.0000       0.122688         3.3385
  80   0.0000       0.127993         3.4829
  81   0.0000       0.133378         3.6294

MULLIKEN ATOMIC CHARGES
-----------------------
   0 C :   -0.263482
   1 C :    0.011661
   2 O :   -0.384962
   3 C :    0.512150
   4 O :   -0.412729
   5 C :   -0.281734
   6 C :    0.159476
   7 C :   -0.269269
   8 N :   -0.124236
   9 C :    0.211812
  10 S :   -0.437147
  11 N :   -0.201546
  12 C :    0.053328
  13 C :    0.020072
  14 C :   -0.163272
  15 C :   -0.135084
  16 C :   -0.273943
  17 C :    0.304759
  18 O :   -0.356339
  19 C :   -0.242080
  20 H :    0.087123
  21 H :    0.089148
  22 H :    0.104606
  23 H :    0.118808
  24 H :    0.115892
  25 H :    0.130643
  26 H :    0.133055
  27 H :    0.094926
  28 H :    0.198346
  29 H :    0.193395
  30 H :    0.149310
  31 H :    0.151153
  32 H :    0.163648
  33 H :    0.133324
  34 H :    0.241651
  35 H :    0.167536
Sum of atomic charges:   -0.0000000

LOEWDIN ATOMIC CHARGES
----------------------
   0 C :    0.108612
   1 C :   -0.016554
   2 O :    0.291797
   3 C :   -0.418124
   4 O :    0.114979
   5 C :   -0.098571
   6 C :   -0.057880
   7 C :    0.131211
   8 N :    0.406975
   9 C :   -0.456807
  10 S :   -0.033181
  11 N :    0.396302
  12 C :   -0.053142
  13 C :   -0.038925
  14 C :    0.014659
  15 C :    0.041537
  16 C :   -0.001975
  17 C :   -0.190755
  18 O :    0.396670
  19 C :    0.030235
  20 H :   -0.025981
  21 H :   -0.031380
  22 H :   -0.024332
  23 H :   -0.029209
  24 H :   -0.033278
  25 H :   -0.005021
  26 H :   -0.003379
  27 H :   -0.023268
  28 H :   -0.057365
  29 H :   -0.065028
  30 H :   -0.007889
  31 H :   -0.029653
  32 H :   -0.019953
  33 H :   -0.034477
  34 H :   -0.152770
  35 H :   -0.024082

  Mayer bond orders larger than 0.100000
B(  0-C ,  1-C ) :   0.9808 B(  0-C , 20-H ) :   0.9762 B(  0-C , 21-H ) :   0.9793
B(  0-C , 22-H ) :   0.9787 B(  1-C ,  2-O ) :   0.8710 B(  1-C , 23-H ) :   0.9765
B(  1-C , 24-H ) :   0.9641 B(  2-O ,  3-C ) :   1.1083 B(  3-C ,  4-O ) :   2.0100
B(  3-C ,  5-C ) :   1.0687 B(  5-C ,  6-C ) :   1.6505 B(  5-C , 12-C ) :   0.9715
B(  6-C ,  7-C ) :   0.9683 B(  6-C ,  8-N ) :   1.1580 B(  7-C , 25-H ) :   0.9611
B(  7-C , 26-H ) :   0.9588 B(  7-C , 27-H ) :   0.9899 B(  8-N ,  9-C ) :   1.1804
B(  8-N , 28-H ) :   0.9478 B(  9-C , 10-S ) :   1.6109 B(  9-C , 11-N ) :   1.3045
B( 11-N , 12-C ) :   0.9754 B( 11-N , 29-H ) :   0.9533 B( 12-C , 13-C ) :   0.9421
B( 12-C , 30-H ) :   1.0020 B( 13-C , 14-C ) :   1.3568 B( 13-C , 19-C ) :   1.3781
B( 14-C , 15-C ) :   1.3894 B( 14-C , 31-H ) :   0.9729 B( 15-C , 16-C ) :   1.3624
B( 15-C , 32-H ) :   0.9699 B( 16-C , 17-C ) :   1.3286 B( 16-C , 33-H ) :   0.9842
B( 17-C , 18-O ) :   1.1145 B( 17-C , 19-C ) :   1.3766 B( 18-O , 34-H ) :   0.9790
B( 19-C , 35-H ) :   0.9569

MP2 TOTAL ENERGY:    -1274.333374080 Eh
FINAL SINGLE POINT ENERGY     -1274.333374079876

DIPOLE MOMENT
-------------
                                X             Y             Z
Electronic contribution:      9.59013      10.93035       6.13522
Nuclear contribution   :    -10.68278     -12.39687      -6.01877
                        -----------------------------------------
Total Dipole Moment    :     -1.09266      -1.46652       0.11645
                        -----------------------------------------
Magnitude (a.u.)       :      1.83252
Magnitude (Debye)      :      4.65790

Rotational constants in cm-1:     0.012423     0.008749     0.006356
Rotational constants in MHz :   372.440189   262.296883   190.548972

                             ****ORCA TERMINATED NORMALLY****
TOTAL RUN TIME: 0 days 2 hours 6 minutes 5 seconds 594 msec
