                         Program Version 4.2.0 -  RELEASE  -
|  1> ! ri-mp2 cc-pvtz cc-pvtz/c TightSCF  NoKeepInts
|  2>
|  3> %scf
|  4>   MaxCore 4096
|  5> end
|  6> *xyz  0  1
|  7>     C       15.1728421   14.4375229   17.0584763
|  8>     C       16.4519335   13.9833402   16.3202991
|  9>     O       17.5267513   14.9382066   16.4611564
| 10>     C       17.3165005   16.2622852   16.1982984
| 11>     O       16.6239146   16.6161397   15.2594680
| 12>     C       17.7464377   17.1623703   17.3251363
| 13>     C       17.4932735   18.4963666   17.3277642
| 14>     C       16.7228711   19.2878181   16.2925769
| 15>     N       18.0116873   19.3048690   18.3443572
| 16>     C       18.9273817   18.8937133   19.2763697
| 17>     S       19.6164639   19.9452619   20.3510864
| 18>     N       19.2503251   17.5604865   19.2668714
| 19>     C       18.5522342   16.5318856   18.4737122
| 20>     C       17.6867889   15.6804299   19.3976686
| 21>     C       17.9719517   14.3142473   19.5821140
| 22>     C       17.1838712   13.5283939   20.4398006
| 23>     C       16.1049119   14.1140065   21.1238201
| 24>     C       15.8225257   15.4757110   20.9488697
| 25>     O       14.7810612   16.0438294   21.6069931
| 26>     C       16.6071004   16.2547039   20.0928035
| 27>     H       15.3719000   14.6076256   18.1214252
| 28>     H       14.4007609   13.6625222   16.9838243
| 29>     H       14.7592442   15.3573839   16.6275482
| 30>     H       16.7763868   13.0122855   16.7154756
| 31>     H       16.2192244   13.8518111   15.2550078
| 32>     H       17.2022939   19.2057593   15.3087516
| 33>     H       16.6470959   20.3539553   16.5362323
| 34>     H       15.7016278   18.8986214   16.1920154
| 35>     H       17.7910979   20.2878448   18.3590814
| 36>     H       19.9053526   17.2801087   19.9853268
| 37>     H       19.3206188   15.8854860   18.0267326
| 38>     H       18.8046002   13.8584525   19.0528869
| 39>     H       17.4114430   12.4722732   20.5739487
| 40>     H       15.4941395   13.5115648   21.7882266
| 41>     H       14.3945190   15.3666860   22.1823242
| 42>     H       16.3758677   17.3080320   19.9775501
| 43> *
| 44>
| 45>                          ****END OF INPUT****

CARTESIAN COORDINATES (ANGSTROEM)
---------------------------------
  C     15.172842   14.437523   17.058476
  C     16.451933   13.983340   16.320299
  O     17.526751   14.938207   16.461156
  C     17.316501   16.262285   16.198298
  O     16.623915   16.616140   15.259468
  C     17.746438   17.162370   17.325136
  C     17.493273   18.496367   17.327764
  C     16.722871   19.287818   16.292577
  N     18.011687   19.304869   18.344357
  C     18.927382   18.893713   19.276370
  S     19.616464   19.945262   20.351086
  N     19.250325   17.560486   19.266871
  C     18.552234   16.531886   18.473712
  C     17.686789   15.680430   19.397669
  C     17.971952   14.314247   19.582114
  C     17.183871   13.528394   20.439801
  C     16.104912   14.114007   21.123820
  C     15.822526   15.475711   20.948870
  O     14.781061   16.043829   21.606993
  C     16.607100   16.254704   20.092803
  H     15.371900   14.607626   18.121425
  H     14.400761   13.662522   16.983824
  H     14.759244   15.357384   16.627548
  H     16.776387   13.012286   16.715476
  H     16.219224   13.851811   15.255008
  H     17.202294   19.205759   15.308752
  H     16.647096   20.353955   16.536232
  H     15.701628   18.898621   16.192015
  H     17.791098   20.287845   18.359081
  H     19.905353   17.280109   19.985327
  H     19.320619   15.885486   18.026733
  H     18.804600   13.858453   19.052887
  H     17.411443   12.472273   20.573949
  H     15.494139   13.511565   21.788227
  H     14.394519   15.366686   22.182324
  H     16.375868   17.308032   19.977550

 Total Charge           Charge          ....    0
 Multiplicity           Mult            ....    1
 Number of Electrons    NEL             ....  154
 Basis Dimension        Dim             ....  828

ORBITAL ENERGIES
----------------

  NO   OCC          E(Eh)            E(eV)
   0   2.0000     -91.890202     -2500.4595
   1   2.0000     -20.598794      -560.5217
   2   2.0000     -20.590075      -560.2844
   3   2.0000     -20.543633      -559.0207
   4   2.0000     -15.630604      -425.3303
   5   2.0000     -15.609024      -424.7431
   6   2.0000     -11.394357      -310.0562
   7   2.0000     -11.384921      -309.7995
   8   2.0000     -11.337155      -308.4997
   9   2.0000     -11.316345      -307.9334
  10   2.0000     -11.310408      -307.7718
  11   2.0000     -11.298258      -307.4412
  12   2.0000     -11.261619      -306.4442
  13   2.0000     -11.259749      -306.3934
  14   2.0000     -11.257942      -306.3442
  15   2.0000     -11.252921      -306.2075
  16   2.0000     -11.245796      -306.0137
  17   2.0000     -11.240597      -305.8722
  18   2.0000     -11.240339      -305.8652
  19   2.0000     -11.221127      -305.3424
  20   2.0000      -8.895235      -242.0517
  21   2.0000      -6.576803      -178.9639
  22   2.0000      -6.574806      -178.9096
  23   2.0000      -6.574213      -178.8934
  24   2.0000      -1.447470       -39.3877
  25   2.0000      -1.418527       -38.6001
  26   2.0000      -1.351628       -36.7797
  27   2.0000      -1.341482       -36.5036
  28   2.0000      -1.239685       -33.7335
  29   2.0000      -1.159674       -31.5563
  30   2.0000      -1.121068       -30.5058
  31   2.0000      -1.044166       -28.4132
  32   2.0000      -1.032024       -28.0828
  33   2.0000      -1.017648       -27.6916
  34   2.0000      -0.997039       -27.1308
  35   2.0000      -0.985616       -26.8200
  36   2.0000      -0.924011       -25.1436
  37   2.0000      -0.895851       -24.3773
  38   2.0000      -0.847994       -23.0751
  39   2.0000      -0.840707       -22.8768
  40   2.0000      -0.836368       -22.7587
  41   2.0000      -0.815984       -22.2041
  42   2.0000      -0.749129       -20.3848
  43   2.0000      -0.733969       -19.9723
  44   2.0000      -0.722817       -19.6689
  45   2.0000      -0.698035       -18.9945
  46   2.0000      -0.690699       -18.7949
  47   2.0000      -0.675594       -18.3838
  48   2.0000      -0.669515       -18.2184
  49   2.0000      -0.663725       -18.0609
  50   2.0000      -0.649828       -17.6827
  51   2.0000      -0.642782       -17.4910
  52   2.0000      -0.635359       -17.2890
  53   2.0000      -0.617579       -16.8052
  54   2.0000      -0.609099       -16.5744
  55   2.0000      -0.601948       -16.3798
  56   2.0000      -0.600010       -16.3271
  57   2.0000      -0.579597       -15.7716
  58   2.0000      -0.571295       -15.5457
  59   2.0000      -0.565903       -15.3990
  60   2.0000      -0.551382       -15.0039
  61   2.0000      -0.544223       -14.8091
  62   2.0000      -0.532841       -14.4993
  63   2.0000      -0.530871       -14.4457
  64   2.0000      -0.526780       -14.3344
  65   2.0000      -0.514813       -14.0088
  66   2.0000      -0.502925       -13.6853
  67   2.0000      -0.501305       -13.6412
  68   2.0000      -0.477960       -13.0060
  69   2.0000      -0.465134       -12.6569
  70   2.0000      -0.453287       -12.3346
  71   2.0000      -0.444143       -12.0857
  72   2.0000      -0.356255        -9.6942
  73   2.0000      -0.351528        -9.5656
  74   2.0000      -0.329543        -8.9673
  75   2.0000      -0.324563        -8.8318
  76   2.0000      -0.317135        -8.6297
  77   0.0000       0.071139         1.9358
  78   0.0000       0.104993         2.8570
  79   0.0000       0.123315         3.3556
  80   0.0000       0.130226         3.5436
  81   0.0000       0.136253         3.7076

MULLIKEN ATOMIC CHARGES
-----------------------
   0 C :   -0.326836
   1 C :    0.030959
   2 O :   -0.384483
   3 C :    0.476631
   4 O :   -0.426247
   5 C :   -0.219858
   6 C :    0.149483
   7 C :   -0.270986
   8 N :   -0.123342
   9 C :    0.205871
  10 S :   -0.436106
  11 N :   -0.198680
  12 C :    0.042233
  13 C :    0.037837
  14 C :   -0.173461
  15 C :   -0.137339
  16 C :   -0.270177
  17 C :    0.300237
  18 O :   -0.359191
  19 C :   -0.245424
  20 H :    0.112125
  21 H :    0.106415
  22 H :    0.116443
  23 H :    0.113496
  24 H :    0.120721
  25 H :    0.133405
  26 H :    0.095113
  27 H :    0.130624
  28 H :    0.198461
  29 H :    0.192579
  30 H :    0.152418
  31 H :    0.156194
  32 H :    0.161570
  33 H :    0.131965
  34 H :    0.240919
  35 H :    0.166430
Sum of atomic charges:   -0.0000000

LOEWDIN ATOMIC CHARGES
----------------------
   0 C :    0.107021
   1 C :   -0.014702
   2 O :    0.290700
   3 C :   -0.417662
   4 O :    0.105305
   5 C :   -0.096009
   6 C :   -0.057462
   7 C :    0.131479
   8 N :    0.406794
   9 C :   -0.457745
  10 S :   -0.032972
  11 N :    0.396767
  12 C :   -0.052250
  13 C :   -0.039895
  14 C :    0.015423
  15 C :    0.039223
  16 C :   -0.002042
  17 C :   -0.191420
  18 O :    0.396512
  19 C :    0.031529
  20 H :   -0.028307
  21 H :   -0.025137
  22 H :   -0.027419
  23 H :   -0.024870
  24 H :   -0.028328
  25 H :   -0.003258
  26 H :   -0.023312
  27 H :   -0.005353
  28 H :   -0.057522
  29 H :   -0.064805
  30 H :   -0.008029
  31 H :   -0.029000
  32 H :   -0.020821
  33 H :   -0.035072
  34 H :   -0.153392
  35 H :   -0.023970

  Mayer bond orders larger than 0.100000
B(  0-C ,  1-C ) :   0.9558 B(  0-C , 20-H ) :   0.9689 B(  0-C , 21-H ) :   0.9782
B(  0-C , 22-H ) :   0.9736 B(  1-C ,  2-O ) :   0.8847 B(  1-C , 23-H ) :   0.9821
B(  1-C , 24-H ) :   0.9855 B(  2-O ,  3-C ) :   1.1230 B(  3-C ,  4-O ) :   1.9865
B(  3-C ,  5-C ) :   1.0662 B(  5-C ,  6-C ) :   1.6530 B(  5-C , 12-C ) :   0.9703
B(  6-C ,  7-C ) :   0.9683 B(  6-C ,  8-N ) :   1.1561 B(  7-C , 25-H ) :   0.9585
B(  7-C , 26-H ) :   0.9898 B(  7-C , 27-H ) :   0.9622 B(  8-N ,  9-C ) :   1.1795
B(  8-N , 28-H ) :   0.9480 B(  9-C , 10-S ) :   1.6143 B(  9-C , 11-N ) :   1.3022
B( 11-N , 12-C ) :   0.9848 B( 11-N , 29-H ) :   0.9532 B( 12-C , 13-C ) :   0.9355
B( 12-C , 30-H ) :   1.0030 B( 13-C , 14-C ) :   1.3627 B( 13-C , 19-C ) :   1.3817
B( 14-C , 15-C ) :   1.3853 B( 14-C , 31-H ) :   0.9694 B( 15-C , 16-C ) :   1.3626
B( 15-C , 32-H ) :   0.9712 B( 16-C , 17-C ) :   1.3316 B( 16-C , 33-H ) :   0.9846
B( 17-C , 18-O ) :   1.1129 B( 17-C , 19-C ) :   1.3758 B( 18-O , 34-H ) :   0.9796
B( 19-C , 35-H ) :   0.9571

MP2 TOTAL ENERGY:    -1274.341630233 Eh
FINAL SINGLE POINT ENERGY     -1274.341630233166

DIPOLE MOMENT
-------------
                                X             Y             Z
Electronic contribution:      9.92767       9.32159       6.03432
Nuclear contribution   :    -10.94607     -10.99182      -6.14069
                        -----------------------------------------
Total Dipole Moment    :     -1.01840      -1.67023      -0.10637
                        -----------------------------------------
Magnitude (a.u.)       :      1.95912
Magnitude (Debye)      :      4.97968

Rotational constants in cm-1:     0.012206     0.009291     0.006528
Rotational constants in MHz :   365.939138   278.539159   195.703619

                             ****ORCA TERMINATED NORMALLY****
TOTAL RUN TIME: 0 days 1 hours 45 minutes 24 seconds 826 msec
