                         Program Version 4.2.0 -  RELEASE  -
|  1> ! ri-mp2 cc-pvtz cc-pvtz/c TightSCF  NoKeepInts
|  2>
|  3> %scf
|  4>   MaxCore 4096
|  5> end
|  6> *xyz  0  1
|  7>     C       14.9918740   14.1788734   16.7421315
|  8>     C       16.4239166   13.9654502   16.2008700
|  9>     O       17.3064034   15.0515088   16.5581038
| 10>     C       16.9372876   16.3661538   16.4651718
| 11>     O       16.1249340   16.7618497   15.6468782
| 12>     C       17.6822530   17.2448955   17.4311150
| 13>     C       17.5842286   18.5982588   17.4106555
| 14>     C       16.7669974   19.4432258   16.4570138
| 15>     N       18.3097476   19.3679472   18.3247505
| 16>     C       19.2032726   18.8705062   19.2352244
| 17>     S       20.0722315   19.8585499   20.2375398
| 18>     N       19.3419820   17.5066912   19.2757368
| 19>     C       18.5421870   16.5446439   18.4958229
| 20>     C       17.6930319   15.6937047   19.4361083
| 21>     C       17.9637738   14.3218754   19.5974463
| 22>     C       17.1735643   13.5326194   20.4499231
| 23>     C       16.1055916   14.1200742   21.1493619
| 24>     C       15.8367300   15.4870176   20.9953553
| 25>     O       14.8062441   16.0570464   21.6690792
| 26>     C       16.6245691   16.2697930   20.1459281
| 27>     H       15.0150239   14.4500505   17.8054059
| 28>     H       14.4095065   13.2552644   16.6416132
| 29>     H       14.4590862   14.9626959   16.1906932
| 30>     H       16.8308492   13.0279402   16.6007278
| 31>     H       16.3785988   13.8738562   15.1075786
| 32>     H       17.0500020   19.2351036   15.4172900
| 33>     H       16.8903243   20.5197102   16.6235068
| 34>     H       15.6987516   19.2119670   16.5571891
| 35>     H       18.2206512   20.3713902   18.3105525
| 36>     H       19.9784609   17.1681905   19.9857675
| 37>     H       19.2479228   15.8852670   17.9712431
| 38>     H       18.7848900   13.8641422   19.0523061
| 39>     H       17.3895054   12.4720250   20.5664853
| 40>     H       15.4925173   13.5148609   21.8090609
| 41>     H       14.4070406   15.3720338   22.2260859
| 42>     H       16.4030492   17.3268172   20.0442780
| 43> *
| 44>
| 45>                          ****END OF INPUT****

CARTESIAN COORDINATES (ANGSTROEM)
---------------------------------
  C     14.991874   14.178873   16.742131
  C     16.423917   13.965450   16.200870
  O     17.306403   15.051509   16.558104
  C     16.937288   16.366154   16.465172
  O     16.124934   16.761850   15.646878
  C     17.682253   17.244895   17.431115
  C     17.584229   18.598259   17.410656
  C     16.766997   19.443226   16.457014
  N     18.309748   19.367947   18.324751
  C     19.203273   18.870506   19.235224
  S     20.072232   19.858550   20.237540
  N     19.341982   17.506691   19.275737
  C     18.542187   16.544644   18.495823
  C     17.693032   15.693705   19.436108
  C     17.963774   14.321875   19.597446
  C     17.173564   13.532619   20.449923
  C     16.105592   14.120074   21.149362
  C     15.836730   15.487018   20.995355
  O     14.806244   16.057046   21.669079
  C     16.624569   16.269793   20.145928
  H     15.015024   14.450050   17.805406
  H     14.409506   13.255264   16.641613
  H     14.459086   14.962696   16.190693
  H     16.830849   13.027940   16.600728
  H     16.378599   13.873856   15.107579
  H     17.050002   19.235104   15.417290
  H     16.890324   20.519710   16.623507
  H     15.698752   19.211967   16.557189
  H     18.220651   20.371390   18.310553
  H     19.978461   17.168191   19.985768
  H     19.247923   15.885267   17.971243
  H     18.784890   13.864142   19.052306
  H     17.389505   12.472025   20.566485
  H     15.492517   13.514861   21.809061
  H     14.407041   15.372034   22.226086
  H     16.403049   17.326817   20.044278

 Total Charge           Charge          ....    0
 Multiplicity           Mult            ....    1
 Number of Electrons    NEL             ....  154
 Basis Dimension        Dim             ....  828

ORBITAL ENERGIES
----------------

  NO   OCC          E(Eh)            E(eV)
   0   2.0000     -91.888819     -2500.4219
   1   2.0000     -20.598039      -560.5011
   2   2.0000     -20.595976      -560.4450
   3   2.0000     -20.541393      -558.9597
   4   2.0000     -15.628874      -425.2833
   5   2.0000     -15.608326      -424.7241
   6   2.0000     -11.394906      -310.0712
   7   2.0000     -11.384044      -309.7756
   8   2.0000     -11.335710      -308.4604
   9   2.0000     -11.315469      -307.9096
  10   2.0000     -11.308811      -307.7284
  11   2.0000     -11.299608      -307.4780
  12   2.0000     -11.261071      -306.4293
  13   2.0000     -11.258368      -306.3558
  14   2.0000     -11.256938      -306.3169
  15   2.0000     -11.251940      -306.1809
  16   2.0000     -11.244774      -305.9859
  17   2.0000     -11.239964      -305.8550
  18   2.0000     -11.239703      -305.8479
  19   2.0000     -11.221936      -305.3644
  20   2.0000      -8.893885      -242.0149
  21   2.0000      -6.575461      -178.9274
  22   2.0000      -6.573455      -178.8728
  23   2.0000      -6.572869      -178.8569
  24   2.0000      -1.446733       -39.3676
  25   2.0000      -1.417745       -38.5788
  26   2.0000      -1.352963       -36.8160
  27   2.0000      -1.339864       -36.4595
  28   2.0000      -1.238496       -33.7012
  29   2.0000      -1.159108       -31.5409
  30   2.0000      -1.120556       -30.4919
  31   2.0000      -1.043528       -28.3958
  32   2.0000      -1.034006       -28.1367
  33   2.0000      -1.016674       -27.6651
  34   2.0000      -0.995644       -27.0929
  35   2.0000      -0.984347       -26.7855
  36   2.0000      -0.922914       -25.1138
  37   2.0000      -0.897059       -24.4102
  38   2.0000      -0.847258       -23.0551
  39   2.0000      -0.838838       -22.8259
  40   2.0000      -0.835535       -22.7361
  41   2.0000      -0.816622       -22.2214
  42   2.0000      -0.747924       -20.3520
  43   2.0000      -0.732989       -19.9457
  44   2.0000      -0.722537       -19.6612
  45   2.0000      -0.696945       -18.9648
  46   2.0000      -0.688693       -18.7403
  47   2.0000      -0.676458       -18.4074
  48   2.0000      -0.671210       -18.2646
  49   2.0000      -0.659811       -17.9544
  50   2.0000      -0.650265       -17.6946
  51   2.0000      -0.641055       -17.4440
  52   2.0000      -0.634351       -17.2616
  53   2.0000      -0.616672       -16.7805
  54   2.0000      -0.608143       -16.5484
  55   2.0000      -0.601229       -16.3603
  56   2.0000      -0.599348       -16.3091
  57   2.0000      -0.578488       -15.7415
  58   2.0000      -0.570885       -15.5346
  59   2.0000      -0.567450       -15.4411
  60   2.0000      -0.557274       -15.1642
  61   2.0000      -0.542789       -14.7700
  62   2.0000      -0.534573       -14.5465
  63   2.0000      -0.525973       -14.3125
  64   2.0000      -0.522711       -14.2237
  65   2.0000      -0.513483       -13.9726
  66   2.0000      -0.501846       -13.6559
  67   2.0000      -0.500239       -13.6122
  68   2.0000      -0.484150       -13.1744
  69   2.0000      -0.464511       -12.6400
  70   2.0000      -0.453974       -12.3533
  71   2.0000      -0.443705       -12.0738
  72   2.0000      -0.354010        -9.6331
  73   2.0000      -0.350777        -9.5451
  74   2.0000      -0.328404        -8.9363
  75   2.0000      -0.323047        -8.7906
  76   2.0000      -0.316276        -8.6063
  77   0.0000       0.075832         2.0635
  78   0.0000       0.104672         2.8483
  79   0.0000       0.124650         3.3919
  80   0.0000       0.131887         3.5888
  81   0.0000       0.137322         3.7367

MULLIKEN ATOMIC CHARGES
-----------------------
   0 C :   -0.321807
   1 C :    0.032760
   2 O :   -0.367705
   3 C :    0.470259
   4 O :   -0.432691
   5 C :   -0.232678
   6 C :    0.155177
   7 C :   -0.272654
   8 N :   -0.120729
   9 C :    0.212220
  10 S :   -0.440585
  11 N :   -0.207118
  12 C :    0.071187
  13 C :    0.043144
  14 C :   -0.183350
  15 C :   -0.133611
  16 C :   -0.276426
  17 C :    0.312298
  18 O :   -0.357597
  19 C :   -0.261035
  20 H :    0.108830
  21 H :    0.098228
  22 H :    0.126719
  23 H :    0.109151
  24 H :    0.114122
  25 H :    0.131585
  26 H :    0.095270
  27 H :    0.131432
  28 H :    0.197041
  29 H :    0.195310
  30 H :    0.150484
  31 H :    0.153265
  32 H :    0.161138
  33 H :    0.131227
  34 H :    0.240892
  35 H :    0.166247
Sum of atomic charges:   -0.0000000

LOEWDIN ATOMIC CHARGES
----------------------
   0 C :    0.104836
   1 C :   -0.014059
   2 O :    0.299674
   3 C :   -0.414429
   4 O :    0.100618
   5 C :   -0.094770
   6 C :   -0.059237
   7 C :    0.131623
   8 N :    0.406559
   9 C :   -0.456042
  10 S :   -0.035932
  11 N :    0.396384
  12 C :   -0.051799
  13 C :   -0.039602
  14 C :    0.015062
  15 C :    0.038862
  16 C :   -0.002041
  17 C :   -0.190595
  18 O :    0.395922
  19 C :    0.030974
  20 H :   -0.026365
  21 H :   -0.027012
  22 H :   -0.026172
  23 H :   -0.025709
  24 H :   -0.028275
  25 H :   -0.003753
  26 H :   -0.023436
  27 H :   -0.004785
  28 H :   -0.057594
  29 H :   -0.064602
  30 H :   -0.011199
  31 H :   -0.029674
  32 H :   -0.021141
  33 H :   -0.035297
  34 H :   -0.153605
  35 H :   -0.023388

  Mayer bond orders larger than 0.100000
B(  0-C ,  1-C ) :   0.9572 B(  0-C , 20-H ) :   0.9705 B(  0-C , 21-H ) :   0.9779
B(  0-C , 22-H ) :   0.9731 B(  1-C ,  2-O ) :   0.8927 B(  1-C , 23-H ) :   0.9831
B(  1-C , 24-H ) :   0.9853 B(  2-O ,  3-C ) :   1.1551 B(  3-C ,  4-O ) :   1.9770
B(  3-C ,  5-C ) :   1.0527 B(  5-C ,  6-C ) :   1.6533 B(  5-C , 12-C ) :   0.9693
B(  6-C ,  7-C ) :   0.9660 B(  6-C ,  8-N ) :   1.1648 B(  7-C , 25-H ) :   0.9606
B(  7-C , 26-H ) :   0.9903 B(  7-C , 27-H ) :   0.9604 B(  8-N ,  9-C ) :   1.1840
B(  8-N , 28-H ) :   0.9478 B(  9-C , 10-S ) :   1.6063 B(  9-C , 11-N ) :   1.3059
B( 11-N , 12-C ) :   0.9880 B( 11-N , 29-H ) :   0.9512 B( 12-C , 13-C ) :   0.9350
B( 12-C , 30-H ) :   1.0018 B( 13-C , 14-C ) :   1.3570 B( 13-C , 19-C ) :   1.3850
B( 14-C , 15-C ) :   1.3890 B( 14-C , 31-H ) :   0.9710 B( 15-C , 16-C ) :   1.3622
B( 15-C , 32-H ) :   0.9708 B( 16-C , 17-C ) :   1.3315 B( 16-C , 33-H ) :   0.9847
B( 17-C , 18-O ) :   1.1108 B( 17-C , 19-C ) :   1.3693 B( 18-O , 34-H ) :   0.9796
B( 19-C , 35-H ) :   0.9582

MP2 TOTAL ENERGY:    -1274.346578504 Eh
FINAL SINGLE POINT ENERGY     -1274.346578504025

DIPOLE MOMENT
-------------
                                X             Y             Z
Electronic contribution:     10.19388       9.81963       6.98845
Nuclear contribution   :    -11.21467     -11.56794      -7.29134
                        -----------------------------------------
Total Dipole Moment    :     -1.02079      -1.74831      -0.30289
                        -----------------------------------------
Magnitude (a.u.)       :      2.04703
Magnitude (Debye)      :      5.20314

Rotational constants in cm-1:     0.012484     0.008687     0.006345
Rotational constants in MHz :   374.255076   260.433620   190.218382

                             ****ORCA TERMINATED NORMALLY****
TOTAL RUN TIME: 0 days 2 hours 27 minutes 31 seconds 656 msec
