                         Program Version 4.2.0 -  RELEASE  -
|  1> ! ri-mp2 cc-pvtz cc-pvtz/c TightSCF  NoKeepInts
|  2>
|  3> %scf
|  4>   MaxCore 4096
|  5> end
|  6> *xyz  0  1
|  7>     C       15.3438402   14.9242585   17.2898728
|  8>     C       15.5863410   15.2685139   15.8039335
|  9>     O       16.9476938   15.6602928   15.4975054
| 10>     C       17.9467157   15.7201423   16.4282959
| 11>     O       18.6790090   14.7617932   16.5981910
| 12>     C       17.9125727   16.8834969   17.3805438
| 13>     C       17.3379432   18.0848485   17.1128124
| 14>     C       16.6459579   18.5292769   15.8407331
| 15>     N       17.4375938   19.1243888   18.0430730
| 16>     C       18.2432067   19.1079453   19.1508348
| 17>     S       18.4162127   20.4351282   20.1219854
| 18>     N       18.8972658   17.9308658   19.4121497
| 19>     C       18.6531435   16.6586403   18.7060098
| 20>     C       17.9069934   15.6759777   19.6066816
| 21>     C       18.3383752   14.3403994   19.7091708
| 22>     C       17.6521864   13.4244384   20.5237109
| 23>     C       16.5233621   13.8460724   21.2460764
| 24>     C       16.0900348   15.1749658   21.1490928
| 25>     O       14.9947391   15.5835473   21.8376445
| 26>     C       16.7754003   16.0846562   20.3377810
| 27>     H       16.0557185   14.1697874   17.6496417
| 28>     H       14.3353086   14.5139093   17.4208289
| 29>     H       15.4166529   15.8170280   17.9204023
| 30>     H       15.3454047   14.3808990   15.2043526
| 31>     H       14.8927663   16.0601069   15.4953461
| 32>     H       15.5954474   18.2190531   15.8358287
| 33>     H       17.1348035   18.1114982   14.9518997
| 34>     H       16.6687496   19.6194456   15.7191149
| 35>     H       16.9701697   19.9991814   17.8652045
| 36>     H       19.4675935   17.9357208   20.2482313
| 37>     H       19.6344658   16.2216591   18.4695715
| 38>     H       19.2020314   14.0060486   19.1385153
| 39>     H       17.9939090   12.3927550   20.5869027
| 40>     H       15.9887715   13.1409971   21.8739081
| 41>     H       14.6969166   14.8366440   22.3785456
| 42>     H       16.4197037   17.1076178   20.2796074
| 43> *
| 44>
| 45>                          ****END OF INPUT****

CARTESIAN COORDINATES (ANGSTROEM)
---------------------------------
  C     15.343840   14.924259   17.289873
  C     15.586341   15.268514   15.803933
  O     16.947694   15.660293   15.497505
  C     17.946716   15.720142   16.428296
  O     18.679009   14.761793   16.598191
  C     17.912573   16.883497   17.380544
  C     17.337943   18.084848   17.112812
  C     16.645958   18.529277   15.840733
  N     17.437594   19.124389   18.043073
  C     18.243207   19.107945   19.150835
  S     18.416213   20.435128   20.121985
  N     18.897266   17.930866   19.412150
  C     18.653143   16.658640   18.706010
  C     17.906993   15.675978   19.606682
  C     18.338375   14.340399   19.709171
  C     17.652186   13.424438   20.523711
  C     16.523362   13.846072   21.246076
  C     16.090035   15.174966   21.149093
  O     14.994739   15.583547   21.837644
  C     16.775400   16.084656   20.337781
  H     16.055719   14.169787   17.649642
  H     14.335309   14.513909   17.420829
  H     15.416653   15.817028   17.920402
  H     15.345405   14.380899   15.204353
  H     14.892766   16.060107   15.495346
  H     15.595447   18.219053   15.835829
  H     17.134804   18.111498   14.951900
  H     16.668750   19.619446   15.719115
  H     16.970170   19.999181   17.865205
  H     19.467593   17.935721   20.248231
  H     19.634466   16.221659   18.469572
  H     19.202031   14.006049   19.138515
  H     17.993909   12.392755   20.586903
  H     15.988771   13.140997   21.873908
  H     14.696917   14.836644   22.378546
  H     16.419704   17.107618   20.279607

 Total Charge           Charge          ....    0
 Multiplicity           Mult            ....    1
 Number of Electrons    NEL             ....  154
 Basis Dimension        Dim             ....  828

ORBITAL ENERGIES
----------------

  NO   OCC          E(Eh)            E(eV)
   0   2.0000     -91.891028     -2500.4820
   1   2.0000     -20.595917      -560.4434
   2   2.0000     -20.583841      -560.1148
   3   2.0000     -20.552016      -559.2488
   4   2.0000     -15.631354      -425.3508
   5   2.0000     -15.609460      -424.7550
   6   2.0000     -11.396351      -310.1105
   7   2.0000     -11.386038      -309.8298
   8   2.0000     -11.339166      -308.5544
   9   2.0000     -11.312007      -307.8154
  10   2.0000     -11.309000      -307.7335
  11   2.0000     -11.308562      -307.7216
  12   2.0000     -11.264096      -306.5116
  13   2.0000     -11.263873      -306.5056
  14   2.0000     -11.257906      -306.3432
  15   2.0000     -11.251993      -306.1823
  16   2.0000     -11.241778      -305.9043
  17   2.0000     -11.237428      -305.7860
  18   2.0000     -11.233691      -305.6843
  19   2.0000     -11.230418      -305.5952
  20   2.0000      -8.896084      -242.0748
  21   2.0000      -6.577658      -178.9872
  22   2.0000      -6.575651      -178.9326
  23   2.0000      -6.575061      -178.9165
  24   2.0000      -1.445208       -39.3261
  25   2.0000      -1.415732       -38.5240
  26   2.0000      -1.354749       -36.8646
  27   2.0000      -1.342704       -36.5368
  28   2.0000      -1.240144       -33.7460
  29   2.0000      -1.156200       -31.4618
  30   2.0000      -1.122217       -30.5371
  31   2.0000      -1.044563       -28.4240
  32   2.0000      -1.034796       -28.1582
  33   2.0000      -1.014332       -27.6014
  34   2.0000      -1.003188       -27.2981
  35   2.0000      -0.988145       -26.8888
  36   2.0000      -0.925829       -25.1931
  37   2.0000      -0.898073       -24.4378
  38   2.0000      -0.852464       -23.1967
  39   2.0000      -0.840063       -22.8593
  40   2.0000      -0.832288       -22.6477
  41   2.0000      -0.822183       -22.3727
  42   2.0000      -0.744407       -20.2563
  43   2.0000      -0.730003       -19.8644
  44   2.0000      -0.728538       -19.8245
  45   2.0000      -0.693652       -18.8752
  46   2.0000      -0.687581       -18.7100
  47   2.0000      -0.678606       -18.4658
  48   2.0000      -0.674483       -18.3536
  49   2.0000      -0.663047       -18.0424
  50   2.0000      -0.651604       -17.7311
  51   2.0000      -0.650481       -17.7005
  52   2.0000      -0.639550       -17.4030
  53   2.0000      -0.626285       -17.0421
  54   2.0000      -0.605829       -16.4854
  55   2.0000      -0.603897       -16.4329
  56   2.0000      -0.599900       -16.3241
  57   2.0000      -0.582117       -15.8402
  58   2.0000      -0.575234       -15.6529
  59   2.0000      -0.564362       -15.3571
  60   2.0000      -0.555397       -15.1131
  61   2.0000      -0.546142       -14.8613
  62   2.0000      -0.539624       -14.6839
  63   2.0000      -0.535528       -14.5725
  64   2.0000      -0.520539       -14.1646
  65   2.0000      -0.512521       -13.9464
  66   2.0000      -0.499873       -13.6022
  67   2.0000      -0.491401       -13.3717
  68   2.0000      -0.484192       -13.1755
  69   2.0000      -0.470096       -12.7920
  70   2.0000      -0.455328       -12.3901
  71   2.0000      -0.448661       -12.2087
  72   2.0000      -0.357536        -9.7290
  73   2.0000      -0.347065        -9.4441
  74   2.0000      -0.330156        -8.9840
  75   2.0000      -0.320560        -8.7229
  76   2.0000      -0.317887        -8.6501
  77   0.0000       0.069780         1.8988
  78   0.0000       0.107226         2.9178
  79   0.0000       0.117824         3.2062
  80   0.0000       0.132079         3.5941
  81   0.0000       0.136552         3.7158

MULLIKEN ATOMIC CHARGES
-----------------------
   0 C :   -0.343611
   1 C :    0.040604
   2 O :   -0.380369
   3 C :    0.495657
   4 O :   -0.394528
   5 C :   -0.250354
   6 C :    0.172145
   7 C :   -0.317485
   8 N :   -0.125089
   9 C :    0.189204
  10 S :   -0.435321
  11 N :   -0.202839
  12 C :    0.050787
  13 C :    0.049468
  14 C :   -0.190921
  15 C :   -0.134222
  16 C :   -0.278294
  17 C :    0.319648
  18 O :   -0.359191
  19 C :   -0.286431
  20 H :    0.130726
  21 H :    0.119327
  22 H :    0.107054
  23 H :    0.121458
  24 H :    0.093477
  25 H :    0.118150
  26 H :    0.144893
  27 H :    0.117435
  28 H :    0.197804
  29 H :    0.195212
  30 H :    0.159567
  31 H :    0.166569
  32 H :    0.162778
  33 H :    0.130870
  34 H :    0.240767
  35 H :    0.175053
Sum of atomic charges:   -0.0000000

LOEWDIN ATOMIC CHARGES
----------------------
   0 C :    0.106684
   1 C :   -0.014024
   2 O :    0.281523
   3 C :   -0.422110
   4 O :    0.126617
   5 C :   -0.092122
   6 C :   -0.071588
   7 C :    0.128166
   8 N :    0.405165
   9 C :   -0.460562
  10 S :   -0.033607
  11 N :    0.397753
  12 C :   -0.045294
  13 C :   -0.040610
  14 C :    0.021136
  15 C :    0.041138
  16 C :   -0.002252
  17 C :   -0.193673
  18 O :    0.394175
  19 C :    0.028970
  20 H :   -0.018839
  21 H :   -0.021869
  22 H :   -0.033988
  23 H :   -0.023441
  24 H :   -0.035286
  25 H :   -0.016010
  26 H :   -0.005819
  27 H :   -0.016622
  28 H :   -0.058241
  29 H :   -0.063348
  30 H :   -0.003035
  31 H :   -0.023630
  32 H :   -0.019959
  33 H :   -0.035570
  34 H :   -0.153990
  35 H :   -0.025838

  Mayer bond orders larger than 0.100000
B(  0-C ,  1-C ) :   0.9633 B(  0-C , 20-H ) :   0.9644 B(  0-C , 21-H ) :   0.9747
B(  0-C , 22-H ) :   0.9705 B(  1-C ,  2-O ) :   0.8942 B(  1-C , 23-H ) :   0.9833
B(  1-C , 24-H ) :   0.9778 B(  2-O ,  3-C ) :   1.1109 B(  3-C ,  4-O ) :   2.0493
B(  3-C ,  5-C ) :   0.9914 B(  5-C ,  6-C ) :   1.6545 B(  5-C , 12-C ) :   0.9631
B(  6-C ,  7-C ) :   0.9464 B(  6-C ,  8-N ) :   1.1368 B(  7-C , 25-H ) :   0.9671
B(  7-C , 26-H ) :   0.9651 B(  7-C , 27-H ) :   0.9875 B(  8-N ,  9-C ) :   1.1803
B(  8-N , 28-H ) :   0.9495 B(  9-C , 10-S ) :   1.6158 B(  9-C , 11-N ) :   1.2997
B( 11-N , 12-C ) :   0.9871 B( 11-N , 29-H ) :   0.9518 B( 12-C , 13-C ) :   0.9483
B( 12-C , 30-H ) :   0.9989 B( 13-C , 14-C ) :   1.3842 B( 13-C , 19-C ) :   1.3437
B( 14-C , 15-C ) :   1.3957 B( 14-C , 31-H ) :   0.9600 B( 15-C , 16-C ) :   1.3613
B( 15-C , 32-H ) :   0.9705 B( 16-C , 17-C ) :   1.3313 B( 16-C , 33-H ) :   0.9849
B( 17-C , 18-O ) :   1.1111 B( 17-C , 19-C ) :   1.3691 B( 18-O , 34-H ) :   0.9801
B( 19-C , 35-H ) :   0.9584

MP2 TOTAL ENERGY:    -1274.328311666 Eh
FINAL SINGLE POINT ENERGY     -1274.328311666270

DIPOLE MOMENT
-------------
                                X             Y             Z
Electronic contribution:      9.53322       7.74677       6.36263
Nuclear contribution   :    -11.04489      -8.80195      -6.97329
                        -----------------------------------------
Total Dipole Moment    :     -1.51167      -1.05519      -0.61066
                        -----------------------------------------
Magnitude (a.u.)       :      1.94203
Magnitude (Debye)      :      4.93624

Rotational constants in cm-1:     0.011391     0.009895     0.006754
Rotational constants in MHz :   341.487700   296.656018   202.478124

                             ****ORCA TERMINATED NORMALLY****
TOTAL RUN TIME: 0 days 2 hours 1 minutes 34 seconds 845 msec
