                         Program Version 5.0.0 -  RELEASE  -
|  1> ! ri-mp2 cc-pvtz cc-pvtz/c TightSCF NoKeepInts
|  2>
|  3> %scf
|  4>   MaxCore 4096
|  5> end
|  6> *xyz  0  1
|  7>     C       14.5058056   15.1814116   16.4291581
|  8>     C       15.7262793   15.0544613   17.3561805
|  9>     O       16.8964849   14.9810487   16.5168191
| 10>     C       17.7662498   16.0220840   16.3228303
| 11>     O       18.2963733   16.1899943   15.2408418
| 12>     C       17.8501459   17.0522052   17.4024068
| 13>     C       17.4563755   18.3228514   17.1654777
| 14>     C       16.7914807   18.8208503   15.9017906
| 15>     N       17.6679922   19.3135289   18.1265273
| 16>     C       18.3575162   19.1274781   19.2958902
| 17>     S       18.6012288   20.3603964   20.3703131
| 18>     N       18.8344367   17.8623252   19.5379397
| 19>     C       18.5984191   16.6758479   18.6904489
| 20>     C       17.9501112   15.5530264   19.4950165
| 21>     C       18.3834784   14.2247469   19.3241988
| 22>     C       17.7904601   13.1788538   20.0507212
| 23>     C       16.7576266   13.4618687   20.9602757
| 24>     C       16.3265419   14.7829997   21.1387461
| 25>     O       15.3239590   15.0591498   22.0093769
| 26>     C       16.9168597   15.8225970   20.4129486
| 27>     H       14.5604801   16.1007691   15.8340928
| 28>     H       13.5786194   15.2049983   17.0146163
| 29>     H       14.4551696   14.3283311   15.7407264
| 30>     H       15.7409153   15.9051618   18.0455258
| 31>     H       15.6386338   14.1325939   17.9460781
| 32>     H       15.9966748   18.1382305   15.5785421
| 33>     H       17.5235643   18.8772720   15.0850663
| 34>     H       16.3445041   19.8147169   16.0228871
| 35>     H       17.3460107   20.2532583   17.9563327
| 36>     H       19.3224072   17.7562299   20.4187435
| 37>     H       19.5883587   16.3135207   18.3772831
| 38>     H       19.1764673   13.9989004   18.6150961
| 39>     H       18.1309133   12.1545809   19.9058911
| 40>     H       16.2964965   12.6562153   21.5226038
| 41>     H       15.0874596   14.2322615   22.4567853
| 42>     H       16.5625003   16.8372337   20.5658219
| 43> *
| 44>
| 45>                          ****END OF INPUT****

CARTESIAN COORDINATES (ANGSTROEM)
---------------------------------
  C     14.505806   15.181412   16.429158
  C     15.726279   15.054461   17.356180
  O     16.896485   14.981049   16.516819
  C     17.766250   16.022084   16.322830
  O     18.296373   16.189994   15.240842
  C     17.850146   17.052205   17.402407
  C     17.456376   18.322851   17.165478
  C     16.791481   18.820850   15.901791
  N     17.667992   19.313529   18.126527
  C     18.357516   19.127478   19.295890
  S     18.601229   20.360396   20.370313
  N     18.834437   17.862325   19.537940
  C     18.598419   16.675848   18.690449
  C     17.950111   15.553026   19.495016
  C     18.383478   14.224747   19.324199
  C     17.790460   13.178854   20.050721
  C     16.757627   13.461869   20.960276
  C     16.326542   14.783000   21.138746
  O     15.323959   15.059150   22.009377
  C     16.916860   15.822597   20.412949
  H     14.560480   16.100769   15.834093
  H     13.578619   15.204998   17.014616
  H     14.455170   14.328331   15.740726
  H     15.740915   15.905162   18.045526
  H     15.638634   14.132594   17.946078
  H     15.996675   18.138230   15.578542
  H     17.523564   18.877272   15.085066
  H     16.344504   19.814717   16.022887
  H     17.346011   20.253258   17.956333
  H     19.322407   17.756230   20.418744
  H     19.588359   16.313521   18.377283
  H     19.176467   13.998900   18.615096
  H     18.130913   12.154581   19.905891
  H     16.296496   12.656215   21.522604
  H     15.087460   14.232261   22.456785
  H     16.562500   16.837234   20.565822

 Total Charge           Charge          ....    0
 Multiplicity           Mult            ....    1
 Number of Electrons    NEL             ....  154
 Basis Dimension        Dim             ....  828

ORBITAL ENERGIES
----------------

  NO   OCC          E(Eh)            E(eV)
   0   2.0000     -91.890530     -2500.4684
   1   2.0000     -20.604649      -560.6810
   2   2.0000     -20.596992      -560.4726
   3   2.0000     -20.551232      -559.2275
   4   2.0000     -15.626821      -425.2274
   5   2.0000     -15.612756      -424.8447
   6   2.0000     -11.396190      -310.1061
   7   2.0000     -11.386814      -309.8510
   8   2.0000     -11.328101      -308.2533
   9   2.0000     -11.322660      -308.1053
  10   2.0000     -11.320112      -308.0359
  11   2.0000     -11.299040      -307.4625
  12   2.0000     -11.269933      -306.6705
  13   2.0000     -11.263875      -306.5056
  14   2.0000     -11.260304      -306.4085
  15   2.0000     -11.258446      -306.3579
  16   2.0000     -11.252357      -306.1922
  17   2.0000     -11.247505      -306.0602
  18   2.0000     -11.247217      -306.0523
  19   2.0000     -11.230735      -305.6038
  20   2.0000      -8.895633      -242.0625
  21   2.0000      -6.577218      -178.9752
  22   2.0000      -6.575196      -178.9202
  23   2.0000      -6.574618      -178.9045
  24   2.0000      -1.446709       -39.3670
  25   2.0000      -1.424479       -38.7621
  26   2.0000      -1.359202       -36.9858
  27   2.0000      -1.339942       -36.4617
  28   2.0000      -1.240852       -33.7653
  29   2.0000      -1.166187       -31.7336
  30   2.0000      -1.125206       -30.6184
  31   2.0000      -1.051273       -28.6066
  32   2.0000      -1.037029       -28.2190
  33   2.0000      -1.024515       -27.8785
  34   2.0000      -1.003367       -27.3030
  35   2.0000      -0.989679       -26.9305
  36   2.0000      -0.928989       -25.2791
  37   2.0000      -0.885896       -24.1065
  38   2.0000      -0.853062       -23.2130
  39   2.0000      -0.844549       -22.9814
  40   2.0000      -0.842708       -22.9313
  41   2.0000      -0.837593       -22.7921
  42   2.0000      -0.757258       -20.6060
  43   2.0000      -0.738202       -20.0875
  44   2.0000      -0.727662       -19.8007
  45   2.0000      -0.703193       -19.1349
  46   2.0000      -0.692927       -18.8555
  47   2.0000      -0.679817       -18.4988
  48   2.0000      -0.675502       -18.3814
  49   2.0000      -0.670238       -18.2381
  50   2.0000      -0.654883       -17.8203
  51   2.0000      -0.645963       -17.5776
  52   2.0000      -0.637479       -17.3467
  53   2.0000      -0.613867       -16.7042
  54   2.0000      -0.609189       -16.5769
  55   2.0000      -0.605559       -16.4781
  56   2.0000      -0.600930       -16.3521
  57   2.0000      -0.583862       -15.8877
  58   2.0000      -0.579381       -15.7658
  59   2.0000      -0.570049       -15.5118
  60   2.0000      -0.561524       -15.2798
  61   2.0000      -0.559382       -15.2216
  62   2.0000      -0.548516       -14.9259
  63   2.0000      -0.531024       -14.4499
  64   2.0000      -0.525741       -14.3061
  65   2.0000      -0.518092       -14.0980
  66   2.0000      -0.506395       -13.7797
  67   2.0000      -0.503689       -13.7061
  68   2.0000      -0.487881       -13.2759
  69   2.0000      -0.471051       -12.8179
  70   2.0000      -0.452980       -12.3262
  71   2.0000      -0.448192       -12.1959
  72   2.0000      -0.358554        -9.7568
  73   2.0000      -0.352251        -9.5852
  74   2.0000      -0.331452        -9.0193
  75   2.0000      -0.329564        -8.9679
  76   2.0000      -0.319162        -8.6848
  77   0.0000       0.085778         2.3341
  78   0.0000       0.097219         2.6455
  79   0.0000       0.118553         3.2260
  80   0.0000       0.126731         3.4485
  81   0.0000       0.127512         3.4698

MULLIKEN ATOMIC CHARGES
-----------------------
   0 C :   -0.262069
   1 C :    0.011893
   2 O :   -0.316252
   3 C :    0.380643
   4 O :   -0.371979
   5 C :   -0.212684
   6 C :    0.157081
   7 C :   -0.289066
   8 N :   -0.130463
   9 C :    0.212183
  10 S :   -0.440099
  11 N :   -0.224787
  12 C :    0.061924
  13 C :   -0.003371
  14 C :   -0.167701
  15 C :   -0.147665
  16 C :   -0.274866
  17 C :    0.311763
  18 O :   -0.354097
  19 C :   -0.249883
  20 H :    0.086287
  21 H :    0.093503
  22 H :    0.108364
  23 H :    0.102745
  24 H :    0.120524
  25 H :    0.115050
  26 H :    0.146679
  27 H :    0.099023
  28 H :    0.196329
  29 H :    0.201683
  30 H :    0.163252
  31 H :    0.151254
  32 H :    0.164854
  33 H :    0.135580
  34 H :    0.242136
  35 H :    0.182231
Sum of atomic charges:   -0.0000000

LOEWDIN ATOMIC CHARGES
----------------------
   0 C :    0.106320
   1 C :   -0.022699
   2 O :    0.308749
   3 C :   -0.419603
   4 O :    0.127886
   5 C :   -0.088503
   6 C :   -0.090214
   7 C :    0.130674
   8 N :    0.403159
   9 C :   -0.455277
  10 S :   -0.036719
  11 N :    0.396455
  12 C :   -0.051393
  13 C :   -0.043142
  14 C :    0.019520
  15 C :    0.044512
  16 C :    0.000029
  17 C :   -0.193123
  18 O :    0.397102
  19 C :    0.030520
  20 H :   -0.032510
  21 H :   -0.025906
  22 H :   -0.023409
  23 H :   -0.040205
  24 H :   -0.022742
  25 H :   -0.012213
  26 H :   -0.002271
  27 H :   -0.020121
  28 H :   -0.058862
  29 H :   -0.064514
  30 H :   -0.008403
  31 H :   -0.026526
  32 H :   -0.018073
  33 H :   -0.033557
  34 H :   -0.152014
  35 H :   -0.022924

  Mayer bond orders larger than 0.100000
B(  0-C ,  1-C ) :   0.9811 B(  0-C , 20-H ) :   0.9777 B(  0-C , 21-H ) :   0.9768
B(  0-C , 22-H ) :   0.9799 B(  1-C ,  2-O ) :   0.8842 B(  1-C , 23-H ) :   0.9568
B(  1-C , 24-H ) :   0.9763 B(  2-O ,  3-C ) :   1.1950 B(  3-C ,  4-O ) :   2.1203
B(  3-C ,  5-C ) :   0.9033 B(  5-C ,  6-C ) :   1.7163 B(  5-C , 12-C ) :   0.9563
B(  6-C ,  7-C ) :   0.9406 B(  6-C ,  8-N ) :   1.1241 B(  7-C , 25-H ) :   0.9750
B(  7-C , 26-H ) :   0.9605 B(  7-C , 27-H ) :   0.9867 B(  8-N ,  9-C ) :   1.2002
B(  8-N , 28-H ) :   0.9496 B(  9-C , 10-S ) :   1.6097 B(  9-C , 11-N ) :   1.2834
B( 11-N , 12-C ) :   0.9908 B( 11-N , 29-H ) :   0.9462 B( 12-C , 13-C ) :   0.9456
B( 12-C , 30-H ) :   1.0058 B( 13-C , 14-C ) :   1.3723 B( 13-C , 19-C ) :   1.3431
B( 14-C , 15-C ) :   1.4021 B( 14-C , 31-H ) :   0.9724 B( 15-C , 16-C ) :   1.3616
B( 15-C , 32-H ) :   0.9700 B( 16-C , 17-C ) :   1.3276 B( 16-C , 33-H ) :   0.9832
B( 17-C , 18-O ) :   1.1128 B( 17-C , 19-C ) :   1.3678 B( 18-O , 34-H ) :   0.9784
B( 19-C , 35-H ) :   0.9567

MP2 TOTAL ENERGY:    -1274.329649176 Eh
FINAL SINGLE POINT ENERGY     -1274.329649175866

DIPOLE MOMENT
-------------
                                X             Y             Z
Electronic contribution:     10.64291       6.94667       7.37917
Nuclear contribution   :    -11.94319      -8.51859      -7.15276
                        -----------------------------------------
Total Dipole Moment    :     -1.30028      -1.57192       0.22642
                        -----------------------------------------
Magnitude (a.u.)       :      2.05254
Magnitude (Debye)      :      5.21715

Rotational constants in cm-1:     0.011815     0.009272     0.006422
Rotational constants in MHz :   354.198497   277.981693   192.516186

                             ****ORCA TERMINATED NORMALLY****
TOTAL RUN TIME: 0 days 1 hours 53 minutes 0 seconds 655 msec
