                         Program Version 4.2.0 -  RELEASE  -
|  1> ! ri-mp2 cc-pvtz cc-pvtz/c TightSCF  NoKeepInts
|  2>
|  3> %scf
|  4>   MaxCore 4096
|  5> end
|  6> *xyz  0  1
|  7>     C       14.9174117   14.4241500   16.3754050
|  8>     C       16.3539457   14.0526764   16.8021599
|  9>     O       17.3538827   15.0452996   16.4536347
| 10>     C       17.0733726   16.3766940   16.3021362
| 11>     O       16.3449787   16.7841888   15.4144973
| 12>     C       17.6696140   17.2430120   17.3794628
| 13>     C       17.4623353   18.5844725   17.4286274
| 14>     C       16.6146526   19.4194582   16.4925198
| 15>     N       18.0936710   19.3567284   18.4082722
| 16>     C       19.0448957   18.8933480   19.2769464
| 17>     S       19.8367553   19.8968071   20.3266908
| 18>     N       19.3167224   17.5504540   19.2247428
| 19>     C       18.5593031   16.5632136   18.4350088
| 20>     C       17.7761109   15.6622964   19.3841177
| 21>     C       18.2896368   14.4013927   19.7422147
| 22>     C       17.5768629   13.5600792   20.6130165
| 23>     C       16.3429626   13.9846652   21.1345575
| 24>     C       15.8344355   15.2444233   20.7900597
| 25>     O       14.6450333   15.6586971   21.2940248
| 26>     C       16.5454757   16.0795845   19.9229633
| 27>     H       14.5698544   15.3285452   16.8904446
| 28>     H       14.2253731   13.6113006   16.6259233
| 29>     H       14.8618013   14.5911244   15.2921023
| 30>     H       16.3512353   13.9037811   17.8881542
| 31>     H       16.6314195   13.0936570   16.3463837
| 32>     H       15.5775695   19.0604187   16.4867455
| 33>     H       16.9909353   19.3468699   15.4639925
| 34>     H       16.5944186   20.4816372   16.7629859
| 35>     H       17.9122519   20.3467155   18.4541368
| 36>     H       20.0008151   17.2338931   19.8996257
| 37>     H       19.2896692   15.9422750   17.8969318
| 38>     H       19.2434683   14.0703186   19.3396605
| 39>     H       17.9818247   12.5860973   20.8832682
| 40>     H       15.7893886   13.3390079   21.8086547
| 41>     H       14.3373982   14.9801033   21.9138901
| 42>     H       16.1375185   17.0546144   19.6800420
| 43> *
| 44>
| 45>                          ****END OF INPUT****

CARTESIAN COORDINATES (ANGSTROEM)
---------------------------------
  C     14.917412   14.424150   16.375405
  C     16.353946   14.052676   16.802160
  O     17.353883   15.045300   16.453635
  C     17.073373   16.376694   16.302136
  O     16.344979   16.784189   15.414497
  C     17.669614   17.243012   17.379463
  C     17.462335   18.584473   17.428627
  C     16.614653   19.419458   16.492520
  N     18.093671   19.356728   18.408272
  C     19.044896   18.893348   19.276946
  S     19.836755   19.896807   20.326691
  N     19.316722   17.550454   19.224743
  C     18.559303   16.563214   18.435009
  C     17.776111   15.662296   19.384118
  C     18.289637   14.401393   19.742215
  C     17.576863   13.560079   20.613017
  C     16.342963   13.984665   21.134557
  C     15.834435   15.244423   20.790060
  O     14.645033   15.658697   21.294025
  C     16.545476   16.079584   19.922963
  H     14.569854   15.328545   16.890445
  H     14.225373   13.611301   16.625923
  H     14.861801   14.591124   15.292102
  H     16.351235   13.903781   17.888154
  H     16.631419   13.093657   16.346384
  H     15.577569   19.060419   16.486746
  H     16.990935   19.346870   15.463992
  H     16.594419   20.481637   16.762986
  H     17.912252   20.346715   18.454137
  H     20.000815   17.233893   19.899626
  H     19.289669   15.942275   17.896932
  H     19.243468   14.070319   19.339661
  H     17.981825   12.586097   20.883268
  H     15.789389   13.339008   21.808655
  H     14.337398   14.980103   21.913890
  H     16.137518   17.054614   19.680042

 Total Charge           Charge          ....    0
 Multiplicity           Mult            ....    1
 Number of Electrons    NEL             ....  154
 Basis Dimension        Dim             ....  828

ORBITAL ENERGIES
----------------

  NO   OCC          E(Eh)            E(eV)
   0   2.0000     -91.889771     -2500.4478
   1   2.0000     -20.602404      -560.6199
   2   2.0000     -20.584456      -560.1315
   3   2.0000     -20.543605      -559.0199
   4   2.0000     -15.630136      -425.3176
   5   2.0000     -15.609208      -424.7482
   6   2.0000     -11.393785      -310.0407
   7   2.0000     -11.384709      -309.7937
   8   2.0000     -11.336910      -308.4930
   9   2.0000     -11.320273      -308.0403
  10   2.0000     -11.310600      -307.7771
  11   2.0000     -11.297262      -307.4141
  12   2.0000     -11.264806      -306.5310
  13   2.0000     -11.261524      -306.4416
  14   2.0000     -11.258332      -306.3548
  15   2.0000     -11.252848      -306.2056
  16   2.0000     -11.248819      -306.0959
  17   2.0000     -11.243473      -305.9504
  18   2.0000     -11.243272      -305.9450
  19   2.0000     -11.221861      -305.3624
  20   2.0000      -8.894826      -242.0405
  21   2.0000      -6.576398      -178.9529
  22   2.0000      -6.574395      -178.8984
  23   2.0000      -6.573807      -178.8824
  24   2.0000      -1.440783       -39.2057
  25   2.0000      -1.422042       -38.6957
  26   2.0000      -1.350393       -36.7461
  27   2.0000      -1.341336       -36.4996
  28   2.0000      -1.240047       -33.7434
  29   2.0000      -1.162700       -31.6387
  30   2.0000      -1.121111       -30.5070
  31   2.0000      -1.046159       -28.4674
  32   2.0000      -1.031088       -28.0573
  33   2.0000      -1.021002       -27.7829
  34   2.0000      -0.997545       -27.1446
  35   2.0000      -0.985302       -26.8114
  36   2.0000      -0.925024       -25.1712
  37   2.0000      -0.892507       -24.2863
  38   2.0000      -0.849286       -23.1102
  39   2.0000      -0.842653       -22.9298
  40   2.0000      -0.838646       -22.8207
  41   2.0000      -0.821984       -22.3673
  42   2.0000      -0.745876       -20.2963
  43   2.0000      -0.734898       -19.9976
  44   2.0000      -0.716613       -19.5000
  45   2.0000      -0.700749       -19.0683
  46   2.0000      -0.690014       -18.7762
  47   2.0000      -0.674919       -18.3655
  48   2.0000      -0.667496       -18.1635
  49   2.0000      -0.663741       -18.0613
  50   2.0000      -0.652423       -17.7533
  51   2.0000      -0.646456       -17.5910
  52   2.0000      -0.638625       -17.3779
  53   2.0000      -0.614738       -16.7279
  54   2.0000      -0.612871       -16.6771
  55   2.0000      -0.604021       -16.4363
  56   2.0000      -0.601378       -16.3643
  57   2.0000      -0.581988       -15.8367
  58   2.0000      -0.571941       -15.5633
  59   2.0000      -0.567902       -15.4534
  60   2.0000      -0.552805       -15.0426
  61   2.0000      -0.539675       -14.6853
  62   2.0000      -0.534864       -14.5544
  63   2.0000      -0.530122       -14.4254
  64   2.0000      -0.523084       -14.2338
  65   2.0000      -0.515165       -14.0184
  66   2.0000      -0.504594       -13.7307
  67   2.0000      -0.493310       -13.4236
  68   2.0000      -0.486846       -13.2477
  69   2.0000      -0.462949       -12.5975
  70   2.0000      -0.451594       -12.2885
  71   2.0000      -0.441001       -12.0002
  72   2.0000      -0.356425        -9.6988
  73   2.0000      -0.354505        -9.6466
  74   2.0000      -0.330686        -8.9984
  75   2.0000      -0.326642        -8.8884
  76   2.0000      -0.317455        -8.6384
  77   0.0000       0.072595         1.9754
  78   0.0000       0.100759         2.7418
  79   0.0000       0.121836         3.3153
  80   0.0000       0.128894         3.5074
  81   0.0000       0.132033         3.5928

MULLIKEN ATOMIC CHARGES
-----------------------
   0 C :   -0.293273
   1 C :    0.034391
   2 O :   -0.388702
   3 C :    0.477353
   4 O :   -0.408261
   5 C :   -0.269879
   6 C :    0.166989
   7 C :   -0.268622
   8 N :   -0.125027
   9 C :    0.217434
  10 S :   -0.440890
  11 N :   -0.210370
  12 C :    0.075372
  13 C :    0.029244
  14 C :   -0.187836
  15 C :   -0.131105
  16 C :   -0.276090
  17 C :    0.305870
  18 O :   -0.356162
  19 C :   -0.239272
  20 H :    0.096561
  21 H :    0.100224
  22 H :    0.120021
  23 H :    0.101359
  24 H :    0.110062
  25 H :    0.128786
  26 H :    0.134678
  27 H :    0.095151
  28 H :    0.197623
  29 H :    0.194742
  30 H :    0.150356
  31 H :    0.151487
  32 H :    0.162685
  33 H :    0.133231
  34 H :    0.242217
  35 H :    0.169655
Sum of atomic charges:   -0.0000000

LOEWDIN ATOMIC CHARGES
----------------------
   0 C :    0.104307
   1 C :   -0.011967
   2 O :    0.283513
   3 C :   -0.416984
   4 O :    0.116327
   5 C :   -0.098456
   6 C :   -0.058033
   7 C :    0.131213
   8 N :    0.407286
   9 C :   -0.455073
  10 S :   -0.035278
  11 N :    0.396163
  12 C :   -0.052794
  13 C :   -0.036559
  14 C :    0.012136
  15 C :    0.041756
  16 C :   -0.002185
  17 C :   -0.189918
  18 O :    0.396684
  19 C :    0.029774
  20 H :   -0.029510
  21 H :   -0.026252
  22 H :   -0.023479
  23 H :   -0.032546
  24 H :   -0.025362
  25 H :   -0.005669
  26 H :   -0.002976
  27 H :   -0.023392
  28 H :   -0.057398
  29 H :   -0.065527
  30 H :   -0.008771
  31 H :   -0.029407
  32 H :   -0.019616
  33 H :   -0.034443
  34 H :   -0.152450
  35 H :   -0.025114

  Mayer bond orders larger than 0.100000
B(  0-C ,  1-C ) :   0.9772 B(  0-C , 20-H ) :   0.9740 B(  0-C , 21-H ) :   0.9738
B(  0-C , 22-H ) :   0.9728 B(  1-C ,  2-O ) :   0.8943 B(  1-C , 23-H ) :   0.9685
B(  1-C , 24-H ) :   0.9820 B(  2-O ,  3-C ) :   1.1024 B(  3-C ,  4-O ) :   2.0154
B(  3-C ,  5-C ) :   1.0593 B(  5-C ,  6-C ) :   1.6460 B(  5-C , 12-C ) :   0.9714
B(  6-C ,  7-C ) :   0.9666 B(  6-C ,  8-N ) :   1.1611 B(  7-C , 25-H ) :   0.9619
B(  7-C , 26-H ) :   0.9580 B(  7-C , 27-H ) :   0.9901 B(  8-N ,  9-C ) :   1.1840
B(  8-N , 28-H ) :   0.9476 B(  9-C , 10-S ) :   1.6028 B(  9-C , 11-N ) :   1.3083
B( 11-N , 12-C ) :   0.9658 B( 11-N , 29-H ) :   0.9521 B( 12-C , 13-C ) :   0.9441
B( 12-C , 30-H ) :   1.0010 B( 13-C , 14-C ) :   1.3498 B( 13-C , 19-C ) :   1.3741
B( 14-C , 15-C ) :   1.3971 B( 14-C , 31-H ) :   0.9733 B( 15-C , 16-C ) :   1.3609
B( 15-C , 32-H ) :   0.9704 B( 16-C , 17-C ) :   1.3303 B( 16-C , 33-H ) :   0.9843
B( 17-C , 18-O ) :   1.1141 B( 17-C , 19-C ) :   1.3714 B( 18-O , 34-H ) :   0.9788
B( 19-C , 35-H ) :   0.9570

MP2 TOTAL ENERGY:    -1274.334473596 Eh
FINAL SINGLE POINT ENERGY     -1274.334473596477

DIPOLE MOMENT
-------------
                                X             Y             Z
Electronic contribution:     10.19491       9.19143       6.33904
Nuclear contribution   :    -11.20433     -10.84846      -6.16580
                        -----------------------------------------
Total Dipole Moment    :     -1.00942      -1.65702       0.17325
                        -----------------------------------------
Magnitude (a.u.)       :      1.94799
Magnitude (Debye)      :      4.95139

Rotational constants in cm-1:     0.012361     0.008923     0.006459
Rotational constants in MHz :   370.559662   267.508284   193.624991

                             ****ORCA TERMINATED NORMALLY****
TOTAL RUN TIME: 0 days 1 hours 44 minutes 37 seconds 469 msec
