                         Program Version 4.2.0 -  RELEASE  -
|  1> ! ri-mp2 cc-pvtz cc-pvtz/c TightSCF  NoKeepInts
|  2>
|  3> %scf
|  4>   MaxCore 4096
|  5> end
|  6> *xyz  0  1
|  7>     C       15.0996010   14.3468316   16.9762896
|  8>     C       16.4522433   13.9540777   16.3392119
|  9>     O       17.4483973   14.9914531   16.4799724
| 10>     C       17.1450643   16.3116077   16.2956053
| 11>     O       16.3826423   16.6794545   15.4183952
| 12>     C       17.7260469   17.2029076   17.3588783
| 13>     C       17.5463891   18.5483406   17.3573510
| 14>     C       16.7584672   19.3672089   16.3573574
| 15>     N       18.1575920   19.3381118   18.3359863
| 16>     C       19.0576279   18.8805579   19.2611524
| 17>     S       19.8262003   19.8994825   20.3132194
| 18>     N       19.2938625   17.5294815   19.2681186
| 19>     C       18.5513845   16.5354644   18.4715098
| 20>     C       17.6850406   15.6834540   19.3943933
| 21>     C       17.9629826   14.3149188   19.5712754
| 22>     C       17.1646284   13.5265663   20.4170028
| 23>     C       16.0823141   14.1120242   21.0957929
| 24>     C       15.8073009   15.4761461   20.9281813
| 25>     O       14.7628262   16.0442048   21.5815775
| 26>     C       16.6024428   16.2577064   20.0843900
| 27>     H       15.2359221   14.6783123   18.0122185
| 28>     H       14.4239530   13.4833110   16.9865435
| 29>     H       14.6013219   15.1460190   16.4144566
| 30>     H       16.8241359   13.0329943   16.8058067
| 31>     H       16.2906444   13.7485286   15.2727054
| 32>     H       17.1495236   19.2182076   15.3427902
| 33>     H       16.7851745   20.4428800   16.5670695
| 34>     H       15.7057004   19.0569499   16.3504402
| 35>     H       17.9989321   20.3330385   18.3424010
| 36>     H       19.9366897   17.2175750   19.9845832
| 37>     H       19.2933174   15.8826906   17.9903924
| 38>     H       18.7971768   13.8592122   19.0444658
| 39>     H       17.3864097   12.4685369   20.5456484
| 40>     H       15.4633429   13.5076305   21.7507722
| 41>     H       14.3653388   15.3634011   22.1450041
| 42>     H       16.3763628   17.3127120   19.9730414
| 43> *
| 44>
| 45>                          ****END OF INPUT****

CARTESIAN COORDINATES (ANGSTROEM)
---------------------------------
  C     15.099601   14.346832   16.976290
  C     16.452243   13.954078   16.339212
  O     17.448397   14.991453   16.479972
  C     17.145064   16.311608   16.295605
  O     16.382642   16.679454   15.418395
  C     17.726047   17.202908   17.358878
  C     17.546389   18.548341   17.357351
  C     16.758467   19.367209   16.357357
  N     18.157592   19.338112   18.335986
  C     19.057628   18.880558   19.261152
  S     19.826200   19.899483   20.313219
  N     19.293862   17.529481   19.268119
  C     18.551385   16.535464   18.471510
  C     17.685041   15.683454   19.394393
  C     17.962983   14.314919   19.571275
  C     17.164628   13.526566   20.417003
  C     16.082314   14.112024   21.095793
  C     15.807301   15.476146   20.928181
  O     14.762826   16.044205   21.581578
  C     16.602443   16.257706   20.084390
  H     15.235922   14.678312   18.012218
  H     14.423953   13.483311   16.986543
  H     14.601322   15.146019   16.414457
  H     16.824136   13.032994   16.805807
  H     16.290644   13.748529   15.272705
  H     17.149524   19.218208   15.342790
  H     16.785175   20.442880   16.567069
  H     15.705700   19.056950   16.350440
  H     17.998932   20.333038   18.342401
  H     19.936690   17.217575   19.984583
  H     19.293317   15.882691   17.990392
  H     18.797177   13.859212   19.044466
  H     17.386410   12.468537   20.545648
  H     15.463343   13.507630   21.750772
  H     14.365339   15.363401   22.145004
  H     16.376363   17.312712   19.973041

 Total Charge           Charge          ....    0
 Multiplicity           Mult            ....    1
 Number of Electrons    NEL             ....  154
 Basis Dimension        Dim             ....  828

ORBITAL ENERGIES
----------------

  NO   OCC          E(Eh)            E(eV)
   0   2.0000     -91.889715     -2500.4463
   1   2.0000     -20.598975      -560.5266
   2   2.0000     -20.591635      -560.3269
   3   2.0000     -20.542336      -558.9854
   4   2.0000     -15.629995      -425.3138
   5   2.0000     -15.608929      -424.7405
   6   2.0000     -11.394362      -310.0564
   7   2.0000     -11.384697      -309.7933
   8   2.0000     -11.336642      -308.4857
   9   2.0000     -11.316527      -307.9383
  10   2.0000     -11.309885      -307.7576
  11   2.0000     -11.298990      -307.4612
  12   2.0000     -11.261906      -306.4520
  13   2.0000     -11.259024      -306.3736
  14   2.0000     -11.258190      -306.3509
  15   2.0000     -11.252527      -306.1968
  16   2.0000     -11.245929      -306.0173
  17   2.0000     -11.240871      -305.8796
  18   2.0000     -11.240726      -305.8757
  19   2.0000     -11.221345      -305.3483
  20   2.0000      -8.894764      -242.0388
  21   2.0000      -6.576335      -178.9512
  22   2.0000      -6.574334      -178.8967
  23   2.0000      -6.573744      -178.8807
  24   2.0000      -1.446276       -39.3552
  25   2.0000      -1.418704       -38.6049
  26   2.0000      -1.351893       -36.7869
  27   2.0000      -1.340921       -36.4883
  28   2.0000      -1.239365       -33.7248
  29   2.0000      -1.160020       -31.5658
  30   2.0000      -1.121070       -30.5059
  31   2.0000      -1.044289       -28.4165
  32   2.0000      -1.032583       -28.0980
  33   2.0000      -1.017873       -27.6977
  34   2.0000      -0.996562       -27.1178
  35   2.0000      -0.985311       -26.8117
  36   2.0000      -0.923809       -25.1381
  37   2.0000      -0.896636       -24.3987
  38   2.0000      -0.847885       -23.0721
  39   2.0000      -0.840364       -22.8675
  40   2.0000      -0.836612       -22.7654
  41   2.0000      -0.816529       -22.2189
  42   2.0000      -0.747523       -20.3411
  43   2.0000      -0.733832       -19.9686
  44   2.0000      -0.722731       -19.6665
  45   2.0000      -0.698071       -18.9955
  46   2.0000      -0.690135       -18.7795
  47   2.0000      -0.675238       -18.3742
  48   2.0000      -0.670495       -18.2451
  49   2.0000      -0.661976       -18.0133
  50   2.0000      -0.650418       -17.6988
  51   2.0000      -0.641863       -17.4660
  52   2.0000      -0.634744       -17.2723
  53   2.0000      -0.619640       -16.8613
  54   2.0000      -0.609271       -16.5791
  55   2.0000      -0.602244       -16.3879
  56   2.0000      -0.599985       -16.3264
  57   2.0000      -0.579557       -15.7705
  58   2.0000      -0.571206       -15.5433
  59   2.0000      -0.566441       -15.4136
  60   2.0000      -0.552377       -15.0310
  61   2.0000      -0.544117       -14.8062
  62   2.0000      -0.534001       -14.5309
  63   2.0000      -0.526905       -14.3378
  64   2.0000      -0.525952       -14.3119
  65   2.0000      -0.514305       -13.9949
  66   2.0000      -0.502433       -13.6719
  67   2.0000      -0.500864       -13.6292
  68   2.0000      -0.481431       -13.1004
  69   2.0000      -0.464982       -12.6528
  70   2.0000      -0.453636       -12.3440
  71   2.0000      -0.443732       -12.0746
  72   2.0000      -0.355293        -9.6680
  73   2.0000      -0.351743        -9.5714
  74   2.0000      -0.329232        -8.9589
  75   2.0000      -0.324526        -8.8308
  76   2.0000      -0.316903        -8.6234
  77   0.0000       0.073081         1.9886
  78   0.0000       0.104105         2.8328
  79   0.0000       0.123970         3.3734
  80   0.0000       0.130779         3.5587
  81   0.0000       0.136620         3.7176

MULLIKEN ATOMIC CHARGES
-----------------------
   0 C :   -0.329141
   1 C :    0.032262
   2 O :   -0.381723
   3 C :    0.485985
   4 O :   -0.430162
   5 C :   -0.237817
   6 C :    0.153676
   7 C :   -0.271855
   8 N :   -0.122307
   9 C :    0.209286
  10 S :   -0.438111
  11 N :   -0.203022
  12 C :    0.056598
  13 C :    0.032636
  14 C :   -0.173001
  15 C :   -0.137330
  16 C :   -0.270093
  17 C :    0.305126
  18 O :   -0.359172
  19 C :   -0.252372
  20 H :    0.110928
  21 H :    0.102393
  22 H :    0.124351
  23 H :    0.111185
  24 H :    0.120282
  25 H :    0.132544
  26 H :    0.095343
  27 H :    0.131356
  28 H :    0.198008
  29 H :    0.193914
  30 H :    0.152187
  31 H :    0.156341
  32 H :    0.162033
  33 H :    0.132103
  34 H :    0.240945
  35 H :    0.166624
Sum of atomic charges:   -0.0000000

LOEWDIN ATOMIC CHARGES
----------------------
   0 C :    0.105734
   1 C :   -0.014237
   2 O :    0.293707
   3 C :   -0.416430
   4 O :    0.103079
   5 C :   -0.095890
   6 C :   -0.058031
   7 C :    0.131748
   8 N :    0.406732
   9 C :   -0.456927
  10 S :   -0.034227
  11 N :    0.396669
  12 C :   -0.052044
  13 C :   -0.040063
  14 C :    0.015909
  15 C :    0.039386
  16 C :   -0.001734
  17 C :   -0.191160
  18 O :    0.396436
  19 C :    0.031080
  20 H :   -0.027640
  21 H :   -0.025732
  22 H :   -0.026724
  23 H :   -0.025993
  24 H :   -0.028373
  25 H :   -0.003396
  26 H :   -0.023354
  27 H :   -0.004928
  28 H :   -0.057459
  29 H :   -0.064663
  30 H :   -0.009391
  31 H :   -0.029190
  32 H :   -0.020882
  33 H :   -0.035067
  34 H :   -0.153359
  35 H :   -0.023588

  Mayer bond orders larger than 0.100000
B(  0-C ,  1-C ) :   0.9555 B(  0-C , 20-H ) :   0.9688 B(  0-C , 21-H ) :   0.9781
B(  0-C , 22-H ) :   0.9736 B(  1-C ,  2-O ) :   0.8849 B(  1-C , 23-H ) :   0.9818
B(  1-C , 24-H ) :   0.9864 B(  2-O ,  3-C ) :   1.1359 B(  3-C ,  4-O ) :   1.9836
B(  3-C ,  5-C ) :   1.0620 B(  5-C ,  6-C ) :   1.6531 B(  5-C , 12-C ) :   0.9699
B(  6-C ,  7-C ) :   0.9664 B(  6-C ,  8-N ) :   1.1617 B(  7-C , 25-H ) :   0.9596
B(  7-C , 26-H ) :   0.9901 B(  7-C , 27-H ) :   0.9610 B(  8-N ,  9-C ) :   1.1815
B(  8-N , 28-H ) :   0.9478 B(  9-C , 10-S ) :   1.6104 B(  9-C , 11-N ) :   1.3041
B( 11-N , 12-C ) :   0.9859 B( 11-N , 29-H ) :   0.9524 B( 12-C , 13-C ) :   0.9352
B( 12-C , 30-H ) :   1.0020 B( 13-C , 14-C ) :   1.3601 B( 13-C , 19-C ) :   1.3842
B( 14-C , 15-C ) :   1.3846 B( 14-C , 31-H ) :   0.9701 B( 15-C , 16-C ) :   1.3632
B( 15-C , 32-H ) :   0.9708 B( 16-C , 17-C ) :   1.3319 B( 16-C , 33-H ) :   0.9844
B( 17-C , 18-O ) :   1.1118 B( 17-C , 19-C ) :   1.3718 B( 18-O , 34-H ) :   0.9796
B( 19-C , 35-H ) :   0.9580

MP2 TOTAL ENERGY:    -1274.344201505 Eh
FINAL SINGLE POINT ENERGY     -1274.344201504999

DIPOLE MOMENT
-------------
                                X             Y             Z
Electronic contribution:     10.01950       9.51959       6.21962
Nuclear contribution   :    -11.03563     -11.21908      -6.36653
                        -----------------------------------------
Total Dipole Moment    :     -1.01613      -1.69949      -0.14690
                        -----------------------------------------
Magnitude (a.u.)       :      1.98554
Magnitude (Debye)      :      5.04684

Rotational constants in cm-1:     0.012467     0.008998     0.006484
Rotational constants in MHz :   373.741307   269.756300   194.398957

                             ****ORCA TERMINATED NORMALLY****
TOTAL RUN TIME: 0 days 1 hours 45 minutes 18 seconds 265 msec
