                         Program Version 4.2.0 -  RELEASE  -
|  1> ! ri-mp2 cc-pvtz cc-pvtz/c TightSCF  NoKeepInts
|  2>
|  3> %scf
|  4>   MaxCore 4096
|  5> end
|  6> *xyz  0  1
|  7>     C       14.4828606   14.7048825   15.1243527
|  8>     C       15.5981195   14.4118832   16.1418064
|  9>     O       16.5212485   15.5114706   16.0971906
| 10>     C       17.6537051   15.4366150   16.8536430
| 11>     O       18.1317690   14.3639490   17.1852020
| 12>     C       17.9707574   16.7081427   17.5858481
| 13>     C       17.5974617   17.9481904   17.1755067
| 14>     C       16.8288077   18.3213948   15.9244275
| 15>     N       17.9967542   19.0712106   17.9074698
| 16>     C       18.8807937   19.0504280   18.9538878
| 17>     S       19.3994819   20.4406392   19.6845363
| 18>     N       19.3143030   17.8149430   19.3635106
| 19>     C       18.7821355   16.5293291   18.8737918
| 20>     C       17.9467680   15.8506332   19.9563673
| 21>     C       18.2454157   14.5390846   20.3695456
| 22>     C       17.4770773   13.9078846   21.3621064
| 23>     C       16.3993201   14.5933032   21.9479885
| 24>     C       16.0959140   15.8982568   21.5367758
| 25>     O       15.0517134   16.5604189   22.0958082
| 26>     C       16.8621140   16.5236240   20.5481933
| 27>     H       13.9597391   15.6345217   15.3803337
| 28>     H       13.7492566   13.8895807   15.1132945
| 29>     H       14.8984623   14.8065199   14.1140697
| 30>     H       15.1773603   14.3060161   17.1508720
| 31>     H       16.1032110   13.4739735   15.8724339
| 32>     H       17.2316688   17.7991869   15.0476006
| 33>     H       16.8733405   19.3952027   15.7057817
| 34>     H       15.7714138   18.0459558   16.0237504
| 35>     H       17.6897623   19.9872762   17.6217836
| 36>     H       19.9413443   17.8253385   20.1576510
| 37>     H       19.6394296   15.8806120   18.6426768
| 38>     H       19.0676970   14.0003221   19.9049549
| 39>     H       17.7153292   12.8908642   21.6683051
| 40>     H       15.8023569   14.1089254   22.7134633
| 41>     H       14.6781374   15.9861380   22.7809750
| 42>     H       16.6119707   17.5352828   20.2480953
| 43> *
| 44>
| 45>                          ****END OF INPUT****

CARTESIAN COORDINATES (ANGSTROEM)
---------------------------------
  C     14.482861   14.704883   15.124353
  C     15.598119   14.411883   16.141806
  O     16.521248   15.511471   16.097191
  C     17.653705   15.436615   16.853643
  O     18.131769   14.363949   17.185202
  C     17.970757   16.708143   17.585848
  C     17.597462   17.948190   17.175507
  C     16.828808   18.321395   15.924427
  N     17.996754   19.071211   17.907470
  C     18.880794   19.050428   18.953888
  S     19.399482   20.440639   19.684536
  N     19.314303   17.814943   19.363511
  C     18.782135   16.529329   18.873792
  C     17.946768   15.850633   19.956367
  C     18.245416   14.539085   20.369546
  C     17.477077   13.907885   21.362106
  C     16.399320   14.593303   21.947988
  C     16.095914   15.898257   21.536776
  O     15.051713   16.560419   22.095808
  C     16.862114   16.523624   20.548193
  H     13.959739   15.634522   15.380334
  H     13.749257   13.889581   15.113294
  H     14.898462   14.806520   14.114070
  H     15.177360   14.306016   17.150872
  H     16.103211   13.473973   15.872434
  H     17.231669   17.799187   15.047601
  H     16.873341   19.395203   15.705782
  H     15.771414   18.045956   16.023750
  H     17.689762   19.987276   17.621784
  H     19.941344   17.825339   20.157651
  H     19.639430   15.880612   18.642677
  H     19.067697   14.000322   19.904955
  H     17.715329   12.890864   21.668305
  H     15.802357   14.108925   22.713463
  H     14.678137   15.986138   22.780975
  H     16.611971   17.535283   20.248095

 Total Charge           Charge          ....    0
 Multiplicity           Mult            ....    1
 Number of Electrons    NEL             ....  154
 Basis Dimension        Dim             ....  828

ORBITAL ENERGIES
----------------

  NO   OCC          E(Eh)            E(eV)
   0   2.0000     -91.888143     -2500.4035
   1   2.0000     -20.597978      -560.4995
   2   2.0000     -20.592603      -560.3532
   3   2.0000     -20.548785      -559.1609
   4   2.0000     -15.628279      -425.2671
   5   2.0000     -15.606992      -424.6878
   6   2.0000     -11.394831      -310.0691
   7   2.0000     -11.383205      -309.7528
   8   2.0000     -11.335153      -308.4452
   9   2.0000     -11.308466      -307.7190
  10   2.0000     -11.306356      -307.6616
  11   2.0000     -11.298682      -307.4528
  12   2.0000     -11.260229      -306.4064
  13   2.0000     -11.259272      -306.3804
  14   2.0000     -11.254291      -306.2448
  15   2.0000     -11.248549      -306.0886
  16   2.0000     -11.238226      -305.8077
  17   2.0000     -11.234304      -305.7010
  18   2.0000     -11.234300      -305.7009
  19   2.0000     -11.231313      -305.6196
  20   2.0000      -8.893209      -241.9965
  21   2.0000      -6.574786      -178.9090
  22   2.0000      -6.572779      -178.8544
  23   2.0000      -6.572194      -178.8385
  24   2.0000      -1.454899       -39.5898
  25   2.0000      -1.412346       -38.4319
  26   2.0000      -1.357277       -36.9334
  27   2.0000      -1.339245       -36.4427
  28   2.0000      -1.237039       -33.6616
  29   2.0000      -1.152916       -31.3724
  30   2.0000      -1.119947       -30.4753
  31   2.0000      -1.044422       -28.4202
  32   2.0000      -1.036957       -28.2170
  33   2.0000      -1.010305       -27.4918
  34   2.0000      -0.997919       -27.1548
  35   2.0000      -0.983571       -26.7643
  36   2.0000      -0.921473       -25.0746
  37   2.0000      -0.886513       -24.1232
  38   2.0000      -0.847085       -23.0503
  39   2.0000      -0.835666       -22.7396
  40   2.0000      -0.828720       -22.5506
  41   2.0000      -0.819900       -22.3106
  42   2.0000      -0.760567       -20.6961
  43   2.0000      -0.735911       -20.0252
  44   2.0000      -0.725580       -19.7440
  45   2.0000      -0.691058       -18.8046
  46   2.0000      -0.684003       -18.6127
  47   2.0000      -0.681281       -18.5386
  48   2.0000      -0.675984       -18.3945
  49   2.0000      -0.655924       -17.8486
  50   2.0000      -0.651577       -17.7303
  51   2.0000      -0.643291       -17.5048
  52   2.0000      -0.634685       -17.2707
  53   2.0000      -0.606354       -16.4997
  54   2.0000      -0.601250       -16.3609
  55   2.0000      -0.600755       -16.3474
  56   2.0000      -0.595972       -16.2172
  57   2.0000      -0.577108       -15.7039
  58   2.0000      -0.574026       -15.6200
  59   2.0000      -0.563261       -15.3271
  60   2.0000      -0.561150       -15.2697
  61   2.0000      -0.547576       -14.9003
  62   2.0000      -0.542946       -14.7743
  63   2.0000      -0.522306       -14.2127
  64   2.0000      -0.517838       -14.0911
  65   2.0000      -0.509863       -13.8741
  66   2.0000      -0.504804       -13.7364
  67   2.0000      -0.496024       -13.4975
  68   2.0000      -0.481399       -13.0995
  69   2.0000      -0.463410       -12.6100
  70   2.0000      -0.461310       -12.5529
  71   2.0000      -0.452858       -12.3229
  72   2.0000      -0.354008        -9.6330
  73   2.0000      -0.344754        -9.3812
  74   2.0000      -0.327311        -8.9066
  75   2.0000      -0.315944        -8.5973
  76   2.0000      -0.314536        -8.5590
  77   0.0000       0.074576         2.0293
  78   0.0000       0.110902         3.0178
  79   0.0000       0.120126         3.2688
  80   0.0000       0.135150         3.6776
  81   0.0000       0.138375         3.7654

MULLIKEN ATOMIC CHARGES
-----------------------
   0 C :   -0.273263
   1 C :    0.046136
   2 O :   -0.348202
   3 C :    0.439585
   4 O :   -0.415448
   5 C :   -0.177539
   6 C :    0.141954
   7 C :   -0.286941
   8 N :   -0.123758
   9 C :    0.202236
  10 S :   -0.439628
  11 N :   -0.198337
  12 C :    0.041451
  13 C :    0.054030
  14 C :   -0.160943
  15 C :   -0.133619
  16 C :   -0.279904
  17 C :    0.311181
  18 O :   -0.359003
  19 C :   -0.273823
  20 H :    0.091280
  21 H :    0.098140
  22 H :    0.098153
  23 H :    0.090859
  24 H :    0.106814
  25 H :    0.125915
  26 H :    0.103986
  27 H :    0.126543
  28 H :    0.196992
  29 H :    0.193809
  30 H :    0.154020
  31 H :    0.153784
  32 H :    0.159470
  33 H :    0.128539
  34 H :    0.240203
  35 H :    0.165326
Sum of atomic charges:    0.0000000

LOEWDIN ATOMIC CHARGES
----------------------
   0 C :    0.107454
   1 C :   -0.017356
   2 O :    0.301496
   3 C :   -0.414194
   4 O :    0.111951
   5 C :   -0.092010
   6 C :   -0.068791
   7 C :    0.125340
   8 N :    0.404538
   9 C :   -0.458396
  10 S :   -0.036253
  11 N :    0.397555
  12 C :   -0.046006
  13 C :   -0.039144
  14 C :    0.022004
  15 C :    0.041029
  16 C :   -0.002488
  17 C :   -0.193088
  18 O :    0.392991
  19 C :    0.028092
  20 H :   -0.029813
  21 H :   -0.023286
  22 H :   -0.026072
  23 H :   -0.028896
  24 H :   -0.027496
  25 H :   -0.008328
  26 H :   -0.020465
  27 H :   -0.010487
  28 H :   -0.059009
  29 H :   -0.063822
  30 H :   -0.004800
  31 H :   -0.025175
  32 H :   -0.021054
  33 H :   -0.036298
  34 H :   -0.154787
  35 H :   -0.024935

  Mayer bond orders larger than 0.100000
B(  0-C ,  1-C ) :   0.9716 B(  0-C , 20-H ) :   0.9787 B(  0-C , 21-H ) :   0.9779
B(  0-C , 22-H ) :   0.9771 B(  1-C ,  2-O ) :   0.9026 B(  1-C , 23-H ) :   0.9732
B(  1-C , 24-H ) :   0.9786 B(  2-O ,  3-C ) :   1.1328 B(  3-C ,  4-O ) :   2.0029
B(  3-C ,  5-C ) :   1.0410 B(  5-C ,  6-C ) :   1.6549 B(  5-C , 12-C ) :   0.9660
B(  6-C ,  7-C ) :   0.9533 B(  6-C ,  8-N ) :   1.1412 B(  7-C , 25-H ) :   0.9676
B(  7-C , 26-H ) :   0.9909 B(  7-C , 27-H ) :   0.9627 B(  8-N ,  9-C ) :   1.1809
B(  8-N , 28-H ) :   0.9492 B(  9-C , 10-S ) :   1.6105 B(  9-C , 11-N ) :   1.3028
B( 11-N , 12-C ) :   0.9912 B( 11-N , 29-H ) :   0.9519 B( 12-C , 13-C ) :   0.9469
B( 12-C , 30-H ) :   0.9992 B( 13-C , 14-C ) :   1.3767 B( 13-C , 19-C ) :   1.3689
B( 14-C , 15-C ) :   1.3948 B( 14-C , 31-H ) :   0.9646 B( 15-C , 16-C ) :   1.3628
B( 15-C , 32-H ) :   0.9713 B( 16-C , 17-C ) :   1.3313 B( 16-C , 33-H ) :   0.9858
B( 17-C , 18-O ) :   1.1083 B( 17-C , 19-C ) :   1.3784 B( 18-O , 34-H ) :   0.9804
B( 19-C , 35-H ) :   0.9583

MP2 TOTAL ENERGY:    -1274.340503125 Eh
FINAL SINGLE POINT ENERGY     -1274.340503124645

DIPOLE MOMENT
-------------
                                X             Y             Z
Electronic contribution:     11.84502       9.03790      10.30325
Nuclear contribution   :    -13.37333     -10.32718     -11.11633
                        -----------------------------------------
Total Dipole Moment    :     -1.52830      -1.28928      -0.81307
                        -----------------------------------------
Magnitude (a.u.)       :      2.15848
Magnitude (Debye)      :      5.48643

Rotational constants in cm-1:     0.010420     0.009073     0.006048
Rotational constants in MHz :   312.384722   272.015398   181.303383

                             ****ORCA TERMINATED NORMALLY****
TOTAL RUN TIME: 0 days 1 hours 39 minutes 27 seconds 639 msec
