                         Program Version 4.2.0 -  RELEASE  -
|  1> ! ri-mp2 cc-pvtz cc-pvtz/c TightSCF  NoKeepInts
|  2>
|  3> %scf
|  4>   MaxCore 4096
|  5> end
|  6> *xyz  0  1
|  7>     C       14.4856195   14.5966197   15.6262504
|  8>     C       15.7117442   14.5281817   16.5516239
|  9>     O       16.6545077   15.5091090   16.0914115
| 10>     C       17.8632123   15.5598491   16.7189995
| 11>     O       18.4526294   14.5374711   17.0278223
| 12>     C       18.0350617   16.8255101   17.5033080
| 13>     C       17.5599486   18.0324491   17.1048508
| 14>     C       16.8222998   18.3532908   15.8215318
| 15>     N       17.8043636   19.1673083   17.8841911
| 16>     C       18.6189275   19.1989171   18.9856814
| 17>     S       18.9451235   20.6082248   19.7874474
| 18>     N       19.1505435   17.9998184   19.3897077
| 19>     C       18.7956139   16.6837986   18.8250277
| 20>     C       17.9821661   15.8719974   19.8296078
| 21>     C       18.4062552   14.5883770   20.2197132
| 22>     C       17.6535750   13.8321855   21.1337868
| 23>     C       16.4648426   14.3628821   21.6628822
| 24>     C       16.0366156   15.6392495   21.2737636
| 25>     O       14.8845815   16.1510730   21.7756653
| 26>     C       16.7875300   16.3892093   20.3632747
| 27>     H       14.7729715   14.3853903   14.5886402
| 28>     H       14.0267430   15.5922505   15.6641390
| 29>     H       13.7329710   13.8592603   15.9308580
| 30>     H       15.4194623   14.7352454   17.5901705
| 31>     H       16.1497571   13.5214767   16.5055853
| 32>     H       17.2728989   17.8309055   14.9683170
| 33>     H       16.8373717   19.4242015   15.5850839
| 34>     H       15.7731968   18.0394823   15.8899365
| 35>     H       17.4237696   20.0570427   17.6035518
| 36>     H       19.7229629   18.0471198   20.2228483
| 37>     H       19.7311020   16.1438410   18.6187426
| 38>     H       19.3154477   14.1679601   19.7966848
| 39>     H       17.9901185   12.8381352   21.4229392
| 40>     H       15.8796520   13.7812829   22.3674178
| 41>     H       14.5438876   15.5167940   22.4242694
| 42>     H       16.4395262   17.3760904   20.0782685
| 43> *
| 44>
| 45>                          ****END OF INPUT****

CARTESIAN COORDINATES (ANGSTROEM)
---------------------------------
  C     14.485620   14.596620   15.626250
  C     15.711744   14.528182   16.551624
  O     16.654508   15.509109   16.091411
  C     17.863212   15.559849   16.718999
  O     18.452629   14.537471   17.027822
  C     18.035062   16.825510   17.503308
  C     17.559949   18.032449   17.104851
  C     16.822300   18.353291   15.821532
  N     17.804364   19.167308   17.884191
  C     18.618927   19.198917   18.985681
  S     18.945124   20.608225   19.787447
  N     19.150544   17.999818   19.389708
  C     18.795614   16.683799   18.825028
  C     17.982166   15.871997   19.829608
  C     18.406255   14.588377   20.219713
  C     17.653575   13.832185   21.133787
  C     16.464843   14.362882   21.662882
  C     16.036616   15.639249   21.273764
  O     14.884581   16.151073   21.775665
  C     16.787530   16.389209   20.363275
  H     14.772972   14.385390   14.588640
  H     14.026743   15.592251   15.664139
  H     13.732971   13.859260   15.930858
  H     15.419462   14.735245   17.590170
  H     16.149757   13.521477   16.505585
  H     17.272899   17.830906   14.968317
  H     16.837372   19.424201   15.585084
  H     15.773197   18.039482   15.889936
  H     17.423770   20.057043   17.603552
  H     19.722963   18.047120   20.222848
  H     19.731102   16.143841   18.618743
  H     19.315448   14.167960   19.796685
  H     17.990119   12.838135   21.422939
  H     15.879652   13.781283   22.367418
  H     14.543888   15.516794   22.424269
  H     16.439526   17.376090   20.078269

 Total Charge           Charge          ....    0
 Multiplicity           Mult            ....    1
 Number of Electrons    NEL             ....  154
 Basis Dimension        Dim             ....  828

ORBITAL ENERGIES
----------------

  NO   OCC          E(Eh)            E(eV)
   0   2.0000     -91.888541     -2500.4143
   1   2.0000     -20.595013      -560.4188
   2   2.0000     -20.589165      -560.2597
   3   2.0000     -20.553439      -559.2875
   4   2.0000     -15.628265      -425.2667
   5   2.0000     -15.607887      -424.7122
   6   2.0000     -11.394247      -310.0532
   7   2.0000     -11.383930      -309.7725
   8   2.0000     -11.333494      -308.4000
   9   2.0000     -11.311079      -307.7901
  10   2.0000     -11.307969      -307.7055
  11   2.0000     -11.297706      -307.4262
  12   2.0000     -11.259957      -306.3990
  13   2.0000     -11.259673      -306.3913
  14   2.0000     -11.256598      -306.3076
  15   2.0000     -11.251092      -306.1578
  16   2.0000     -11.240763      -305.8767
  17   2.0000     -11.236725      -305.7668
  18   2.0000     -11.233875      -305.6893
  19   2.0000     -11.232579      -305.6540
  20   2.0000      -8.893614      -242.0075
  21   2.0000      -6.575192      -178.9201
  22   2.0000      -6.573183      -178.8654
  23   2.0000      -6.572599      -178.8495
  24   2.0000      -1.454161       -39.5697
  25   2.0000      -1.414791       -38.4984
  26   2.0000      -1.357104       -36.9287
  27   2.0000      -1.339345       -36.4454
  28   2.0000      -1.237521       -33.6747
  29   2.0000      -1.155218       -31.4351
  30   2.0000      -1.120902       -30.5013
  31   2.0000      -1.044555       -28.4238
  32   2.0000      -1.036177       -28.1958
  33   2.0000      -1.012652       -27.5557
  34   2.0000      -0.998791       -27.1785
  35   2.0000      -0.984380       -26.7863
  36   2.0000      -0.922702       -25.1080
  37   2.0000      -0.883047       -24.0289
  38   2.0000      -0.847717       -23.0676
  39   2.0000      -0.837609       -22.7925
  40   2.0000      -0.831184       -22.6177
  41   2.0000      -0.823691       -22.4138
  42   2.0000      -0.758391       -20.6369
  43   2.0000      -0.735981       -20.0271
  44   2.0000      -0.727471       -19.7955
  45   2.0000      -0.693056       -18.8590
  46   2.0000      -0.685239       -18.6463
  47   2.0000      -0.681241       -18.5375
  48   2.0000      -0.675445       -18.3798
  49   2.0000      -0.655141       -17.8273
  50   2.0000      -0.651175       -17.7194
  51   2.0000      -0.642594       -17.4859
  52   2.0000      -0.634175       -17.2568
  53   2.0000      -0.614810       -16.7298
  54   2.0000      -0.603503       -16.4222
  55   2.0000      -0.602311       -16.3897
  56   2.0000      -0.598458       -16.2849
  57   2.0000      -0.577098       -15.7036
  58   2.0000      -0.575417       -15.6579
  59   2.0000      -0.563662       -15.3380
  60   2.0000      -0.558825       -15.2064
  61   2.0000      -0.546260       -14.8645
  62   2.0000      -0.539941       -14.6926
  63   2.0000      -0.522428       -14.2160
  64   2.0000      -0.520126       -14.1534
  65   2.0000      -0.511037       -13.9060
  66   2.0000      -0.504059       -13.7161
  67   2.0000      -0.497236       -13.5305
  68   2.0000      -0.482390       -13.1265
  69   2.0000      -0.464842       -12.6490
  70   2.0000      -0.460132       -12.5208
  71   2.0000      -0.450945       -12.2708
  72   2.0000      -0.354028        -9.6336
  73   2.0000      -0.346977        -9.4417
  74   2.0000      -0.327823        -8.9205
  75   2.0000      -0.318122        -8.6565
  76   2.0000      -0.315413        -8.5828
  77   0.0000       0.072048         1.9605
  78   0.0000       0.106620         2.9013
  79   0.0000       0.119352         3.2477
  80   0.0000       0.133039         3.6202
  81   0.0000       0.136718         3.7203

MULLIKEN ATOMIC CHARGES
-----------------------
   0 C :   -0.269446
   1 C :    0.043317
   2 O :   -0.363538
   3 C :    0.452088
   4 O :   -0.404096
   5 C :   -0.190978
   6 C :    0.136257
   7 C :   -0.282909
   8 N :   -0.124214
   9 C :    0.203359
  10 S :   -0.439970
  11 N :   -0.200587
  12 C :    0.052030
  13 C :    0.050142
  14 C :   -0.160651
  15 C :   -0.132621
  16 C :   -0.280686
  17 C :    0.313482
  18 O :   -0.359344
  19 C :   -0.282481
  20 H :    0.099943
  21 H :    0.089597
  22 H :    0.095057
  23 H :    0.092644
  24 H :    0.110077
  25 H :    0.124147
  26 H :    0.104455
  27 H :    0.125390
  28 H :    0.197171
  29 H :    0.194181
  30 H :    0.154685
  31 H :    0.155127
  32 H :    0.160338
  33 H :    0.129979
  34 H :    0.240699
  35 H :    0.167358
Sum of atomic charges:   -0.0000000

LOEWDIN ATOMIC CHARGES
----------------------
   0 C :    0.108466
   1 C :   -0.017754
   2 O :    0.294560
   3 C :   -0.415206
   4 O :    0.123918
   5 C :   -0.093398
   6 C :   -0.073251
   7 C :    0.125957
   8 N :    0.404155
   9 C :   -0.457563
  10 S :   -0.036477
  11 N :    0.397164
  12 C :   -0.045492
  13 C :   -0.040085
  14 C :    0.021865
  15 C :    0.041804
  16 C :   -0.002297
  17 C :   -0.194201
  18 O :    0.393274
  19 C :    0.027715
  20 H :   -0.025149
  21 H :   -0.030420
  22 H :   -0.023786
  23 H :   -0.030530
  24 H :   -0.027140
  25 H :   -0.008013
  26 H :   -0.019746
  27 H :   -0.010575
  28 H :   -0.058792
  29 H :   -0.064032
  30 H :   -0.004738
  31 H :   -0.024826
  32 H :   -0.020553
  33 H :   -0.035866
  34 H :   -0.154280
  35 H :   -0.024704

  Mayer bond orders larger than 0.100000
B(  0-C ,  1-C ) :   0.9748 B(  0-C , 20-H ) :   0.9775 B(  0-C , 21-H ) :   0.9789
B(  0-C , 22-H ) :   0.9770 B(  1-C ,  2-O ) :   0.8969 B(  1-C , 23-H ) :   0.9685
B(  1-C , 24-H ) :   0.9790 B(  2-O ,  3-C ) :   1.1008 B(  3-C ,  4-O ) :   2.0165
B(  3-C ,  5-C ) :   1.0332 B(  5-C ,  6-C ) :   1.6659 B(  5-C , 12-C ) :   0.9637
B(  6-C ,  7-C ) :   0.9518 B(  6-C ,  8-N ) :   1.1393 B(  7-C , 25-H ) :   0.9700
B(  7-C , 26-H ) :   0.9887 B(  7-C , 27-H ) :   0.9628 B(  8-N ,  9-C ) :   1.1837
B(  8-N , 28-H ) :   0.9498 B(  9-C , 10-S ) :   1.6104 B(  9-C , 11-N ) :   1.3008
B( 11-N , 12-C ) :   0.9923 B( 11-N , 29-H ) :   0.9517 B( 12-C , 13-C ) :   0.9459
B( 12-C , 30-H ) :   0.9986 B( 13-C , 14-C ) :   1.3775 B( 13-C , 19-C ) :   1.3666
B( 14-C , 15-C ) :   1.3944 B( 14-C , 31-H ) :   0.9642 B( 15-C , 16-C ) :   1.3636
B( 15-C , 32-H ) :   0.9711 B( 16-C , 17-C ) :   1.3310 B( 16-C , 33-H ) :   0.9852
B( 17-C , 18-O ) :   1.1091 B( 17-C , 19-C ) :   1.3745 B( 18-O , 34-H ) :   0.9800
B( 19-C , 35-H ) :   0.9585

MP2 TOTAL ENERGY:    -1274.329779950 Eh
FINAL SINGLE POINT ENERGY     -1274.329779949595

DIPOLE MOMENT
-------------
                                X             Y             Z
Electronic contribution:     11.36852       9.52125       8.82327
Nuclear contribution   :    -12.72911     -10.86170      -9.46203
                        -----------------------------------------
Total Dipole Moment    :     -1.36059      -1.34045      -0.63876
                        -----------------------------------------
Magnitude (a.u.)       :      2.01396
Magnitude (Debye)      :      5.11907

Rotational constants in cm-1:     0.010974     0.009147     0.006380
Rotational constants in MHz :   328.981442   274.233427   191.259292

                             ****ORCA TERMINATED NORMALLY****
TOTAL RUN TIME: 0 days 1 hours 40 minutes 13 seconds 186 msec
