                         Program Version 5.0.0 -  RELEASE  -
|  1> ! ri-mp2 cc-pvtz cc-pvtz/c TightSCF NoKeepInts
|  2>
|  3> %scf
|  4>   MaxCore 4096
|  5> end
|  6> *xyz  0  1
|  7>     C       15.1242138   15.4046929   17.5432189
|  8>     C       15.5492155   15.3960924   16.0615264
|  9>     O       16.9453383   15.0559842   15.8894929
| 10>     C       18.0653175   15.5966299   16.4816960
| 11>     O       19.0915735   14.9421884   16.4997668
| 12>     C       17.9198081   16.7922404   17.3704032
| 13>     C       17.4055459   17.9717222   16.9452850
| 14>     C       16.9417468   18.3267499   15.5489059
| 15>     N       17.3996539   19.0780263   17.7978719
| 16>     C       18.0305832   19.1309847   19.0125689
| 17>     S       18.0521321   20.5123914   19.9209444
| 18>     N       18.6501678   17.9811431   19.4335910
| 19>     C       18.5704454   16.6723242   18.7546495
| 20>     C       17.8719825   15.6314958   19.6284515
| 21>     C       18.3135339   14.2951930   19.6161981
| 22>     C       17.6780597   13.3207427   20.4033391
| 23>     C       16.5901250   13.6832637   21.2147840
| 24>     C       16.1468183   15.0121468   21.2333895
| 25>     O       15.0905231   15.3641760   22.0085146
| 26>     C       16.7813303   15.9805535   20.4488339
| 27>     H       15.5809520   14.5664977   18.0849703
| 28>     H       14.0355228   15.2986895   17.6226210
| 29>     H       15.3922206   16.3419109   18.0409082
| 30>     H       14.9568154   14.6318902   15.5415799
| 31>     H       15.3003912   16.3525728   15.5943046
| 32>     H       17.1564959   17.5340652   14.8220430
| 33>     H       17.4608024   19.2235949   15.1865612
| 34>     H       15.8653045   18.5354450   15.5273112
| 35>     H       16.9730575   19.9399274   17.4960288
| 36>     H       19.0989866   18.0445035   20.3387225
| 37>     H       19.6032617   16.3262857   18.5995274
| 38>     H       19.1497406   14.0071698   18.9823045
| 39>     H       18.0284822   12.2902370   20.3782555
| 40>     H       16.0951058   12.9329398   21.8223806
| 41>     H       14.8191196   14.5770738   22.5045350
| 42>     H       16.4126265   17.0004554   20.4785148
| 43> *
| 44>
| 45>                          ****END OF INPUT****

CARTESIAN COORDINATES (ANGSTROEM)
---------------------------------
  C     15.124214   15.404693   17.543219
  C     15.549215   15.396092   16.061526
  O     16.945338   15.055984   15.889493
  C     18.065317   15.596630   16.481696
  O     19.091573   14.942188   16.499767
  C     17.919808   16.792240   17.370403
  C     17.405546   17.971722   16.945285
  C     16.941747   18.326750   15.548906
  N     17.399654   19.078026   17.797872
  C     18.030583   19.130985   19.012569
  S     18.052132   20.512391   19.920944
  N     18.650168   17.981143   19.433591
  C     18.570445   16.672324   18.754649
  C     17.871983   15.631496   19.628452
  C     18.313534   14.295193   19.616198
  C     17.678060   13.320743   20.403339
  C     16.590125   13.683264   21.214784
  C     16.146818   15.012147   21.233390
  O     15.090523   15.364176   22.008515
  C     16.781330   15.980553   20.448834
  H     15.580952   14.566498   18.084970
  H     14.035523   15.298690   17.622621
  H     15.392221   16.341911   18.040908
  H     14.956815   14.631890   15.541580
  H     15.300391   16.352573   15.594305
  H     17.156496   17.534065   14.822043
  H     17.460802   19.223595   15.186561
  H     15.865304   18.535445   15.527311
  H     16.973057   19.939927   17.496029
  H     19.098987   18.044504   20.338722
  H     19.603262   16.326286   18.599527
  H     19.149741   14.007170   18.982305
  H     18.028482   12.290237   20.378256
  H     16.095106   12.932940   21.822381
  H     14.819120   14.577074   22.504535
  H     16.412626   17.000455   20.478515

 Total Charge           Charge          ....    0
 Multiplicity           Mult            ....    1
 Number of Electrons    NEL             ....  154
 Basis Dimension        Dim             ....  828

ORBITAL ENERGIES
----------------

  NO   OCC          E(Eh)            E(eV)
   0   2.0000     -91.890886     -2500.4781
   1   2.0000     -20.599318      -560.5359
   2   2.0000     -20.597475      -560.4858
   3   2.0000     -20.548164      -559.1440
   4   2.0000     -15.628818      -425.2818
   5   2.0000     -15.611424      -424.8084
   6   2.0000     -11.400911      -310.2346
   7   2.0000     -11.387199      -309.8614
   8   2.0000     -11.333228      -308.3928
   9   2.0000     -11.314036      -307.8706
  10   2.0000     -11.314016      -307.8700
  11   2.0000     -11.309336      -307.7427
  12   2.0000     -11.270965      -306.6986
  13   2.0000     -11.268166      -306.6224
  14   2.0000     -11.261564      -306.4427
  15   2.0000     -11.254455      -306.2493
  16   2.0000     -11.243857      -305.9609
  17   2.0000     -11.239308      -305.8371
  18   2.0000     -11.236021      -305.7477
  19   2.0000     -11.229608      -305.5732
  20   2.0000      -8.895987      -242.0721
  21   2.0000      -6.577575      -178.9849
  22   2.0000      -6.575549      -178.9298
  23   2.0000      -6.574972      -178.9141
  24   2.0000      -1.444419       -39.3046
  25   2.0000      -1.417296       -38.5666
  26   2.0000      -1.356929       -36.9239
  27   2.0000      -1.342150       -36.5218
  28   2.0000      -1.241017       -33.7698
  29   2.0000      -1.158907       -31.5355
  30   2.0000      -1.125411       -30.6240
  31   2.0000      -1.047730       -28.5102
  32   2.0000      -1.038706       -28.2646
  33   2.0000      -1.017228       -27.6802
  34   2.0000      -1.006191       -27.3798
  35   2.0000      -0.990363       -26.9492
  36   2.0000      -0.928209       -25.2579
  37   2.0000      -0.897470       -24.4214
  38   2.0000      -0.855548       -23.2806
  39   2.0000      -0.840974       -22.8841
  40   2.0000      -0.834382       -22.7047
  41   2.0000      -0.829462       -22.5708
  42   2.0000      -0.746421       -20.3111
  43   2.0000      -0.739850       -20.1323
  44   2.0000      -0.730484       -19.8775
  45   2.0000      -0.695365       -18.9218
  46   2.0000      -0.687191       -18.6994
  47   2.0000      -0.679607       -18.4931
  48   2.0000      -0.675254       -18.3746
  49   2.0000      -0.661968       -18.0131
  50   2.0000      -0.653398       -17.7799
  51   2.0000      -0.650936       -17.7129
  52   2.0000      -0.639934       -17.4135
  53   2.0000      -0.619421       -16.8553
  54   2.0000      -0.610594       -16.6151
  55   2.0000      -0.605845       -16.4859
  56   2.0000      -0.601864       -16.3775
  57   2.0000      -0.590107       -16.0576
  58   2.0000      -0.577701       -15.7200
  59   2.0000      -0.569930       -15.5086
  60   2.0000      -0.565874       -15.3982
  61   2.0000      -0.555147       -15.1063
  62   2.0000      -0.539981       -14.6936
  63   2.0000      -0.532691       -14.4952
  64   2.0000      -0.520596       -14.1661
  65   2.0000      -0.513094       -13.9620
  66   2.0000      -0.501334       -13.6420
  67   2.0000      -0.500629       -13.6228
  68   2.0000      -0.482855       -13.1391
  69   2.0000      -0.466902       -12.7051
  70   2.0000      -0.455156       -12.3854
  71   2.0000      -0.450289       -12.2530
  72   2.0000      -0.358084        -9.7440
  73   2.0000      -0.348289        -9.4774
  74   2.0000      -0.330442        -8.9918
  75   2.0000      -0.322984        -8.7888
  76   2.0000      -0.319427        -8.6921
  77   0.0000       0.081608         2.2207
  78   0.0000       0.107699         2.9306
  79   0.0000       0.113150         3.0790
  80   0.0000       0.130756         3.5580
  81   0.0000       0.131082         3.5669

MULLIKEN ATOMIC CHARGES
-----------------------
   0 C :   -0.330580
   1 C :    0.022839
   2 O :   -0.324628
   3 C :    0.425392
   4 O :   -0.386895
   5 C :   -0.226947
   6 C :    0.161207
   7 C :   -0.336558
   8 N :   -0.137439
   9 C :    0.201317
  10 S :   -0.439659
  11 N :   -0.223761
  12 C :    0.087345
  13 C :    0.018871
  14 C :   -0.212154
  15 C :   -0.135585
  16 C :   -0.278294
  17 C :    0.320749
  18 O :   -0.358486
  19 C :   -0.271972
  20 H :    0.129326
  21 H :    0.115917
  22 H :    0.108692
  23 H :    0.132425
  24 H :    0.087170
  25 H :    0.130705
  26 H :    0.141511
  27 H :    0.120563
  28 H :    0.196936
  29 H :    0.202015
  30 H :    0.167234
  31 H :    0.176997
  32 H :    0.163990
  33 H :    0.131904
  34 H :    0.241027
  35 H :    0.178825
Sum of atomic charges:   -0.0000000

LOEWDIN ATOMIC CHARGES
----------------------
   0 C :    0.103376
   1 C :   -0.018769
   2 O :    0.297087
   3 C :   -0.413838
   4 O :    0.121578
   5 C :   -0.079175
   6 C :   -0.095963
   7 C :    0.122146
   8 N :    0.402666
   9 C :   -0.458673
  10 S :   -0.036768
  11 N :    0.398366
  12 C :   -0.042455
  13 C :   -0.042660
  14 C :    0.020010
  15 C :    0.042802
  16 C :   -0.001637
  17 C :   -0.193474
  18 O :    0.395243
  19 C :    0.028752
  20 H :   -0.017992
  21 H :   -0.024544
  22 H :   -0.035888
  23 H :   -0.017951
  24 H :   -0.040098
  25 H :   -0.007871
  26 H :   -0.008508
  27 H :   -0.018618
  28 H :   -0.057217
  29 H :   -0.063106
  30 H :   -0.001725
  31 H :   -0.022007
  32 H :   -0.018700
  33 H :   -0.034991
  34 H :   -0.153569
  35 H :   -0.025828

  Mayer bond orders larger than 0.100000
B(  0-C ,  1-C ) :   0.9538 B(  0-C , 20-H ) :   0.9676 B(  0-C , 21-H ) :   0.9767
B(  0-C , 22-H ) :   0.9724 B(  1-C ,  2-O ) :   0.9054 B(  1-C , 23-H ) :   0.9825
B(  1-C , 24-H ) :   0.9734 B(  2-O ,  3-C ) :   1.1857 B(  3-C ,  4-O ) :   2.0765
B(  3-C ,  5-C ) :   0.9279 B(  5-C ,  6-C ) :   1.6884 B(  5-C , 12-C ) :   0.9511
B(  6-C ,  7-C ) :   0.9453 B(  6-C ,  8-N ) :   1.1089 B(  7-C , 25-H ) :   0.9799
B(  7-C , 26-H ) :   0.9693 B(  7-C , 27-H ) :   0.9662 B(  8-N ,  9-C ) :   1.1941
B(  8-N , 28-H ) :   0.9522 B(  9-C , 10-S ) :   1.6103 B(  9-C , 11-N ) :   1.2896
B( 11-N , 12-C ) :   0.9890 B( 11-N , 29-H ) :   0.9482 B( 12-C , 13-C ) :   0.9509
B( 12-C , 30-H ) :   0.9952 B( 13-C , 14-C ) :   1.3912 B( 13-C , 19-C ) :   1.3379
B( 14-C , 15-C ) :   1.4006 B( 14-C , 31-H ) :   0.9572 B( 15-C , 16-C ) :   1.3584
B( 15-C , 32-H ) :   0.9703 B( 16-C , 17-C ) :   1.3310 B( 16-C , 33-H ) :   0.9849
B( 17-C , 18-O ) :   1.1093 B( 17-C , 19-C ) :   1.3689 B( 18-O , 34-H ) :   0.9797
B( 19-C , 35-H ) :   0.9565

MP2 TOTAL ENERGY:    -1274.329746775 Eh
FINAL SINGLE POINT ENERGY     -1274.329746774700

DIPOLE MOMENT
-------------
                                X             Y             Z
Electronic contribution:      9.02577       6.18647       6.20296
Nuclear contribution   :    -10.56135      -7.15104      -6.85288
                        -----------------------------------------
Total Dipole Moment    :     -1.53558      -0.96457      -0.64993
                        -----------------------------------------
Magnitude (a.u.)       :      1.92634
Magnitude (Debye)      :      4.89637

Rotational constants in cm-1:     0.011781     0.009606     0.006788
Rotational constants in MHz :   353.183062   287.965936   203.509379

                             ****ORCA TERMINATED NORMALLY****
TOTAL RUN TIME: 0 days 2 hours 13 minutes 41 seconds 913 msec
