                         Program Version 5.0.0 -  RELEASE  -
|  1> ! ri-mp2 cc-pvtz cc-pvtz/c TightSCF NoKeepInts
|  2>
|  3> %scf
|  4>   MaxCore 4096
|  5> end
|  6> *xyz  0  1
|  7>     C       14.8934342   14.1051749   15.9559834
|  8>     C       16.4257657   13.9310929   16.0531256
|  9>     O       17.1109352   15.0410545   16.6835768
| 10>     C       16.7352984   16.3590433   16.6185904
| 11>     O       15.9381087   16.7897808   15.8042712
| 12>     C       17.5675434   17.2267055   17.5238604
| 13>     C       17.4971337   18.5825690   17.5055596
| 14>     C       16.6222911   19.4458126   16.6215479
| 15>     N       18.3125257   19.3393088   18.3524827
| 16>     C       19.2758130   18.8269327   19.1794476
| 17>     S       20.2529990   19.8000363   20.0927945
| 18>     N       19.3902606   17.4609273   19.2128905
| 19>     C       18.4961856   16.5142792   18.5215065
| 20>     C       17.7090863   15.7035549   19.5470827
| 21>     C       17.9333514   14.3212161   19.6888795
| 22>     C       17.2067941   13.5718687   20.6295367
| 23>     C       16.2499471   14.2100158   21.4371328
| 24>     C       16.0271843   15.5871902   21.3014945
| 25>     O       15.1047137   16.2063358   22.0804095
| 26>     C       16.7517267   16.3302532   20.3644890
| 27>     H       14.4801817   14.4805728   16.9005824
| 28>     H       14.4176279   13.1416316   15.7378760
| 29>     H       14.6160560   14.7940164   15.1488361
| 30>     H       16.6496571   13.0171077   16.6180050
| 31>     H       16.8207700   13.7945082   15.0380179
| 32>     H       16.8425113   19.2605470   15.5624884
| 33>     H       16.7529642   20.5188345   16.8039217
| 34>     H       15.5623164   19.2100243   16.7810705
| 35>     H       18.2431263   20.3443061   18.3410558
| 36>     H       20.0823425   17.1112498   19.8629155
| 37>     H       19.1348570   15.8265313   17.9497225
| 38>     H       18.6691716   13.8247918   19.0620614
| 39>     H       17.3858420   12.5028941   20.7305292
| 40>     H       15.6863928   13.6357481   22.1650611
| 41>     H       14.7325687   15.5398581   22.6771393
| 42>     H       16.5695167   17.3962257   20.2800553
| 43> *
| 44>
| 45>                          ****END OF INPUT****

CARTESIAN COORDINATES (ANGSTROEM)
---------------------------------
  C     14.893434   14.105175   15.955983
  C     16.425766   13.931093   16.053126
  O     17.110935   15.041054   16.683577
  C     16.735298   16.359043   16.618590
  O     15.938109   16.789781   15.804271
  C     17.567543   17.226706   17.523860
  C     17.497134   18.582569   17.505560
  C     16.622291   19.445813   16.621548
  N     18.312526   19.339309   18.352483
  C     19.275813   18.826933   19.179448
  S     20.252999   19.800036   20.092795
  N     19.390261   17.460927   19.212890
  C     18.496186   16.514279   18.521506
  C     17.709086   15.703555   19.547083
  C     17.933351   14.321216   19.688879
  C     17.206794   13.571869   20.629537
  C     16.249947   14.210016   21.437133
  C     16.027184   15.587190   21.301494
  O     15.104714   16.206336   22.080409
  C     16.751727   16.330253   20.364489
  H     14.480182   14.480573   16.900582
  H     14.417628   13.141632   15.737876
  H     14.616056   14.794016   15.148836
  H     16.649657   13.017108   16.618005
  H     16.820770   13.794508   15.038018
  H     16.842511   19.260547   15.562488
  H     16.752964   20.518835   16.803922
  H     15.562316   19.210024   16.781070
  H     18.243126   20.344306   18.341056
  H     20.082342   17.111250   19.862915
  H     19.134857   15.826531   17.949722
  H     18.669172   13.824792   19.062061
  H     17.385842   12.502894   20.730529
  H     15.686393   13.635748   22.165061
  H     14.732569   15.539858   22.677139
  H     16.569517   17.396226   20.280055

 Total Charge           Charge          ....    0
 Multiplicity           Mult            ....    1
 Number of Electrons    NEL             ....  154
 Basis Dimension        Dim             ....  828

ORBITAL ENERGIES
----------------

  NO   OCC          E(Eh)            E(eV)
   0   2.0000     -91.887827     -2500.3949
   1   2.0000     -20.598936      -560.5256
   2   2.0000     -20.596123      -560.4490
   3   2.0000     -20.540594      -558.9380
   4   2.0000     -15.627809      -425.2543
   5   2.0000     -15.607128      -424.6915
   6   2.0000     -11.396863      -310.1244
   7   2.0000     -11.382884      -309.7440
   8   2.0000     -11.334714      -308.4333
   9   2.0000     -11.313206      -307.8480
  10   2.0000     -11.307257      -307.6861
  11   2.0000     -11.302581      -307.5589
  12   2.0000     -11.258969      -306.3721
  13   2.0000     -11.258152      -306.3499
  14   2.0000     -11.254693      -306.2558
  15   2.0000     -11.251081      -306.1575
  16   2.0000     -11.242577      -305.9261
  17   2.0000     -11.237941      -305.7999
  18   2.0000     -11.237751      -305.7947
  19   2.0000     -11.223045      -305.3946
  20   2.0000      -8.892902      -241.9882
  21   2.0000      -6.574480      -178.9007
  22   2.0000      -6.572473      -178.8461
  23   2.0000      -6.571889      -178.8302
  24   2.0000      -1.444979       -39.3199
  25   2.0000      -1.415781       -38.5254
  26   2.0000      -1.353917       -36.8419
  27   2.0000      -1.338905       -36.4335
  28   2.0000      -1.237400       -33.6714
  29   2.0000      -1.156959       -31.4825
  30   2.0000      -1.119076       -30.4516
  31   2.0000      -1.041897       -28.3515
  32   2.0000      -1.036017       -28.1915
  33   2.0000      -1.014477       -27.6053
  34   2.0000      -0.994532       -27.0626
  35   2.0000      -0.982935       -26.7470
  36   2.0000      -0.921492       -25.0751
  37   2.0000      -0.898162       -24.4402
  38   2.0000      -0.846307       -23.0292
  39   2.0000      -0.837214       -22.7817
  40   2.0000      -0.833519       -22.6812
  41   2.0000      -0.817418       -22.2431
  42   2.0000      -0.746132       -20.3033
  43   2.0000      -0.730731       -19.8842
  44   2.0000      -0.720010       -19.5925
  45   2.0000      -0.695076       -18.9140
  46   2.0000      -0.687305       -18.7025
  47   2.0000      -0.676816       -18.4171
  48   2.0000      -0.670590       -18.2477
  49   2.0000      -0.657223       -17.8839
  50   2.0000      -0.651128       -17.7181
  51   2.0000      -0.642066       -17.4715
  52   2.0000      -0.634680       -17.2705
  53   2.0000      -0.609801       -16.5935
  54   2.0000      -0.605898       -16.4873
  55   2.0000      -0.599512       -16.3136
  56   2.0000      -0.597969       -16.2716
  57   2.0000      -0.576935       -15.6992
  58   2.0000      -0.572480       -15.5780
  59   2.0000      -0.569859       -15.5067
  60   2.0000      -0.560109       -15.2413
  61   2.0000      -0.540575       -14.7098
  62   2.0000      -0.535555       -14.5732
  63   2.0000      -0.524908       -14.2835
  64   2.0000      -0.520022       -14.1505
  65   2.0000      -0.512828       -13.9548
  66   2.0000      -0.502390       -13.6707
  67   2.0000      -0.498822       -13.5736
  68   2.0000      -0.484823       -13.1927
  69   2.0000      -0.462664       -12.5897
  70   2.0000      -0.454034       -12.3549
  71   2.0000      -0.441195       -12.0055
  72   2.0000      -0.352915        -9.6033
  73   2.0000      -0.348812        -9.4917
  74   2.0000      -0.327313        -8.9066
  75   2.0000      -0.320803        -8.7295
  76   2.0000      -0.315054        -8.5731
  77   0.0000       0.077543         2.1101
  78   0.0000       0.106857         2.9077
  79   0.0000       0.125389         3.4120
  80   0.0000       0.133240         3.6256
  81   0.0000       0.137370         3.7380

MULLIKEN ATOMIC CHARGES
-----------------------
   0 C :   -0.304177
   1 C :    0.048665
   2 O :   -0.358837
   3 C :    0.470327
   4 O :   -0.433457
   5 C :   -0.217174
   6 C :    0.149093
   7 C :   -0.273298
   8 N :   -0.119544
   9 C :    0.211740
  10 S :   -0.441871
  11 N :   -0.204848
  12 C :    0.055967
  13 C :    0.064375
  14 C :   -0.185211
  15 C :   -0.131079
  16 C :   -0.278461
  17 C :    0.316518
  18 O :   -0.356649
  19 C :   -0.271222
  20 H :    0.100912
  21 H :    0.094973
  22 H :    0.125622
  23 H :    0.099506
  24 H :    0.095165
  25 H :    0.131542
  26 H :    0.094713
  27 H :    0.130322
  28 H :    0.196813
  29 H :    0.194789
  30 H :    0.149965
  31 H :    0.149818
  32 H :    0.159766
  33 H :    0.129546
  34 H :    0.240618
  35 H :    0.165072
Sum of atomic charges:    0.0000000

LOEWDIN ATOMIC CHARGES
----------------------
   0 C :    0.103875
   1 C :   -0.009557
   2 O :    0.298374
   3 C :   -0.412572
   4 O :    0.103757
   5 C :   -0.093157
   6 C :   -0.059578
   7 C :    0.130788
   8 N :    0.406298
   9 C :   -0.456737
  10 S :   -0.036989
  11 N :    0.396569
  12 C :   -0.052833
  13 C :   -0.038854
  14 C :    0.014525
  15 C :    0.038762
  16 C :   -0.001632
  17 C :   -0.189872
  18 O :    0.395090
  19 C :    0.031121
  20 H :   -0.026081
  21 H :   -0.028247
  22 H :   -0.025361
  23 H :   -0.026148
  24 H :   -0.029014
  25 H :   -0.004120
  26 H :   -0.023690
  27 H :   -0.005058
  28 H :   -0.057797
  29 H :   -0.064642
  30 H :   -0.012027
  31 H :   -0.030292
  32 H :   -0.021614
  33 H :   -0.035660
  34 H :   -0.153994
  35 H :   -0.023633

  Mayer bond orders larger than 0.100000
B(  0-C ,  1-C ) :   0.9664 B(  0-C , 20-H ) :   0.9760 B(  0-C , 21-H ) :   0.9761
B(  0-C , 22-H ) :   0.9719 B(  1-C ,  2-O ) :   0.9029 B(  1-C , 23-H ) :   0.9820
B(  1-C , 24-H ) :   0.9823 B(  2-O ,  3-C ) :   1.1623 B(  3-C ,  4-O ) :   1.9663
B(  3-C ,  5-C ) :   1.0567 B(  5-C ,  6-C ) :   1.6552 B(  5-C , 12-C ) :   0.9718
B(  6-C ,  7-C ) :   0.9676 B(  6-C ,  8-N ) :   1.1637 B(  7-C , 25-H ) :   0.9599
B(  7-C , 26-H ) :   0.9905 B(  7-C , 27-H ) :   0.9612 B(  8-N ,  9-C ) :   1.1841
B(  8-N , 28-H ) :   0.9480 B(  9-C , 10-S ) :   1.6055 B(  9-C , 11-N ) :   1.3058
B( 11-N , 12-C ) :   0.9879 B( 11-N , 29-H ) :   0.9515 B( 12-C , 13-C ) :   0.9353
B( 12-C , 30-H ) :   1.0032 B( 13-C , 14-C ) :   1.3554 B( 13-C , 19-C ) :   1.3814
B( 14-C , 15-C ) :   1.3915 B( 14-C , 31-H ) :   0.9712 B( 15-C , 16-C ) :   1.3642
B( 15-C , 32-H ) :   0.9708 B( 16-C , 17-C ) :   1.3319 B( 16-C , 33-H ) :   0.9852
B( 17-C , 18-O ) :   1.1097 B( 17-C , 19-C ) :   1.3714 B( 18-O , 34-H ) :   0.9799
B( 19-C , 35-H ) :   0.9586

MP2 TOTAL ENERGY:    -1274.342015932 Eh
FINAL SINGLE POINT ENERGY     -1274.342015932266

DIPOLE MOMENT
-------------
                                X             Y             Z
Electronic contribution:     10.34224       9.91173       8.72797
Nuclear contribution   :    -11.41078     -11.69958      -9.14742
                        -----------------------------------------
Total Dipole Moment    :     -1.06854      -1.78785      -0.41945
                        -----------------------------------------
Magnitude (a.u.)       :      2.12465
Magnitude (Debye)      :      5.40043

Rotational constants in cm-1:     0.011574     0.008688     0.006115
Rotational constants in MHz :   346.988483   260.455306   183.309699

                             ****ORCA TERMINATED NORMALLY****
TOTAL RUN TIME: 0 days 2 hours 1 minutes 27 seconds 797 msec
