                         Program Version 4.2.0 -  RELEASE  -
|  1> ! ri-mp2 cc-pvtz cc-pvtz/c TightSCF  NoKeepInts
|  2>
|  3> %scf
|  4>   MaxCore 4096
|  5> end
|  6> *xyz  0  1
|  7>     C       15.1625108   14.8302946   17.0358575
|  8>     C       16.3853379   14.0543830   16.4945515
|  9>     O       17.5975572   14.8448100   16.4510182
| 10>     C       17.5613633   16.1663431   16.1131058
| 11>     O       17.0272168   16.5176536   15.0756725
| 12>     C       17.7933132   17.0771952   17.2894841
| 13>     C       17.4520014   18.3913933   17.2735016
| 14>     C       16.7052650   19.1357181   16.1874229
| 15>     N       17.8533982   19.2290471   18.3193154
| 16>     C       18.7755116   18.8887111   19.2740576
| 17>     S       19.3553834   19.9883150   20.3648156
| 18>     N       19.1974480   17.5828364   19.2740473
| 19>     C       18.5696177   16.5034667   18.4887458
| 20>     C       17.7117384   15.6398744   19.4100385
| 21>     C       17.9715395   14.2621593   19.5385799
| 22>     C       17.1916654   13.4622471   20.3905242
| 23>     C       16.1475632   14.0452184   21.1283007
| 24>     C       15.8931535   15.4185881   21.0137584
| 25>     O       14.8853675   15.9845007   21.7240467
| 26>     C       16.6698296   16.2118248   20.1635657
| 27>     H       15.3527008   15.2337533   18.0337055
| 28>     H       14.2977906   14.1600483   17.1096971
| 29>     H       14.8812038   15.6556435   16.3703503
| 30>     H       16.5572781   13.1636403   17.1122262
| 31>     H       16.1506799   13.7116061   15.4780758
| 32>     H       17.2934310   19.1571973   15.2610098
| 33>     H       16.4737592   20.1721014   16.4595172
| 34>     H       15.7553019   18.6356217   15.9599491
| 35>     H       17.5616196   20.1934320   18.3237767
| 36>     H       19.8569193   17.3521815   20.0061165
| 37>     H       19.3789883   15.8760136   18.0895747
| 38>     H       18.7770745   13.8075177   18.9677108
| 39>     H       17.3991534   12.3971764   20.4791090
| 40>     H       15.5428660   13.4318590   21.7883028
| 41>     H       14.5040783   15.2965353   22.2900076
| 42>     H       16.4573737   17.2730924   20.0944612
| 43> *
| 44>
| 45>                          ****END OF INPUT****

CARTESIAN COORDINATES (ANGSTROEM)
---------------------------------
  C     15.162511   14.830295   17.035857
  C     16.385338   14.054383   16.494552
  O     17.597557   14.844810   16.451018
  C     17.561363   16.166343   16.113106
  O     17.027217   16.517654   15.075672
  C     17.793313   17.077195   17.289484
  C     17.452001   18.391393   17.273502
  C     16.705265   19.135718   16.187423
  N     17.853398   19.229047   18.319315
  C     18.775512   18.888711   19.274058
  S     19.355383   19.988315   20.364816
  N     19.197448   17.582836   19.274047
  C     18.569618   16.503467   18.488746
  C     17.711738   15.639874   19.410038
  C     17.971539   14.262159   19.538580
  C     17.191665   13.462247   20.390524
  C     16.147563   14.045218   21.128301
  C     15.893154   15.418588   21.013758
  O     14.885367   15.984501   21.724047
  C     16.669830   16.211825   20.163566
  H     15.352701   15.233753   18.033705
  H     14.297791   14.160048   17.109697
  H     14.881204   15.655644   16.370350
  H     16.557278   13.163640   17.112226
  H     16.150680   13.711606   15.478076
  H     17.293431   19.157197   15.261010
  H     16.473759   20.172101   16.459517
  H     15.755302   18.635622   15.959949
  H     17.561620   20.193432   18.323777
  H     19.856919   17.352182   20.006116
  H     19.378988   15.876014   18.089575
  H     18.777075   13.807518   18.967711
  H     17.399153   12.397176   20.479109
  H     15.542866   13.431859   21.788303
  H     14.504078   15.296535   22.290008
  H     16.457374   17.273092   20.094461

 Total Charge           Charge          ....    0
 Multiplicity           Mult            ....    1
 Number of Electrons    NEL             ....  154
 Basis Dimension        Dim             ....  828

ORBITAL ENERGIES
----------------

  NO   OCC          E(Eh)            E(eV)
   0   2.0000     -91.891034     -2500.4822
   1   2.0000     -20.599146      -560.5313
   2   2.0000     -20.582906      -560.0893
   3   2.0000     -20.547538      -559.1269
   4   2.0000     -15.631128      -425.3446
   5   2.0000     -15.609459      -424.7550
   6   2.0000     -11.394204      -310.0521
   7   2.0000     -11.385467      -309.8143
   8   2.0000     -11.337172      -308.5001
   9   2.0000     -11.316634      -307.9413
  10   2.0000     -11.311801      -307.8098
  11   2.0000     -11.299745      -307.4817
  12   2.0000     -11.262357      -306.4643
  13   2.0000     -11.260087      -306.4026
  14   2.0000     -11.258319      -306.3544
  15   2.0000     -11.253618      -306.2265
  16   2.0000     -11.246282      -306.0269
  17   2.0000     -11.240980      -305.8826
  18   2.0000     -11.240616      -305.8727
  19   2.0000     -11.223233      -305.3997
  20   2.0000      -8.896048      -242.0738
  21   2.0000      -6.577612      -178.9859
  22   2.0000      -6.575620      -178.9317
  23   2.0000      -6.575022      -178.9154
  24   2.0000      -1.446482       -39.3608
  25   2.0000      -1.418911       -38.6105
  26   2.0000      -1.350780       -36.7566
  27   2.0000      -1.342063       -36.5194
  28   2.0000      -1.240133       -33.7457
  29   2.0000      -1.159794       -31.5596
  30   2.0000      -1.120969       -30.5031
  31   2.0000      -1.044564       -28.4240
  32   2.0000      -1.031426       -28.0665
  33   2.0000      -1.018242       -27.7078
  34   2.0000      -0.998410       -27.1681
  35   2.0000      -0.986443       -26.8425
  36   2.0000      -0.924593       -25.1595
  37   2.0000      -0.896561       -24.3967
  38   2.0000      -0.848355       -23.0849
  39   2.0000      -0.842043       -22.9132
  40   2.0000      -0.837027       -22.7767
  41   2.0000      -0.817136       -22.2354
  42   2.0000      -0.746965       -20.3259
  43   2.0000      -0.734195       -19.9785
  44   2.0000      -0.722490       -19.6600
  45   2.0000      -0.698376       -19.0038
  46   2.0000      -0.691431       -18.8148
  47   2.0000      -0.674403       -18.3514
  48   2.0000      -0.669347       -18.2139
  49   2.0000      -0.663509       -18.0550
  50   2.0000      -0.651164       -17.7191
  51   2.0000      -0.644184       -17.5291
  52   2.0000      -0.636907       -17.3311
  53   2.0000      -0.622338       -16.9347
  54   2.0000      -0.609279       -16.5793
  55   2.0000      -0.602136       -16.3849
  56   2.0000      -0.600363       -16.3367
  57   2.0000      -0.579922       -15.7805
  58   2.0000      -0.571893       -15.5620
  59   2.0000      -0.565122       -15.3778
  60   2.0000      -0.549242       -14.9456
  61   2.0000      -0.543951       -14.8017
  62   2.0000      -0.534733       -14.5508
  63   2.0000      -0.531939       -14.4748
  64   2.0000      -0.526923       -14.3383
  65   2.0000      -0.515601       -14.0302
  66   2.0000      -0.503560       -13.7026
  67   2.0000      -0.499379       -13.5888
  68   2.0000      -0.479204       -13.0398
  69   2.0000      -0.463880       -12.6228
  70   2.0000      -0.454524       -12.3682
  71   2.0000      -0.443718       -12.0742
  72   2.0000      -0.357188        -9.7196
  73   2.0000      -0.351020        -9.5518
  74   2.0000      -0.330182        -8.9847
  75   2.0000      -0.325002        -8.8438
  76   2.0000      -0.317840        -8.6489
  77   0.0000       0.068137         1.8541
  78   0.0000       0.103737         2.8228
  79   0.0000       0.121777         3.3137
  80   0.0000       0.129468         3.5230
  81   0.0000       0.134146         3.6503

MULLIKEN ATOMIC CHARGES
-----------------------
   0 C :   -0.336685
   1 C :    0.035655
   2 O :   -0.393777
   3 C :    0.488750
   4 O :   -0.415026
   5 C :   -0.220303
   6 C :    0.143876
   7 C :   -0.271515
   8 N :   -0.122497
   9 C :    0.195946
  10 S :   -0.432893
  11 N :   -0.193785
  12 C :    0.034853
  13 C :    0.045084
  14 C :   -0.185080
  15 C :   -0.135865
  16 C :   -0.271902
  17 C :    0.306026
  18 O :   -0.358502
  19 C :   -0.257863
  20 H :    0.116603
  21 H :    0.110024
  22 H :    0.115770
  23 H :    0.113277
  24 H :    0.121453
  25 H :    0.135619
  26 H :    0.094915
  27 H :    0.128182
  28 H :    0.198389
  29 H :    0.191175
  30 H :    0.151852
  31 H :    0.160890
  32 H :    0.164164
  33 H :    0.132863
  34 H :    0.240750
  35 H :    0.169574
Sum of atomic charges:   -0.0000000

LOEWDIN ATOMIC CHARGES
----------------------
   0 C :    0.107610
   1 C :   -0.011890
   2 O :    0.281630
   3 C :   -0.420899
   4 O :    0.115968
   5 C :   -0.096792
   6 C :   -0.058472
   7 C :    0.130965
   8 N :    0.406807
   9 C :   -0.459122
  10 S :   -0.031425
  11 N :    0.396505
  12 C :   -0.052016
  13 C :   -0.039824
  14 C :    0.017705
  15 C :    0.039340
  16 C :   -0.001712
  17 C :   -0.191616
  18 O :    0.396515
  19 C :    0.031308
  20 H :   -0.031538
  21 H :   -0.023232
  22 H :   -0.028345
  23 H :   -0.025769
  24 H :   -0.028309
  25 H :   -0.003083
  26 H :   -0.023146
  27 H :   -0.006568
  28 H :   -0.057722
  29 H :   -0.064973
  30 H :   -0.006549
  31 H :   -0.028126
  32 H :   -0.020709
  33 H :   -0.034910
  34 H :   -0.153374
  35 H :   -0.024234

  Mayer bond orders larger than 0.100000
B(  0-C ,  1-C ) :   0.9566 B(  0-C , 20-H ) :   0.9676 B(  0-C , 21-H ) :   0.9776
B(  0-C , 22-H ) :   0.9730 B(  1-C ,  2-O ) :   0.8808 B(  1-C , 23-H ) :   0.9788
B(  1-C , 24-H ) :   0.9863 B(  2-O ,  3-C ) :   1.1044 B(  3-C ,  4-O ) :   2.0054
B(  3-C ,  5-C ) :   1.0560 B(  5-C ,  6-C ) :   1.6570 B(  5-C , 12-C ) :   0.9666
B(  6-C ,  7-C ) :   0.9697 B(  6-C ,  8-N ) :   1.1445 B(  7-C , 25-H ) :   0.9571
B(  7-C , 26-H ) :   0.9888 B(  7-C , 27-H ) :   0.9649 B(  8-N ,  9-C ) :   1.1779
B(  8-N , 28-H ) :   0.9485 B(  9-C , 10-S ) :   1.6207 B(  9-C , 11-N ) :   1.2983
B( 11-N , 12-C ) :   0.9877 B( 11-N , 29-H ) :   0.9536 B( 12-C , 13-C ) :   0.9392
B( 12-C , 30-H ) :   1.0038 B( 13-C , 14-C ) :   1.3625 B( 13-C , 19-C ) :   1.3689
B( 14-C , 15-C ) :   1.3830 B( 14-C , 31-H ) :   0.9678 B( 15-C , 16-C ) :   1.3666
B( 15-C , 32-H ) :   0.9698 B( 16-C , 17-C ) :   1.3297 B( 16-C , 33-H ) :   0.9838
B( 17-C , 18-O ) :   1.1127 B( 17-C , 19-C ) :   1.3778 B( 18-O , 34-H ) :   0.9797
B( 19-C , 35-H ) :   0.9581

MP2 TOTAL ENERGY:    -1274.330364551 Eh
FINAL SINGLE POINT ENERGY     -1274.330364551378

DIPOLE MOMENT
-------------
                                X             Y             Z
Electronic contribution:     10.14899       8.46589       5.93743
Nuclear contribution   :    -11.26417     -10.08649      -5.93246
                        -----------------------------------------
Total Dipole Moment    :     -1.11518      -1.62059       0.00496
                        -----------------------------------------
Magnitude (a.u.)       :      1.96723
Magnitude (Debye)      :      5.00029

Rotational constants in cm-1:     0.011925     0.009729     0.006597
Rotational constants in MHz :   357.496832   291.663701   197.778130

                             ****ORCA TERMINATED NORMALLY****
TOTAL RUN TIME: 0 days 1 hours 48 minutes 56 seconds 664 msec
