                         Program Version 4.2.0 -  RELEASE  -
|  1> ! ri-mp2 cc-pvtz cc-pvtz/c TightSCF  NoKeepInts
|  2>
|  3> %scf
|  4>   MaxCore 4096
|  5> end
|  6> *xyz  0  1
|  7>     C       14.9466769   14.4800411   16.1982060
|  8>     C       16.3100266   14.1387854   16.8361033
|  9>     O       17.3747794   15.0243793   16.4061374
| 10>     C       17.1805474   16.3678535   16.2348826
| 11>     O       16.5414173   16.8001173   15.2921301
| 12>     C       17.6832011   17.2093417   17.3780846
| 13>     C       17.4344094   18.5422903   17.4599009
| 14>     C       16.5914475   19.3809653   16.5229485
| 15>     N       18.0191494   19.3029347   18.4772422
| 16>     C       18.9963232   18.8513666   19.3236964
| 17>     S       19.7595458   19.8528426   20.3961922
| 18>     N       19.3209667   17.5225552   19.2249322
| 19>     C       18.5670522   16.5296271   18.4387970
| 20>     C       17.7816019   15.6393017   19.3946887
| 21>     C       18.2509647   14.3484472   19.7036155
| 22>     C       17.5345816   13.5188283   20.5826204
| 23>     C       16.3428374   13.9855522   21.1629662
| 24>     C       15.8793124   15.2748622   20.8678286
| 25>     O       14.7306891   15.7296210   21.4282573
| 26>     C       16.5929737   16.0977723   19.9911806
| 27>     H       14.5708898   15.4474348   16.5541859
| 28>     H       14.2031910   13.7171602   16.4583960
| 29>     H       15.0270399   14.5163531   15.1041863
| 30>     H       16.1925161   14.1852425   17.9239784
| 31>     H       16.5823770   13.1065513   16.5816512
| 32>     H       15.5809683   18.9625204   16.4323250
| 33>     H       17.0309361   19.3936154   15.5172058
| 34>     H       16.4880115   20.4211613   16.8532183
| 35>     H       17.8018148   20.2839173   18.5522116
| 36>     H       20.0274715   17.2127339   19.8796229
| 37>     H       19.2980566   15.9039199   17.9071353
| 38>     H       19.1725467   13.9848430   19.2563660
| 39>     H       17.9048045   12.5213675   20.8144000
| 40>     H       15.7871539   13.3490830   21.8440631
| 41>     H       14.4194347   15.0528815   22.0483926
| 42>     H       16.2212842   17.0957299   19.7862511
| 43> *
| 44>
| 45>                          ****END OF INPUT****

CARTESIAN COORDINATES (ANGSTROEM)
---------------------------------
  C     14.946677   14.480041   16.198206
  C     16.310027   14.138785   16.836103
  O     17.374779   15.024379   16.406137
  C     17.180547   16.367853   16.234883
  O     16.541417   16.800117   15.292130
  C     17.683201   17.209342   17.378085
  C     17.434409   18.542290   17.459901
  C     16.591448   19.380965   16.522948
  N     18.019149   19.302935   18.477242
  C     18.996323   18.851367   19.323696
  S     19.759546   19.852843   20.396192
  N     19.320967   17.522555   19.224932
  C     18.567052   16.529627   18.438797
  C     17.781602   15.639302   19.394689
  C     18.250965   14.348447   19.703616
  C     17.534582   13.518828   20.582620
  C     16.342837   13.985552   21.162966
  C     15.879312   15.274862   20.867829
  O     14.730689   15.729621   21.428257
  C     16.592974   16.097772   19.991181
  H     14.570890   15.447435   16.554186
  H     14.203191   13.717160   16.458396
  H     15.027040   14.516353   15.104186
  H     16.192516   14.185242   17.923978
  H     16.582377   13.106551   16.581651
  H     15.580968   18.962520   16.432325
  H     17.030936   19.393615   15.517206
  H     16.488011   20.421161   16.853218
  H     17.801815   20.283917   18.552212
  H     20.027471   17.212734   19.879623
  H     19.298057   15.903920   17.907135
  H     19.172547   13.984843   19.256366
  H     17.904805   12.521367   20.814400
  H     15.787154   13.349083   21.844063
  H     14.419435   15.052881   22.048393
  H     16.221284   17.095730   19.786251

 Total Charge           Charge          ....    0
 Multiplicity           Mult            ....    1
 Number of Electrons    NEL             ....  154
 Basis Dimension        Dim             ....  828

ORBITAL ENERGIES
----------------

  NO   OCC          E(Eh)            E(eV)
   0   2.0000     -91.890409     -2500.4651
   1   2.0000     -20.602488      -560.6222
   2   2.0000     -20.582762      -560.0854
   3   2.0000     -20.545322      -559.0666
   4   2.0000     -15.630895      -425.3383
   5   2.0000     -15.609544      -424.7573
   6   2.0000     -11.393543      -310.0341
   7   2.0000     -11.385125      -309.8050
   8   2.0000     -11.337395      -308.5062
   9   2.0000     -11.320466      -308.0455
  10   2.0000     -11.311350      -307.7975
  11   2.0000     -11.296958      -307.4059
  12   2.0000     -11.264617      -306.5258
  13   2.0000     -11.261625      -306.4444
  14   2.0000     -11.258803      -306.3676
  15   2.0000     -11.253378      -306.2200
  16   2.0000     -11.249185      -306.1059
  17   2.0000     -11.243744      -305.9578
  18   2.0000     -11.243415      -305.9489
  19   2.0000     -11.221240      -305.3455
  20   2.0000      -8.895448      -242.0574
  21   2.0000      -6.577016      -178.9697
  22   2.0000      -6.575018      -178.9153
  23   2.0000      -6.574426      -178.8992
  24   2.0000      -1.441684       -39.2302
  25   2.0000      -1.422145       -38.6985
  26   2.0000      -1.350788       -36.7568
  27   2.0000      -1.342050       -36.5190
  28   2.0000      -1.240565       -33.7575
  29   2.0000      -1.162895       -31.6440
  30   2.0000      -1.121385       -30.5144
  31   2.0000      -1.046508       -28.4769
  32   2.0000      -1.030539       -28.0424
  33   2.0000      -1.021188       -27.7879
  34   2.0000      -0.998080       -27.1592
  35   2.0000      -0.985764       -26.8240
  36   2.0000      -0.925502       -25.1842
  37   2.0000      -0.890497       -24.2317
  38   2.0000      -0.849565       -23.1178
  39   2.0000      -0.843476       -22.9522
  40   2.0000      -0.839073       -22.8323
  41   2.0000      -0.824020       -22.4227
  42   2.0000      -0.747572       -20.3425
  43   2.0000      -0.735298       -20.0085
  44   2.0000      -0.716190       -19.4885
  45   2.0000      -0.701053       -19.0766
  46   2.0000      -0.690899       -18.8003
  47   2.0000      -0.676269       -18.4022
  48   2.0000      -0.666733       -18.1427
  49   2.0000      -0.665214       -18.1014
  50   2.0000      -0.652217       -17.7477
  51   2.0000      -0.647402       -17.6167
  52   2.0000      -0.638808       -17.3828
  53   2.0000      -0.613876       -16.7044
  54   2.0000      -0.612615       -16.6701
  55   2.0000      -0.603814       -16.4306
  56   2.0000      -0.601632       -16.3713
  57   2.0000      -0.582178       -15.8419
  58   2.0000      -0.572464       -15.5775
  59   2.0000      -0.567921       -15.4539
  60   2.0000      -0.553736       -15.0679
  61   2.0000      -0.540271       -14.7015
  62   2.0000      -0.535441       -14.5701
  63   2.0000      -0.530129       -14.4256
  64   2.0000      -0.523663       -14.2496
  65   2.0000      -0.516108       -14.0440
  66   2.0000      -0.505214       -13.7476
  67   2.0000      -0.494737       -13.4625
  68   2.0000      -0.483391       -13.1537
  69   2.0000      -0.463237       -12.6053
  70   2.0000      -0.452254       -12.3065
  71   2.0000      -0.441650       -12.0179
  72   2.0000      -0.357408        -9.7256
  73   2.0000      -0.354984        -9.6596
  74   2.0000      -0.331059        -9.0086
  75   2.0000      -0.327060        -8.8997
  76   2.0000      -0.317612        -8.6427
  77   0.0000       0.070638         1.9222
  78   0.0000       0.100823         2.7435
  79   0.0000       0.121763         3.3134
  80   0.0000       0.128144         3.4870
  81   0.0000       0.132267         3.5992

MULLIKEN ATOMIC CHARGES
-----------------------
   0 C :   -0.285994
   1 C :    0.034555
   2 O :   -0.388983
   3 C :    0.482963
   4 O :   -0.404051
   5 C :   -0.265958
   6 C :    0.159440
   7 C :   -0.269303
   8 N :   -0.124700
   9 C :    0.215302
  10 S :   -0.438444
  11 N :   -0.204576
  12 C :    0.060845
  13 C :    0.030569
  14 C :   -0.182902
  15 C :   -0.130094
  16 C :   -0.275842
  17 C :    0.305290
  18 O :   -0.356369
  19 C :   -0.241077
  20 H :    0.093924
  21 H :    0.099350
  22 H :    0.116861
  23 H :    0.100465
  24 H :    0.108029
  25 H :    0.127824
  26 H :    0.136168
  27 H :    0.094875
  28 H :    0.198333
  29 H :    0.193395
  30 H :    0.151254
  31 H :    0.152656
  32 H :    0.162809
  33 H :    0.133373
  34 H :    0.242133
  35 H :    0.167880
Sum of atomic charges:   -0.0000000

LOEWDIN ATOMIC CHARGES
----------------------
   0 C :    0.104513
   1 C :   -0.013616
   2 O :    0.280505
   3 C :   -0.417270
   4 O :    0.119949
   5 C :   -0.098787
   6 C :   -0.058001
   7 C :    0.131006
   8 N :    0.407208
   9 C :   -0.455768
  10 S :   -0.033697
  11 N :    0.396394
  12 C :   -0.053086
  13 C :   -0.038295
  14 C :    0.013118
  15 C :    0.042135
  16 C :   -0.001535
  17 C :   -0.190425
  18 O :    0.396706
  19 C :    0.029306
  20 H :   -0.029995
  21 H :   -0.026986
  22 H :   -0.022721
  23 H :   -0.034145
  24 H :   -0.023850
  25 H :   -0.005982
  26 H :   -0.002727
  27 H :   -0.023291
  28 H :   -0.057357
  29 H :   -0.065457
  30 H :   -0.007474
  31 H :   -0.029206
  32 H :   -0.019560
  33 H :   -0.034271
  34 H :   -0.152434
  35 H :   -0.024908

  Mayer bond orders larger than 0.100000
B(  0-C ,  1-C ) :   0.9794 B(  0-C , 20-H ) :   0.9738 B(  0-C , 21-H ) :   0.9742
B(  0-C , 22-H ) :   0.9741 B(  1-C ,  2-O ) :   0.8945 B(  1-C , 23-H ) :   0.9667
B(  1-C , 24-H ) :   0.9812 B(  2-O ,  3-C ) :   1.0940 B(  3-C ,  4-O ) :   2.0220
B(  3-C ,  5-C ) :   1.0592 B(  5-C ,  6-C ) :   1.6494 B(  5-C , 12-C ) :   0.9694
B(  6-C ,  7-C ) :   0.9690 B(  6-C ,  8-N ) :   1.1586 B(  7-C , 25-H ) :   0.9634
B(  7-C , 26-H ) :   0.9568 B(  7-C , 27-H ) :   0.9893 B(  8-N ,  9-C ) :   1.1812
B(  8-N , 28-H ) :   0.9478 B(  9-C , 10-S ) :   1.6080 B(  9-C , 11-N ) :   1.3056
B( 11-N , 12-C ) :   0.9670 B( 11-N , 29-H ) :   0.9533 B( 12-C , 13-C ) :   0.9448
B( 12-C , 30-H ) :   1.0014 B( 13-C , 14-C ) :   1.3506 B( 13-C , 19-C ) :   1.3751
B( 14-C , 15-C ) :   1.3935 B( 14-C , 31-H ) :   0.9724 B( 15-C , 16-C ) :   1.3632
B( 15-C , 32-H ) :   0.9703 B( 16-C , 17-C ) :   1.3288 B( 16-C , 33-H ) :   0.9841
B( 17-C , 18-O ) :   1.1150 B( 17-C , 19-C ) :   1.3745 B( 18-O , 34-H ) :   0.9787
B( 19-C , 35-H ) :   0.9572

MP2 TOTAL ENERGY:    -1274.332600594 Eh
FINAL SINGLE POINT ENERGY     -1274.332600593800

DIPOLE MOMENT
-------------
                                X             Y             Z
Electronic contribution:     10.38730       8.91314       6.66103
Nuclear contribution   :    -11.45375     -10.52947      -6.41894
                        -----------------------------------------
Total Dipole Moment    :     -1.06645      -1.61633       0.24210
                        -----------------------------------------
Magnitude (a.u.)       :      1.95152
Magnitude (Debye)      :      4.96037

Rotational constants in cm-1:     0.011979     0.009169     0.006474
Rotational constants in MHz :   359.127819   274.886488   194.094890

                             ****ORCA TERMINATED NORMALLY****
TOTAL RUN TIME: 0 days 1 hours 45 minutes 0 seconds 532 msec
