                         Program Version 4.2.0 -  RELEASE  -
|  1> ! ri-mp2 cc-pvtz cc-pvtz/c TightSCF  NoKeepInts
|  2>
|  3> %scf
|  4>   MaxCore 4096
|  5> end
|  6> *xyz  0  1
|  7>     C       15.3670971   14.4648244   17.1867199
|  8>     C       15.4759919   15.4637666   16.0168391
|  9>     O       16.8425078   15.6060406   15.5662036
| 10>     C       17.8954362   15.6870975   16.4353627
| 11>     O       18.6606479   14.7486779   16.5659702
| 12>     C       17.9029009   16.8653221   17.3682885
| 13>     C       17.4055016   18.0909419   17.0574598
| 14>     C       16.7975689   18.5538025   15.7478445
| 15>     N       17.5461309   19.1474762   17.9623659
| 16>     C       18.3343241   19.1182206   19.0820825
| 17>     S       18.5600337   20.4587235   20.0235396
| 18>     N       18.9282332   17.9180580   19.3790496
| 19>     C       18.6361557   16.6419919   18.6982043
| 20>     C       17.8622834   15.7040252   19.6204708
| 21>     C       18.2345383   14.3511487   19.7270048
| 22>     C       17.5217023   13.4744532   20.5615964
| 23>     C       16.4259101   13.9533024   21.2992022
| 24>     C       16.0502145   15.2992882   21.1962142
| 25>     O       14.9860965   15.7624655   21.8988623
| 26>     C       16.7604656   16.1697252   20.3632507
| 27>     H       15.9054753   13.5355905   16.9592257
| 28>     H       14.3169283   14.2110952   17.3746371
| 29>     H       15.7734542   14.8848393   18.1102843
| 30>     H       14.8602593   15.1131035   15.1784245
| 31>     H       15.0724861   16.4276662   16.3464089
| 32>     H       17.1804720   17.9813489   14.8943691
| 33>     H       17.0438879   19.6027867   15.5397272
| 34>     H       15.7053726   18.4699326   15.7592601
| 35>     H       17.1285083   20.0408146   17.7545268
| 36>     H       19.4894272   17.9163331   20.2213830
| 37>     H       19.6011378   16.1661709   18.4691150
| 38>     H       19.0726171   13.9734207   19.1450976
| 39>     H       17.8176590   12.4289471   20.6291842
| 40>     H       15.8715397   13.2787095   21.9432385
| 41>     H       14.6654236   15.0352115   22.4533783
| 42>     H       16.4486111   17.2066777   20.2992086
| 43> *
| 44>
| 45>                          ****END OF INPUT****

CARTESIAN COORDINATES (ANGSTROEM)
---------------------------------
  C     15.367097   14.464824   17.186720
  C     15.475992   15.463767   16.016839
  O     16.842508   15.606041   15.566204
  C     17.895436   15.687098   16.435363
  O     18.660648   14.748678   16.565970
  C     17.902901   16.865322   17.368288
  C     17.405502   18.090942   17.057460
  C     16.797569   18.553802   15.747844
  N     17.546131   19.147476   17.962366
  C     18.334324   19.118221   19.082082
  S     18.560034   20.458724   20.023540
  N     18.928233   17.918058   19.379050
  C     18.636156   16.641992   18.698204
  C     17.862283   15.704025   19.620471
  C     18.234538   14.351149   19.727005
  C     17.521702   13.474453   20.561596
  C     16.425910   13.953302   21.299202
  C     16.050214   15.299288   21.196214
  O     14.986097   15.762465   21.898862
  C     16.760466   16.169725   20.363251
  H     15.905475   13.535590   16.959226
  H     14.316928   14.211095   17.374637
  H     15.773454   14.884839   18.110284
  H     14.860259   15.113103   15.178425
  H     15.072486   16.427666   16.346409
  H     17.180472   17.981349   14.894369
  H     17.043888   19.602787   15.539727
  H     15.705373   18.469933   15.759260
  H     17.128508   20.040815   17.754527
  H     19.489427   17.916333   20.221383
  H     19.601138   16.166171   18.469115
  H     19.072617   13.973421   19.145098
  H     17.817659   12.428947   20.629184
  H     15.871540   13.278709   21.943238
  H     14.665424   15.035212   22.453378
  H     16.448611   17.206678   20.299209

 Total Charge           Charge          ....    0
 Multiplicity           Mult            ....    1
 Number of Electrons    NEL             ....  154
 Basis Dimension        Dim             ....  828

ORBITAL ENERGIES
----------------

  NO   OCC          E(Eh)            E(eV)
   0   2.0000     -91.891037     -2500.4822
   1   2.0000     -20.596967      -560.4720
   2   2.0000     -20.588018      -560.2284
   3   2.0000     -20.553226      -559.2817
   4   2.0000     -15.630722      -425.3336
   5   2.0000     -15.609899      -424.7669
   6   2.0000     -11.397094      -310.1307
   7   2.0000     -11.386313      -309.8373
   8   2.0000     -11.339340      -308.5591
   9   2.0000     -11.313712      -307.8617
  10   2.0000     -11.310105      -307.7636
  11   2.0000     -11.307863      -307.7026
  12   2.0000     -11.265671      -306.5545
  13   2.0000     -11.264456      -306.5214
  14   2.0000     -11.259573      -306.3886
  15   2.0000     -11.253658      -306.2276
  16   2.0000     -11.243268      -305.9449
  17   2.0000     -11.239085      -305.8310
  18   2.0000     -11.235234      -305.7263
  19   2.0000     -11.225567      -305.4632
  20   2.0000      -8.896106      -242.0754
  21   2.0000      -6.577683      -178.9879
  22   2.0000      -6.575671      -178.9331
  23   2.0000      -6.575085      -178.9172
  24   2.0000      -1.446825       -39.3701
  25   2.0000      -1.416789       -38.5528
  26   2.0000      -1.357647       -36.9434
  27   2.0000      -1.342834       -36.5404
  28   2.0000      -1.240593       -33.7582
  29   2.0000      -1.157751       -31.5040
  30   2.0000      -1.122959       -30.5573
  31   2.0000      -1.045587       -28.4519
  32   2.0000      -1.033993       -28.1364
  33   2.0000      -1.015802       -27.6414
  34   2.0000      -1.003710       -27.3123
  35   2.0000      -0.988206       -26.8905
  36   2.0000      -0.926411       -25.2089
  37   2.0000      -0.894306       -24.3353
  38   2.0000      -0.853699       -23.2303
  39   2.0000      -0.841166       -22.8893
  40   2.0000      -0.833626       -22.6841
  41   2.0000      -0.827027       -22.5046
  42   2.0000      -0.744855       -20.2685
  43   2.0000      -0.732569       -19.9342
  44   2.0000      -0.729361       -19.8469
  45   2.0000      -0.694963       -18.9109
  46   2.0000      -0.686561       -18.6823
  47   2.0000      -0.681634       -18.5482
  48   2.0000      -0.675768       -18.3886
  49   2.0000      -0.663225       -18.0473
  50   2.0000      -0.653928       -17.7943
  51   2.0000      -0.649270       -17.6675
  52   2.0000      -0.638774       -17.3819
  53   2.0000      -0.624558       -16.9951
  54   2.0000      -0.607234       -16.5237
  55   2.0000      -0.604894       -16.4600
  56   2.0000      -0.600759       -16.3475
  57   2.0000      -0.582472       -15.8499
  58   2.0000      -0.574544       -15.6341
  59   2.0000      -0.565473       -15.3873
  60   2.0000      -0.557537       -15.1714
  61   2.0000      -0.546756       -14.8780
  62   2.0000      -0.541066       -14.7231
  63   2.0000      -0.532547       -14.4913
  64   2.0000      -0.520184       -14.1549
  65   2.0000      -0.512684       -13.9508
  66   2.0000      -0.500674       -13.6240
  67   2.0000      -0.490981       -13.3603
  68   2.0000      -0.486275       -13.2322
  69   2.0000      -0.468928       -12.7602
  70   2.0000      -0.458566       -12.4782
  71   2.0000      -0.448988       -12.2176
  72   2.0000      -0.359236        -9.7753
  73   2.0000      -0.349038        -9.4978
  74   2.0000      -0.330322        -8.9885
  75   2.0000      -0.321689        -8.7536
  76   2.0000      -0.319026        -8.6811
  77   0.0000       0.072170         1.9638
  78   0.0000       0.106279         2.8920
  79   0.0000       0.118368         3.2210
  80   0.0000       0.131433         3.5765
  81   0.0000       0.135691         3.6923

MULLIKEN ATOMIC CHARGES
-----------------------
   0 C :   -0.308356
   1 C :    0.036789
   2 O :   -0.368100
   3 C :    0.475758
   4 O :   -0.389705
   5 C :   -0.224870
   6 C :    0.146695
   7 C :   -0.320620
   8 N :   -0.128004
   9 C :    0.190524
  10 S :   -0.436382
  11 N :   -0.204106
  12 C :    0.055983
  13 C :    0.005465
  14 C :   -0.170843
  15 C :   -0.144222
  16 C :   -0.266202
  17 C :    0.301208
  18 O :   -0.358845
  19 C :   -0.239256
  20 H :    0.117073
  21 H :    0.104925
  22 H :    0.111377
  23 H :    0.119217
  24 H :    0.077823
  25 H :    0.143414
  26 H :    0.121051
  27 H :    0.123084
  28 H :    0.197681
  29 H :    0.195980
  30 H :    0.161411
  31 H :    0.168442
  32 H :    0.162478
  33 H :    0.131970
  34 H :    0.240737
  35 H :    0.170428
Sum of atomic charges:   -0.0000000

LOEWDIN ATOMIC CHARGES
----------------------
   0 C :    0.110324
   1 C :   -0.019178
   2 O :    0.286870
   3 C :   -0.419350
   4 O :    0.127541
   5 C :   -0.090346
   6 C :   -0.075222
   7 C :    0.126908
   8 N :    0.404511
   9 C :   -0.460775
  10 S :   -0.034240
  11 N :    0.397627
  12 C :   -0.045185
  13 C :   -0.044368
  14 C :    0.021735
  15 C :    0.043311
  16 C :   -0.001140
  17 C :   -0.193727
  18 O :    0.394869
  19 C :    0.025825
  20 H :   -0.020349
  21 H :   -0.024637
  22 H :   -0.029650
  23 H :   -0.021001
  24 H :   -0.040570
  25 H :   -0.007351
  26 H :   -0.014753
  27 H :   -0.018144
  28 H :   -0.057388
  29 H :   -0.063245
  30 H :   -0.002887
  31 H :   -0.023065
  32 H :   -0.019423
  33 H :   -0.035154
  34 H :   -0.153703
  35 H :   -0.024670

  Mayer bond orders larger than 0.100000
B(  0-C ,  1-C ) :   0.9696 B(  0-C , 20-H ) :   0.9721 B(  0-C , 21-H ) :   0.9774
B(  0-C , 22-H ) :   0.9666 B(  1-C ,  2-O ) :   0.8983 B(  1-C , 23-H ) :   0.9799
B(  1-C , 24-H ) :   0.9732 B(  2-O ,  3-C ) :   1.1139 B(  3-C ,  4-O ) :   2.0568
B(  3-C ,  5-C ) :   0.9890 B(  5-C ,  6-C ) :   1.6678 B(  5-C , 12-C ) :   0.9555
B(  6-C ,  7-C ) :   0.9421 B(  6-C ,  8-N ) :   1.1331 B(  7-C , 25-H ) :   0.9680
B(  7-C , 26-H ) :   0.9837 B(  7-C , 27-H ) :   0.9661 B(  8-N ,  9-C ) :   1.1834
B(  8-N , 28-H ) :   0.9507 B(  9-C , 10-S ) :   1.6151 B(  9-C , 11-N ) :   1.2978
B( 11-N , 12-C ) :   0.9901 B( 11-N , 29-H ) :   0.9514 B( 12-C , 13-C ) :   0.9477
B( 12-C , 30-H ) :   0.9980 B( 13-C , 14-C ) :   1.3920 B( 13-C , 19-C ) :   1.3566
B( 14-C , 15-C ) :   1.3948 B( 14-C , 31-H ) :   0.9585 B( 15-C , 16-C ) :   1.3624
B( 15-C , 32-H ) :   0.9707 B( 16-C , 17-C ) :   1.3313 B( 16-C , 33-H ) :   0.9843
B( 17-C , 18-O ) :   1.1122 B( 17-C , 19-C ) :   1.3714 B( 18-O , 34-H ) :   0.9798
B( 19-C , 35-H ) :   0.9590

MP2 TOTAL ENERGY:    -1274.332942263 Eh
FINAL SINGLE POINT ENERGY     -1274.332942262799

DIPOLE MOMENT
-------------
                                X             Y             Z
Electronic contribution:      9.45214       8.25722       6.29334
Nuclear contribution   :    -10.98293      -9.23983      -6.81695
                        -----------------------------------------
Total Dipole Moment    :     -1.53079      -0.98260      -0.52360
                        -----------------------------------------
Magnitude (a.u.)       :      1.89288
Magnitude (Debye)      :      4.81132

Rotational constants in cm-1:     0.011484     0.009755     0.006659
Rotational constants in MHz :   344.269135   292.448944   199.630368

                             ****ORCA TERMINATED NORMALLY****
TOTAL RUN TIME: 0 days 1 hours 47 minutes 36 seconds 474 msec
