                         Program Version 4.2.0 -  RELEASE  -
|  1> ! ri-mp2 cc-pvtz cc-pvtz/c TightSCF  NoKeepInts
|  2>
|  3> %scf
|  4>   MaxCore 4096
|  5> end
|  6> *xyz  0  1
|  7>     C       15.0618510   14.4995780   17.0854825
|  8>     C       15.6398983   14.8457518   15.6973323
|  9>     O       16.4708514   16.0160380   15.8128333
| 10>     C       17.6589409   15.9281115   16.4801156
| 11>     O       18.2737265   14.8772696   16.5653013
| 12>     C       17.8820323   17.0603533   17.4376540
| 13>     C       17.3918444   18.3151820   17.2705518
| 14>     C       16.5813909   18.8446803   16.1056990
| 15>     N       17.6867762   19.3070119   18.2112519
| 16>     C       18.5552394   19.1585638   19.2605284
| 17>     S       18.9298183   20.4173160   20.2659570
| 18>     N       19.0986052   17.9106573   19.4343491
| 19>     C       18.7123094   16.7064395   18.6751226
| 20>     C       17.9523215   15.7306977   19.5693755
| 21>     C       18.4046214   14.4079093   19.7287369
| 22>     C       17.6955434   13.5006551   20.5336978
| 23>     C       16.5223275   13.9183051   21.1847032
| 24>     C       16.0665975   15.2339868   21.0257521
| 25>     O       14.9287403   15.6376671   21.6449481
| 26>     C       16.7749352   16.1349228   20.2247586
| 27>     H       15.8544236   14.1833759   17.7759541
| 28>     H       14.3403125   13.6777965   17.0052404
| 29>     H       14.5486891   15.3654787   17.5218615
| 30>     H       16.2119446   13.9966711   15.2985071
| 31>     H       14.8139581   15.0550657   15.0056661
| 32>     H       15.5453713   18.4878592   16.1621921
| 33>     H       17.0019585   18.5066246   15.1504047
| 34>     H       16.5557706   19.9406911   16.0740763
| 35>     H       17.2977486   20.2298773   18.1014990
| 36>     H       19.7108314   17.8205381   20.2349546
| 37>     H       19.6348262   16.2163179   18.3317465
| 38>     H       19.2998732   14.0765630   19.2082808
| 39>     H       18.0525550   12.4781976   20.6433287
| 40>     H       15.9699753   13.2198545   21.8044093
| 41>     H       14.6149788   14.8972775   22.1855868
| 42>     H       16.4054122   17.1487143   20.1161411
| 43> *
| 44>
| 45>                          ****END OF INPUT****

CARTESIAN COORDINATES (ANGSTROEM)
---------------------------------
  C     15.061851   14.499578   17.085482
  C     15.639898   14.845752   15.697332
  O     16.470851   16.016038   15.812833
  C     17.658941   15.928111   16.480116
  O     18.273726   14.877270   16.565301
  C     17.882032   17.060353   17.437654
  C     17.391844   18.315182   17.270552
  C     16.581391   18.844680   16.105699
  N     17.686776   19.307012   18.211252
  C     18.555239   19.158564   19.260528
  S     18.929818   20.417316   20.265957
  N     19.098605   17.910657   19.434349
  C     18.712309   16.706439   18.675123
  C     17.952322   15.730698   19.569375
  C     18.404621   14.407909   19.728737
  C     17.695543   13.500655   20.533698
  C     16.522327   13.918305   21.184703
  C     16.066598   15.233987   21.025752
  O     14.928740   15.637667   21.644948
  C     16.774935   16.134923   20.224759
  H     15.854424   14.183376   17.775954
  H     14.340312   13.677796   17.005240
  H     14.548689   15.365479   17.521861
  H     16.211945   13.996671   15.298507
  H     14.813958   15.055066   15.005666
  H     15.545371   18.487859   16.162192
  H     17.001958   18.506625   15.150405
  H     16.555771   19.940691   16.074076
  H     17.297749   20.229877   18.101499
  H     19.710831   17.820538   20.234955
  H     19.634826   16.216318   18.331746
  H     19.299873   14.076563   19.208281
  H     18.052555   12.478198   20.643329
  H     15.969975   13.219854   21.804409
  H     14.614979   14.897277   22.185587
  H     16.405412   17.148714   20.116141

 Total Charge           Charge          ....    0
 Multiplicity           Mult            ....    1
 Number of Electrons    NEL             ....  154
 Basis Dimension        Dim             ....  828

ORBITAL ENERGIES
----------------

  NO   OCC          E(Eh)            E(eV)
   0   2.0000     -91.888283     -2500.4073
   1   2.0000     -20.595498      -560.4320
   2   2.0000     -20.594515      -560.4052
   3   2.0000     -20.549195      -559.1720
   4   2.0000     -15.628024      -425.2602
   5   2.0000     -15.607615      -424.7048
   6   2.0000     -11.395555      -310.0888
   7   2.0000     -11.383599      -309.7635
   8   2.0000     -11.334151      -308.4179
   9   2.0000     -11.310499      -307.7743
  10   2.0000     -11.307426      -307.6907
  11   2.0000     -11.298439      -307.4462
  12   2.0000     -11.259831      -306.3956
  13   2.0000     -11.258959      -306.3719
  14   2.0000     -11.256002      -306.2914
  15   2.0000     -11.250923      -306.1532
  16   2.0000     -11.240532      -305.8704
  17   2.0000     -11.236095      -305.7497
  18   2.0000     -11.233690      -305.6842
  19   2.0000     -11.223788      -305.4148
  20   2.0000      -8.893353      -242.0004
  21   2.0000      -6.574932      -178.9130
  22   2.0000      -6.572923      -178.8583
  23   2.0000      -6.572339      -178.8424
  24   2.0000      -1.452573       -39.5265
  25   2.0000      -1.414270       -38.4842
  26   2.0000      -1.356371       -36.9087
  27   2.0000      -1.339187       -36.4411
  28   2.0000      -1.237348       -33.6700
  29   2.0000      -1.155078       -31.4313
  30   2.0000      -1.120703       -30.4959
  31   2.0000      -1.043305       -28.3898
  32   2.0000      -1.031596       -28.0712
  33   2.0000      -1.012278       -27.5455
  34   2.0000      -0.998491       -27.1703
  35   2.0000      -0.984045       -26.7772
  36   2.0000      -0.922760       -25.1096
  37   2.0000      -0.892940       -24.2981
  38   2.0000      -0.847612       -23.0647
  39   2.0000      -0.836827       -22.7712
  40   2.0000      -0.830856       -22.6087
  41   2.0000      -0.814734       -22.1700
  42   2.0000      -0.751457       -20.4482
  43   2.0000      -0.735911       -20.0252
  44   2.0000      -0.726945       -19.7812
  45   2.0000      -0.692888       -18.8545
  46   2.0000      -0.685853       -18.6630
  47   2.0000      -0.678231       -18.4556
  48   2.0000      -0.672391       -18.2967
  49   2.0000      -0.658408       -17.9162
  50   2.0000      -0.652426       -17.7534
  51   2.0000      -0.645220       -17.5573
  52   2.0000      -0.633654       -17.2426
  53   2.0000      -0.610136       -16.6026
  54   2.0000      -0.601873       -16.3778
  55   2.0000      -0.601664       -16.3721
  56   2.0000      -0.598156       -16.2767
  57   2.0000      -0.579370       -15.7655
  58   2.0000      -0.575583       -15.6624
  59   2.0000      -0.563196       -15.3253
  60   2.0000      -0.554352       -15.0847
  61   2.0000      -0.549143       -14.9429
  62   2.0000      -0.533743       -14.5239
  63   2.0000      -0.531558       -14.4644
  64   2.0000      -0.519749       -14.1431
  65   2.0000      -0.510259       -13.8848
  66   2.0000      -0.498326       -13.5601
  67   2.0000      -0.492606       -13.4045
  68   2.0000      -0.482224       -13.1220
  69   2.0000      -0.464322       -12.6349
  70   2.0000      -0.459778       -12.5112
  71   2.0000      -0.449633       -12.2351
  72   2.0000      -0.353866        -9.6292
  73   2.0000      -0.346743        -9.4354
  74   2.0000      -0.327554        -8.9132
  75   2.0000      -0.317927        -8.6512
  76   2.0000      -0.315276        -8.5791
  77   0.0000       0.074760         2.0343
  78   0.0000       0.108392         2.9495
  79   0.0000       0.119563         3.2535
  80   0.0000       0.133180         3.6240
  81   0.0000       0.143240         3.8978

MULLIKEN ATOMIC CHARGES
-----------------------
   0 C :   -0.310890
   1 C :    0.036573
   2 O :   -0.364837
   3 C :    0.428568
   4 O :   -0.417259
   5 C :   -0.163514
   6 C :    0.140408
   7 C :   -0.282828
   8 N :   -0.124418
   9 C :    0.205206
  10 S :   -0.440200
  11 N :   -0.200875
  12 C :    0.054342
  13 C :    0.033678
  14 C :   -0.156422
  15 C :   -0.134773
  16 C :   -0.279241
  17 C :    0.311493
  18 O :   -0.360128
  19 C :   -0.266886
  20 H :    0.125215
  21 H :    0.102053
  22 H :    0.097743
  23 H :    0.109836
  24 H :    0.106308
  25 H :    0.126234
  26 H :    0.125231
  27 H :    0.102046
  28 H :    0.197022
  29 H :    0.194209
  30 H :    0.153510
  31 H :    0.154489
  32 H :    0.160300
  33 H :    0.129954
  34 H :    0.240632
  35 H :    0.167220
Sum of atomic charges:    0.0000000

LOEWDIN ATOMIC CHARGES
----------------------
   0 C :    0.105732
   1 C :   -0.018114
   2 O :    0.298248
   3 C :   -0.414363
   4 O :    0.111619
   5 C :   -0.091686
   6 C :   -0.070824
   7 C :    0.125815
   8 N :    0.404334
   9 C :   -0.457507
  10 S :   -0.036567
  11 N :    0.397524
  12 C :   -0.045494
  13 C :   -0.041033
  14 C :    0.021093
  15 C :    0.040602
  16 C :   -0.002239
  17 C :   -0.192882
  18 O :    0.393814
  19 C :    0.030457
  20 H :   -0.022353
  21 H :   -0.026513
  22 H :   -0.028885
  23 H :   -0.027976
  24 H :   -0.025930
  25 H :   -0.010092
  26 H :   -0.008087
  27 H :   -0.020344
  28 H :   -0.058906
  29 H :   -0.063909
  30 H :   -0.004980
  31 H :   -0.025011
  32 H :   -0.020677
  33 H :   -0.035845
  34 H :   -0.154354
  35 H :   -0.024668

  Mayer bond orders larger than 0.100000
B(  0-C ,  1-C ) :   0.9614 B(  0-C , 20-H ) :   0.9683 B(  0-C , 21-H ) :   0.9769
B(  0-C , 22-H ) :   0.9757 B(  1-C ,  2-O ) :   0.8935 B(  1-C , 23-H ) :   0.9794
B(  1-C , 24-H ) :   0.9844 B(  2-O ,  3-C ) :   1.1194 B(  3-C ,  4-O ) :   2.0015
B(  3-C ,  5-C ) :   1.0360 B(  5-C ,  6-C ) :   1.6582 B(  5-C , 12-C ) :   0.9659
B(  6-C ,  7-C ) :   0.9538 B(  6-C ,  8-N ) :   1.1423 B(  7-C , 25-H ) :   0.9628
B(  7-C , 26-H ) :   0.9685 B(  7-C , 27-H ) :   0.9894 B(  8-N ,  9-C ) :   1.1829
B(  8-N , 28-H ) :   0.9494 B(  9-C , 10-S ) :   1.6097 B(  9-C , 11-N ) :   1.3019
B( 11-N , 12-C ) :   0.9928 B( 11-N , 29-H ) :   0.9517 B( 12-C , 13-C ) :   0.9420
B( 12-C , 30-H ) :   0.9990 B( 13-C , 14-C ) :   1.3782 B( 13-C , 19-C ) :   1.3717
B( 14-C , 15-C ) :   1.3931 B( 14-C , 31-H ) :   0.9648 B( 15-C , 16-C ) :   1.3620
B( 15-C , 32-H ) :   0.9715 B( 16-C , 17-C ) :   1.3319 B( 16-C , 33-H ) :   0.9853
B( 17-C , 18-O ) :   1.1080 B( 17-C , 19-C ) :   1.3752 B( 18-O , 34-H ) :   0.9803
B( 19-C , 35-H ) :   0.9577

MP2 TOTAL ENERGY:    -1274.341577405 Eh
FINAL SINGLE POINT ENERGY     -1274.341577404615

DIPOLE MOMENT
-------------
                                X             Y             Z
Electronic contribution:     10.00664       9.45797       6.90083
Nuclear contribution   :    -11.39222     -10.75109      -7.79031
                        -----------------------------------------
Total Dipole Moment    :     -1.38558      -1.29312      -0.88948
                        -----------------------------------------
Magnitude (a.u.)       :      2.09360
Magnitude (Debye)      :      5.32151

Rotational constants in cm-1:     0.011891     0.009261     0.006563
Rotational constants in MHz :   356.493554   277.637404   196.752969

                             ****ORCA TERMINATED NORMALLY****
TOTAL RUN TIME: 0 days 1 hours 48 minutes 42 seconds 703 msec
