                         Program Version 5.0.0 -  RELEASE  -
|  1> ! ri-mp2 cc-pvtz cc-pvtz/c TightSCF NoKeepInts
|  2>
|  3> %scf
|  4>   MaxCore 4096
|  5> end
|  6> *xyz  0  1
|  7>     C       15.1452934   14.0200881   16.2788951
|  8>     C       15.6076887   15.0271842   15.2004114
|  9>     O       16.4341147   16.0799606   15.7471750
| 10>     C       17.4320061   15.8473463   16.6512785
| 11>     O       18.0018976   14.7722582   16.7385768
| 12>     C       17.7624668   17.0073790   17.5485977
| 13>     C       17.3198563   18.2830358   17.3875311
| 14>     C       16.4239236   18.8360074   16.2978387
| 15>     N       17.7472098   19.2820141   18.2691064
| 16>     C       18.7084966   19.1221788   19.2316053
| 17>     S       19.2442797   20.3905726   20.1480122
| 18>     N       19.2021798   17.8534830   19.3961229
| 19>     C       18.6688922   16.6495231   18.7323387
| 20>     C       17.9313987   15.7669276   19.7363294
| 21>     C       18.2835575   14.4130456   19.8882486
| 22>     C       17.6031255   13.5938654   20.8046438
| 23>     C       16.5601404   14.1320789   21.5773334
| 24>     C       16.2035080   15.4789732   21.4266316
| 25>     O       15.1921991   15.9999857   22.1663215
| 26>     C       16.8822131   16.2916732   20.5132052
| 27>     H       15.9578911   13.3517900   16.5882700
| 28>     H       14.3387009   13.3900606   15.8852216
| 29>     H       14.7651581   14.5426455   17.1656214
| 30>     H       16.1698465   14.4834587   14.4295735
| 31>     H       14.7297868   15.4767292   14.7190821
| 32>     H       15.4192420   18.4003821   16.3644486
| 33>     H       16.8300135   18.6034134   15.3054633
| 34>     H       16.3120943   19.9256482   16.3521031
| 35>     H       17.3971414   20.2208353   18.1647006
| 36>     H       19.8872061   17.7546906   20.1342690
| 37>     H       19.5250710   16.0823520   18.3391260
| 38>     H       19.0777862   13.9897133   19.2780312
| 39>     H       17.8815482   12.5466305   20.9075222
| 40>     H       16.0307140   13.5024850   22.2845933
| 41>     H       14.8787239   15.3016947   22.7603795
| 42>     H       16.5916285   17.3318902   20.4153917
| 43> *
| 44>
| 45>                          ****END OF INPUT****

CARTESIAN COORDINATES (ANGSTROEM)
---------------------------------
  C     15.145293   14.020088   16.278895
  C     15.607689   15.027184   15.200411
  O     16.434115   16.079961   15.747175
  C     17.432006   15.847346   16.651279
  O     18.001898   14.772258   16.738577
  C     17.762467   17.007379   17.548598
  C     17.319856   18.283036   17.387531
  C     16.423924   18.836007   16.297839
  N     17.747210   19.282014   18.269106
  C     18.708497   19.122179   19.231605
  S     19.244280   20.390573   20.148012
  N     19.202180   17.853483   19.396123
  C     18.668892   16.649523   18.732339
  C     17.931399   15.766928   19.736329
  C     18.283558   14.413046   19.888249
  C     17.603126   13.593865   20.804644
  C     16.560140   14.132079   21.577333
  C     16.203508   15.478973   21.426632
  O     15.192199   15.999986   22.166321
  C     16.882213   16.291673   20.513205
  H     15.957891   13.351790   16.588270
  H     14.338701   13.390061   15.885222
  H     14.765158   14.542646   17.165621
  H     16.169846   14.483459   14.429574
  H     14.729787   15.476729   14.719082
  H     15.419242   18.400382   16.364449
  H     16.830013   18.603413   15.305463
  H     16.312094   19.925648   16.352103
  H     17.397141   20.220835   18.164701
  H     19.887206   17.754691   20.134269
  H     19.525071   16.082352   18.339126
  H     19.077786   13.989713   19.278031
  H     17.881548   12.546630   20.907522
  H     16.030714   13.502485   22.284593
  H     14.878724   15.301695   22.760379
  H     16.591628   17.331890   20.415392

 Total Charge           Charge          ....    0
 Multiplicity           Mult            ....    1
 Number of Electrons    NEL             ....  154
 Basis Dimension        Dim             ....  828

ORBITAL ENERGIES
----------------

  NO   OCC          E(Eh)            E(eV)
   0   2.0000     -91.888054     -2500.4011
   1   2.0000     -20.599654      -560.5451
   2   2.0000     -20.592045      -560.3380
   3   2.0000     -20.544871      -559.0544
   4   2.0000     -15.628450      -425.2718
   5   2.0000     -15.606670      -424.6791
   6   2.0000     -11.396641      -310.1184
   7   2.0000     -11.382844      -309.7429
   8   2.0000     -11.336778      -308.4894
   9   2.0000     -11.307877      -307.7030
  10   2.0000     -11.305123      -307.6280
  11   2.0000     -11.304405      -307.6085
  12   2.0000     -11.260470      -306.4130
  13   2.0000     -11.258482      -306.3589
  14   2.0000     -11.253623      -306.2267
  15   2.0000     -11.247940      -306.0720
  16   2.0000     -11.237626      -305.7914
  17   2.0000     -11.233788      -305.6869
  18   2.0000     -11.230575      -305.5995
  19   2.0000     -11.225996      -305.4749
  20   2.0000      -8.893117      -241.9940
  21   2.0000      -6.574694      -178.9065
  22   2.0000      -6.572688      -178.8519
  23   2.0000      -6.572102      -178.8360
  24   2.0000      -1.449878       -39.4532
  25   2.0000      -1.411795       -38.4169
  26   2.0000      -1.355976       -36.8980
  27   2.0000      -1.339370       -36.4461
  28   2.0000      -1.236958       -33.6593
  29   2.0000      -1.152358       -31.3573
  30   2.0000      -1.119119       -30.4528
  31   2.0000      -1.041726       -28.3468
  32   2.0000      -1.033645       -28.1269
  33   2.0000      -1.009757       -27.4769
  34   2.0000      -0.997465       -27.1424
  35   2.0000      -0.982868       -26.7452
  36   2.0000      -0.921542       -25.0764
  37   2.0000      -0.897093       -24.4111
  38   2.0000      -0.847903       -23.0726
  39   2.0000      -0.835644       -22.7390
  40   2.0000      -0.828157       -22.5353
  41   2.0000      -0.816223       -22.2106
  42   2.0000      -0.746504       -20.3134
  43   2.0000      -0.733018       -19.9464
  44   2.0000      -0.724855       -19.7243
  45   2.0000      -0.690552       -18.7909
  46   2.0000      -0.685178       -18.6446
  47   2.0000      -0.677900       -18.4466
  48   2.0000      -0.671303       -18.2671
  49   2.0000      -0.658194       -17.9104
  50   2.0000      -0.651237       -17.7211
  51   2.0000      -0.644189       -17.5293
  52   2.0000      -0.632070       -17.1995
  53   2.0000      -0.616881       -16.7862
  54   2.0000      -0.600592       -16.3429
  55   2.0000      -0.599750       -16.3200
  56   2.0000      -0.595492       -16.2042
  57   2.0000      -0.579252       -15.7623
  58   2.0000      -0.573688       -15.6108
  59   2.0000      -0.564483       -15.3604
  60   2.0000      -0.556733       -15.1495
  61   2.0000      -0.543388       -14.7864
  62   2.0000      -0.537939       -14.6381
  63   2.0000      -0.525405       -14.2970
  64   2.0000      -0.516710       -14.0604
  65   2.0000      -0.509958       -13.8767
  66   2.0000      -0.501340       -13.6422
  67   2.0000      -0.495413       -13.4809
  68   2.0000      -0.479172       -13.0389
  69   2.0000      -0.463205       -12.6045
  70   2.0000      -0.457430       -12.4473
  71   2.0000      -0.450058       -12.2467
  72   2.0000      -0.354005        -9.6330
  73   2.0000      -0.344296        -9.3688
  74   2.0000      -0.327192        -8.9034
  75   2.0000      -0.315764        -8.5924
  76   2.0000      -0.313888        -8.5413
  77   0.0000       0.075364         2.0508
  78   0.0000       0.112361         3.0575
  79   0.0000       0.121377         3.3028
  80   0.0000       0.135658         3.6914
  81   0.0000       0.141035         3.8377

MULLIKEN ATOMIC CHARGES
-----------------------
   0 C :   -0.314045
   1 C :    0.045149
   2 O :   -0.355033
   3 C :    0.456304
   4 O :   -0.432052
   5 C :   -0.180541
   6 C :    0.144291
   7 C :   -0.281915
   8 N :   -0.121067
   9 C :    0.201638
  10 S :   -0.439205
  11 N :   -0.198310
  12 C :    0.039668
  13 C :    0.057681
  14 C :   -0.164954
  15 C :   -0.133399
  16 C :   -0.279449
  17 C :    0.312160
  18 O :   -0.359101
  19 C :   -0.275896
  20 H :    0.130213
  21 H :    0.098053
  22 H :    0.098418
  23 H :    0.100193
  24 H :    0.104182
  25 H :    0.124354
  26 H :    0.128760
  27 H :    0.101698
  28 H :    0.196710
  29 H :    0.193895
  30 H :    0.154173
  31 H :    0.154643
  32 H :    0.159315
  33 H :    0.128260
  34 H :    0.240139
  35 H :    0.165071
Sum of atomic charges:    0.0000000

LOEWDIN ATOMIC CHARGES
----------------------
   0 C :    0.105504
   1 C :   -0.012499
   2 O :    0.297804
   3 C :   -0.415006
   4 O :    0.107240
   5 C :   -0.091380
   6 C :   -0.064495
   7 C :    0.124987
   8 N :    0.404956
   9 C :   -0.459051
  10 S :   -0.035959
  11 N :    0.398058
  12 C :   -0.046614
  13 C :   -0.039095
  14 C :    0.022197
  15 C :    0.040557
  16 C :   -0.002414
  17 C :   -0.193052
  18 O :    0.392968
  19 C :    0.027923
  20 H :   -0.024183
  21 H :   -0.026771
  22 H :   -0.027676
  23 H :   -0.028426
  24 H :   -0.025458
  25 H :   -0.010200
  26 H :   -0.007744
  27 H :   -0.021430
  28 H :   -0.059248
  29 H :   -0.063612
  30 H :   -0.005250
  31 H :   -0.025158
  32 H :   -0.021223
  33 H :   -0.036369
  34 H :   -0.154843
  35 H :   -0.025039

  Mayer bond orders larger than 0.100000
B(  0-C ,  1-C ) :   0.9593 B(  0-C , 20-H ) :   0.9716 B(  0-C , 21-H ) :   0.9763
B(  0-C , 22-H ) :   0.9742 B(  1-C ,  2-O ) :   0.9004 B(  1-C , 23-H ) :   0.9831
B(  1-C , 24-H ) :   0.9839 B(  2-O ,  3-C ) :   1.1501 B(  3-C ,  4-O ) :   1.9769
B(  3-C ,  5-C ) :   1.0527 B(  5-C ,  6-C ) :   1.6453 B(  5-C , 12-C ) :   0.9650
B(  6-C ,  7-C ) :   0.9560 B(  6-C ,  8-N ) :   1.1516 B(  7-C , 25-H ) :   0.9647
B(  7-C , 26-H ) :   0.9642 B(  7-C , 27-H ) :   0.9916 B(  8-N ,  9-C ) :   1.1780
B(  8-N , 28-H ) :   0.9486 B(  9-C , 10-S ) :   1.6107 B(  9-C , 11-N ) :   1.3049
B( 11-N , 12-C ) :   0.9918 B( 11-N , 29-H ) :   0.9519 B( 12-C , 13-C ) :   0.9465
B( 12-C , 30-H ) :   1.0004 B( 13-C , 14-C ) :   1.3759 B( 13-C , 19-C ) :   1.3679
B( 14-C , 15-C ) :   1.3942 B( 14-C , 31-H ) :   0.9643 B( 15-C , 16-C ) :   1.3622
B( 15-C , 32-H ) :   0.9713 B( 16-C , 17-C ) :   1.3319 B( 16-C , 33-H ) :   0.9859
B( 17-C , 18-O ) :   1.1082 B( 17-C , 19-C ) :   1.3778 B( 18-O , 34-H ) :   0.9805
B( 19-C , 35-H ) :   0.9584

MP2 TOTAL ENERGY:    -1274.343652348 Eh
FINAL SINGLE POINT ENERGY     -1274.343652347648

DIPOLE MOMENT
-------------
                                X             Y             Z
Electronic contribution:     10.26588      10.12848       9.04868
Nuclear contribution   :    -11.83234     -11.37225     -10.08225
                        -----------------------------------------
Total Dipole Moment    :     -1.56646      -1.24377      -1.03357
                        -----------------------------------------
Magnitude (a.u.)       :      2.25145
Magnitude (Debye)      :      5.72273

Rotational constants in cm-1:     0.010874     0.009227     0.006089
Rotational constants in MHz :   325.994428   276.625921   182.534454

                             ****ORCA TERMINATED NORMALLY****
TOTAL RUN TIME: 0 days 2 hours 0 minutes 14 seconds 980 msec
