                         Program Version 4.2.0 -  RELEASE  -
|  1> ! ri-mp2 cc-pvtz cc-pvtz/c TightSCF  NoKeepInts
|  2>
|  3> %scf
|  4>   MaxCore 4096
|  5> end
|  6> *xyz  0  1
|  7>     C       14.9167769   13.9126713   15.8162462
|  8>     C       15.3866273   15.0142174   16.7810099
|  9>     O       16.3840088   15.7945353   16.0987763
| 10>     C       17.6547626   15.7552941   16.5893172
| 11>     O       18.2127369   14.6875241   16.7782824
| 12>     C       17.9520366   16.9482660   17.4449017
| 13>     C       17.5316982   18.2040641   17.1529007
| 14>     C       16.7496640   18.6483951   15.9346405
| 15>     N       17.8832760   19.2670479   17.9901125
| 16>     C       18.7473090   19.1742021   19.0498859
| 17>     S       19.1937662   20.5027037   19.9278986
| 18>     N       19.2225136   17.9209685   19.3466356
| 19>     C       18.7677954   16.6698750   18.7100341
| 20>     C       17.9566061   15.8302554   19.6932952
| 21>     C       18.3140240   14.4949703   19.9555460
| 22>     C       17.5577920   13.7121179   20.8438039
| 23>     C       16.4325084   14.2680276   21.4757083
| 24>     C       16.0704829   15.5962653   21.2140858
| 25>     O       14.9782531   16.1330500   21.8138632
| 26>     C       16.8245026   16.3726336   20.3286598
| 27>     H       15.7542467   13.2554940   15.5488996
| 28>     H       14.5111184   14.3494230   14.8953717
| 29>     H       14.1355559   13.2998623   16.2818220
| 30>     H       14.5362261   15.6537272   17.0499882
| 31>     H       15.7838032   14.5657493   17.7033429
| 32>     H       17.1036020   18.1359167   15.0312390
| 33>     H       16.8422266   19.7252829   15.7479343
| 34>     H       15.6836502   18.4180160   16.0535568
| 35>     H       17.5459416   20.1948474   17.7881875
| 36>     H       19.8346319   17.8773099   20.1513232
| 37>     H       19.6600021   16.0976763   18.4169282
| 38>     H       19.1720265   14.0563292   19.4516131
| 39>     H       17.8420354   12.6784617   21.0332427
| 40>     H       15.8445485   13.6659313   22.1605146
| 41>     H       14.6323881   15.4717967   22.4322426
| 42>     H       16.5278561   17.3990918   20.1421901
| 43> *
| 44>
| 45>                          ****END OF INPUT****

CARTESIAN COORDINATES (ANGSTROEM)
---------------------------------
  C     14.916777   13.912671   15.816246
  C     15.386627   15.014217   16.781010
  O     16.384009   15.794535   16.098776
  C     17.654763   15.755294   16.589317
  O     18.212737   14.687524   16.778282
  C     17.952037   16.948266   17.444902
  C     17.531698   18.204064   17.152901
  C     16.749664   18.648395   15.934640
  N     17.883276   19.267048   17.990112
  C     18.747309   19.174202   19.049886
  S     19.193766   20.502704   19.927899
  N     19.222514   17.920969   19.346636
  C     18.767795   16.669875   18.710034
  C     17.956606   15.830255   19.693295
  C     18.314024   14.494970   19.955546
  C     17.557792   13.712118   20.843804
  C     16.432508   14.268028   21.475708
  C     16.070483   15.596265   21.214086
  O     14.978253   16.133050   21.813863
  C     16.824503   16.372634   20.328660
  H     15.754247   13.255494   15.548900
  H     14.511118   14.349423   14.895372
  H     14.135556   13.299862   16.281822
  H     14.536226   15.653727   17.049988
  H     15.783803   14.565749   17.703343
  H     17.103602   18.135917   15.031239
  H     16.842227   19.725283   15.747934
  H     15.683650   18.418016   16.053557
  H     17.545942   20.194847   17.788187
  H     19.834632   17.877310   20.151323
  H     19.660002   16.097676   18.416928
  H     19.172026   14.056329   19.451613
  H     17.842035   12.678462   21.033243
  H     15.844549   13.665931   22.160515
  H     14.632388   15.471797   22.432243
  H     16.527856   17.399092   20.142190

 Total Charge           Charge          ....    0
 Multiplicity           Mult            ....    1
 Number of Electrons    NEL             ....  154
 Basis Dimension        Dim             ....  828

ORBITAL ENERGIES
----------------

  NO   OCC          E(Eh)            E(eV)
   0   2.0000     -91.889053     -2500.4283
   1   2.0000     -20.596511      -560.4596
   2   2.0000     -20.583353      -560.1015
   3   2.0000     -20.556408      -559.3683
   4   2.0000     -15.628575      -425.2752
   5   2.0000     -15.608681      -424.7338
   6   2.0000     -11.395026      -310.0744
   7   2.0000     -11.384610      -309.7910
   8   2.0000     -11.333137      -308.3903
   9   2.0000     -11.312855      -307.8384
  10   2.0000     -11.309156      -307.7378
  11   2.0000     -11.298774      -307.4553
  12   2.0000     -11.260539      -306.4148
  13   2.0000     -11.259612      -306.3896
  14   2.0000     -11.258326      -306.3546
  15   2.0000     -11.253044      -306.2109
  16   2.0000     -11.242708      -305.9296
  17   2.0000     -11.238456      -305.8139
  18   2.0000     -11.235782      -305.7412
  19   2.0000     -11.223149      -305.3974
  20   2.0000      -8.894129      -242.0216
  21   2.0000      -6.575707      -178.9341
  22   2.0000      -6.573698      -178.8794
  23   2.0000      -6.573113      -178.8635
  24   2.0000      -1.453254       -39.5451
  25   2.0000      -1.416294       -38.5393
  26   2.0000      -1.356947       -36.9244
  27   2.0000      -1.339726       -36.4558
  28   2.0000      -1.238099       -33.6904
  29   2.0000      -1.157018       -31.4841
  30   2.0000      -1.121742       -30.5241
  31   2.0000      -1.045024       -28.4365
  32   2.0000      -1.032187       -28.0872
  33   2.0000      -1.014422       -27.6038
  34   2.0000      -0.999367       -27.1942
  35   2.0000      -0.984625       -26.7930
  36   2.0000      -0.923771       -25.1371
  37   2.0000      -0.881114       -23.9763
  38   2.0000      -0.849160       -23.1068
  39   2.0000      -0.839356       -22.8400
  40   2.0000      -0.833031       -22.6679
  41   2.0000      -0.827178       -22.5087
  42   2.0000      -0.754464       -20.5300
  43   2.0000      -0.734557       -19.9883
  44   2.0000      -0.728855       -19.8331
  45   2.0000      -0.694694       -18.9036
  46   2.0000      -0.686842       -18.6899
  47   2.0000      -0.680765       -18.5246
  48   2.0000      -0.673589       -18.3293
  49   2.0000      -0.662036       -18.0149
  50   2.0000      -0.647678       -17.6242
  51   2.0000      -0.642239       -17.4762
  52   2.0000      -0.634152       -17.2562
  53   2.0000      -0.607437       -16.5292
  54   2.0000      -0.604361       -16.4455
  55   2.0000      -0.601664       -16.3721
  56   2.0000      -0.599503       -16.3133
  57   2.0000      -0.582416       -15.8483
  58   2.0000      -0.576929       -15.6990
  59   2.0000      -0.566346       -15.4111
  60   2.0000      -0.563148       -15.3240
  61   2.0000      -0.549837       -14.9618
  62   2.0000      -0.534554       -14.5460
  63   2.0000      -0.522138       -14.2081
  64   2.0000      -0.513006       -13.9596
  65   2.0000      -0.510628       -13.8949
  66   2.0000      -0.504177       -13.7193
  67   2.0000      -0.498373       -13.5614
  68   2.0000      -0.482329       -13.1248
  69   2.0000      -0.465315       -12.6619
  70   2.0000      -0.456637       -12.4257
  71   2.0000      -0.451538       -12.2870
  72   2.0000      -0.354346        -9.6422
  73   2.0000      -0.348672        -9.4878
  74   2.0000      -0.328391        -8.9360
  75   2.0000      -0.320130        -8.7112
  76   2.0000      -0.315951        -8.5975
  77   0.0000       0.070704         1.9239
  78   0.0000       0.104503         2.8437
  79   0.0000       0.118924         3.2361
  80   0.0000       0.131875         3.5885
  81   0.0000       0.135380         3.6839

MULLIKEN ATOMIC CHARGES
-----------------------
   0 C :   -0.261289
   1 C :    0.047191
   2 O :   -0.377290
   3 C :    0.438850
   4 O :   -0.399478
   5 C :   -0.180137
   6 C :    0.134218
   7 C :   -0.279195
   8 N :   -0.124336
   9 C :    0.203194
  10 S :   -0.439489
  11 N :   -0.201679
  12 C :    0.056848
  13 C :    0.030787
  14 C :   -0.157744
  15 C :   -0.135249
  16 C :   -0.280233
  17 C :    0.310206
  18 O :   -0.358355
  19 C :   -0.271661
  20 H :    0.108311
  21 H :    0.091420
  22 H :    0.085827
  23 H :    0.093651
  24 H :    0.106336
  25 H :    0.123449
  26 H :    0.104170
  27 H :    0.125347
  28 H :    0.197165
  29 H :    0.194271
  30 H :    0.155083
  31 H :    0.157171
  32 H :    0.161383
  33 H :    0.131213
  34 H :    0.240959
  35 H :    0.169082
Sum of atomic charges:    0.0000000

LOEWDIN ATOMIC CHARGES
----------------------
   0 C :    0.106047
   1 C :   -0.014081
   2 O :    0.290566
   3 C :   -0.419201
   4 O :    0.128558
   5 C :   -0.093643
   6 C :   -0.074779
   7 C :    0.126576
   8 N :    0.404060
   9 C :   -0.457323
  10 S :   -0.036163
  11 N :    0.396989
  12 C :   -0.045363
  13 C :   -0.041657
  14 C :    0.020749
  15 C :    0.041168
  16 C :   -0.002211
  17 C :   -0.194158
  18 O :    0.393701
  19 C :    0.028469
  20 H :   -0.022567
  21 H :   -0.028972
  22 H :   -0.028874
  23 H :   -0.030966
  24 H :   -0.024283
  25 H :   -0.007873
  26 H :   -0.019319
  27 H :   -0.009749
  28 H :   -0.058644
  29 H :   -0.064095
  30 H :   -0.004700
  31 H :   -0.024505
  32 H :   -0.020144
  33 H :   -0.035436
  34 H :   -0.153906
  35 H :   -0.024272

  Mayer bond orders larger than 0.100000
B(  0-C ,  1-C ) :   0.9815 B(  0-C , 20-H ) :   0.9761 B(  0-C , 21-H ) :   0.9790
B(  0-C , 22-H ) :   0.9762 B(  1-C ,  2-O ) :   0.8802 B(  1-C , 23-H ) :   0.9798
B(  1-C , 24-H ) :   0.9675 B(  2-O ,  3-C ) :   1.0821 B(  3-C ,  4-O ) :   2.0169
B(  3-C ,  5-C ) :   1.0354 B(  5-C ,  6-C ) :   1.6674 B(  5-C , 12-C ) :   0.9635
B(  6-C ,  7-C ) :   0.9515 B(  6-C ,  8-N ) :   1.1377 B(  7-C , 25-H ) :   0.9708
B(  7-C , 26-H ) :   0.9879 B(  7-C , 27-H ) :   0.9632 B(  8-N ,  9-C ) :   1.1846
B(  8-N , 28-H ) :   0.9499 B(  9-C , 10-S ) :   1.6111 B(  9-C , 11-N ) :   1.2993
B( 11-N , 12-C ) :   0.9932 B( 11-N , 29-H ) :   0.9516 B( 12-C , 13-C ) :   0.9433
B( 12-C , 30-H ) :   0.9984 B( 13-C , 14-C ) :   1.3787 B( 13-C , 19-C ) :   1.3687
B( 14-C , 15-C ) :   1.3941 B( 14-C , 31-H ) :   0.9636 B( 15-C , 16-C ) :   1.3636
B( 15-C , 32-H ) :   0.9709 B( 16-C , 17-C ) :   1.3300 B( 16-C , 33-H ) :   0.9849
B( 17-C , 18-O ) :   1.1104 B( 17-C , 19-C ) :   1.3752 B( 18-O , 34-H ) :   0.9798
B( 19-C , 35-H ) :   0.9575

MP2 TOTAL ENERGY:    -1274.323355370 Eh
FINAL SINGLE POINT ENERGY     -1274.323355370404

DIPOLE MOMENT
-------------
                                X             Y             Z
Electronic contribution:     10.95501      10.37519       8.14053
Nuclear contribution   :    -12.35947     -11.54060      -8.62920
                        -----------------------------------------
Total Dipole Moment    :     -1.40446      -1.16541      -0.48867
                        -----------------------------------------
Magnitude (a.u.)       :      1.88931
Magnitude (Debye)      :      4.80224

Rotational constants in cm-1:     0.011727     0.009016     0.006370
Rotational constants in MHz :   351.570297   270.283047   190.972948

                             ****ORCA TERMINATED NORMALLY****
TOTAL RUN TIME: 0 days 1 hours 47 minutes 30 seconds 659 msec
