                         Program Version 4.2.0 -  RELEASE  -
|  1> ! ri-mp2 cc-pvtz cc-pvtz/c TightSCF  NoKeepInts
|  2>
|  3> %scf
|  4>   MaxCore 4096
|  5> end
|  6> *xyz  0  1
|  7>     C       14.9217856   14.2696179   16.2262870
|  8>     C       16.3802331   13.9581692   16.6260419
|  9>     O       17.2947688   15.0846475   16.5785003
| 10>     C       16.9357776   16.4020086   16.4550676
| 11>     O       16.1223729   16.7983112   15.6390861
| 12>     C       17.6425726   17.2862028   17.4470070
| 13>     C       17.4898372   18.6353798   17.4578331
| 14>     C       16.6334203   19.4705731   16.5299180
| 15>     N       18.1883710   19.4139917   18.3852349
| 16>     C       19.1139748   18.9359658   19.2732550
| 17>     S       19.9514444   19.9374978   20.2889475
| 18>     N       19.3149949   17.5797283   19.2771804
| 19>     C       18.5452465   16.6014005   18.4881300
| 20>     C       17.7615320   15.6917144   19.4300181
| 21>     C       18.2110523   14.3829663   19.6878922
| 22>     C       17.4904180   13.5355844   20.5462376
| 23>     C       16.3125525   14.0015820   21.1547685
| 24>     C       15.8669651   15.3072637   20.9073106
| 25>     O       14.7318150   15.7610934   21.4956101
| 26>     C       16.5861913   16.1483251   20.0527524
| 27>     H       14.4910912   15.0476510   16.8691523
| 28>     H       14.3014816   13.3712029   16.3282755
| 29>     H       14.8615955   14.5985793   15.1811330
| 30>     H       16.3694267   13.5662580   17.6512772
| 31>     H       16.7663790   13.1589834   15.9805451
| 32>     H       15.5773005   19.1857788   16.6199316
| 33>     H       16.9269637   19.3096604   15.4846966
| 34>     H       16.7045967   20.5459308   16.7306512
| 35>     H       18.0552022   20.4125790   18.3958674
| 36>     H       19.9755442   17.2540832   19.9709789
| 37>     H       19.2698332   15.9849788   17.9374540
| 38>     H       19.1201851   14.0195619   19.2160437
| 39>     H       17.8458169   12.5247135   20.7392724
| 40>     H       15.7529849   13.3515370   21.8195019
| 41>     H       14.4050858   15.0606028   22.0800701
| 42>     H       16.2281867   17.1578758   19.8820709
| 43> *
| 44>
| 45>                          ****END OF INPUT****

CARTESIAN COORDINATES (ANGSTROEM)
---------------------------------
  C     14.921786   14.269618   16.226287
  C     16.380233   13.958169   16.626042
  O     17.294769   15.084647   16.578500
  C     16.935778   16.402009   16.455068
  O     16.122373   16.798311   15.639086
  C     17.642573   17.286203   17.447007
  C     17.489837   18.635380   17.457833
  C     16.633420   19.470573   16.529918
  N     18.188371   19.413992   18.385235
  C     19.113975   18.935966   19.273255
  S     19.951444   19.937498   20.288947
  N     19.314995   17.579728   19.277180
  C     18.545247   16.601401   18.488130
  C     17.761532   15.691714   19.430018
  C     18.211052   14.382966   19.687892
  C     17.490418   13.535584   20.546238
  C     16.312552   14.001582   21.154768
  C     15.866965   15.307264   20.907311
  O     14.731815   15.761093   21.495610
  C     16.586191   16.148325   20.052752
  H     14.491091   15.047651   16.869152
  H     14.301482   13.371203   16.328276
  H     14.861595   14.598579   15.181133
  H     16.369427   13.566258   17.651277
  H     16.766379   13.158983   15.980545
  H     15.577300   19.185779   16.619932
  H     16.926964   19.309660   15.484697
  H     16.704597   20.545931   16.730651
  H     18.055202   20.412579   18.395867
  H     19.975544   17.254083   19.970979
  H     19.269833   15.984979   17.937454
  H     19.120185   14.019562   19.216044
  H     17.845817   12.524714   20.739272
  H     15.752985   13.351537   21.819502
  H     14.405086   15.060603   22.080070
  H     16.228187   17.157876   19.882071

 Total Charge           Charge          ....    0
 Multiplicity           Mult            ....    1
 Number of Electrons    NEL             ....  154
 Basis Dimension        Dim             ....  828

ORBITAL ENERGIES
----------------

  NO   OCC          E(Eh)            E(eV)
   0   2.0000     -91.888750     -2500.4200
   1   2.0000     -20.600079      -560.5566
   2   2.0000     -20.590338      -560.2916
   3   2.0000     -20.541555      -558.9641
   4   2.0000     -15.628806      -425.2814
   5   2.0000     -15.608284      -424.7230
   6   2.0000     -11.395299      -310.0818
   7   2.0000     -11.383885      -309.7713
   8   2.0000     -11.335651      -308.4588
   9   2.0000     -11.317706      -307.9704
  10   2.0000     -11.309062      -307.7352
  11   2.0000     -11.299293      -307.4694
  12   2.0000     -11.262968      -306.4809
  13   2.0000     -11.259033      -306.3739
  14   2.0000     -11.257738      -306.3386
  15   2.0000     -11.251912      -306.1801
  16   2.0000     -11.246454      -306.0316
  17   2.0000     -11.241394      -305.8939
  18   2.0000     -11.241203      -305.8887
  19   2.0000     -11.222143      -305.3700
  20   2.0000      -8.893822      -242.0132
  21   2.0000      -6.575398      -178.9257
  22   2.0000      -6.573391      -178.8711
  23   2.0000      -6.572807      -178.8552
  24   2.0000      -1.440985       -39.2112
  25   2.0000      -1.419719       -38.6325
  26   2.0000      -1.351693       -36.7814
  27   2.0000      -1.339981       -36.4627
  28   2.0000      -1.238749       -33.7081
  29   2.0000      -1.160514       -31.5792
  30   2.0000      -1.120167       -30.4813
  31   2.0000      -1.044391       -28.4193
  32   2.0000      -1.033298       -28.1175
  33   2.0000      -1.018614       -27.7179
  34   2.0000      -0.996086       -27.1049
  35   2.0000      -0.984132       -26.7796
  36   2.0000      -0.923450       -25.1284
  37   2.0000      -0.895368       -24.3642
  38   2.0000      -0.847939       -23.0736
  39   2.0000      -0.840271       -22.8649
  40   2.0000      -0.836881       -22.7727
  41   2.0000      -0.819323       -22.2949
  42   2.0000      -0.744305       -20.2536
  43   2.0000      -0.732814       -19.9409
  44   2.0000      -0.717620       -19.5274
  45   2.0000      -0.698489       -19.0069
  46   2.0000      -0.688215       -18.7273
  47   2.0000      -0.674236       -18.3469
  48   2.0000      -0.669077       -18.2065
  49   2.0000      -0.662264       -18.0211
  50   2.0000      -0.651903       -17.7392
  51   2.0000      -0.644940       -17.5497
  52   2.0000      -0.636986       -17.3333
  53   2.0000      -0.610906       -16.6236
  54   2.0000      -0.610227       -16.6051
  55   2.0000      -0.602662       -16.3993
  56   2.0000      -0.599956       -16.3256
  57   2.0000      -0.579867       -15.7790
  58   2.0000      -0.571159       -15.5420
  59   2.0000      -0.568083       -15.4583
  60   2.0000      -0.557354       -15.1664
  61   2.0000      -0.539376       -14.6772
  62   2.0000      -0.534519       -14.5450
  63   2.0000      -0.527786       -14.3618
  64   2.0000      -0.522595       -14.2205
  65   2.0000      -0.513830       -13.9820
  66   2.0000      -0.502398       -13.6710
  67   2.0000      -0.494474       -13.4553
  68   2.0000      -0.488159       -13.2835
  69   2.0000      -0.463030       -12.5997
  70   2.0000      -0.451568       -12.2878
  71   2.0000      -0.440598       -11.9893
  72   2.0000      -0.354003        -9.6329
  73   2.0000      -0.352278        -9.5860
  74   2.0000      -0.328895        -8.9497
  75   2.0000      -0.324744        -8.8367
  76   2.0000      -0.316568        -8.6143
  77   0.0000       0.075435         2.0527
  78   0.0000       0.102393         2.7863
  79   0.0000       0.123571         3.3625
  80   0.0000       0.131348         3.5742
  81   0.0000       0.135322         3.6823

MULLIKEN ATOMIC CHARGES
-----------------------
   0 C :   -0.294359
   1 C :    0.041474
   2 O :   -0.378933
   3 C :    0.460307
   4 O :   -0.416663
   5 C :   -0.247433
   6 C :    0.164453
   7 C :   -0.269036
   8 N :   -0.123553
   9 C :    0.215672
  10 S :   -0.442128
  11 N :   -0.210726
  12 C :    0.082103
  13 C :    0.055006
  14 C :   -0.204167
  15 C :   -0.127893
  16 C :   -0.279074
  17 C :    0.314549
  18 O :   -0.355752
  19 C :   -0.263129
  20 H :    0.100712
  21 H :    0.098132
  22 H :    0.119474
  23 H :    0.101258
  24 H :    0.103789
  25 H :    0.129976
  26 H :    0.132415
  27 H :    0.095128
  28 H :    0.197031
  29 H :    0.195962
  30 H :    0.148685
  31 H :    0.151444
  32 H :    0.163274
  33 H :    0.132312
  34 H :    0.241462
  35 H :    0.168227
Sum of atomic charges:   -0.0000000

LOEWDIN ATOMIC CHARGES
----------------------
   0 C :    0.103625
   1 C :   -0.010525
   2 O :    0.290656
   3 C :   -0.415260
   4 O :    0.111019
   5 C :   -0.096696
   6 C :   -0.059061
   7 C :    0.131169
   8 N :    0.406753
   9 C :   -0.455361
  10 S :   -0.036616
  11 N :    0.396022
  12 C :   -0.052331
  13 C :   -0.036554
  14 C :    0.013601
  15 C :    0.039625
  16 C :   -0.002830
  17 C :   -0.189516
  18 O :    0.396063
  19 C :    0.030303
  20 H :   -0.027760
  21 H :   -0.026816
  22 H :   -0.024327
  23 H :   -0.029791
  24 H :   -0.027123
  25 H :   -0.005260
  26 H :   -0.003608
  27 H :   -0.023542
  28 H :   -0.057620
  29 H :   -0.065040
  30 H :   -0.010818
  31 H :   -0.029596
  32 H :   -0.020530
  33 H :   -0.035072
  34 H :   -0.153157
  35 H :   -0.024022

  Mayer bond orders larger than 0.100000
B(  0-C ,  1-C ) :   0.9778 B(  0-C , 20-H ) :   0.9748 B(  0-C , 21-H ) :   0.9733
B(  0-C , 22-H ) :   0.9726 B(  1-C ,  2-O ) :   0.8935 B(  1-C , 23-H ) :   0.9700
B(  1-C , 24-H ) :   0.9814 B(  2-O ,  3-C ) :   1.1271 B(  3-C ,  4-O ) :   2.0027
B(  3-C ,  5-C ) :   1.0525 B(  5-C ,  6-C ) :   1.6486 B(  5-C , 12-C ) :   0.9722
B(  6-C ,  7-C ) :   0.9655 B(  6-C ,  8-N ) :   1.1615 B(  7-C , 25-H ) :   0.9605
B(  7-C , 26-H ) :   0.9598 B(  7-C , 27-H ) :   0.9907 B(  8-N ,  9-C ) :   1.1854
B(  8-N , 28-H ) :   0.9477 B(  9-C , 10-S ) :   1.6022 B(  9-C , 11-N ) :   1.3088
B( 11-N , 12-C ) :   0.9763 B( 11-N , 29-H ) :   0.9511 B( 12-C , 13-C ) :   0.9385
B( 12-C , 30-H ) :   1.0013 B( 13-C , 14-C ) :   1.3506 B( 13-C , 19-C ) :   1.3775
B( 14-C , 15-C ) :   1.3906 B( 14-C , 31-H ) :   0.9740 B( 15-C , 16-C ) :   1.3603
B( 15-C , 32-H ) :   0.9703 B( 16-C , 17-C ) :   1.3308 B( 16-C , 33-H ) :   0.9845
B( 17-C , 18-O ) :   1.1118 B( 17-C , 19-C ) :   1.3682 B( 18-O , 34-H ) :   0.9792
B( 19-C , 35-H ) :   0.9580

MP2 TOTAL ENERGY:    -1274.337231022 Eh
FINAL SINGLE POINT ENERGY     -1274.337231022216

DIPOLE MOMENT
-------------
                                X             Y             Z
Electronic contribution:     10.08134       9.80399       7.24561
Nuclear contribution   :    -11.06211     -11.56198      -7.35562
                        -----------------------------------------
Total Dipole Moment    :     -0.98077      -1.75799      -0.11002
                        -----------------------------------------
Magnitude (a.u.)       :      2.01607
Magnitude (Debye)      :      5.12444

Rotational constants in cm-1:     0.012424     0.008659     0.006320
Rotational constants in MHz :   372.470300   259.593200   189.468557

                             ****ORCA TERMINATED NORMALLY****
TOTAL RUN TIME: 0 days 1 hours 42 minutes 36 seconds 435 msec
