                         Program Version 5.0.0 -  RELEASE  -
|  1> ! ri-mp2 cc-pvtz cc-pvtz/c TightSCF NoKeepInts
|  2>
|  3> %scf
|  4>   MaxCore 4096
|  5> end
|  6> *xyz  0  1
|  7>     C       15.1065863   15.4480742   17.0281528
|  8>     C       16.1453344   14.3124323   16.8701045
|  9>     O       17.4732203   14.7433750   16.4678456
| 10>     C       17.7769135   16.0259784   16.1092763
| 11>     O       17.5830261   16.3767249   14.9596518
| 12>     C       17.8347469   16.9888888   17.2648393
| 13>     C       17.4331217   18.2808807   17.1574407
| 14>     C       16.7380966   18.9314961   15.9807840
| 15>     N       17.6913273   19.1809379   18.1952591
| 16>     C       18.5292506   18.9295190   19.2491980
| 17>     S       18.9267221   20.0975327   20.3502848
| 18>     N       19.0293615   17.6549373   19.3407398
| 19>     C       18.5697603   16.5100087   18.5317284
| 20>     C       17.7744439   15.5572025   19.4197310
| 21>     C       18.1896483   14.2205974   19.5745822
| 22>     C       17.4764736   13.3408937   20.4062769
| 23>     C       16.3433099   13.8024468   21.0971524
| 24>     C       15.9373511   15.1367447   20.9607655
| 25>     O       14.8455351   15.5869516   21.6280665
| 26>     C       16.6507747   16.0103287   20.1345053
| 27>     H       15.3703903   16.1512368   17.8219894
| 28>     H       14.1289996   15.0222325   17.2846097
| 29>     H       14.9867093   16.0018915   16.0887276
| 30>     H       16.2096377   13.7489810   17.8087359
| 31>     H       15.7698683   13.6162492   16.1089816
| 32>     H       17.4360315   19.0496717   15.1417908
| 33>     H       16.3294766   19.9202014   16.2200410
| 34>     H       15.9063102   18.3107906   15.6261442
| 35>     H       17.3493369   20.1265421   18.1302630
| 36>     H       19.6256313   17.4933609   20.1424802
| 37>     H       19.4678071   15.9738691   18.1938485
| 38>     H       19.0634616   13.8581002   19.0390328
| 39>     H       17.8030217   12.3076838   20.5136874
| 40>     H       15.7887488   13.1265322   21.7400417
| 41>     H       14.5305187   14.8663825   22.1945200
| 42>     H       16.3260462   17.0423231   20.0527210
| 43> *
| 44>
| 45>                          ****END OF INPUT****

CARTESIAN COORDINATES (ANGSTROEM)
---------------------------------
  C     15.106586   15.448074   17.028153
  C     16.145334   14.312432   16.870105
  O     17.473220   14.743375   16.467846
  C     17.776913   16.025978   16.109276
  O     17.583026   16.376725   14.959652
  C     17.834747   16.988889   17.264839
  C     17.433122   18.280881   17.157441
  C     16.738097   18.931496   15.980784
  N     17.691327   19.180938   18.195259
  C     18.529251   18.929519   19.249198
  S     18.926722   20.097533   20.350285
  N     19.029362   17.654937   19.340740
  C     18.569760   16.510009   18.531728
  C     17.774444   15.557202   19.419731
  C     18.189648   14.220597   19.574582
  C     17.476474   13.340894   20.406277
  C     16.343310   13.802447   21.097152
  C     15.937351   15.136745   20.960765
  O     14.845535   15.586952   21.628066
  C     16.650775   16.010329   20.134505
  H     15.370390   16.151237   17.821989
  H     14.129000   15.022232   17.284610
  H     14.986709   16.001891   16.088728
  H     16.209638   13.748981   17.808736
  H     15.769868   13.616249   16.108982
  H     17.436031   19.049672   15.141791
  H     16.329477   19.920201   16.220041
  H     15.906310   18.310791   15.626144
  H     17.349337   20.126542   18.130263
  H     19.625631   17.493361   20.142480
  H     19.467807   15.973869   18.193849
  H     19.063462   13.858100   19.039033
  H     17.803022   12.307684   20.513687
  H     15.788749   13.126532   21.740042
  H     14.530519   14.866383   22.194520
  H     16.326046   17.042323   20.052721

 Total Charge           Charge          ....    0
 Multiplicity           Mult            ....    1
 Number of Electrons    NEL             ....  154
 Basis Dimension        Dim             ....  828

ORBITAL ENERGIES
----------------

  NO   OCC          E(Eh)            E(eV)
   0   2.0000     -91.891352     -2500.4908
   1   2.0000     -20.601878      -560.6056
   2   2.0000     -20.576016      -559.9019
   3   2.0000     -20.552850      -559.2715
   4   2.0000     -15.630360      -425.3237
   5   2.0000     -15.610733      -424.7897
   6   2.0000     -11.394229      -310.0527
   7   2.0000     -11.386072      -309.8308
   8   2.0000     -11.335189      -308.4462
   9   2.0000     -11.319548      -308.0206
  10   2.0000     -11.314982      -307.8963
  11   2.0000     -11.300621      -307.5055
  12   2.0000     -11.264953      -306.5349
  13   2.0000     -11.260100      -306.4029
  14   2.0000     -11.260068      -306.4020
  15   2.0000     -11.254518      -306.2510
  16   2.0000     -11.249126      -306.1043
  17   2.0000     -11.244443      -305.9769
  18   2.0000     -11.243144      -305.9415
  19   2.0000     -11.229069      -305.5585
  20   2.0000      -8.896389      -242.0831
  21   2.0000      -6.577958      -178.9953
  22   2.0000      -6.575959      -178.9409
  23   2.0000      -6.575365      -178.9248
  24   2.0000      -1.443056       -39.2676
  25   2.0000      -1.421649       -38.6850
  26   2.0000      -1.349621       -36.7251
  27   2.0000      -1.342197       -36.5230
  28   2.0000      -1.241184       -33.7743
  29   2.0000      -1.162329       -31.6286
  30   2.0000      -1.121653       -30.5217
  31   2.0000      -1.046930       -28.4884
  32   2.0000      -1.031724       -28.0746
  33   2.0000      -1.020899       -27.7801
  34   2.0000      -1.001419       -27.2500
  35   2.0000      -0.987747       -26.8780
  36   2.0000      -0.926475       -25.2107
  37   2.0000      -0.897043       -24.4098
  38   2.0000      -0.849626       -23.1195
  39   2.0000      -0.844075       -22.9684
  40   2.0000      -0.839799       -22.8521
  41   2.0000      -0.821865       -22.3641
  42   2.0000      -0.746116       -20.3029
  43   2.0000      -0.736115       -20.0307
  44   2.0000      -0.720912       -19.6170
  45   2.0000      -0.700652       -19.0657
  46   2.0000      -0.690989       -18.8028
  47   2.0000      -0.673896       -18.3376
  48   2.0000      -0.672232       -18.2924
  49   2.0000      -0.659564       -17.9477
  50   2.0000      -0.655705       -17.8426
  51   2.0000      -0.646991       -17.6055
  52   2.0000      -0.638904       -17.3855
  53   2.0000      -0.626852       -17.0575
  54   2.0000      -0.611802       -16.6480
  55   2.0000      -0.604275       -16.4431
  56   2.0000      -0.602151       -16.3854
  57   2.0000      -0.581434       -15.8216
  58   2.0000      -0.574369       -15.6294
  59   2.0000      -0.566218       -15.4076
  60   2.0000      -0.548815       -14.9340
  61   2.0000      -0.545745       -14.8505
  62   2.0000      -0.541298       -14.7295
  63   2.0000      -0.531689       -14.4680
  64   2.0000      -0.528681       -14.3861
  65   2.0000      -0.516414       -14.0523
  66   2.0000      -0.505073       -13.7437
  67   2.0000      -0.493538       -13.4299
  68   2.0000      -0.480037       -13.0625
  69   2.0000      -0.470398       -12.8002
  70   2.0000      -0.450942       -12.2708
  71   2.0000      -0.444638       -12.0992
  72   2.0000      -0.357960        -9.7406
  73   2.0000      -0.351822        -9.5736
  74   2.0000      -0.330853        -9.0030
  75   2.0000      -0.327138        -8.9019
  76   2.0000      -0.318870        -8.6769
  77   0.0000       0.068764         1.8712
  78   0.0000       0.101389         2.7589
  79   0.0000       0.119029         3.2389
  80   0.0000       0.126997         3.4558
  81   0.0000       0.132174         3.5966

MULLIKEN ATOMIC CHARGES
-----------------------
   0 C :   -0.352616
   1 C :    0.042460
   2 O :   -0.387650
   3 C :    0.478218
   4 O :   -0.385979
   5 C :   -0.267049
   6 C :    0.162349
   7 C :   -0.276799
   8 N :   -0.122655
   9 C :    0.196423
  10 S :   -0.434117
  11 N :   -0.194099
  12 C :    0.053902
  13 C :    0.052468
  14 C :   -0.178340
  15 C :   -0.136324
  16 C :   -0.276104
  17 C :    0.321249
  18 O :   -0.356285
  19 C :   -0.292964
  20 H :    0.112851
  21 H :    0.121928
  22 H :    0.114815
  23 H :    0.114075
  24 H :    0.123075
  25 H :    0.141470
  26 H :    0.094782
  27 H :    0.125179
  28 H :    0.197876
  29 H :    0.192209
  30 H :    0.148753
  31 H :    0.149296
  32 H :    0.164882
  33 H :    0.134003
  34 H :    0.241575
  35 H :    0.177145
Sum of atomic charges:   -0.0000000

LOEWDIN ATOMIC CHARGES
----------------------
   0 C :    0.105281
   1 C :   -0.005475
   2 O :    0.273647
   3 C :   -0.424335
   4 O :    0.132338
   5 C :   -0.095746
   6 C :   -0.065563
   7 C :    0.130185
   8 N :    0.406302
   9 C :   -0.458913
  10 S :   -0.032360
  11 N :    0.396628
  12 C :   -0.052450
  13 C :   -0.040351
  14 C :    0.018308
  15 C :    0.039688
  16 C :   -0.001775
  17 C :   -0.191594
  18 O :    0.396579
  19 C :    0.033813
  20 H :   -0.037842
  21 H :   -0.020712
  22 H :   -0.029125
  23 H :   -0.027942
  24 H :   -0.026031
  25 H :   -0.002956
  26 H :   -0.022632
  27 H :   -0.009356
  28 H :   -0.057783
  29 H :   -0.064481
  30 H :   -0.007114
  31 H :   -0.027893
  32 H :   -0.019902
  33 H :   -0.034259
  34 H :   -0.152720
  35 H :   -0.023460

  Mayer bond orders larger than 0.100000
B(  0-C ,  1-C ) :   0.9625 B(  0-C , 20-H ) :   0.9675 B(  0-C , 21-H ) :   0.9759
B(  0-C , 22-H ) :   0.9733 B(  1-C ,  2-O ) :   0.8811 B(  1-C , 23-H ) :   0.9709
B(  1-C , 24-H ) :   0.9853 B(  2-O ,  3-C ) :   1.1173 B(  3-C ,  4-O ) :   2.0580
B(  3-C ,  5-C ) :   1.0054 B(  5-C ,  6-C ) :   1.6693 B(  5-C , 12-C ) :   0.9666
B(  6-C ,  7-C ) :   0.9631 B(  6-C ,  8-N ) :   1.1419 B(  7-C , 25-H ) :   0.9568
B(  7-C , 26-H ) :   0.9871 B(  7-C , 27-H ) :   0.9684 B(  8-N ,  9-C ) :   1.1829
B(  8-N , 28-H ) :   0.9489 B(  9-C , 10-S ) :   1.6189 B(  9-C , 11-N ) :   1.2934
B( 11-N , 12-C ) :   0.9928 B( 11-N , 29-H ) :   0.9528 B( 12-C , 13-C ) :   0.9381
B( 12-C , 30-H ) :   1.0071 B( 13-C , 14-C ) :   1.3576 B( 13-C , 19-C ) :   1.3566
B( 14-C , 15-C ) :   1.3934 B( 14-C , 31-H ) :   0.9728 B( 15-C , 16-C ) :   1.3600
B( 15-C , 32-H ) :   0.9704 B( 16-C , 17-C ) :   1.3298 B( 16-C , 33-H ) :   0.9837
B( 17-C , 18-O ) :   1.1139 B( 17-C , 19-C ) :   1.3694 B( 18-O , 34-H ) :   0.9792
B( 19-C , 35-H ) :   0.9555

MP2 TOTAL ENERGY:    -1274.316842680 Eh
FINAL SINGLE POINT ENERGY     -1274.316842679865

DIPOLE MOMENT
-------------
                                X             Y             Z
Electronic contribution:      9.91066       6.88588       5.66066
Nuclear contribution   :    -11.07512      -8.43034      -5.44713
                        -----------------------------------------
Total Dipole Moment    :     -1.16447      -1.54446       0.21353
                        -----------------------------------------
Magnitude (a.u.)       :      1.94601
Magnitude (Debye)      :      4.94636

Rotational constants in cm-1:     0.012007     0.009837     0.006706
Rotational constants in MHz :   359.958354   294.905462   201.048956

                             ****ORCA TERMINATED NORMALLY****
TOTAL RUN TIME: 0 days 2 hours 17 minutes 5 seconds 268 msec
