                         Program Version 4.2.0 -  RELEASE  -
|  1> ! ri-mp2 cc-pvtz cc-pvtz/c TightSCF  NoKeepInts
|  2>
|  3> %scf
|  4>   MaxCore 4096
|  5> end
|  6> *xyz  0  1
|  7>     C       15.2635003   14.3699384   17.5368225
|  8>     C       16.0407581   14.5428755   16.2237898
|  9>     O       17.4295498   14.8317480   16.4944337
| 10>     C       17.8957372   16.0576811   16.1208246
| 11>     O       17.7662330   16.4085715   14.9608741
| 12>     C       17.8756515   17.0392779   17.2565195
| 13>     C       17.4418568   18.3171969   17.1147856
| 14>     C       16.7571304   18.9259770   15.9101901
| 15>     N       17.6583567   19.2434781   18.1394273
| 16>     C       18.5005137   19.0378066   19.2006994
| 17>     S       18.8692830   20.2417498   20.2728403
| 18>     N       19.0281953   17.7764802   19.3244114
| 19>     C       18.5778918   16.6017301   18.5528730
| 20>     C       17.7462132   15.6952294   19.4550691
| 21>     C       18.1239008   14.3531343   19.6512064
| 22>     C       17.3978566   13.5246652   20.5236382
| 23>     C       16.2847371   14.0416745   21.2079911
| 24>     C       15.9091286   15.3788667   21.0210544
| 25>     O       14.8341273   15.8807052   21.6790120
| 26>     C       16.6363937   16.2025398   20.1559987
| 27>     H       15.7532042   13.6360340   18.1868619
| 28>     H       14.2455457   14.0167917   17.3332448
| 29>     H       15.1854384   15.3246667   18.0672419
| 30>     H       15.9811963   13.6082712   15.6512694
| 31>     H       15.5727971   15.3316188   15.6183558
| 32>     H       17.4767483   19.0737890   15.0945504
| 33>     H       16.2921944   19.8942435   16.1295593
| 34>     H       15.9689514   18.2621049   15.5340251
| 35>     H       17.2939003   20.1786236   18.0505101
| 36>     H       19.6244898   17.6462625   20.1317238
| 37>     H       19.4775346   16.0427151   18.2595661
| 38>     H       18.9831388   13.9484555   19.1228733
| 39>     H       17.6976973   12.4877197   20.6653971
| 40>     H       15.7195397   13.4051130   21.8808129
| 41>     H       14.5019987   15.1863782   22.2677665
| 42>     H       16.3356104   17.2378863   20.0377803
| 43> *
| 44>
| 45>                          ****END OF INPUT****

CARTESIAN COORDINATES (ANGSTROEM)
---------------------------------
  C     15.263500   14.369938   17.536822
  C     16.040758   14.542875   16.223790
  O     17.429550   14.831748   16.494434
  C     17.895737   16.057681   16.120825
  O     17.766233   16.408572   14.960874
  C     17.875652   17.039278   17.256519
  C     17.441857   18.317197   17.114786
  C     16.757130   18.925977   15.910190
  N     17.658357   19.243478   18.139427
  C     18.500514   19.037807   19.200699
  S     18.869283   20.241750   20.272840
  N     19.028195   17.776480   19.324411
  C     18.577892   16.601730   18.552873
  C     17.746213   15.695229   19.455069
  C     18.123901   14.353134   19.651206
  C     17.397857   13.524665   20.523638
  C     16.284737   14.041674   21.207991
  C     15.909129   15.378867   21.021054
  O     14.834127   15.880705   21.679012
  C     16.636394   16.202540   20.155999
  H     15.753204   13.636034   18.186862
  H     14.245546   14.016792   17.333245
  H     15.185438   15.324667   18.067242
  H     15.981196   13.608271   15.651269
  H     15.572797   15.331619   15.618356
  H     17.476748   19.073789   15.094550
  H     16.292194   19.894244   16.129559
  H     15.968951   18.262105   15.534025
  H     17.293900   20.178624   18.050510
  H     19.624490   17.646262   20.131724
  H     19.477535   16.042715   18.259566
  H     18.983139   13.948455   19.122873
  H     17.697697   12.487720   20.665397
  H     15.719540   13.405113   21.880813
  H     14.501999   15.186378   22.267767
  H     16.335610   17.237886   20.037780

 Total Charge           Charge          ....    0
 Multiplicity           Mult            ....    1
 Number of Electrons    NEL             ....  154
 Basis Dimension        Dim             ....  828

ORBITAL ENERGIES
----------------

  NO   OCC          E(Eh)            E(eV)
   0   2.0000     -91.890303     -2500.4623
   1   2.0000     -20.598225      -560.5062
   2   2.0000     -20.581762      -560.0582
   3   2.0000     -20.556662      -559.3752
   4   2.0000     -15.629361      -425.2965
   5   2.0000     -15.609433      -424.7543
   6   2.0000     -11.394998      -310.0737
   7   2.0000     -11.384992      -309.8014
   8   2.0000     -11.334337      -308.4230
   9   2.0000     -11.315180      -307.9017
  10   2.0000     -11.313507      -307.8562
  11   2.0000     -11.297682      -307.4255
  12   2.0000     -11.261404      -306.4384
  13   2.0000     -11.261354      -306.4370
  14   2.0000     -11.256248      -306.2981
  15   2.0000     -11.255011      -306.2644
  16   2.0000     -11.244828      -305.9873
  17   2.0000     -11.239662      -305.8467
  18   2.0000     -11.239457      -305.8412
  19   2.0000     -11.219944      -305.3102
  20   2.0000      -8.895332      -242.0543
  21   2.0000      -6.576901      -178.9666
  22   2.0000      -6.574903      -178.9122
  23   2.0000      -6.574310      -178.8961
  24   2.0000      -1.452176       -39.5157
  25   2.0000      -1.417969       -38.5849
  26   2.0000      -1.353757       -36.8376
  27   2.0000      -1.341046       -36.4917
  28   2.0000      -1.239719       -33.7345
  29   2.0000      -1.158507       -31.5246
  30   2.0000      -1.121113       -30.5070
  31   2.0000      -1.044164       -28.4132
  32   2.0000      -1.033453       -28.1217
  33   2.0000      -1.016910       -27.6715
  34   2.0000      -0.999287       -27.1920
  35   2.0000      -0.985848       -26.8263
  36   2.0000      -0.924845       -25.1663
  37   2.0000      -0.885374       -24.0923
  38   2.0000      -0.847709       -23.0673
  39   2.0000      -0.840904       -22.8822
  40   2.0000      -0.835755       -22.7420
  41   2.0000      -0.821554       -22.3556
  42   2.0000      -0.759212       -20.6592
  43   2.0000      -0.733461       -19.9585
  44   2.0000      -0.724494       -19.7145
  45   2.0000      -0.697534       -18.9809
  46   2.0000      -0.690181       -18.7808
  47   2.0000      -0.681752       -18.5514
  48   2.0000      -0.672565       -18.3014
  49   2.0000      -0.665246       -18.1023
  50   2.0000      -0.649739       -17.6803
  51   2.0000      -0.646420       -17.5900
  52   2.0000      -0.636042       -17.3076
  53   2.0000      -0.608253       -16.5514
  54   2.0000      -0.602284       -16.3890
  55   2.0000      -0.600863       -16.3503
  56   2.0000      -0.587932       -15.9984
  57   2.0000      -0.580196       -15.7879
  58   2.0000      -0.575270       -15.6539
  59   2.0000      -0.571294       -15.5457
  60   2.0000      -0.564252       -15.3541
  61   2.0000      -0.549698       -14.9580
  62   2.0000      -0.539572       -14.6825
  63   2.0000      -0.525712       -14.3054
  64   2.0000      -0.515012       -14.0142
  65   2.0000      -0.512301       -13.9404
  66   2.0000      -0.504673       -13.7329
  67   2.0000      -0.502249       -13.6669
  68   2.0000      -0.479055       -13.0358
  69   2.0000      -0.464089       -12.6285
  70   2.0000      -0.452790       -12.3211
  71   2.0000      -0.448362       -12.2005
  72   2.0000      -0.357241        -9.7210
  73   2.0000      -0.348870        -9.4932
  74   2.0000      -0.329408        -8.9637
  75   2.0000      -0.323282        -8.7969
  76   2.0000      -0.317245        -8.6327
  77   0.0000       0.069467         1.8903
  78   0.0000       0.102282         2.7832
  79   0.0000       0.115525         3.1436
  80   0.0000       0.129952         3.5362
  81   0.0000       0.131213         3.5705

MULLIKEN ATOMIC CHARGES
-----------------------
   0 C :   -0.307696
   1 C :    0.044490
   2 O :   -0.372829
   3 C :    0.444180
   4 O :   -0.389178
   5 C :   -0.199165
   6 C :    0.145137
   7 C :   -0.275476
   8 N :   -0.122607
   9 C :    0.195798
  10 S :   -0.434401
  11 N :   -0.191487
  12 C :    0.019798
  13 C :    0.084481
  14 C :   -0.170212
  15 C :   -0.150744
  16 C :   -0.270532
  17 C :    0.324708
  18 O :   -0.358931
  19 C :   -0.293435
  20 H :    0.109711
  21 H :    0.113198
  22 H :    0.103687
  23 H :    0.109563
  24 H :    0.093915
  25 H :    0.139981
  26 H :    0.095678
  27 H :    0.120296
  28 H :    0.197817
  29 H :    0.191186
  30 H :    0.148072
  31 H :    0.144369
  32 H :    0.163943
  33 H :    0.132256
  34 H :    0.241050
  35 H :    0.173381
Sum of atomic charges:    0.0000000

LOEWDIN ATOMIC CHARGES
----------------------
   0 C :    0.105472
   1 C :   -0.012590
   2 O :    0.283253
   3 C :   -0.420149
   4 O :    0.133876
   5 C :   -0.094514
   6 C :   -0.069129
   7 C :    0.128515
   8 N :    0.405545
   9 C :   -0.458608
  10 S :   -0.032850
  11 N :    0.396735
  12 C :   -0.052388
  13 C :   -0.038185
  14 C :    0.016456
  15 C :    0.040661
  16 C :   -0.001160
  17 C :   -0.190363
  18 O :    0.396288
  19 C :    0.033391
  20 H :   -0.024872
  21 H :   -0.026651
  22 H :   -0.031793
  23 H :   -0.026388
  24 H :   -0.030358
  25 H :   -0.003780
  26 H :   -0.022390
  27 H :   -0.009448
  28 H :   -0.058118
  29 H :   -0.064989
  30 H :   -0.007759
  31 H :   -0.029723
  32 H :   -0.020837
  33 H :   -0.035231
  34 H :   -0.153428
  35 H :   -0.024491

  Mayer bond orders larger than 0.100000
B(  0-C ,  1-C ) :   0.9699 B(  0-C , 20-H ) :   0.9705 B(  0-C , 21-H ) :   0.9779
B(  0-C , 22-H ) :   0.9732 B(  1-C ,  2-O ) :   0.8838 B(  1-C , 23-H ) :   0.9881
B(  1-C , 24-H ) :   0.9745 B(  2-O ,  3-C ) :   1.1048 B(  3-C ,  4-O ) :   2.0371
B(  3-C ,  5-C ) :   1.0244 B(  5-C ,  6-C ) :   1.6772 B(  5-C , 12-C ) :   0.9733
B(  6-C ,  7-C ) :   0.9617 B(  6-C ,  8-N ) :   1.1311 B(  7-C , 25-H ) :   0.9576
B(  7-C , 26-H ) :   0.9867 B(  7-C , 27-H ) :   0.9707 B(  8-N ,  9-C ) :   1.1824
B(  8-N , 28-H ) :   0.9494 B(  9-C , 10-S ) :   1.6188 B(  9-C , 11-N ) :   1.2938
B( 11-N , 12-C ) :   0.9953 B( 11-N , 29-H ) :   0.9532 B( 12-C , 13-C ) :   0.9354
B( 12-C , 30-H ) :   1.0090 B( 13-C , 14-C ) :   1.3614 B( 13-C , 19-C ) :   1.3581
B( 14-C , 15-C ) :   1.3922 B( 14-C , 31-H ) :   0.9724 B( 15-C , 16-C ) :   1.3601
B( 15-C , 32-H ) :   0.9710 B( 16-C , 17-C ) :   1.3297 B( 16-C , 33-H ) :   0.9844
B( 17-C , 18-O ) :   1.1110 B( 17-C , 19-C ) :   1.3676 B( 18-O , 34-H ) :   0.9796
B( 19-C , 35-H ) :   0.9579

MP2 TOTAL ENERGY:    -1274.315831629 Eh
FINAL SINGLE POINT ENERGY     -1274.315831628786

DIPOLE MOMENT
-------------
                                X             Y             Z
Electronic contribution:      9.86361       9.09594       5.37931
Nuclear contribution   :    -11.00824     -10.68848      -5.48743
                        -----------------------------------------
Total Dipole Moment    :     -1.14463      -1.59254      -0.10812
                        -----------------------------------------
Magnitude (a.u.)       :      1.96420
Magnitude (Debye)      :      4.99259

Rotational constants in cm-1:     0.011784     0.009823     0.006506
Rotational constants in MHz :   353.274494   294.488430   195.052663

                             ****ORCA TERMINATED NORMALLY****
TOTAL RUN TIME: 0 days 1 hours 49 minutes 2 seconds 112 msec
