                         Program Version 5.0.0 -  RELEASE  -
|  1> ! ri-mp2 cc-pvtz cc-pvtz/c TightSCF NoKeepInts
|  2>
|  3> %scf
|  4>   MaxCore 4096
|  5> end
|  6> *xyz  0  1
|  7>     C       14.5783893   14.3862235   16.0934977
|  8>     C       15.6491774   15.1067232   16.9284124
|  9>     O       16.7152688   15.4762168   16.0374149
| 10>     C       17.9505753   15.6190664   16.5925301
| 11>     O       18.6308518   14.6354947   16.8242397
| 12>     C       18.0617217   16.8617629   17.4217213
| 13>     C       17.5409793   18.0559141   17.0472277
| 14>     C       16.8161700   18.3711134   15.7556669
| 15>     N       17.7174457   19.1772806   17.8628247
| 16>     C       18.5036679   19.2097808   18.9851830
| 17>     S       18.7441313   20.6057022   19.8384383
| 18>     N       19.0786549   18.0228944   19.3673479
| 19>     C       18.8016216   16.7103288   18.7522092
| 20>     C       17.9995023   15.8257747   19.7027574
| 21>     C       18.4380032   14.5238881   20.0059345
| 22>     C       17.6881532   13.6954169   20.8573990
| 23>     C       16.4869591   14.1710414   21.4100767
| 24>     C       16.0440480   15.4653951   21.1070750
| 25>     O       14.8777755   15.9235694   21.6270037
| 26>     C       16.7921486   16.2875385   20.2587575
| 27>     H       15.0016791   13.4957977   15.6115585
| 28>     H       14.1845773   15.0484979   15.3127229
| 29>     H       13.7436352   14.0679829   16.7297149
| 30>     H       15.2284154   15.9920983   17.4227561
| 31>     H       16.0174910   14.4176047   17.7022029
| 32>     H       17.2692144   17.8397916   14.9090269
| 33>     H       16.8456079   19.4403004   15.5121195
| 34>     H       15.7635933   18.0683096   15.8148593
| 35>     H       17.3071530   20.0587056   17.5974234
| 36>     H       19.6316705   18.0705213   20.2136852
| 37>     H       19.7659257   16.2215010   18.5501063
| 38>     H       19.3555361   14.1452738   19.5612667
| 39>     H       18.0360636   12.6877801   21.0786072
| 40>     H       15.9034148   13.5327115   22.0653084
| 41>     H       14.5464582   15.2473440   22.2373907
| 42>     H       16.4313193   17.2866537   20.0395335
| 43> *
| 44>
| 45>                          ****END OF INPUT****

CARTESIAN COORDINATES (ANGSTROEM)
---------------------------------
  C     14.578389   14.386223   16.093498
  C     15.649177   15.106723   16.928412
  O     16.715269   15.476217   16.037415
  C     17.950575   15.619066   16.592530
  O     18.630852   14.635495   16.824240
  C     18.061722   16.861763   17.421721
  C     17.540979   18.055914   17.047228
  C     16.816170   18.371113   15.755667
  N     17.717446   19.177281   17.862825
  C     18.503668   19.209781   18.985183
  S     18.744131   20.605702   19.838438
  N     19.078655   18.022894   19.367348
  C     18.801622   16.710329   18.752209
  C     17.999502   15.825775   19.702757
  C     18.438003   14.523888   20.005934
  C     17.688153   13.695417   20.857399
  C     16.486959   14.171041   21.410077
  C     16.044048   15.465395   21.107075
  O     14.877776   15.923569   21.627004
  C     16.792149   16.287539   20.258758
  H     15.001679   13.495798   15.611558
  H     14.184577   15.048498   15.312723
  H     13.743635   14.067983   16.729715
  H     15.228415   15.992098   17.422756
  H     16.017491   14.417605   17.702203
  H     17.269214   17.839792   14.909027
  H     16.845608   19.440300   15.512120
  H     15.763593   18.068310   15.814859
  H     17.307153   20.058706   17.597423
  H     19.631670   18.070521   20.213685
  H     19.765926   16.221501   18.550106
  H     19.355536   14.145274   19.561267
  H     18.036064   12.687780   21.078607
  H     15.903415   13.532711   22.065308
  H     14.546458   15.247344   22.237391
  H     16.431319   17.286654   20.039534

 Total Charge           Charge          ....    0
 Multiplicity           Mult            ....    1
 Number of Electrons    NEL             ....  154
 Basis Dimension        Dim             ....  828

ORBITAL ENERGIES
----------------

  NO   OCC          E(Eh)            E(eV)
   0   2.0000     -91.890340     -2500.4633
   1   2.0000     -20.597861      -560.4963
   2   2.0000     -20.582034      -560.0656
   3   2.0000     -20.557488      -559.3977
   4   2.0000     -15.630070      -425.3158
   5   2.0000     -15.609857      -424.7658
   6   2.0000     -11.393609      -310.0359
   7   2.0000     -11.386007      -309.8290
   8   2.0000     -11.334713      -308.4332
   9   2.0000     -11.314021      -307.8702
  10   2.0000     -11.310154      -307.7649
  11   2.0000     -11.300304      -307.4969
  12   2.0000     -11.263242      -306.4884
  13   2.0000     -11.260229      -306.4064
  14   2.0000     -11.259445      -306.3851
  15   2.0000     -11.254086      -306.2392
  16   2.0000     -11.243865      -305.9611
  17   2.0000     -11.239578      -305.8445
  18   2.0000     -11.236723      -305.7668
  19   2.0000     -11.230256      -305.5908
  20   2.0000      -8.895414      -242.0565
  21   2.0000      -6.576990      -178.9690
  22   2.0000      -6.574981      -178.9143
  23   2.0000      -6.574394      -178.8984
  24   2.0000      -1.452592       -39.5270
  25   2.0000      -1.417660       -38.5765
  26   2.0000      -1.358048       -36.9544
  27   2.0000      -1.341122       -36.4938
  28   2.0000      -1.239362       -33.7248
  29   2.0000      -1.158326       -31.5197
  30   2.0000      -1.122987       -30.5580
  31   2.0000      -1.046312       -28.4716
  32   2.0000      -1.034883       -28.1606
  33   2.0000      -1.015734       -27.6395
  34   2.0000      -1.001474       -27.2515
  35   2.0000      -0.986959       -26.8565
  36   2.0000      -0.925208       -25.1762
  37   2.0000      -0.877358       -23.8741
  38   2.0000      -0.851733       -23.1768
  39   2.0000      -0.841564       -22.9001
  40   2.0000      -0.834297       -22.7024
  41   2.0000      -0.832317       -22.6485
  42   2.0000      -0.756791       -20.5933
  43   2.0000      -0.736105       -20.0304
  44   2.0000      -0.730218       -19.8703
  45   2.0000      -0.695761       -18.9326
  46   2.0000      -0.688009       -18.7217
  47   2.0000      -0.681600       -18.5473
  48   2.0000      -0.675292       -18.3756
  49   2.0000      -0.660183       -17.9645
  50   2.0000      -0.649611       -17.6768
  51   2.0000      -0.643393       -17.5076
  52   2.0000      -0.637227       -17.3398
  53   2.0000      -0.615521       -16.7492
  54   2.0000      -0.606248       -16.4968
  55   2.0000      -0.604816       -16.4579
  56   2.0000      -0.601489       -16.3674
  57   2.0000      -0.581211       -15.8156
  58   2.0000      -0.577353       -15.7106
  59   2.0000      -0.565086       -15.3768
  60   2.0000      -0.558733       -15.2039
  61   2.0000      -0.552950       -15.0465
  62   2.0000      -0.537746       -14.6328
  63   2.0000      -0.523745       -14.2518
  64   2.0000      -0.515848       -14.0370
  65   2.0000      -0.514200       -13.9921
  66   2.0000      -0.503260       -13.6944
  67   2.0000      -0.498600       -13.5676
  68   2.0000      -0.483822       -13.1655
  69   2.0000      -0.466374       -12.6907
  70   2.0000      -0.458524       -12.4771
  71   2.0000      -0.454206       -12.3596
  72   2.0000      -0.356428        -9.6989
  73   2.0000      -0.349691        -9.5156
  74   2.0000      -0.329636        -8.9699
  75   2.0000      -0.321476        -8.7478
  76   2.0000      -0.317575        -8.6416
  77   0.0000       0.069582         1.8934
  78   0.0000       0.103115         2.8059
  79   0.0000       0.116764         3.1773
  80   0.0000       0.130548         3.5524
  81   0.0000       0.134028         3.6471

MULLIKEN ATOMIC CHARGES
-----------------------
   0 C :   -0.255236
   1 C :    0.021044
   2 O :   -0.368416
   3 C :    0.459877
   4 O :   -0.384633
   5 C :   -0.222675
   6 C :    0.145413
   7 C :   -0.283168
   8 N :   -0.125636
   9 C :    0.200084
  10 S :   -0.437501
  11 N :   -0.201316
  12 C :    0.047474
  13 C :    0.034032
  14 C :   -0.161134
  15 C :   -0.135143
  16 C :   -0.279215
  17 C :    0.309358
  18 O :   -0.358967
  19 C :   -0.275493
  20 H :    0.106309
  21 H :    0.092132
  22 H :    0.089182
  23 H :    0.093617
  24 H :    0.115392
  25 H :    0.128571
  26 H :    0.109695
  27 H :    0.121583
  28 H :    0.197220
  29 H :    0.194285
  30 H :    0.156865
  31 H :    0.160123
  32 H :    0.161936
  33 H :    0.131825
  34 H :    0.241500
  35 H :    0.171017
Sum of atomic charges:   -0.0000000

LOEWDIN ATOMIC CHARGES
----------------------
   0 C :    0.111604
   1 C :   -0.021784
   2 O :    0.288474
   3 C :   -0.422292
   4 O :    0.135874
   5 C :   -0.094487
   6 C :   -0.077639
   7 C :    0.127278
   8 N :    0.404158
   9 C :   -0.457555
  10 S :   -0.034741
  11 N :    0.397011
  12 C :   -0.045685
  13 C :   -0.042186
  14 C :    0.021449
  15 C :    0.042206
  16 C :   -0.001894
  17 C :   -0.195187
  18 O :    0.393569
  19 C :    0.029003
  20 H :   -0.021873
  21 H :   -0.029191
  22 H :   -0.025145
  23 H :   -0.038251
  24 H :   -0.023097
  25 H :   -0.006636
  26 H :   -0.018053
  27 H :   -0.011518
  28 H :   -0.058473
  29 H :   -0.063938
  30 H :   -0.003979
  31 H :   -0.023758
  32 H :   -0.019660
  33 H :   -0.035142
  34 H :   -0.153401
  35 H :   -0.025063

  Mayer bond orders larger than 0.100000
B(  0-C ,  1-C ) :   0.9800 B(  0-C , 20-H ) :   0.9785 B(  0-C , 21-H ) :   0.9799
B(  0-C , 22-H ) :   0.9763 B(  1-C ,  2-O ) :   0.8847 B(  1-C , 23-H ) :   0.9704
B(  1-C , 24-H ) :   0.9708 B(  2-O ,  3-C ) :   1.1079 B(  3-C ,  4-O ) :   2.0640
B(  3-C ,  5-C ) :   0.9891 B(  5-C ,  6-C ) :   1.6646 B(  5-C , 12-C ) :   0.9688
B(  6-C ,  7-C ) :   0.9510 B(  6-C ,  8-N ) :   1.1374 B(  7-C , 25-H ) :   0.9706
B(  7-C , 26-H ) :   0.9861 B(  7-C , 27-H ) :   0.9639 B(  8-N ,  9-C ) :   1.1835
B(  8-N , 28-H ) :   0.9497 B(  9-C , 10-S ) :   1.6137 B(  9-C , 11-N ) :   1.2982
B( 11-N , 12-C ) :   0.9942 B( 11-N , 29-H ) :   0.9519 B( 12-C , 13-C ) :   0.9456
B( 12-C , 30-H ) :   0.9986 B( 13-C , 14-C ) :   1.3819 B( 13-C , 19-C ) :   1.3588
B( 14-C , 15-C ) :   1.3945 B( 14-C , 31-H ) :   0.9621 B( 15-C , 16-C ) :   1.3642
B( 15-C , 32-H ) :   0.9708 B( 16-C , 17-C ) :   1.3292 B( 16-C , 33-H ) :   0.9846
B( 17-C , 18-O ) :   1.1113 B( 17-C , 19-C ) :   1.3746 B( 18-O , 34-H ) :   0.9796
B( 19-C , 35-H ) :   0.9587

MP2 TOTAL ENERGY:    -1274.323935955 Eh
FINAL SINGLE POINT ENERGY     -1274.323935954998

DIPOLE MOMENT
-------------
                                X             Y             Z
Electronic contribution:     11.20937       9.26060       7.38481
Nuclear contribution   :    -12.54491     -10.37349      -7.77874
                        -----------------------------------------
Total Dipole Moment    :     -1.33554      -1.11289      -0.39393
                        -----------------------------------------
Magnitude (a.u.)       :      1.78252
Magnitude (Debye)      :      4.53080

Rotational constants in cm-1:     0.011645     0.009197     0.006683
Rotational constants in MHz :   349.105527   275.718540   200.361609

                             ****ORCA TERMINATED NORMALLY****
TOTAL RUN TIME: 0 days 2 hours 6 minutes 38 seconds 229 msec
