                         Program Version 5.0.0 -  RELEASE  -
|  1> ! ri-mp2 cc-pvtz cc-pvtz/c TightSCF NoKeepInts
|  2>
|  3> %scf
|  4>   MaxCore 4096
|  5> end
|  6> *xyz  0  1
|  7>     C       15.1012212   13.9464841   15.7242238
|  8>     C       15.9775089   14.2936469   16.9443801
|  9>     O       17.0554471   15.1648246   16.5481143
| 10>     C       16.8268641   16.5070646   16.4268813
| 11>     O       15.8933276   16.9413657   15.7760198
| 12>     C       17.5750287   17.3169453   17.4524651
| 13>     C       17.4358277   18.6638669   17.5562570
| 14>     C       16.5465094   19.5628786   16.7237503
| 15>     N       18.1957160   19.3781404   18.4874868
| 16>     C       19.2011903   18.8470548   19.2500441
| 17>     S       20.1329487   19.7828414   20.2459693
| 18>     N       19.4030425   17.4952606   19.1393495
| 19>     C       18.5343138   16.5669522   18.3937503
| 20>     C       17.7975950   15.6640674   19.3789127
| 21>     C       18.1895364   14.3217645   19.5404114
| 22>     C       17.5092250   13.4812421   20.4374614
| 23>     C       16.4315179   13.9880158   21.1834475
| 24>     C       16.0449970   15.3267771   21.0328138
| 25>     O       15.0061996   15.8196800   21.7527429
| 26>     C       16.7225225   16.1603274   20.1377556
| 27>     H       14.5378275   14.8198792   15.3745253
| 28>     H       14.3775324   13.1648545   15.9843805
| 29>     H       15.7192648   13.5792132   14.8957058
| 30>     H       15.3710460   14.7569646   17.7345976
| 31>     H       16.4016761   13.3645584   17.3460189
| 32>     H       15.4902188   19.3058725   16.8751117
| 33>     H       16.7627588   19.4385858   15.6550076
| 34>     H       16.6668168   20.6261684   16.9620238
| 35>     H       18.0641352   20.3729538   18.5779550
| 36>     H       20.1301815   17.1279646   19.7395129
| 37>     H       19.1848567   15.9384773   17.7691296
| 38>     H       19.0210380   13.9266526   18.9625771
| 39>     H       17.8191252   12.4440219   20.5545373
| 40>     H       15.9040737   13.3433199   21.8790351
| 41>     H       14.7041116   15.1181370   22.3492129
| 42>     H       16.4117975   17.1951759   20.0424322
| 43> *
| 44>
| 45>                          ****END OF INPUT****

CARTESIAN COORDINATES (ANGSTROEM)
---------------------------------
  C     15.101221   13.946484   15.724224
  C     15.977509   14.293647   16.944380
  O     17.055447   15.164825   16.548114
  C     16.826864   16.507065   16.426881
  O     15.893328   16.941366   15.776020
  C     17.575029   17.316945   17.452465
  C     17.435828   18.663867   17.556257
  C     16.546509   19.562879   16.723750
  N     18.195716   19.378140   18.487487
  C     19.201190   18.847055   19.250044
  S     20.132949   19.782841   20.245969
  N     19.403042   17.495261   19.139350
  C     18.534314   16.566952   18.393750
  C     17.797595   15.664067   19.378913
  C     18.189536   14.321765   19.540411
  C     17.509225   13.481242   20.437461
  C     16.431518   13.988016   21.183447
  C     16.044997   15.326777   21.032814
  O     15.006200   15.819680   21.752743
  C     16.722523   16.160327   20.137756
  H     14.537827   14.819879   15.374525
  H     14.377532   13.164854   15.984380
  H     15.719265   13.579213   14.895706
  H     15.371046   14.756965   17.734598
  H     16.401676   13.364558   17.346019
  H     15.490219   19.305872   16.875112
  H     16.762759   19.438586   15.655008
  H     16.666817   20.626168   16.962024
  H     18.064135   20.372954   18.577955
  H     20.130181   17.127965   19.739513
  H     19.184857   15.938477   17.769130
  H     19.021038   13.926653   18.962577
  H     17.819125   12.444022   20.554537
  H     15.904074   13.343320   21.879035
  H     14.704112   15.118137   22.349213
  H     16.411797   17.195176   20.042432

 Total Charge           Charge          ....    0
 Multiplicity           Mult            ....    1
 Number of Electrons    NEL             ....  154
 Basis Dimension        Dim             ....  828

ORBITAL ENERGIES
----------------

  NO   OCC          E(Eh)            E(eV)
   0   2.0000     -91.889905     -2500.4514
   1   2.0000     -20.600428      -560.5661
   2   2.0000     -20.586458      -560.1860
   3   2.0000     -20.546746      -559.1054
   4   2.0000     -15.630302      -425.3221
   5   2.0000     -15.609264      -424.7497
   6   2.0000     -11.394950      -310.0724
   7   2.0000     -11.384894      -309.7987
   8   2.0000     -11.336882      -308.4922
   9   2.0000     -11.318038      -307.9795
  10   2.0000     -11.310677      -307.7792
  11   2.0000     -11.296304      -307.3881
  12   2.0000     -11.263170      -306.4864
  13   2.0000     -11.259417      -306.3843
  14   2.0000     -11.259250      -306.3798
  15   2.0000     -11.253264      -306.2169
  16   2.0000     -11.246993      -306.0462
  17   2.0000     -11.241842      -305.9061
  18   2.0000     -11.241709      -305.9025
  19   2.0000     -11.215705      -305.1948
  20   2.0000      -8.894961      -242.0442
  21   2.0000      -6.576533      -178.9566
  22   2.0000      -6.574530      -178.9021
  23   2.0000      -6.573941      -178.8860
  24   2.0000      -1.447511       -39.3888
  25   2.0000      -1.420108       -38.6431
  26   2.0000      -1.354117       -36.8474
  27   2.0000      -1.341368       -36.5005
  28   2.0000      -1.239931       -33.7402
  29   2.0000      -1.161019       -31.5929
  30   2.0000      -1.121075       -30.5060
  31   2.0000      -1.045125       -28.4393
  32   2.0000      -1.030921       -28.0528
  33   2.0000      -1.019138       -27.7322
  34   2.0000      -0.996309       -27.1109
  35   2.0000      -0.984787       -26.7974
  36   2.0000      -0.924515       -25.1573
  37   2.0000      -0.885334       -24.0912
  38   2.0000      -0.848940       -23.1008
  39   2.0000      -0.841262       -22.8919
  40   2.0000      -0.837504       -22.7896
  41   2.0000      -0.824558       -22.4374
  42   2.0000      -0.754141       -20.5212
  43   2.0000      -0.734341       -19.9824
  44   2.0000      -0.721210       -19.6251
  45   2.0000      -0.699242       -19.0273
  46   2.0000      -0.690259       -18.7829
  47   2.0000      -0.679994       -18.5036
  48   2.0000      -0.670092       -18.2341
  49   2.0000      -0.657497       -17.8914
  50   2.0000      -0.648669       -17.6512
  51   2.0000      -0.647132       -17.6094
  52   2.0000      -0.635807       -17.3012
  53   2.0000      -0.611015       -16.6266
  54   2.0000      -0.604488       -16.4490
  55   2.0000      -0.600948       -16.3526
  56   2.0000      -0.592268       -16.1164
  57   2.0000      -0.582899       -15.8615
  58   2.0000      -0.576435       -15.6856
  59   2.0000      -0.571380       -15.5481
  60   2.0000      -0.564945       -15.3729
  61   2.0000      -0.539498       -14.6805
  62   2.0000      -0.534814       -14.5530
  63   2.0000      -0.527946       -14.3661
  64   2.0000      -0.516585       -14.0570
  65   2.0000      -0.512630       -13.9494
  66   2.0000      -0.503256       -13.6943
  67   2.0000      -0.497861       -13.5475
  68   2.0000      -0.486302       -13.2330
  69   2.0000      -0.463628       -12.6160
  70   2.0000      -0.455369       -12.3912
  71   2.0000      -0.441517       -12.0143
  72   2.0000      -0.355556        -9.6752
  73   2.0000      -0.353103        -9.6084
  74   2.0000      -0.329733        -8.9725
  75   2.0000      -0.325280        -8.8513
  76   2.0000      -0.317319        -8.6347
  77   0.0000       0.071269         1.9393
  78   0.0000       0.101549         2.7633
  79   0.0000       0.123248         3.3538
  80   0.0000       0.130041         3.5386
  81   0.0000       0.134635         3.6636

MULLIKEN ATOMIC CHARGES
-----------------------
   0 C :   -0.273895
   1 C :    0.030671
   2 O :   -0.382373
   3 C :    0.481576
   4 O :   -0.417341
   5 C :   -0.250558
   6 C :    0.160923
   7 C :   -0.270282
   8 N :   -0.123144
   9 C :    0.214620
  10 S :   -0.439532
  11 N :   -0.206859
  12 C :    0.067440
  13 C :    0.053552
  14 C :   -0.192896
  15 C :   -0.126716
  16 C :   -0.278704
  17 C :    0.316103
  18 O :   -0.356211
  19 C :   -0.266441
  20 H :    0.118145
  21 H :    0.087949
  22 H :    0.092636
  23 H :    0.096465
  24 H :    0.107869
  25 H :    0.131345
  26 H :    0.131049
  27 H :    0.095610
  28 H :    0.197574
  29 H :    0.194704
  30 H :    0.150324
  31 H :    0.149374
  32 H :    0.164451
  33 H :    0.132768
  34 H :    0.241606
  35 H :    0.168199
Sum of atomic charges:   -0.0000000

LOEWDIN ATOMIC CHARGES
----------------------
   0 C :    0.105120
   1 C :   -0.018299
   2 O :    0.289866
   3 C :   -0.415075
   4 O :    0.116432
   5 C :   -0.097374
   6 C :   -0.058427
   7 C :    0.131187
   8 N :    0.406929
   9 C :   -0.456050
  10 S :   -0.034730
  11 N :    0.396132
  12 C :   -0.052529
  13 C :   -0.036888
  14 C :    0.015364
  15 C :    0.040825
  16 C :   -0.002181
  17 C :   -0.190456
  18 O :    0.396240
  19 C :    0.030486
  20 H :   -0.027358
  21 H :   -0.030917
  22 H :   -0.027679
  23 H :   -0.030017
  24 H :   -0.025081
  25 H :   -0.004984
  26 H :   -0.003798
  27 H :   -0.023185
  28 H :   -0.057391
  29 H :   -0.064955
  30 H :   -0.009228
  31 H :   -0.029571
  32 H :   -0.020412
  33 H :   -0.034842
  34 H :   -0.152977
  35 H :   -0.024179

  Mayer bond orders larger than 0.100000
B(  0-C ,  1-C ) :   0.9851 B(  0-C , 20-H ) :   0.9723 B(  0-C , 21-H ) :   0.9779
B(  0-C , 22-H ) :   0.9774 B(  1-C ,  2-O ) :   0.8786 B(  1-C , 23-H ) :   0.9670
B(  1-C , 24-H ) :   0.9789 B(  2-O ,  3-C ) :   1.0973 B(  3-C ,  4-O ) :   1.9878
B(  3-C ,  5-C ) :   1.0751 B(  5-C ,  6-C ) :   1.6475 B(  5-C , 12-C ) :   0.9707
B(  6-C ,  7-C ) :   0.9666 B(  6-C ,  8-N ) :   1.1614 B(  7-C , 25-H ) :   0.9596
B(  7-C , 26-H ) :   0.9605 B(  7-C , 27-H ) :   0.9906 B(  8-N ,  9-C ) :   1.1821
B(  8-N , 28-H ) :   0.9477 B(  9-C , 10-S ) :   1.6063 B(  9-C , 11-N ) :   1.3072
B( 11-N , 12-C ) :   0.9739 B( 11-N , 29-H ) :   0.9520 B( 12-C , 13-C ) :   0.9413
B( 12-C , 30-H ) :   1.0013 B( 13-C , 14-C ) :   1.3422 B( 13-C , 19-C ) :   1.3783
B( 14-C , 15-C ) :   1.3889 B( 14-C , 31-H ) :   0.9764 B( 15-C , 16-C ) :   1.3642
B( 15-C , 32-H ) :   0.9694 B( 16-C , 17-C ) :   1.3297 B( 16-C , 33-H ) :   0.9840
B( 17-C , 18-O ) :   1.1128 B( 17-C , 19-C ) :   1.3693 B( 18-O , 34-H ) :   0.9791
B( 19-C , 35-H ) :   0.9582

MP2 TOTAL ENERGY:    -1274.334945678 Eh
FINAL SINGLE POINT ENERGY     -1274.334945678208

DIPOLE MOMENT
-------------
                                X             Y             Z
Electronic contribution:     10.39502       9.92563       7.65915
Nuclear contribution   :    -11.35505     -11.48084      -7.65432
                        -----------------------------------------
Total Dipole Moment    :     -0.96003      -1.55521       0.00482
                        -----------------------------------------
Magnitude (a.u.)       :      1.82766
Magnitude (Debye)      :      4.64556

Rotational constants in cm-1:     0.012220     0.008748     0.006272
Rotational constants in MHz :   366.333474   262.272324   188.043882

                             ****ORCA TERMINATED NORMALLY****
TOTAL RUN TIME: 0 days 2 hours 8 minutes 26 seconds 822 msec
