                         Program Version 4.2.0 -  RELEASE  -
|  1> ! ri-mp2 cc-pvtz cc-pvtz/c TightSCF  NoKeepInts
|  2>
|  3> %scf
|  4>   MaxCore 4096
|  5> end
|  6> *xyz  0  1
|  7>     C       15.2840426   13.5717438   16.1098516
|  8>     C       16.2727064   14.4844960   16.8530041
|  9>     O       16.8720210   15.3411562   15.8704672
| 10>     C       16.9244334   16.7024860   16.0050918
| 11>     O       16.5844820   17.3900277   15.0608608
| 12>     C       17.4704017   17.2828590   17.2905514
| 13>     C       17.3274662   18.6049479   17.5770642
| 14>     C       16.4927417   19.6268869   16.8350280
| 15>     N       18.0564864   19.1751443   18.6268105
| 16>     C       19.1514579   18.5849709   19.2027006
| 17>     S       20.1561224   19.4018666   20.2317299
| 18>     N       19.3842512   17.2790764   18.8508192
| 19>     C       18.3786656   16.4250194   18.1947656
| 20>     C       17.6463259   15.6576374   19.2953698
| 21>     C       18.1299404   14.3995705   19.7037132
| 22>     C       17.4799343   13.6746644   20.7163345
| 23>     C       16.3419404   14.2158617   21.3371975
| 24>     C       15.8678227   15.4758552   20.9494609
| 25>     O       14.7732801   16.0056874   21.5504964
| 26>     C       16.5141452   16.1936173   19.9383447
| 27>     H       14.7880246   12.8889084   16.8102595
| 28>     H       15.8052886   12.9712564   15.3537828
| 29>     H       14.5127941   14.1673567   15.6050922
| 30>     H       15.7153722   15.0637780   17.5998920
| 31>     H       17.0349070   13.8715507   17.3478811
| 32>     H       15.5009649   19.2228689   16.5956812
| 33>     H       16.9725779   19.8970005   15.8852196
| 34>     H       16.3389900   20.5484015   17.4086506
| 35>     H       17.9100393   20.1428881   18.8665346
| 36>     H       20.1931325   16.8624260   19.2931613
| 37>     H       18.9095201   15.7041453   17.5565160
| 38>     H       19.0155465   13.9803273   19.2329035
| 39>     H       17.8619656   12.7018896   21.0224698
| 40>     H       15.8383513   13.6613455   22.1225998
| 41>     H       14.5095636   15.4027086   22.2623703
| 42>     H       16.1312942   17.1715737   19.6713237
| 43> *
| 44>
| 45>                          ****END OF INPUT****

CARTESIAN COORDINATES (ANGSTROEM)
---------------------------------
  C     15.284043   13.571744   16.109852
  C     16.272706   14.484496   16.853004
  O     16.872021   15.341156   15.870467
  C     16.924433   16.702486   16.005092
  O     16.584482   17.390028   15.060861
  C     17.470402   17.282859   17.290551
  C     17.327466   18.604948   17.577064
  C     16.492742   19.626887   16.835028
  N     18.056486   19.175144   18.626810
  C     19.151458   18.584971   19.202701
  S     20.156122   19.401867   20.231730
  N     19.384251   17.279076   18.850819
  C     18.378666   16.425019   18.194766
  C     17.646326   15.657637   19.295370
  C     18.129940   14.399570   19.703713
  C     17.479934   13.674664   20.716334
  C     16.341940   14.215862   21.337197
  C     15.867823   15.475855   20.949461
  O     14.773280   16.005687   21.550496
  C     16.514145   16.193617   19.938345
  H     14.788025   12.888908   16.810260
  H     15.805289   12.971256   15.353783
  H     14.512794   14.167357   15.605092
  H     15.715372   15.063778   17.599892
  H     17.034907   13.871551   17.347881
  H     15.500965   19.222869   16.595681
  H     16.972578   19.897001   15.885220
  H     16.338990   20.548402   17.408651
  H     17.910039   20.142888   18.866535
  H     20.193132   16.862426   19.293161
  H     18.909520   15.704145   17.556516
  H     19.015546   13.980327   19.232903
  H     17.861966   12.701890   21.022470
  H     15.838351   13.661345   22.122600
  H     14.509564   15.402709   22.262370
  H     16.131294   17.171574   19.671324

 Total Charge           Charge          ....    0
 Multiplicity           Mult            ....    1
 Number of Electrons    NEL             ....  154
 Basis Dimension        Dim             ....  828

ORBITAL ENERGIES
----------------

  NO   OCC          E(Eh)            E(eV)
   0   2.0000     -91.892639     -2500.5258
   1   2.0000     -20.604887      -560.6875
   2   2.0000     -20.590807      -560.3043
   3   2.0000     -20.540897      -558.9462
   4   2.0000     -15.632880      -425.3923
   5   2.0000     -15.612005      -424.8242
   6   2.0000     -11.393075      -310.0213
   7   2.0000     -11.386762      -309.8496
   8   2.0000     -11.338661      -308.5406
   9   2.0000     -11.322783      -308.1086
  10   2.0000     -11.318490      -307.9918
  11   2.0000     -11.297454      -307.4193
  12   2.0000     -11.269432      -306.6568
  13   2.0000     -11.264788      -306.5305
  14   2.0000     -11.262187      -306.4597
  15   2.0000     -11.253790      -306.2312
  16   2.0000     -11.250617      -306.1449
  17   2.0000     -11.246714      -306.0386
  18   2.0000     -11.245517      -306.0061
  19   2.0000     -11.226073      -305.4770
  20   2.0000      -8.897606      -242.1162
  21   2.0000      -6.579160      -179.0280
  22   2.0000      -6.577179      -178.9742
  23   2.0000      -6.576574      -178.9577
  24   2.0000      -1.444866       -39.3168
  25   2.0000      -1.424461       -38.7616
  26   2.0000      -1.353484       -36.8302
  27   2.0000      -1.344792       -36.5937
  28   2.0000      -1.243310       -33.8322
  29   2.0000      -1.165374       -31.7114
  30   2.0000      -1.122365       -30.5411
  31   2.0000      -1.048994       -28.5446
  32   2.0000      -1.034998       -28.1637
  33   2.0000      -1.024259       -27.8715
  34   2.0000      -1.001003       -27.2387
  35   2.0000      -0.987496       -26.8711
  36   2.0000      -0.928274       -25.2596
  37   2.0000      -0.879652       -23.9365
  38   2.0000      -0.852649       -23.2018
  39   2.0000      -0.849661       -23.1205
  40   2.0000      -0.842003       -22.9121
  41   2.0000      -0.833845       -22.6901
  42   2.0000      -0.762864       -20.7586
  43   2.0000      -0.738579       -20.0978
  44   2.0000      -0.717835       -19.5333
  45   2.0000      -0.704820       -19.1791
  46   2.0000      -0.696549       -18.9541
  47   2.0000      -0.677332       -18.4311
  48   2.0000      -0.672283       -18.2938
  49   2.0000      -0.668845       -18.2002
  50   2.0000      -0.653569       -17.7845
  51   2.0000      -0.647174       -17.6105
  52   2.0000      -0.642683       -17.4883
  53   2.0000      -0.616958       -16.7883
  54   2.0000      -0.607967       -16.5436
  55   2.0000      -0.603153       -16.4126
  56   2.0000      -0.588565       -16.0157
  57   2.0000      -0.584446       -15.9036
  58   2.0000      -0.574472       -15.6322
  59   2.0000      -0.572260       -15.5720
  60   2.0000      -0.565020       -15.3750
  61   2.0000      -0.547755       -14.9052
  62   2.0000      -0.540255       -14.7011
  63   2.0000      -0.534345       -14.5403
  64   2.0000      -0.521087       -14.1795
  65   2.0000      -0.515366       -14.0238
  66   2.0000      -0.510788       -13.8993
  67   2.0000      -0.503636       -13.7046
  68   2.0000      -0.483477       -13.1561
  69   2.0000      -0.465355       -12.6630
  70   2.0000      -0.451222       -12.2784
  71   2.0000      -0.444577       -12.0976
  72   2.0000      -0.362763        -9.8713
  73   2.0000      -0.356827        -9.7098
  74   2.0000      -0.333556        -9.0765
  75   2.0000      -0.328313        -8.9338
  76   2.0000      -0.319005        -8.6806
  77   0.0000       0.071871         1.9557
  78   0.0000       0.098247         2.6734
  79   0.0000       0.116415         3.1678
  80   0.0000       0.123862         3.3705
  81   0.0000       0.129049         3.5116

MULLIKEN ATOMIC CHARGES
-----------------------
   0 C :   -0.254976
   1 C :    0.018569
   2 O :   -0.328012
   3 C :    0.454229
   4 O :   -0.387719
   5 C :   -0.262774
   6 C :    0.127842
   7 C :   -0.270177
   8 N :   -0.122044
   9 C :    0.216685
  10 S :   -0.434528
  11 N :   -0.204252
  12 C :    0.055830
  13 C :    0.057886
  14 C :   -0.230381
  15 C :   -0.127099
  16 C :   -0.275183
  17 C :    0.315120
  18 O :   -0.355689
  19 C :   -0.254946
  20 H :    0.087179
  21 H :    0.099694
  22 H :    0.101511
  23 H :    0.100463
  24 H :    0.093881
  25 H :    0.124552
  26 H :    0.142585
  27 H :    0.093638
  28 H :    0.199642
  29 H :    0.190024
  30 H :    0.157987
  31 H :    0.157225
  32 H :    0.163623
  33 H :    0.133182
  34 H :    0.243053
  35 H :    0.173379
Sum of atomic charges:   -0.0000000

LOEWDIN ATOMIC CHARGES
----------------------
   0 C :    0.109495
   1 C :   -0.030269
   2 O :    0.303900
   3 C :   -0.425565
   4 O :    0.117680
   5 C :   -0.098840
   6 C :   -0.058254
   7 C :    0.129644
   8 N :    0.408922
   9 C :   -0.453622
  10 S :   -0.029406
  11 N :    0.396056
  12 C :   -0.051765
  13 C :   -0.037105
  14 C :    0.006643
  15 C :    0.043646
  16 C :   -0.000477
  17 C :   -0.189308
  18 O :    0.396649
  19 C :    0.028064
  20 H :   -0.027414
  21 H :   -0.025775
  22 H :   -0.023903
  23 H :   -0.031358
  24 H :   -0.033775
  25 H :   -0.006354
  26 H :   -0.001527
  27 H :   -0.023045
  28 H :   -0.056707
  29 H :   -0.067485
  30 H :   -0.004548
  31 H :   -0.031851
  32 H :   -0.018704
  33 H :   -0.033953
  34 H :   -0.151443
  35 H :   -0.028245

  Mayer bond orders larger than 0.100000
B(  0-C ,  1-C ) :   0.9834 B(  0-C , 20-H ) :   0.9779 B(  0-C , 21-H ) :   0.9806
B(  0-C , 22-H ) :   0.9781 B(  1-C ,  2-O ) :   0.8883 B(  1-C , 23-H ) :   0.9641
B(  1-C , 24-H ) :   0.9735 B(  2-O ,  3-C ) :   1.1639 B(  3-C ,  4-O ) :   2.0658
B(  3-C ,  5-C ) :   1.0021 B(  5-C ,  6-C ) :   1.6508 B(  5-C , 12-C ) :   0.9603
B(  6-C ,  7-C ) :   0.9780 B(  6-C ,  8-N ) :   1.1486 B(  7-C , 25-H ) :   0.9670
B(  7-C , 26-H ) :   0.9526 B(  7-C , 27-H ) :   0.9858 B(  8-N ,  9-C ) :   1.1841
B(  8-N , 28-H ) :   0.9489 B(  9-C , 10-S ) :   1.6153 B(  9-C , 11-N ) :   1.2955
B( 11-N , 12-C ) :   0.9541 B( 11-N , 29-H ) :   0.9538 B( 12-C , 13-C ) :   0.9588
B( 12-C , 30-H ) :   0.9981 B( 13-C , 14-C ) :   1.3425 B( 13-C , 19-C ) :   1.3633
B( 14-C , 15-C ) :   1.3982 B( 14-C , 31-H ) :   0.9725 B( 15-C , 16-C ) :   1.3657
B( 15-C , 32-H ) :   0.9694 B( 16-C , 17-C ) :   1.3322 B( 16-C , 33-H ) :   0.9837
B( 17-C , 18-O ) :   1.1175 B( 17-C , 19-C ) :   1.3682 B( 18-O , 34-H ) :   0.9783
B( 19-C , 35-H ) :   0.9526

MP2 TOTAL ENERGY:    -1274.332261870 Eh
FINAL SINGLE POINT ENERGY     -1274.332261870278

DIPOLE MOMENT
-------------
                                X             Y             Z
Electronic contribution:      9.54957      10.00567       5.28246
Nuclear contribution   :    -10.70682     -11.58823      -4.41431
                        -----------------------------------------
Total Dipole Moment    :     -1.15725      -1.58256       0.86814
                        -----------------------------------------
Magnitude (a.u.)       :      2.14415
Magnitude (Debye)      :      5.45000

Rotational constants in cm-1:     0.011142     0.009440     0.006450
Rotational constants in MHz :   334.039498   283.008702   193.352033

                             ****ORCA TERMINATED NORMALLY****
TOTAL RUN TIME: 0 days 1 hours 46 minutes 44 seconds 376 msec
