                         Program Version 4.2.0 -  RELEASE  -
|  1> ! ri-mp2 cc-pvtz cc-pvtz/c TightSCF  NoKeepInts
|  2>
|  3> %scf
|  4>   MaxCore 4096
|  5> end
|  6> *xyz  0  1
|  7>     C       14.7388725   16.0492203   17.1909095
|  8>     C       15.7106877   14.8995164   16.8627967
|  9>     O       16.7375063   15.2947284   15.9256367
| 10>     C       17.9597784   15.7486528   16.3481965
| 11>     O       18.9049355   14.9813128   16.3268878
| 12>     C       17.9212941   16.8738609   17.3306731
| 13>     C       17.3324071   18.0601363   17.0483320
| 14>     C       16.6501112   18.4668462   15.7591012
| 15>     N       17.4020658   19.1077980   17.9693038
| 16>     C       18.1478546   19.0872684   19.1190256
| 17>     S       18.2434416   20.4025847   20.1164815
| 18>     N       18.8119788   17.9190218   19.4017964
| 19>     C       18.6841734   16.6606742   18.6400914
| 20>     C       18.0199021   15.5741185   19.4800473
| 21>     C       18.5401279   14.2669362   19.4849103
| 22>     C       17.9176989   13.2506587   20.2286174
| 23>     C       16.7623420   13.5419544   20.9734412
| 24>     C       16.2382538   14.8414543   20.9687809
| 25>     O       15.1146778   15.1234435   21.6746376
| 26>     C       16.8597485   15.8510429   20.2273233
| 27>     H       15.1799419   16.7688818   17.8874708
| 28>     H       13.8391005   15.6478283   17.6731769
| 29>     H       14.4255216   16.5692580   16.2779434
| 30>     H       16.1504061   14.4861396   17.7797230
| 31>     H       15.1273846   14.0944140   16.3975772
| 32>     H       16.6609224   17.6731638   15.0034449
| 33>     H       17.1517279   19.3347206   15.3126208
| 34>     H       15.6024495   18.7381746   15.9362416
| 35>     H       16.9363370   19.9794206   17.7707519
| 36>     H       19.3388049   17.9266064   20.2660553
| 37>     H       19.6990480   16.3217048   18.3846463
| 38>     H       19.4230016   14.0341407   18.8929929
| 39>     H       18.3288564   12.2424730   20.2198882
| 40>     H       16.2771675   12.7588546   21.5468740
| 41>     H       14.8747199   14.3262088   22.1710360
| 42>     H       16.4337524   16.8487809   20.2365667
| 43> *
| 44>
| 45>                          ****END OF INPUT****

CARTESIAN COORDINATES (ANGSTROEM)
---------------------------------
  C     14.738872   16.049220   17.190909
  C     15.710688   14.899516   16.862797
  O     16.737506   15.294728   15.925637
  C     17.959778   15.748653   16.348197
  O     18.904936   14.981313   16.326888
  C     17.921294   16.873861   17.330673
  C     17.332407   18.060136   17.048332
  C     16.650111   18.466846   15.759101
  N     17.402066   19.107798   17.969304
  C     18.147855   19.087268   19.119026
  S     18.243442   20.402585   20.116481
  N     18.811979   17.919022   19.401796
  C     18.684173   16.660674   18.640091
  C     18.019902   15.574118   19.480047
  C     18.540128   14.266936   19.484910
  C     17.917699   13.250659   20.228617
  C     16.762342   13.541954   20.973441
  C     16.238254   14.841454   20.968781
  O     15.114678   15.123444   21.674638
  C     16.859748   15.851043   20.227323
  H     15.179942   16.768882   17.887471
  H     13.839101   15.647828   17.673177
  H     14.425522   16.569258   16.277943
  H     16.150406   14.486140   17.779723
  H     15.127385   14.094414   16.397577
  H     16.660922   17.673164   15.003445
  H     17.151728   19.334721   15.312621
  H     15.602449   18.738175   15.936242
  H     16.936337   19.979421   17.770752
  H     19.338805   17.926606   20.266055
  H     19.699048   16.321705   18.384646
  H     19.423002   14.034141   18.892993
  H     18.328856   12.242473   20.219888
  H     16.277168   12.758855   21.546874
  H     14.874720   14.326209   22.171036
  H     16.433752   16.848781   20.236567

 Total Charge           Charge          ....    0
 Multiplicity           Mult            ....    1
 Number of Electrons    NEL             ....  154
 Basis Dimension        Dim             ....  828

ORBITAL ENERGIES
----------------

  NO   OCC          E(Eh)            E(eV)
   0   2.0000     -91.890945     -2500.4797
   1   2.0000     -20.600841      -560.5774
   2   2.0000     -20.581605      -560.0539
   3   2.0000     -20.555976      -559.3566
   4   2.0000     -15.628832      -425.2821
   5   2.0000     -15.611623      -424.8139
   6   2.0000     -11.395267      -310.0810
   7   2.0000     -11.387271      -309.8634
   8   2.0000     -11.332148      -308.3634
   9   2.0000     -11.317933      -307.9766
  10   2.0000     -11.313846      -307.8654
  11   2.0000     -11.301526      -307.5301
  12   2.0000     -11.263867      -306.5054
  13   2.0000     -11.263753      -306.5023
  14   2.0000     -11.262830      -306.4772
  15   2.0000     -11.258025      -306.3464
  16   2.0000     -11.247645      -306.0640
  17   2.0000     -11.243051      -305.9390
  18   2.0000     -11.240043      -305.8571
  19   2.0000     -11.230825      -305.6063
  20   2.0000      -8.896027      -242.0732
  21   2.0000      -6.577608      -178.9858
  22   2.0000      -6.575592      -178.9309
  23   2.0000      -6.575009      -178.9151
  24   2.0000      -1.446183       -39.3526
  25   2.0000      -1.420649       -38.6578
  26   2.0000      -1.354312       -36.8527
  27   2.0000      -1.341583       -36.5063
  28   2.0000      -1.240718       -33.7617
  29   2.0000      -1.162078       -31.6217
  30   2.0000      -1.124931       -30.6109
  31   2.0000      -1.048739       -28.5376
  32   2.0000      -1.034597       -28.1528
  33   2.0000      -1.019540       -27.7431
  34   2.0000      -1.004259       -27.3273
  35   2.0000      -0.989946       -26.9378
  36   2.0000      -0.927913       -25.2498
  37   2.0000      -0.888319       -24.1724
  38   2.0000      -0.852039       -23.1852
  39   2.0000      -0.842412       -22.9232
  40   2.0000      -0.838023       -22.8038
  41   2.0000      -0.830591       -22.6015
  42   2.0000      -0.753900       -20.5147
  43   2.0000      -0.735629       -20.0175
  44   2.0000      -0.731012       -19.8918
  45   2.0000      -0.699012       -19.0211
  46   2.0000      -0.688889       -18.7456
  47   2.0000      -0.678887       -18.4734
  48   2.0000      -0.674954       -18.3664
  49   2.0000      -0.661767       -18.0076
  50   2.0000      -0.654927       -17.8215
  51   2.0000      -0.643790       -17.5184
  52   2.0000      -0.638966       -17.3872
  53   2.0000      -0.612176       -16.6582
  54   2.0000      -0.608519       -16.5587
  55   2.0000      -0.605226       -16.4690
  56   2.0000      -0.601366       -16.3640
  57   2.0000      -0.588061       -16.0020
  58   2.0000      -0.580030       -15.7834
  59   2.0000      -0.576721       -15.6934
  60   2.0000      -0.565472       -15.3873
  61   2.0000      -0.554976       -15.1017
  62   2.0000      -0.541061       -14.7230
  63   2.0000      -0.527840       -14.3633
  64   2.0000      -0.521204       -14.1827
  65   2.0000      -0.513419       -13.9709
  66   2.0000      -0.503361       -13.6972
  67   2.0000      -0.493625       -13.4322
  68   2.0000      -0.486999       -13.2519
  69   2.0000      -0.466254       -12.6874
  70   2.0000      -0.455915       -12.4061
  71   2.0000      -0.449369       -12.2280
  72   2.0000      -0.357038        -9.7155
  73   2.0000      -0.353110        -9.6086
  74   2.0000      -0.330441        -8.9917
  75   2.0000      -0.325875        -8.8675
  76   2.0000      -0.319443        -8.6925
  77   0.0000       0.077743         2.1155
  78   0.0000       0.100984         2.7479
  79   0.0000       0.118045         3.2122
  80   0.0000       0.127016         3.4563
  81   0.0000       0.129918         3.5353

MULLIKEN ATOMIC CHARGES
-----------------------
   0 C :   -0.329973
   1 C :    0.033769
   2 O :   -0.364517
   3 C :    0.423784
   4 O :   -0.372688
   5 C :   -0.177441
   6 C :    0.111152
   7 C :   -0.325059
   8 N :   -0.126737
   9 C :    0.196037
  10 S :   -0.438116
  11 N :   -0.209996
  12 C :    0.068538
  13 C :    0.013078
  14 C :   -0.183939
  15 C :   -0.133748
  16 C :   -0.277417
  17 C :    0.316036
  18 O :   -0.357753
  19 C :   -0.276732
  20 H :    0.103435
  21 H :    0.124137
  22 H :    0.108009
  23 H :    0.106602
  24 H :    0.125582
  25 H :    0.132897
  26 H :    0.143075
  27 H :    0.119231
  28 H :    0.197875
  29 H :    0.196875
  30 H :    0.164205
  31 H :    0.168664
  32 H :    0.164155
  33 H :    0.133485
  34 H :    0.241789
  35 H :    0.181706
Sum of atomic charges:   -0.0000000

LOEWDIN ATOMIC CHARGES
----------------------
   0 C :    0.103410
   1 C :   -0.011260
   2 O :    0.276532
   3 C :   -0.417684
   4 O :    0.136964
   5 C :   -0.087508
   6 C :   -0.088863
   7 C :    0.126237
   8 N :    0.404060
   9 C :   -0.457388
  10 S :   -0.035548
  11 N :    0.397324
  12 C :   -0.044404
  13 C :   -0.045237
  14 C :    0.020115
  15 C :    0.043395
  16 C :   -0.000948
  17 C :   -0.194601
  18 O :    0.395508
  19 C :    0.028773
  20 H :   -0.036567
  21 H :   -0.021421
  22 H :   -0.029472
  23 H :   -0.027787
  24 H :   -0.020606
  25 H :   -0.010123
  26 H :   -0.011097
  27 H :   -0.016494
  28 H :   -0.056256
  29 H :   -0.063677
  30 H :   -0.003087
  31 H :   -0.022102
  32 H :   -0.018495
  33 H :   -0.034288
  34 H :   -0.152833
  35 H :   -0.024570

  Mayer bond orders larger than 0.100000
B(  0-C ,  1-C ) :   0.9603 B(  0-C , 20-H ) :   0.9730 B(  0-C , 21-H ) :   0.9780
B(  0-C , 22-H ) :   0.9748 B(  1-C ,  2-O ) :   0.8916 B(  1-C , 23-H ) :   0.9701
B(  1-C , 24-H ) :   0.9851 B(  2-O ,  3-C ) :   1.1231 B(  3-C ,  4-O ) :   2.0879
B(  3-C ,  5-C ) :   0.9457 B(  5-C ,  6-C ) :   1.6791 B(  5-C , 12-C ) :   0.9541
B(  6-C ,  7-C ) :   0.9549 B(  6-C ,  8-N ) :   1.1172 B(  7-C , 25-H ) :   0.9749
B(  7-C , 26-H ) :   0.9690 B(  7-C , 27-H ) :   0.9647 B(  8-N ,  9-C ) :   1.1896
B(  8-N , 28-H ) :   0.9513 B(  9-C , 10-S ) :   1.6158 B(  9-C , 11-N ) :   1.2890
B( 11-N , 12-C ) :   0.9942 B( 11-N , 29-H ) :   0.9504 B( 12-C , 13-C ) :   0.9420
B( 12-C , 30-H ) :   0.9982 B( 13-C , 14-C ) :   1.3898 B( 13-C , 19-C ) :   1.3452
B( 14-C , 15-C ) :   1.3967 B( 14-C , 31-H ) :   0.9602 B( 15-C , 16-C ) :   1.3618
B( 15-C , 32-H ) :   0.9702 B( 16-C , 17-C ) :   1.3297 B( 16-C , 33-H ) :   0.9840
B( 17-C , 18-O ) :   1.1121 B( 17-C , 19-C ) :   1.3701 B( 18-O , 34-H ) :   0.9792
B( 19-C , 35-H ) :   0.9527

MP2 TOTAL ENERGY:    -1274.322259802 Eh
FINAL SINGLE POINT ENERGY     -1274.322259801598

DIPOLE MOMENT
-------------
                                X             Y             Z
Electronic contribution:     10.12209       5.64278       5.57927
Nuclear contribution   :    -11.43123      -6.81667      -5.87648
                        -----------------------------------------
Total Dipole Moment    :     -1.30914      -1.17389      -0.29722
                        -----------------------------------------
Magnitude (a.u.)       :      1.78332
Magnitude (Debye)      :      4.53283

Rotational constants in cm-1:     0.012241     0.009446     0.007119
Rotational constants in MHz :   366.986104   283.169124   213.428658

                             ****ORCA TERMINATED NORMALLY****
TOTAL RUN TIME: 0 days 1 hours 48 minutes 51 seconds 424 msec
