                         Program Version 4.2.0 -  RELEASE  -
|  1> ! ri-mp2 cc-pvtz cc-pvtz/c TightSCF  NoKeepInts
|  2>
|  3> %scf
|  4>   MaxCore 4096
|  5> end
|  6> *xyz  0  1
|  7>     C       15.2813750   13.7798662   15.6364762
|  8>     C       15.5825182   15.1383802   14.9637396
|  9>     O       16.2741817   16.0871946   15.8143808
| 10>     C       17.1827152   15.7761464   16.7903545
| 11>     O       17.7041325   14.6788599   16.8942116
| 12>     C       17.6331493   16.9440480   17.6270573
| 13>     C       17.2401734   18.2371448   17.4676642
| 14>     C       16.2697436   18.8115765   16.4551531
| 15>     N       17.7919166   19.2351543   18.2789253
| 16>     C       18.8291684   19.0528125   19.1543828
| 17>     S       19.5116682   20.3170614   19.9739269
| 18>     N       19.2700035   17.7648251   19.3162496
| 19>     C       18.6104276   16.5736471   18.7504958
| 20>     C       17.9094123   15.7785768   19.8494904
| 21>     C       18.1901521   14.4113542   20.0286237
| 22>     C       17.5464582   13.6731884   21.0359202
| 23>     C       16.6127804   14.3067637   21.8733831
| 24>     C       16.3273509   15.6673625   21.6964239
| 25>     O       15.4216701   16.2806946   22.4995368
| 26>     C       16.9692057   16.3992804   20.6925075
| 27>     H       16.1753630   13.1459197   15.6814062
| 28>     H       14.5251863   13.2330304   15.0606191
| 29>     H       14.8960160   13.9204941   16.6541311
| 30>     H       16.1903340   14.9495457   14.0692211
| 31>     H       14.6407118   15.5914308   14.6286474
| 32>     H       15.2793909   18.3521792   16.5636386
| 33>     H       16.6212737   18.6267202   15.4324513
| 34>     H       16.1364189   19.8949774   16.5610559
| 35>     H       17.4821838   20.1880376   18.1749673
| 36>     H       20.0144509   17.6501052   19.9918567
| 37>     H       19.3960691   15.9389953   18.3154159
| 38>     H       18.8989749   13.9147623   19.3703363
| 39>     H       17.7681784   12.6146875   21.1591099
| 40>     H       16.1118966   13.7400073   22.6510484
| 41>     H       15.1166232   15.6252966   23.1446150
| 42>     H       16.7357256   17.4518729   20.5765773
| 43> *
| 44>
| 45>                          ****END OF INPUT****

CARTESIAN COORDINATES (ANGSTROEM)
---------------------------------
  C     15.281375   13.779866   15.636476
  C     15.582518   15.138380   14.963740
  O     16.274182   16.087195   15.814381
  C     17.182715   15.776146   16.790354
  O     17.704133   14.678860   16.894212
  C     17.633149   16.944048   17.627057
  C     17.240173   18.237145   17.467664
  C     16.269744   18.811576   16.455153
  N     17.791917   19.235154   18.278925
  C     18.829168   19.052813   19.154383
  S     19.511668   20.317061   19.973927
  N     19.270004   17.764825   19.316250
  C     18.610428   16.573647   18.750496
  C     17.909412   15.778577   19.849490
  C     18.190152   14.411354   20.028624
  C     17.546458   13.673188   21.035920
  C     16.612780   14.306764   21.873383
  C     16.327351   15.667362   21.696424
  O     15.421670   16.280695   22.499537
  C     16.969206   16.399280   20.692507
  H     16.175363   13.145920   15.681406
  H     14.525186   13.233030   15.060619
  H     14.896016   13.920494   16.654131
  H     16.190334   14.949546   14.069221
  H     14.640712   15.591431   14.628647
  H     15.279391   18.352179   16.563639
  H     16.621274   18.626720   15.432451
  H     16.136419   19.894977   16.561056
  H     17.482184   20.188038   18.174967
  H     20.014451   17.650105   19.991857
  H     19.396069   15.938995   18.315416
  H     18.898975   13.914762   19.370336
  H     17.768178   12.614688   21.159110
  H     16.111897   13.740007   22.651048
  H     15.116623   15.625297   23.144615
  H     16.735726   17.451873   20.576577

 Total Charge           Charge          ....    0
 Multiplicity           Mult            ....    1
 Number of Electrons    NEL             ....  154
 Basis Dimension        Dim             ....  828

ORBITAL ENERGIES
----------------

  NO   OCC          E(Eh)            E(eV)
   0   2.0000     -91.887498     -2500.3859
   1   2.0000     -20.601753      -560.6022
   2   2.0000     -20.590742      -560.3026
   3   2.0000     -20.543087      -559.0058
   4   2.0000     -15.627876      -425.2561
   5   2.0000     -15.605915      -424.6585
   6   2.0000     -11.398031      -310.1562
   7   2.0000     -11.382042      -309.7211
   8   2.0000     -11.336498      -308.4818
   9   2.0000     -11.306446      -307.6640
  10   2.0000     -11.306360      -307.6617
  11   2.0000     -11.304020      -307.5980
  12   2.0000     -11.260389      -306.4108
  13   2.0000     -11.258062      -306.3475
  14   2.0000     -11.252311      -306.1909
  15   2.0000     -11.246536      -306.0338
  16   2.0000     -11.236233      -305.7534
  17   2.0000     -11.232384      -305.6487
  18   2.0000     -11.229150      -305.5607
  19   2.0000     -11.225580      -305.4636
  20   2.0000      -8.892561      -241.9789
  21   2.0000      -6.574139      -178.8914
  22   2.0000      -6.572133      -178.8368
  23   2.0000      -6.571547      -178.8209
  24   2.0000      -1.447740       -39.3950
  25   2.0000      -1.410480       -38.3811
  26   2.0000      -1.356150       -36.9027
  27   2.0000      -1.338860       -36.4322
  28   2.0000      -1.236302       -33.6415
  29   2.0000      -1.150919       -31.3181
  30   2.0000      -1.117911       -30.4199
  31   2.0000      -1.041323       -28.3358
  32   2.0000      -1.034177       -28.1414
  33   2.0000      -1.008409       -27.4402
  34   2.0000      -0.996434       -27.1143
  35   2.0000      -0.981764       -26.7152
  36   2.0000      -0.920674       -25.0528
  37   2.0000      -0.897429       -24.4203
  38   2.0000      -0.847502       -23.0617
  39   2.0000      -0.834975       -22.7208
  40   2.0000      -0.826784       -22.4979
  41   2.0000      -0.816408       -22.2156
  42   2.0000      -0.744261       -20.2524
  43   2.0000      -0.729895       -19.8615
  44   2.0000      -0.723674       -19.6922
  45   2.0000      -0.689215       -18.7545
  46   2.0000      -0.684256       -18.6196
  47   2.0000      -0.678231       -18.4556
  48   2.0000      -0.671781       -18.2801
  49   2.0000      -0.660685       -17.9782
  50   2.0000      -0.648024       -17.6336
  51   2.0000      -0.643267       -17.5042
  52   2.0000      -0.632399       -17.2084
  53   2.0000      -0.610575       -16.6146
  54   2.0000      -0.599732       -16.3195
  55   2.0000      -0.598452       -16.2847
  56   2.0000      -0.594265       -16.1708
  57   2.0000      -0.580911       -15.8074
  58   2.0000      -0.572438       -15.5768
  59   2.0000      -0.566544       -15.4164
  60   2.0000      -0.557875       -15.1805
  61   2.0000      -0.540819       -14.7164
  62   2.0000      -0.538532       -14.6542
  63   2.0000      -0.523923       -14.2567
  64   2.0000      -0.515875       -14.0377
  65   2.0000      -0.510953       -13.9037
  66   2.0000      -0.500772       -13.6267
  67   2.0000      -0.494554       -13.4575
  68   2.0000      -0.478720       -13.0266
  69   2.0000      -0.463427       -12.6105
  70   2.0000      -0.454116       -12.3571
  71   2.0000      -0.447975       -12.1900
  72   2.0000      -0.353502        -9.6193
  73   2.0000      -0.343053        -9.3349
  74   2.0000      -0.326610        -8.8875
  75   2.0000      -0.314970        -8.5708
  76   2.0000      -0.312501        -8.5036
  77   0.0000       0.076108         2.0710
  78   0.0000       0.114608         3.1186
  79   0.0000       0.122206         3.3254
  80   0.0000       0.136744         3.7210
  81   0.0000       0.140228         3.8158

MULLIKEN ATOMIC CHARGES
-----------------------
   0 C :   -0.300937
   1 C :    0.048076
   2 O :   -0.351596
   3 C :    0.461985
   4 O :   -0.435670
   5 C :   -0.179163
   6 C :    0.141434
   7 C :   -0.281456
   8 N :   -0.120101
   9 C :    0.200855
  10 S :   -0.439682
  11 N :   -0.196500
  12 C :    0.033689
  13 C :    0.060046
  14 C :   -0.161414
  15 C :   -0.134230
  16 C :   -0.279021
  17 C :    0.311542
  18 O :   -0.359337
  19 C :   -0.274694
  20 H :    0.126822
  21 H :    0.095719
  22 H :    0.100441
  23 H :    0.091109
  24 H :    0.099021
  25 H :    0.124980
  26 H :    0.128226
  27 H :    0.101504
  28 H :    0.196476
  29 H :    0.193392
  30 H :    0.154219
  31 H :    0.153362
  32 H :    0.158683
  33 H :    0.127709
  34 H :    0.239952
  35 H :    0.164557
Sum of atomic charges:   -0.0000000

LOEWDIN ATOMIC CHARGES
----------------------
   0 C :    0.104070
   1 C :   -0.009275
   2 O :    0.296316
   3 C :   -0.414448
   4 O :    0.109000
   5 C :   -0.090508
   6 C :   -0.063403
   7 C :    0.124385
   8 N :    0.404895
   9 C :   -0.459606
  10 S :   -0.036384
  11 N :    0.398292
  12 C :   -0.046996
  13 C :   -0.038645
  14 C :    0.022318
  15 C :    0.040514
  16 C :   -0.002597
  17 C :   -0.192821
  18 O :    0.392826
  19 C :    0.028008
  20 H :   -0.024394
  21 H :   -0.028033
  22 H :   -0.025971
  23 H :   -0.029032
  24 H :   -0.025996
  25 H :   -0.010004
  26 H :   -0.008322
  27 H :   -0.021726
  28 H :   -0.059507
  29 H :   -0.063552
  30 H :   -0.005741
  31 H :   -0.025349
  32 H :   -0.021412
  33 H :   -0.036558
  34 H :   -0.155018
  35 H :   -0.025325

  Mayer bond orders larger than 0.100000
B(  0-C ,  1-C ) :   0.9680 B(  0-C , 20-H ) :   0.9716 B(  0-C , 21-H ) :   0.9758
B(  0-C , 22-H ) :   0.9755 B(  1-C ,  2-O ) :   0.9008 B(  1-C , 23-H ) :   0.9802
B(  1-C , 24-H ) :   0.9827 B(  2-O ,  3-C ) :   1.1631 B(  3-C ,  4-O ) :   1.9596
B(  3-C ,  5-C ) :   1.0655 B(  5-C ,  6-C ) :   1.6404 B(  5-C , 12-C ) :   0.9679
B(  6-C ,  7-C ) :   0.9574 B(  6-C ,  8-N ) :   1.1527 B(  7-C , 25-H ) :   0.9654
B(  7-C , 26-H ) :   0.9632 B(  7-C , 27-H ) :   0.9921 B(  8-N ,  9-C ) :   1.1767
B(  8-N , 28-H ) :   0.9486 B(  9-C , 10-S ) :   1.6105 B(  9-C , 11-N ) :   1.3058
B( 11-N , 12-C ) :   0.9925 B( 11-N , 29-H ) :   0.9521 B( 12-C , 13-C ) :   0.9452
B( 12-C , 30-H ) :   1.0016 B( 13-C , 14-C ) :   1.3749 B( 13-C , 19-C ) :   1.3691
B( 14-C , 15-C ) :   1.3948 B( 14-C , 31-H ) :   0.9649 B( 15-C , 16-C ) :   1.3619
B( 15-C , 32-H ) :   0.9716 B( 16-C , 17-C ) :   1.3319 B( 16-C , 33-H ) :   0.9861
B( 17-C , 18-O ) :   1.1078 B( 17-C , 19-C ) :   1.3793 B( 18-O , 34-H ) :   0.9807
B( 19-C , 35-H ) :   0.9583

MP2 TOTAL ENERGY:    -1274.340535351 Eh
FINAL SINGLE POINT ENERGY     -1274.340535351348

DIPOLE MOMENT
-------------
                                X             Y             Z
Electronic contribution:     10.16418      10.22717      10.48257
Nuclear contribution   :    -11.78814     -11.41798     -11.58913
                        -----------------------------------------
Total Dipole Moment    :     -1.62396      -1.19082      -1.10656
                        -----------------------------------------
Magnitude (a.u.)       :      2.29777
Magnitude (Debye)      :      5.84047

Rotational constants in cm-1:     0.010572     0.008983     0.005821
Rotational constants in MHz :   316.955034   269.300278   174.523459

                             ****ORCA TERMINATED NORMALLY****
TOTAL RUN TIME: 0 days 1 hours 37 minutes 38 seconds 593 msec
