                         Program Version 4.2.0 -  RELEASE  -
|  1> ! ri-mp2 cc-pvtz cc-pvtz/c TightSCF  NoKeepInts
|  2>
|  3> %scf
|  4>   MaxCore 4096
|  5> end
|  6> *xyz  0  1
|  7>     C       14.4995437   14.9483124   14.7262698
|  8>     C       15.5109438   14.4682085   15.7806030
|  9>     O       16.3590219   15.5821994   16.1021622
| 10>     C       17.4071333   15.3835834   16.9523576
| 11>     O       17.7901016   14.2654461   17.2568741
| 12>     C       17.8842092   16.6203941   17.6600174
| 13>     C       17.6115907   17.8959957   17.2768871
| 14>     C       16.8007109   18.3626429   16.0849187
| 15>     N       18.1685302   18.9667998   17.9843901
| 16>     C       19.1141631   18.8495972   18.9685053
| 17>     S       19.8206465   20.1748669   19.6614544
| 18>     N       19.4446536   17.5738562   19.3484641
| 19>     C       18.7475116   16.3544401   18.8989216
| 20>     C       17.9131979   15.7677424   20.0348629
| 21>     C       18.0909708   14.4293603   20.4314883
| 22>     C       17.3247798   13.8831454   21.4748255
| 23>     C       16.3712403   14.6815575   22.1289533
| 24>     C       16.1882368   16.0139357   21.7348293
| 25>     O       15.2640606   16.7858205   22.3605245
| 26>     C       16.9520212   16.5546285   20.6957123
| 27>     H       13.8918591   15.7724041   15.1201007
| 28>     H       13.8261273   14.1312057   14.4400980
| 29>     H       15.0174928   15.2981887   13.8246272
| 30>     H       14.9874467   14.1138414   16.6788212
| 31>     H       16.1044918   13.6392836   15.3709237
| 32>     H       17.1443456   17.8743057   15.1644855
| 33>     H       16.8723254   19.4445537   15.9203432
| 34>     H       15.7392784   18.1199087   16.2202616
| 35>     H       17.9387581   19.9113917   17.7200730
| 36>     H       20.1208136   17.5143966   20.0989223
| 37>     H       19.5149899   15.6178041   18.6204285
| 38>     H       18.8157651   13.8045546   19.9152291
| 39>     H       17.4680138   12.8445744   21.7674705
| 40>     H       15.7761007   14.2631900   22.9337265
| 41>     H       14.8694379   16.2506836   23.0652432
| 42>     H       16.7964864   17.5891805   20.4102242
| 43> *
| 44>
| 45>                          ****END OF INPUT****

CARTESIAN COORDINATES (ANGSTROEM)
---------------------------------
  C     14.499544   14.948312   14.726270
  C     15.510944   14.468208   15.780603
  O     16.359022   15.582199   16.102162
  C     17.407133   15.383583   16.952358
  O     17.790102   14.265446   17.256874
  C     17.884209   16.620394   17.660017
  C     17.611591   17.895996   17.276887
  C     16.800711   18.362643   16.084919
  N     18.168530   18.966800   17.984390
  C     19.114163   18.849597   18.968505
  S     19.820646   20.174867   19.661454
  N     19.444654   17.573856   19.348464
  C     18.747512   16.354440   18.898922
  C     17.913198   15.767742   20.034863
  C     18.090971   14.429360   20.431488
  C     17.324780   13.883145   21.474825
  C     16.371240   14.681558   22.128953
  C     16.188237   16.013936   21.734829
  O     15.264061   16.785820   22.360525
  C     16.952021   16.554628   20.695712
  H     13.891859   15.772404   15.120101
  H     13.826127   14.131206   14.440098
  H     15.017493   15.298189   13.824627
  H     14.987447   14.113841   16.678821
  H     16.104492   13.639284   15.370924
  H     17.144346   17.874306   15.164485
  H     16.872325   19.444554   15.920343
  H     15.739278   18.119909   16.220262
  H     17.938758   19.911392   17.720073
  H     20.120814   17.514397   20.098922
  H     19.514990   15.617804   18.620428
  H     18.815765   13.804555   19.915229
  H     17.468014   12.844574   21.767471
  H     15.776101   14.263190   22.933726
  H     14.869438   16.250684   23.065243
  H     16.796486   17.589181   20.410224

 Total Charge           Charge          ....    0
 Multiplicity           Mult            ....    1
 Number of Electrons    NEL             ....  154
 Basis Dimension        Dim             ....  828

ORBITAL ENERGIES
----------------

  NO   OCC          E(Eh)            E(eV)
   0   2.0000     -91.888029     -2500.4004
   1   2.0000     -20.603566      -560.6515
   2   2.0000     -20.591281      -560.3172
   3   2.0000     -20.545885      -559.0820
   4   2.0000     -15.628462      -425.2721
   5   2.0000     -15.606579      -424.6766
   6   2.0000     -11.395025      -310.0744
   7   2.0000     -11.382886      -309.7441
   8   2.0000     -11.336522      -308.4825
   9   2.0000     -11.307038      -307.6801
  10   2.0000     -11.305350      -307.6342
  11   2.0000     -11.299221      -307.4674
  12   2.0000     -11.260577      -306.4159
  13   2.0000     -11.259060      -306.3746
  14   2.0000     -11.252985      -306.2093
  15   2.0000     -11.247128      -306.0499
  16   2.0000     -11.236812      -305.7692
  17   2.0000     -11.235423      -305.7314
  18   2.0000     -11.232969      -305.6646
  19   2.0000     -11.229884      -305.5807
  20   2.0000      -8.893092      -241.9933
  21   2.0000      -6.574669      -178.9058
  22   2.0000      -6.572662      -178.8512
  23   2.0000      -6.572076      -178.8353
  24   2.0000      -1.455621       -39.6094
  25   2.0000      -1.411016       -38.3957
  26   2.0000      -1.357291       -36.9338
  27   2.0000      -1.339340       -36.4453
  28   2.0000      -1.236888       -33.6574
  29   2.0000      -1.151716       -31.3398
  30   2.0000      -1.119441       -30.4615
  31   2.0000      -1.044902       -28.4332
  32   2.0000      -1.036959       -28.2171
  33   2.0000      -1.009067       -27.4581
  34   2.0000      -0.997548       -27.1446
  35   2.0000      -0.983223       -26.7549
  36   2.0000      -0.920856       -25.0578
  37   2.0000      -0.888436       -24.1756
  38   2.0000      -0.846927       -23.0461
  39   2.0000      -0.834622       -22.7112
  40   2.0000      -0.827356       -22.5135
  41   2.0000      -0.817953       -22.2576
  42   2.0000      -0.762064       -20.7368
  43   2.0000      -0.735884       -20.0244
  44   2.0000      -0.724517       -19.7151
  45   2.0000      -0.690180       -18.7808
  46   2.0000      -0.683331       -18.5944
  47   2.0000      -0.682225       -18.5643
  48   2.0000      -0.676131       -18.3985
  49   2.0000      -0.658164       -17.9096
  50   2.0000      -0.650191       -17.6926
  51   2.0000      -0.643244       -17.5036
  52   2.0000      -0.634640       -17.2694
  53   2.0000      -0.600655       -16.3447
  54   2.0000      -0.600549       -16.3418
  55   2.0000      -0.598036       -16.2734
  56   2.0000      -0.594629       -16.1807
  57   2.0000      -0.580071       -15.7845
  58   2.0000      -0.572732       -15.5848
  59   2.0000      -0.564119       -15.3505
  60   2.0000      -0.562222       -15.2988
  61   2.0000      -0.551374       -15.0037
  62   2.0000      -0.541489       -14.7347
  63   2.0000      -0.521555       -14.1922
  64   2.0000      -0.516604       -14.0575
  65   2.0000      -0.509857       -13.8739
  66   2.0000      -0.505463       -13.7544
  67   2.0000      -0.495317       -13.4783
  68   2.0000      -0.481134       -13.0923
  69   2.0000      -0.462981       -12.5984
  70   2.0000      -0.461559       -12.5597
  71   2.0000      -0.454311       -12.3624
  72   2.0000      -0.354202        -9.6383
  73   2.0000      -0.343601        -9.3499
  74   2.0000      -0.327133        -8.9017
  75   2.0000      -0.315460        -8.5841
  76   2.0000      -0.313377        -8.5274
  77   0.0000       0.075890         2.0651
  78   0.0000       0.113435         3.0867
  79   0.0000       0.120365         3.2753
  80   0.0000       0.135915         3.6984
  81   0.0000       0.138574         3.7708

MULLIKEN ATOMIC CHARGES
-----------------------
   0 C :   -0.273293
   1 C :    0.045586
   2 O :   -0.336633
   3 C :    0.434139
   4 O :   -0.426164
   5 C :   -0.170905
   6 C :    0.143695
   7 C :   -0.288886
   8 N :   -0.122124
   9 C :    0.201467
  10 S :   -0.439185
  11 N :   -0.196906
  12 C :    0.035381
  13 C :    0.057632
  14 C :   -0.159739
  15 C :   -0.134029
  16 C :   -0.279079
  17 C :    0.311337
  18 O :   -0.359256
  19 C :   -0.272935
  20 H :    0.093166
  21 H :    0.100386
  22 H :    0.096508
  23 H :    0.091257
  24 H :    0.101882
  25 H :    0.126868
  26 H :    0.104219
  27 H :    0.127624
  28 H :    0.196724
  29 H :    0.193536
  30 H :    0.153449
  31 H :    0.153059
  32 H :    0.158922
  33 H :    0.127890
  34 H :    0.240011
  35 H :    0.164396
Sum of atomic charges:   -0.0000000

LOEWDIN ATOMIC CHARGES
----------------------
   0 C :    0.107138
   1 C :   -0.017639
   2 O :    0.306107
   3 C :   -0.414447
   4 O :    0.104543
   5 C :   -0.091352
   6 C :   -0.065823
   7 C :    0.125031
   8 N :    0.404828
   9 C :   -0.458903
  10 S :   -0.035922
  11 N :    0.397870
  12 C :   -0.046442
  13 C :   -0.038796
  14 C :    0.022394
  15 C :    0.040948
  16 C :   -0.002405
  17 C :   -0.192704
  18 O :    0.392900
  19 C :    0.028292
  20 H :   -0.029033
  21 H :   -0.022875
  22 H :   -0.026974
  23 H :   -0.028209
  24 H :   -0.027652
  25 H :   -0.008696
  26 H :   -0.020960
  27 H :   -0.010205
  28 H :   -0.059189
  29 H :   -0.063662
  30 H :   -0.004952
  31 H :   -0.025302
  32 H :   -0.021257
  33 H :   -0.036469
  34 H :   -0.154968
  35 H :   -0.025219

  Mayer bond orders larger than 0.100000
B(  0-C ,  1-C ) :   0.9704 B(  0-C , 20-H ) :   0.9784 B(  0-C , 21-H ) :   0.9785
B(  0-C , 22-H ) :   0.9771 B(  1-C ,  2-O ) :   0.9038 B(  1-C , 23-H ) :   0.9753
B(  1-C , 24-H ) :   0.9785 B(  2-O ,  3-C ) :   1.1653 B(  3-C ,  4-O ) :   1.9864
B(  3-C ,  5-C ) :   1.0532 B(  5-C ,  6-C ) :   1.6458 B(  5-C , 12-C ) :   0.9668
B(  6-C ,  7-C ) :   0.9543 B(  6-C ,  8-N ) :   1.1462 B(  7-C , 25-H ) :   0.9658
B(  7-C , 26-H ) :   0.9924 B(  7-C , 27-H ) :   0.9629 B(  8-N ,  9-C ) :   1.1782
B(  8-N , 28-H ) :   0.9488 B(  9-C , 10-S ) :   1.6109 B(  9-C , 11-N ) :   1.3044
B( 11-N , 12-C ) :   0.9921 B( 11-N , 29-H ) :   0.9520 B( 12-C , 13-C ) :   0.9477
B( 12-C , 30-H ) :   1.0000 B( 13-C , 14-C ) :   1.3760 B( 13-C , 19-C ) :   1.3692
B( 14-C , 15-C ) :   1.3947 B( 14-C , 31-H ) :   0.9649 B( 15-C , 16-C ) :   1.3625
B( 15-C , 32-H ) :   0.9715 B( 16-C , 17-C ) :   1.3315 B( 16-C , 33-H ) :   0.9861
B( 17-C , 18-O ) :   1.1079 B( 17-C , 19-C ) :   1.3793 B( 18-O , 34-H ) :   0.9806
B( 19-C , 35-H ) :   0.9585

MP2 TOTAL ENERGY:    -1274.348089188 Eh
FINAL SINGLE POINT ENERGY     -1274.348089188164

DIPOLE MOMENT
-------------
                                X             Y             Z
Electronic contribution:     12.18237       7.95914      11.53928
Nuclear contribution   :    -13.83393      -9.11127     -12.47904
                        -----------------------------------------
Total Dipole Moment    :     -1.65156      -1.15213      -0.93976
                        -----------------------------------------
Magnitude (a.u.)       :      2.22220
Magnitude (Debye)      :      5.64839

Rotational constants in cm-1:     0.010341     0.008818     0.005826
Rotational constants in MHz :   310.026544   264.355310   174.671320

                             ****ORCA TERMINATED NORMALLY****
TOTAL RUN TIME: 0 days 1 hours 41 minutes 53 seconds 584 msec
