                         Program Version 5.0.0 -  RELEASE  -
|  1> ! ri-mp2 cc-pvtz cc-pvtz/c TightSCF NoKeepInts
|  2>
|  3> %scf
|  4>   MaxCore 4096
|  5> end
|  6> *xyz  0  1
|  7>     C       15.2596611   14.4896705   16.8001852
|  8>     C       16.7390277   14.1552570   16.5189017
|  9>     O       17.3210584   15.1656858   15.6744544
| 10>     C       17.2211730   16.5220620   15.8568684
| 11>     O       16.9387119   17.2023246   14.8884569
| 12>     C       17.5638850   17.1251663   17.2023969
| 13>     C       17.2994368   18.4340475   17.4664925
| 14>     C       16.4831354   19.4017871   16.6362958
| 15>     N       17.8761734   19.0502286   18.5839888
| 16>     C       18.9623198   18.5438969   19.2507249
| 17>     S       19.8180714   19.4319446   20.3529632
| 18>     N       19.3173863   17.2590954   18.9234085
| 19>     C       18.4108200   16.3354486   18.2193179
| 20>     C       17.6050993   15.5979579   19.2922288
| 21>     C       18.1300481   14.4201861   19.8596897
| 22>     C       17.4285647   13.7294653   20.8618203
| 23>     C       16.1943054   14.2250055   21.3133972
| 24>     C       15.6753136   15.4059221   20.7673805
| 25>     O       14.4876478   15.8934477   21.2053681
| 26>     C       16.3742120   16.0898181   19.7680253
| 27>     H       15.1533275   15.4178997   17.3719996
| 28>     H       14.7900453   13.6838234   17.3770554
| 29>     H       14.7061355   14.6013387   15.8590854
| 30>     H       17.2966060   14.0186352   17.4440562
| 31>     H       16.7846093   13.1953918   15.9881056
| 32>     H       15.5594653   18.9281398   16.2803586
| 33>     H       17.0489160   19.7204234   15.7512103
| 34>     H       16.1934454   20.3003689   17.1935352
| 35>     H       17.6364528   20.0031775   18.8067142
| 36>     H       20.1181203   16.9014516   19.4276072
| 37>     H       19.0245442   15.6084882   17.6688892
| 38>     H       19.0907371   14.0389388   19.5233646
| 39>     H       17.8453824   12.8200092   21.2920638
| 40>     H       15.6508836   13.6983638   22.0912406
| 41>     H       14.1915433   15.3289187   21.9357522
| 42>     H       15.9507349   17.0082135   19.3805967
| 43> *
| 44>
| 45>                          ****END OF INPUT****

CARTESIAN COORDINATES (ANGSTROEM)
---------------------------------
  C     15.259661   14.489670   16.800185
  C     16.739028   14.155257   16.518902
  O     17.321058   15.165686   15.674454
  C     17.221173   16.522062   15.856868
  O     16.938712   17.202325   14.888457
  C     17.563885   17.125166   17.202397
  C     17.299437   18.434047   17.466493
  C     16.483135   19.401787   16.636296
  N     17.876173   19.050229   18.583989
  C     18.962320   18.543897   19.250725
  S     19.818071   19.431945   20.352963
  N     19.317386   17.259095   18.923409
  C     18.410820   16.335449   18.219318
  C     17.605099   15.597958   19.292229
  C     18.130048   14.420186   19.859690
  C     17.428565   13.729465   20.861820
  C     16.194305   14.225005   21.313397
  C     15.675314   15.405922   20.767380
  O     14.487648   15.893448   21.205368
  C     16.374212   16.089818   19.768025
  H     15.153327   15.417900   17.372000
  H     14.790045   13.683823   17.377055
  H     14.706135   14.601339   15.859085
  H     17.296606   14.018635   17.444056
  H     16.784609   13.195392   15.988106
  H     15.559465   18.928140   16.280359
  H     17.048916   19.720423   15.751210
  H     16.193445   20.300369   17.193535
  H     17.636453   20.003177   18.806714
  H     20.118120   16.901452   19.427607
  H     19.024544   15.608488   17.668889
  H     19.090737   14.038939   19.523365
  H     17.845382   12.820009   21.292064
  H     15.650884   13.698364   22.091241
  H     14.191543   15.328919   21.935752
  H     15.950735   17.008214   19.380597

 Total Charge           Charge          ....    0
 Multiplicity           Mult            ....    1
 Number of Electrons    NEL             ....  154
 Basis Dimension        Dim             ....  828

ORBITAL ENERGIES
----------------

  NO   OCC          E(Eh)            E(eV)
   0   2.0000     -91.892637     -2500.5258
   1   2.0000     -20.604819      -560.6856
   2   2.0000     -20.588797      -560.2497
   3   2.0000     -20.539604      -558.9110
   4   2.0000     -15.632873      -425.3921
   5   2.0000     -15.611432      -424.8087
   6   2.0000     -11.393686      -310.0380
   7   2.0000     -11.386377      -309.8391
   8   2.0000     -11.338418      -308.5340
   9   2.0000     -11.322315      -308.0958
  10   2.0000     -11.318770      -307.9994
  11   2.0000     -11.300205      -307.4942
  12   2.0000     -11.270253      -306.6792
  13   2.0000     -11.264507      -306.5228
  14   2.0000     -11.262128      -306.4581
  15   2.0000     -11.253277      -306.2172
  16   2.0000     -11.250175      -306.1328
  17   2.0000     -11.247103      -306.0492
  18   2.0000     -11.245993      -306.0190
  19   2.0000     -11.229490      -305.5700
  20   2.0000      -8.897580      -242.1155
  21   2.0000      -6.579130      -179.0272
  22   2.0000      -6.577156      -178.9735
  23   2.0000      -6.576547      -178.9569
  24   2.0000      -1.441346       -39.2210
  25   2.0000      -1.424362       -38.7589
  26   2.0000      -1.350525       -36.7497
  27   2.0000      -1.344716       -36.5916
  28   2.0000      -1.243026       -33.8244
  29   2.0000      -1.165114       -31.7044
  30   2.0000      -1.121887       -30.5281
  31   2.0000      -1.048576       -28.5332
  32   2.0000      -1.032960       -28.1083
  33   2.0000      -1.024283       -27.8721
  34   2.0000      -1.001694       -27.2575
  35   2.0000      -0.987344       -26.8670
  36   2.0000      -0.928088       -25.2546
  37   2.0000      -0.896192       -24.3866
  38   2.0000      -0.851003       -23.1570
  39   2.0000      -0.850426       -23.1413
  40   2.0000      -0.841691       -22.9036
  41   2.0000      -0.827215       -22.5097
  42   2.0000      -0.753561       -20.5054
  43   2.0000      -0.738384       -20.0925
  44   2.0000      -0.714003       -19.4290
  45   2.0000      -0.704182       -19.1618
  46   2.0000      -0.695713       -18.9313
  47   2.0000      -0.677433       -18.4339
  48   2.0000      -0.671933       -18.2842
  49   2.0000      -0.662076       -18.0160
  50   2.0000      -0.653961       -17.7952
  51   2.0000      -0.653118       -17.7722
  52   2.0000      -0.637932       -17.3590
  53   2.0000      -0.623675       -16.9711
  54   2.0000      -0.616056       -16.7637
  55   2.0000      -0.606509       -16.5040
  56   2.0000      -0.601864       -16.3776
  57   2.0000      -0.585284       -15.9264
  58   2.0000      -0.573835       -15.6149
  59   2.0000      -0.567160       -15.4332
  60   2.0000      -0.549763       -14.9598
  61   2.0000      -0.542857       -14.7719
  62   2.0000      -0.540788       -14.7156
  63   2.0000      -0.536480       -14.5984
  64   2.0000      -0.534453       -14.5432
  65   2.0000      -0.517478       -14.0813
  66   2.0000      -0.510811       -13.8999
  67   2.0000      -0.496586       -13.5128
  68   2.0000      -0.481820       -13.1110
  69   2.0000      -0.466049       -12.6818
  70   2.0000      -0.450756       -12.2657
  71   2.0000      -0.441610       -12.0168
  72   2.0000      -0.363759        -9.8984
  73   2.0000      -0.357470        -9.7273
  74   2.0000      -0.333366        -9.0713
  75   2.0000      -0.328012        -8.9257
  76   2.0000      -0.318541        -8.6679
  77   0.0000       0.071716         1.9515
  78   0.0000       0.102601         2.7919
  79   0.0000       0.117183         3.1887
  80   0.0000       0.121850         3.3157
  81   0.0000       0.129291         3.5182

MULLIKEN ATOMIC CHARGES
-----------------------
   0 C :   -0.309388
   1 C :    0.020237
   2 O :   -0.340310
   3 C :    0.466145
   4 O :   -0.389638
   5 C :   -0.241918
   6 C :    0.119760
   7 C :   -0.270635
   8 N :   -0.121190
   9 C :    0.215973
  10 S :   -0.434176
  11 N :   -0.202249
  12 C :    0.030920
  13 C :    0.083571
  14 C :   -0.234023
  15 C :   -0.125758
  16 C :   -0.277561
  17 C :    0.331080
  18 O :   -0.357110
  19 C :   -0.284828
  20 H :    0.097067
  21 H :    0.105586
  22 H :    0.122149
  23 H :    0.087727
  24 H :    0.124426
  25 H :    0.124947
  26 H :    0.143553
  27 H :    0.093348
  28 H :    0.199611
  29 H :    0.188355
  30 H :    0.162860
  31 H :    0.154492
  32 H :    0.162698
  33 H :    0.133038
  34 H :    0.243289
  35 H :    0.177949
Sum of atomic charges:    0.0000000

LOEWDIN ATOMIC CHARGES
----------------------
   0 C :    0.107145
   1 C :   -0.022696
   2 O :    0.295989
   3 C :   -0.423475
   4 O :    0.118491
   5 C :   -0.097340
   6 C :   -0.057405
   7 C :    0.128989
   8 N :    0.409883
   9 C :   -0.453093
  10 S :   -0.028973
  11 N :    0.395760
  12 C :   -0.053974
  13 C :   -0.037811
  14 C :    0.005371
  15 C :    0.043768
  16 C :   -0.000289
  17 C :   -0.187697
  18 O :    0.396661
  19 C :    0.031291
  20 H :   -0.033981
  21 H :   -0.022854
  22 H :   -0.022302
  23 H :   -0.045542
  24 H :   -0.019883
  25 H :   -0.006562
  26 H :   -0.001509
  27 H :   -0.023150
  28 H :   -0.056938
  29 H :   -0.068524
  30 H :   -0.004269
  31 H :   -0.031472
  32 H :   -0.018637
  33 H :   -0.034055
  34 H :   -0.151329
  35 H :   -0.029587

  Mayer bond orders larger than 0.100000
B(  0-C ,  1-C ) :   0.9652 B(  0-C , 20-H ) :   0.9718 B(  0-C , 21-H ) :   0.9755
B(  0-C , 22-H ) :   0.9749 B(  1-C ,  2-O ) :   0.9096 B(  1-C , 23-H ) :   0.9696
B(  1-C , 24-H ) :   0.9810 B(  2-O ,  3-C ) :   1.1496 B(  3-C ,  4-O ) :   2.0561
B(  3-C ,  5-C ) :   0.9993 B(  5-C ,  6-C ) :   1.6466 B(  5-C , 12-C ) :   0.9663
B(  6-C ,  7-C ) :   0.9815 B(  6-C ,  8-N ) :   1.1442 B(  7-C , 25-H ) :   0.9671
B(  7-C , 26-H ) :   0.9522 B(  7-C , 27-H ) :   0.9850 B(  8-N ,  9-C ) :   1.1842
B(  8-N , 28-H ) :   0.9493 B(  9-C , 10-S ) :   1.6180 B(  9-C , 11-N ) :   1.2918
B( 11-N , 12-C ) :   0.9505 B( 11-N , 29-H ) :   0.9544 B( 12-C , 13-C ) :   0.9645
B( 12-C , 30-H ) :   0.9954 B( 13-C , 14-C ) :   1.3312 B( 13-C , 19-C ) :   1.3663
B( 14-C , 15-C ) :   1.4064 B( 14-C , 31-H ) :   0.9749 B( 15-C , 16-C ) :   1.3632
B( 15-C , 32-H ) :   0.9696 B( 16-C , 17-C ) :   1.3356 B( 16-C , 33-H ) :   0.9837
B( 17-C , 18-O ) :   1.1176 B( 17-C , 19-C ) :   1.3588 B( 18-O , 34-H ) :   0.9784
B( 19-C , 35-H ) :   0.9481

MP2 TOTAL ENERGY:    -1274.331353658 Eh
FINAL SINGLE POINT ENERGY     -1274.331353658483

DIPOLE MOMENT
-------------
                                X             Y             Z
Electronic contribution:      9.22600       8.30417       4.13687
Nuclear contribution   :    -10.41900      -9.98863      -3.27086
                        -----------------------------------------
Total Dipole Moment    :     -1.19300      -1.68446       0.86601
                        -----------------------------------------
Magnitude (a.u.)       :      2.23844
Magnitude (Debye)      :      5.68967

Rotational constants in cm-1:     0.011052     0.010057     0.006804
Rotational constants in MHz :   331.327688   301.498259   203.969486

                             ****ORCA TERMINATED NORMALLY****
TOTAL RUN TIME: 0 days 2 hours 21 minutes 17 seconds 968 msec
