                         Program Version 4.2.0 -  RELEASE  -
|  1> ! ri-mp2 cc-pvtz cc-pvtz/c TightSCF  NoKeepInts
|  2>
|  3> %scf
|  4>   MaxCore 4096
|  5> end
|  6> *xyz  0  1
|  7>     C       14.2261267   14.9636949   15.1322480
|  8>     C       15.6411235   14.5846237   15.6003824
|  9>     O       16.2916602   15.7926855   16.0259018
| 10>     C       17.4307197   15.6951842   16.7697126
| 11>     O       18.0515748   14.6488333   16.8663538
| 12>     C       17.7305427   16.8949664   17.6234948
| 13>     C       17.1768513   18.1267572   17.4667878
| 14>     C       16.1681685   18.5753463   16.4288100
| 15>     N       17.5873745   19.1814525   18.2892964
| 16>     C       18.6359228   19.1278853   19.1691186
| 17>     S       19.1413110   20.4620397   20.0059292
| 18>     N       19.2450998   17.9082559   19.3189252
| 19>     C       18.7538066   16.6450256   18.7376625
| 20>     C       18.1722023   15.7474181   19.8270229
| 21>     C       18.6465513   14.4333824   19.9957888
| 22>     C       18.1137398   13.6017928   20.9950469
| 23>     C       17.0967994   14.0872745   21.8345227
| 24>     C       16.6187776   15.3940688   21.6676749
| 25>     O       15.6326262   15.8638479   22.4727964
| 26>     C       17.1507669   16.2192417   20.6719045
| 27>     H       13.6598708   15.4281565   15.9491225
| 28>     H       13.6801558   14.0724889   14.7995070
| 29>     H       14.2722668   15.6709601   14.2948714
| 30>     H       15.5672835   13.8747102   16.4359886
| 31>     H       16.2060722   14.1100104   14.7869485
| 32>     H       16.5041639   18.3096605   15.4187269
| 33>     H       16.0034784   19.6595651   16.4377503
| 34>     H       15.1971197   18.0939302   16.5996363
| 35>     H       17.1527502   20.0852914   18.1939939
| 36>     H       19.9950731   17.8870145   19.9978990
| 37>     H       19.6158346   16.1287178   18.2909481
| 38>     H       19.4210115   14.0496095   19.3361199
| 39>     H       18.4853951   12.5852863   21.1107007
| 40>     H       16.6811941   13.4478174   22.6060493
| 41>     H       15.4249411   15.1666876   23.1127712
| 42>     H       16.7686435   17.2283171   20.5635860
| 43> *
| 44>
| 45>                          ****END OF INPUT****

CARTESIAN COORDINATES (ANGSTROEM)
---------------------------------
  C     14.226127   14.963695   15.132248
  C     15.641123   14.584624   15.600382
  O     16.291660   15.792685   16.025902
  C     17.430720   15.695184   16.769713
  O     18.051575   14.648833   16.866354
  C     17.730543   16.894966   17.623495
  C     17.176851   18.126757   17.466788
  C     16.168169   18.575346   16.428810
  N     17.587374   19.181452   18.289296
  C     18.635923   19.127885   19.169119
  S     19.141311   20.462040   20.005929
  N     19.245100   17.908256   19.318925
  C     18.753807   16.645026   18.737662
  C     18.172202   15.747418   19.827023
  C     18.646551   14.433382   19.995789
  C     18.113740   13.601793   20.995047
  C     17.096799   14.087274   21.834523
  C     16.618778   15.394069   21.667675
  O     15.632626   15.863848   22.472796
  C     17.150767   16.219242   20.671905
  H     13.659871   15.428157   15.949122
  H     13.680156   14.072489   14.799507
  H     14.272267   15.670960   14.294871
  H     15.567283   13.874710   16.435989
  H     16.206072   14.110010   14.786948
  H     16.504164   18.309660   15.418727
  H     16.003478   19.659565   16.437750
  H     15.197120   18.093930   16.599636
  H     17.152750   20.085291   18.193994
  H     19.995073   17.887014   19.997899
  H     19.615835   16.128718   18.290948
  H     19.421011   14.049609   19.336120
  H     18.485395   12.585286   21.110701
  H     16.681194   13.447817   22.606049
  H     15.424941   15.166688   23.112771
  H     16.768643   17.228317   20.563586

 Total Charge           Charge          ....    0
 Multiplicity           Mult            ....    1
 Number of Electrons    NEL             ....  154
 Basis Dimension        Dim             ....  828

ORBITAL ENERGIES
----------------

  NO   OCC          E(Eh)            E(eV)
   0   2.0000     -91.888076     -2500.4017
   1   2.0000     -20.603642      -560.6536
   2   2.0000     -20.591410      -560.3207
   3   2.0000     -20.545759      -559.0785
   4   2.0000     -15.628532      -425.2740
   5   2.0000     -15.606628      -424.6779
   6   2.0000     -11.394939      -310.0720
   7   2.0000     -11.382921      -309.7450
   8   2.0000     -11.336645      -308.4858
   9   2.0000     -11.307161      -307.6835
  10   2.0000     -11.305376      -307.6349
  11   2.0000     -11.299570      -307.4769
  12   2.0000     -11.260663      -306.4182
  13   2.0000     -11.259064      -306.3747
  14   2.0000     -11.253089      -306.2121
  15   2.0000     -11.247246      -306.0531
  16   2.0000     -11.236930      -305.7724
  17   2.0000     -11.235582      -305.7357
  18   2.0000     -11.233092      -305.6680
  19   2.0000     -11.229988      -305.5835
  20   2.0000      -8.893139      -241.9946
  21   2.0000      -6.574715      -178.9071
  22   2.0000      -6.572709      -178.8525
  23   2.0000      -6.572123      -178.8366
  24   2.0000      -1.455711       -39.6119
  25   2.0000      -1.411144       -38.3992
  26   2.0000      -1.357208       -36.9315
  27   2.0000      -1.339406       -36.4471
  28   2.0000      -1.236950       -33.6591
  29   2.0000      -1.151820       -31.3426
  30   2.0000      -1.119481       -30.4626
  31   2.0000      -1.044956       -28.4347
  32   2.0000      -1.037044       -28.2194
  33   2.0000      -1.009182       -27.4612
  34   2.0000      -0.997665       -27.1479
  35   2.0000      -0.983321       -26.7575
  36   2.0000      -0.920928       -25.0597
  37   2.0000      -0.888826       -24.1862
  38   2.0000      -0.846972       -23.0473
  39   2.0000      -0.834703       -22.7134
  40   2.0000      -0.827467       -22.5165
  41   2.0000      -0.817751       -22.2521
  42   2.0000      -0.762212       -20.7408
  43   2.0000      -0.735870       -20.0240
  44   2.0000      -0.724582       -19.7169
  45   2.0000      -0.690651       -18.7936
  46   2.0000      -0.684045       -18.6138
  47   2.0000      -0.681788       -18.5524
  48   2.0000      -0.676026       -18.3956
  49   2.0000      -0.659676       -17.9507
  50   2.0000      -0.649463       -17.6728
  51   2.0000      -0.643506       -17.5107
  52   2.0000      -0.634922       -17.2771
  53   2.0000      -0.600763       -16.3476
  54   2.0000      -0.600042       -16.3280
  55   2.0000      -0.595436       -16.2026
  56   2.0000      -0.594166       -16.1681
  57   2.0000      -0.581166       -15.8143
  58   2.0000      -0.572874       -15.5887
  59   2.0000      -0.564740       -15.3674
  60   2.0000      -0.562112       -15.2959
  61   2.0000      -0.554881       -15.0991
  62   2.0000      -0.540306       -14.7025
  63   2.0000      -0.519145       -14.1267
  64   2.0000      -0.517123       -14.0716
  65   2.0000      -0.511501       -13.9187
  66   2.0000      -0.504915       -13.7394
  67   2.0000      -0.495487       -13.4829
  68   2.0000      -0.480791       -13.0830
  69   2.0000      -0.463754       -12.6194
  70   2.0000      -0.460324       -12.5260
  71   2.0000      -0.455694       -12.4001
  72   2.0000      -0.354257        -9.6398
  73   2.0000      -0.343713        -9.3529
  74   2.0000      -0.327180        -8.9030
  75   2.0000      -0.315532        -8.5861
  76   2.0000      -0.313454        -8.5295
  77   0.0000       0.075938         2.0664
  78   0.0000       0.113363         3.0848
  79   0.0000       0.120324         3.2742
  80   0.0000       0.135954         3.6995
  81   0.0000       0.138648         3.7728

MULLIKEN ATOMIC CHARGES
-----------------------
   0 C :   -0.276165
   1 C :    0.048205
   2 O :   -0.335496
   3 C :    0.428646
   4 O :   -0.426028
   5 C :   -0.167378
   6 C :    0.143789
   7 C :   -0.288154
   8 N :   -0.121815
   9 C :    0.201357
  10 S :   -0.439118
  11 N :   -0.197028
  12 C :    0.035620
  13 C :    0.058247
  14 C :   -0.160166
  15 C :   -0.134116
  16 C :   -0.279143
  17 C :    0.311409
  18 O :   -0.359279
  19 C :   -0.273217
  20 H :    0.095800
  21 H :    0.102482
  22 H :    0.095055
  23 H :    0.093293
  24 H :    0.096050
  25 H :    0.127297
  26 H :    0.104327
  27 H :    0.127296
  28 H :    0.196718
  29 H :    0.193561
  30 H :    0.153425
  31 H :    0.153173
  32 H :    0.159011
  33 H :    0.127926
  34 H :    0.240036
  35 H :    0.164381
Sum of atomic charges:   -0.0000000

LOEWDIN ATOMIC CHARGES
----------------------
   0 C :    0.106840
   1 C :   -0.017634
   2 O :    0.306618
   3 C :   -0.415183
   4 O :    0.104290
   5 C :   -0.091491
   6 C :   -0.065709
   7 C :    0.125006
   8 N :    0.404845
   9 C :   -0.458928
  10 S :   -0.035872
  11 N :    0.397892
  12 C :   -0.046473
  13 C :   -0.038780
  14 C :    0.022384
  15 C :    0.040885
  16 C :   -0.002434
  17 C :   -0.192740
  18 O :    0.392879
  19 C :    0.028220
  20 H :   -0.027679
  21 H :   -0.022674
  22 H :   -0.028220
  23 H :   -0.026384
  24 H :   -0.029015
  25 H :   -0.008585
  26 H :   -0.021000
  27 H :   -0.010108
  28 H :   -0.059202
  29 H :   -0.063650
  30 H :   -0.004932
  31 H :   -0.025265
  32 H :   -0.021245
  33 H :   -0.036463
  34 H :   -0.154955
  35 H :   -0.025235

  Mayer bond orders larger than 0.100000
B(  0-C ,  1-C ) :   0.9701 B(  0-C , 20-H ) :   0.9773 B(  0-C , 21-H ) :   0.9790
B(  0-C , 22-H ) :   0.9775 B(  1-C ,  2-O ) :   0.9058 B(  1-C , 23-H ) :   0.9742
B(  1-C , 24-H ) :   0.9805 B(  2-O ,  3-C ) :   1.1670 B(  3-C ,  4-O ) :   1.9868
B(  3-C ,  5-C ) :   1.0547 B(  5-C ,  6-C ) :   1.6452 B(  5-C , 12-C ) :   0.9665
B(  6-C ,  7-C ) :   0.9542 B(  6-C ,  8-N ) :   1.1473 B(  7-C , 25-H ) :   0.9655
B(  7-C , 26-H ) :   0.9921 B(  7-C , 27-H ) :   0.9634 B(  8-N ,  9-C ) :   1.1781
B(  8-N , 28-H ) :   0.9488 B(  9-C , 10-S ) :   1.6109 B(  9-C , 11-N ) :   1.3045
B( 11-N , 12-C ) :   0.9921 B( 11-N , 29-H ) :   0.9520 B( 12-C , 13-C ) :   0.9477
B( 12-C , 30-H ) :   0.9999 B( 13-C , 14-C ) :   1.3757 B( 13-C , 19-C ) :   1.3692
B( 14-C , 15-C ) :   1.3947 B( 14-C , 31-H ) :   0.9649 B( 15-C , 16-C ) :   1.3624
B( 15-C , 32-H ) :   0.9714 B( 16-C , 17-C ) :   1.3315 B( 16-C , 33-H ) :   0.9861
B( 17-C , 18-O ) :   1.1079 B( 17-C , 19-C ) :   1.3793 B( 18-O , 34-H ) :   0.9806
B( 19-C , 35-H ) :   0.9586

MP2 TOTAL ENERGY:    -1274.348320954 Eh
FINAL SINGLE POINT ENERGY     -1274.348320953889

DIPOLE MOMENT
-------------
                                X             Y             Z
Electronic contribution:     12.01316       8.66865      10.85078
Nuclear contribution   :    -13.51870      -9.99510     -11.80533
                        -----------------------------------------
Total Dipole Moment    :     -1.50554      -1.32645      -0.95454
                        -----------------------------------------
Magnitude (a.u.)       :      2.22200
Magnitude (Debye)      :      5.64788

Rotational constants in cm-1:     0.010304     0.008905     0.005902
Rotational constants in MHz :   308.899314   266.976758   176.940861

                             ****ORCA TERMINATED NORMALLY****
TOTAL RUN TIME: 0 days 1 hours 34 minutes 15 seconds 32 msec
