                         Program Version 4.2.0 -  RELEASE  -
|  1> ! ri-mp2 cc-pvtz cc-pvtz/c TightSCF  NoKeepInts
|  2>
|  3> %scf
|  4>   MaxCore 4096
|  5> end
|  6> *xyz  0  1
|  7>     C       15.0183777   14.0209421   15.0701243
|  8>     C       15.2613686   14.7745480   16.3886643
|  9>     O       16.2612465   15.7783320   16.1377964
| 10>     C       17.4747072   15.6677402   16.7517133
| 11>     O       17.9846337   14.5799394   16.9645083
| 12>     C       17.8425987   16.8822900   17.5519605
| 13>     C       17.4470627   18.1462316   17.2522746
| 14>     C       16.6079029   18.5998850   16.0755363
| 15>     N       17.8892433   19.2167021   18.0361535
| 16>     C       18.8296763   19.1245193   19.0282728
| 17>     S       19.3874926   20.4610552   19.8270116
| 18>     N       19.2852310   17.8646133   19.3245165
| 19>     C       18.7307018   16.6144241   18.7715609
| 20>     C       17.9628172   15.8489275   19.8461442
| 21>     C       18.2861240   14.5105572   20.1363387
| 22>     C       17.5778469   13.7990758   21.1192007
| 23>     C       16.5357725   14.4304259   21.8192666
| 24>     C       16.2077079   15.7619991   21.5306407
| 25>     O       15.1971144   16.3722703   22.1996114
| 26>     C       16.9139515   16.4672799   20.5512261
| 27>     H       15.9364819   13.5168132   14.7423516
| 28>     H       14.7005786   14.7121655   14.2798236
| 29>     H       14.2380567   13.2611657   15.1988558
| 30>     H       14.3291225   15.2570706   16.7090415
| 31>     H       15.5702353   14.0741565   17.1775202
| 32>     H       16.9376815   18.1136766   15.1488217
| 33>     H       16.6682357   19.6820332   15.9073874
| 34>     H       15.5523335   18.3449241   16.2317434
| 35>     H       17.5673975   20.1496644   17.8333701
| 36>     H       19.9556567   17.8211496   20.0812397
| 37>     H       19.5752431   15.9922764   18.4414914
| 38>     H       19.0799396   14.0143781   19.5831384
| 39>     H       17.8345789   12.7624197   21.3298019
| 40>     H       15.9851940   13.8840669   22.5777814
| 41>     H       14.8689447   15.7462800   22.8624449
| 42>     H       16.6457425   17.4980013   20.3466650
| 43> *
| 44>
| 45>                          ****END OF INPUT****

CARTESIAN COORDINATES (ANGSTROEM)
---------------------------------
  C     15.018378   14.020942   15.070124
  C     15.261369   14.774548   16.388664
  O     16.261246   15.778332   16.137796
  C     17.474707   15.667740   16.751713
  O     17.984634   14.579939   16.964508
  C     17.842599   16.882290   17.551960
  C     17.447063   18.146232   17.252275
  C     16.607903   18.599885   16.075536
  N     17.889243   19.216702   18.036153
  C     18.829676   19.124519   19.028273
  S     19.387493   20.461055   19.827012
  N     19.285231   17.864613   19.324517
  C     18.730702   16.614424   18.771561
  C     17.962817   15.848928   19.846144
  C     18.286124   14.510557   20.136339
  C     17.577847   13.799076   21.119201
  C     16.535773   14.430426   21.819267
  C     16.207708   15.761999   21.530641
  O     15.197114   16.372270   22.199611
  C     16.913951   16.467280   20.551226
  H     15.936482   13.516813   14.742352
  H     14.700579   14.712165   14.279824
  H     14.238057   13.261166   15.198856
  H     14.329122   15.257071   16.709042
  H     15.570235   14.074156   17.177520
  H     16.937682   18.113677   15.148822
  H     16.668236   19.682033   15.907387
  H     15.552333   18.344924   16.231743
  H     17.567397   20.149664   17.833370
  H     19.955657   17.821150   20.081240
  H     19.575243   15.992276   18.441491
  H     19.079940   14.014378   19.583138
  H     17.834579   12.762420   21.329802
  H     15.985194   13.884067   22.577781
  H     14.868945   15.746280   22.862445
  H     16.645743   17.498001   20.346665

 Total Charge           Charge          ....    0
 Multiplicity           Mult            ....    1
 Number of Electrons    NEL             ....  154
 Basis Dimension        Dim             ....  828

ORBITAL ENERGIES
----------------

  NO   OCC          E(Eh)            E(eV)
   0   2.0000     -91.888361     -2500.4094
   1   2.0000     -20.593547      -560.3789
   2   2.0000     -20.593321      -560.3727
   3   2.0000     -20.551253      -559.2280
   4   2.0000     -15.628321      -425.2682
   5   2.0000     -15.607425      -424.6996
   6   2.0000     -11.396041      -310.1020
   7   2.0000     -11.383545      -309.7620
   8   2.0000     -11.334585      -308.4297
   9   2.0000     -11.309573      -307.7491
  10   2.0000     -11.307110      -307.6821
  11   2.0000     -11.299473      -307.4743
  12   2.0000     -11.260152      -306.4043
  13   2.0000     -11.259506      -306.3867
  14   2.0000     -11.255412      -306.2753
  15   2.0000     -11.249785      -306.1222
  16   2.0000     -11.239375      -305.8389
  17   2.0000     -11.235394      -305.7306
  18   2.0000     -11.232550      -305.6532
  19   2.0000     -11.226181      -305.4799
  20   2.0000      -8.893429      -242.0025
  21   2.0000      -6.575007      -178.9150
  22   2.0000      -6.572999      -178.8604
  23   2.0000      -6.572414      -178.8445
  24   2.0000      -1.453591       -39.5542
  25   2.0000      -1.413291       -38.4576
  26   2.0000      -1.357394       -36.9366
  27   2.0000      -1.339355       -36.4457
  28   2.0000      -1.237307       -33.6688
  29   2.0000      -1.153962       -31.4009
  30   2.0000      -1.120399       -30.4876
  31   2.0000      -1.043440       -28.3934
  32   2.0000      -1.034697       -28.1555
  33   2.0000      -1.011367       -27.5207
  34   2.0000      -0.998068       -27.1588
  35   2.0000      -0.983416       -26.7601
  36   2.0000      -0.922114       -25.0920
  37   2.0000      -0.885925       -24.1073
  38   2.0000      -0.847974       -23.0746
  39   2.0000      -0.836964       -22.7749
  40   2.0000      -0.829891       -22.5825
  41   2.0000      -0.822400       -22.3787
  42   2.0000      -0.756959       -20.5979
  43   2.0000      -0.735330       -20.0094
  44   2.0000      -0.726529       -19.7699
  45   2.0000      -0.692078       -18.8324
  46   2.0000      -0.685805       -18.6617
  47   2.0000      -0.680583       -18.5196
  48   2.0000      -0.672572       -18.3016
  49   2.0000      -0.658406       -17.9161
  50   2.0000      -0.646663       -17.5966
  51   2.0000      -0.641220       -17.4485
  52   2.0000      -0.629275       -17.1234
  53   2.0000      -0.614771       -16.7288
  54   2.0000      -0.601765       -16.3749
  55   2.0000      -0.601390       -16.3647
  56   2.0000      -0.596817       -16.2402
  57   2.0000      -0.582556       -15.8521
  58   2.0000      -0.574749       -15.6397
  59   2.0000      -0.564881       -15.3712
  60   2.0000      -0.561799       -15.2873
  61   2.0000      -0.547495       -14.8981
  62   2.0000      -0.533923       -14.5288
  63   2.0000      -0.520862       -14.1734
  64   2.0000      -0.518813       -14.1176
  65   2.0000      -0.510811       -13.8999
  66   2.0000      -0.501961       -13.6591
  67   2.0000      -0.496598       -13.5131
  68   2.0000      -0.481411       -13.0999
  69   2.0000      -0.463102       -12.6016
  70   2.0000      -0.458302       -12.4710
  71   2.0000      -0.453406       -12.3378
  72   2.0000      -0.353956        -9.6316
  73   2.0000      -0.345751        -9.4084
  74   2.0000      -0.327571        -8.9137
  75   2.0000      -0.316827        -8.6213
  76   2.0000      -0.315102        -8.5744
  77   0.0000       0.073599         2.0027
  78   0.0000       0.109367         2.9760
  79   0.0000       0.120477         3.2783
  80   0.0000       0.134465         3.6590
  81   0.0000       0.138642         3.7726

MULLIKEN ATOMIC CHARGES
-----------------------
   0 C :   -0.266679
   1 C :    0.043426
   2 O :   -0.363366
   3 C :    0.437779
   4 O :   -0.413050
   5 C :   -0.173474
   6 C :    0.141830
   7 C :   -0.282481
   8 N :   -0.124078
   9 C :    0.202278
  10 S :   -0.439645
  11 N :   -0.199265
  12 C :    0.045135
  13 C :    0.052478
  14 C :   -0.165184
  15 C :   -0.134020
  16 C :   -0.279949
  17 C :    0.311563
  18 O :   -0.358689
  19 C :   -0.273649
  20 H :    0.105934
  21 H :    0.090491
  22 H :    0.088747
  23 H :    0.095875
  24 H :    0.107796
  25 H :    0.125244
  26 H :    0.102974
  27 H :    0.126101
  28 H :    0.197077
  29 H :    0.193984
  30 H :    0.154242
  31 H :    0.155159
  32 H :    0.160167
  33 H :    0.129066
  34 H :    0.240340
  35 H :    0.165845
Sum of atomic charges:   -0.0000000

LOEWDIN ATOMIC CHARGES
----------------------
   0 C :    0.104781
   1 C :   -0.013386
   2 O :    0.299600
   3 C :   -0.415592
   4 O :    0.114776
   5 C :   -0.092363
   6 C :   -0.070090
   7 C :    0.125546
   8 N :    0.404428
   9 C :   -0.458192
  10 S :   -0.036285
  11 N :    0.397386
  12 C :   -0.045819
  13 C :   -0.039576
  14 C :    0.021213
  15 C :    0.040549
  16 C :   -0.002346
  17 C :   -0.192947
  18 O :    0.393174
  19 C :    0.028324
  20 H :   -0.023267
  21 H :   -0.029434
  22 H :   -0.027858
  23 H :   -0.030161
  24 H :   -0.025375
  25 H :   -0.008231
  26 H :   -0.020199
  27 H :   -0.009754
  28 H :   -0.058885
  29 H :   -0.063893
  30 H :   -0.004812
  31 H :   -0.025053
  32 H :   -0.020908
  33 H :   -0.036124
  34 H :   -0.154590
  35 H :   -0.024636

  Mayer bond orders larger than 0.100000
B(  0-C ,  1-C ) :   0.9750 B(  0-C , 20-H ) :   0.9771 B(  0-C , 21-H ) :   0.9787
B(  0-C , 22-H ) :   0.9760 B(  1-C ,  2-O ) :   0.8873 B(  1-C , 23-H ) :   0.9810
B(  1-C , 24-H ) :   0.9711 B(  2-O ,  3-C ) :   1.1057 B(  3-C ,  4-O ) :   1.9996
B(  3-C ,  5-C ) :   1.0452 B(  5-C ,  6-C ) :   1.6594 B(  5-C , 12-C ) :   0.9652
B(  6-C ,  7-C ) :   0.9528 B(  6-C ,  8-N ) :   1.1406 B(  7-C , 25-H ) :   0.9687
B(  7-C , 26-H ) :   0.9896 B(  7-C , 27-H ) :   0.9635 B(  8-N ,  9-C ) :   1.1821
B(  8-N , 28-H ) :   0.9494 B(  9-C , 10-S ) :   1.6105 B(  9-C , 11-N ) :   1.3018
B( 11-N , 12-C ) :   0.9914 B( 11-N , 29-H ) :   0.9517 B( 12-C , 13-C ) :   0.9460
B( 12-C , 30-H ) :   0.9987 B( 13-C , 14-C ) :   1.3762 B( 13-C , 19-C ) :   1.3694
B( 14-C , 15-C ) :   1.3943 B( 14-C , 31-H ) :   0.9643 B( 15-C , 16-C ) :   1.3630
B( 15-C , 32-H ) :   0.9711 B( 16-C , 17-C ) :   1.3311 B( 16-C , 33-H ) :   0.9856
B( 17-C , 18-O ) :   1.1086 B( 17-C , 19-C ) :   1.3774 B( 18-O , 34-H ) :   0.9803
B( 19-C , 35-H ) :   0.9582

MP2 TOTAL ENERGY:    -1274.334264274 Eh
FINAL SINGLE POINT ENERGY     -1274.334264273911

DIPOLE MOMENT
-------------
                                X             Y             Z
Electronic contribution:     10.95088      10.30241      10.13938
Nuclear contribution   :    -12.49291     -11.53012     -10.80216
                        -----------------------------------------
Total Dipole Moment    :     -1.54204      -1.22771      -0.66278
                        -----------------------------------------
Magnitude (a.u.)       :      2.07953
Magnitude (Debye)      :      5.28574

Rotational constants in cm-1:     0.010830     0.008996     0.006009
Rotational constants in MHz :   324.673769   269.701019   180.140809

                             ****ORCA TERMINATED NORMALLY****
TOTAL RUN TIME: 0 days 1 hours 38 minutes 45 seconds 905 msec
