                         Program Version 4.2.0 -  RELEASE  -
|  1> ! ri-mp2 cc-pvtz cc-pvtz/c TightSCF  NoKeepInts
|  2>
|  3> %scf
|  4>   MaxCore 4096
|  5> end
|  6> *xyz  0  1
|  7>     C       14.6657281   14.4259895   17.0341445
|  8>     C       15.5617003   15.6383793   16.7352539
|  9>     O       16.8219205   15.1192134   16.2654852
| 10>     C       18.0552254   15.6426359   16.5689074
| 11>     O       19.0401512   14.9307008   16.5034934
| 12>     C       18.0692135   16.8849292   17.3987676
| 13>     C       17.5675464   18.0644957   16.9656488
| 14>     C       16.9657184   18.3556237   15.6079407
| 15>     N       17.6492272   19.1952900   17.7809581
| 16>     C       18.2935582   19.2394204   18.9903962
| 17>     S       18.3877383   20.6349346   19.8720647
| 18>     N       18.8511300   18.0659138   19.4369429
| 19>     C       18.7329877   16.7547336   18.7678748
| 20>     C       17.9665388   15.7535709   19.6272101
| 21>     C       18.4211605   14.4270782   19.7404921
| 22>     C       17.7020963   13.4851383   20.4947810
| 23>     C       16.5142694   13.8704511   21.1389277
| 24>     C       16.0539482   15.1887386   21.0230258
| 25>     O       14.8988576   15.5606083   21.6295603
| 26>     C       16.7723398   16.1250147   20.2727826
| 27>     H       15.1221908   13.7936333   17.8067170
| 28>     H       14.5207837   13.8188226   16.1318282
| 29>     H       13.6821180   14.7509735   17.3942129
| 30>     H       15.0960125   16.2761813   15.9738665
| 31>     H       15.6691780   16.2086890   17.6659512
| 32>     H       17.0870288   17.5183246   14.9095465
| 33>     H       17.4532713   19.2227674   15.1441153
| 34>     H       15.8943417   18.5760424   15.6886740
| 35>     H       17.2601112   20.0703316   17.4659637
| 36>     H       19.3011242   18.1242149   20.3418914
| 37>     H       19.7499295   16.3654434   18.6107557
| 38>     H       19.3274010   14.1196602   19.2226631
| 39>     H       18.0623623   12.4603873   20.5687517
| 40>     H       15.9536013   13.1441614   21.7180739
| 41>     H       14.5825940   14.8008193   22.1417388
| 42>     H       16.3938958   17.1386878   20.1945921
| 43> *
| 44>
| 45>                          ****END OF INPUT****

CARTESIAN COORDINATES (ANGSTROEM)
---------------------------------
  C     14.665728   14.425989   17.034145
  C     15.561700   15.638379   16.735254
  O     16.821921   15.119213   16.265485
  C     18.055225   15.642636   16.568907
  O     19.040151   14.930701   16.503493
  C     18.069214   16.884929   17.398768
  C     17.567546   18.064496   16.965649
  C     16.965718   18.355624   15.607941
  N     17.649227   19.195290   17.780958
  C     18.293558   19.239420   18.990396
  S     18.387738   20.634935   19.872065
  N     18.851130   18.065914   19.436943
  C     18.732988   16.754734   18.767875
  C     17.966539   15.753571   19.627210
  C     18.421160   14.427078   19.740492
  C     17.702096   13.485138   20.494781
  C     16.514269   13.870451   21.138928
  C     16.053948   15.188739   21.023026
  O     14.898858   15.560608   21.629560
  C     16.772340   16.125015   20.272783
  H     15.122191   13.793633   17.806717
  H     14.520784   13.818823   16.131828
  H     13.682118   14.750974   17.394213
  H     15.096012   16.276181   15.973866
  H     15.669178   16.208689   17.665951
  H     17.087029   17.518325   14.909546
  H     17.453271   19.222767   15.144115
  H     15.894342   18.576042   15.688674
  H     17.260111   20.070332   17.465964
  H     19.301124   18.124215   20.341891
  H     19.749929   16.365443   18.610756
  H     19.327401   14.119660   19.222663
  H     18.062362   12.460387   20.568752
  H     15.953601   13.144161   21.718074
  H     14.582594   14.800819   22.141739
  H     16.393896   17.138688   20.194592

 Total Charge           Charge          ....    0
 Multiplicity           Mult            ....    1
 Number of Electrons    NEL             ....  154
 Basis Dimension        Dim             ....  828

ORBITAL ENERGIES
----------------

  NO   OCC          E(Eh)            E(eV)
   0   2.0000     -91.890589     -2500.4700
   1   2.0000     -20.601743      -560.6019
   2   2.0000     -20.600375      -560.5647
   3   2.0000     -20.548607      -559.1560
   4   2.0000     -15.627867      -425.2559
   5   2.0000     -15.612095      -424.8267
   6   2.0000     -11.397528      -310.1425
   7   2.0000     -11.387403      -309.8670
   8   2.0000     -11.330358      -308.3147
   9   2.0000     -11.317224      -307.9573
  10   2.0000     -11.314907      -307.8943
  11   2.0000     -11.303401      -307.5812
  12   2.0000     -11.269908      -306.6698
  13   2.0000     -11.264733      -306.5290
  14   2.0000     -11.263894      -306.5061
  15   2.0000     -11.256964      -306.3176
  16   2.0000     -11.246334      -306.0283
  17   2.0000     -11.242860      -305.9338
  18   2.0000     -11.239400      -305.8396
  19   2.0000     -11.229884      -305.5807
  20   2.0000      -8.895700      -242.0643
  21   2.0000      -6.577286      -178.9771
  22   2.0000      -6.575262      -178.9220
  23   2.0000      -6.574685      -178.9063
  24   2.0000      -1.447677       -39.3933
  25   2.0000      -1.420176       -38.6450
  26   2.0000      -1.359078       -36.9824
  27   2.0000      -1.340940       -36.4888
  28   2.0000      -1.240541       -33.7568
  29   2.0000      -1.161866       -31.6160
  30   2.0000      -1.126130       -30.6435
  31   2.0000      -1.049510       -28.5586
  32   2.0000      -1.039240       -28.2792
  33   2.0000      -1.019288       -27.7362
  34   2.0000      -1.005711       -27.3668
  35   2.0000      -0.989905       -26.9367
  36   2.0000      -0.928370       -25.2622
  37   2.0000      -0.881186       -23.9783
  38   2.0000      -0.856106       -23.2958
  39   2.0000      -0.842401       -22.9229
  40   2.0000      -0.837379       -22.7863
  41   2.0000      -0.836809       -22.7707
  42   2.0000      -0.756086       -20.5741
  43   2.0000      -0.740713       -20.1558
  44   2.0000      -0.731749       -19.9119
  45   2.0000      -0.698527       -19.0079
  46   2.0000      -0.688819       -18.7437
  47   2.0000      -0.681331       -18.5400
  48   2.0000      -0.677555       -18.4372
  49   2.0000      -0.659808       -17.9543
  50   2.0000      -0.658938       -17.9306
  51   2.0000      -0.649829       -17.6827
  52   2.0000      -0.640533       -17.4298
  53   2.0000      -0.612206       -16.6590
  54   2.0000      -0.608549       -16.5595
  55   2.0000      -0.604267       -16.4429
  56   2.0000      -0.597300       -16.2534
  57   2.0000      -0.582948       -15.8628
  58   2.0000      -0.578606       -15.7447
  59   2.0000      -0.571151       -15.5418
  60   2.0000      -0.562390       -15.3034
  61   2.0000      -0.559034       -15.2121
  62   2.0000      -0.550059       -14.9679
  63   2.0000      -0.528037       -14.3686
  64   2.0000      -0.518127       -14.0990
  65   2.0000      -0.515884       -14.0379
  66   2.0000      -0.503211       -13.6931
  67   2.0000      -0.502053       -13.6615
  68   2.0000      -0.489273       -13.3138
  69   2.0000      -0.472003       -12.8439
  70   2.0000      -0.452929       -12.3248
  71   2.0000      -0.450633       -12.2623
  72   2.0000      -0.357092        -9.7170
  73   2.0000      -0.352463        -9.5910
  74   2.0000      -0.330221        -8.9858
  75   2.0000      -0.324809        -8.8385
  76   2.0000      -0.318974        -8.6797
  77   0.0000       0.083602         2.2749
  78   0.0000       0.103597         2.8190
  79   0.0000       0.113562         3.0902
  80   0.0000       0.127350         3.4654
  81   0.0000       0.133913         3.6440

MULLIKEN ATOMIC CHARGES
-----------------------
   0 C :   -0.256415
   1 C :    0.004632
   2 O :   -0.308260
   3 C :    0.399326
   4 O :   -0.385001
   5 C :   -0.197468
   6 C :    0.144980
   7 C :   -0.330525
   8 N :   -0.135922
   9 C :    0.203096
  10 S :   -0.439989
  11 N :   -0.213723
  12 C :    0.075447
  13 C :    0.033970
  14 C :   -0.194034
  15 C :   -0.129192
  16 C :   -0.278951
  17 C :    0.321761
  18 O :   -0.358503
  19 C :   -0.298378
  20 H :    0.108541
  21 H :    0.104111
  22 H :    0.088322
  23 H :    0.099052
  24 H :    0.106110
  25 H :    0.129776
  26 H :    0.139363
  27 H :    0.122273
  28 H :    0.196573
  29 H :    0.198355
  30 H :    0.164035
  31 H :    0.167647
  32 H :    0.164133
  33 H :    0.132713
  34 H :    0.241962
  35 H :    0.180181
Sum of atomic charges:    0.0000000

LOEWDIN ATOMIC CHARGES
----------------------
   0 C :    0.111590
   1 C :   -0.023452
   2 O :    0.309498
   3 C :   -0.416971
   4 O :    0.121792
   5 C :   -0.084031
   6 C :   -0.099918
   7 C :    0.124651
   8 N :    0.401623
   9 C :   -0.456082
  10 S :   -0.036997
  11 N :    0.397168
  12 C :   -0.044478
  13 C :   -0.043388
  14 C :    0.023697
  15 C :    0.045820
  16 C :   -0.000000
  17 C :   -0.193806
  18 O :    0.394624
  19 C :    0.026467
  20 H :   -0.021810
  21 H :   -0.025947
  22 H :   -0.025557
  23 H :   -0.037018
  24 H :   -0.036924
  25 H :   -0.007603
  26 H :   -0.009811
  27 H :   -0.017202
  28 H :   -0.057604
  29 H :   -0.063563
  30 H :   -0.002337
  31 H :   -0.021613
  32 H :   -0.018357
  33 H :   -0.034636
  34 H :   -0.152804
  35 H :   -0.025018

  Mayer bond orders larger than 0.100000
B(  0-C ,  1-C ) :   0.9847 B(  0-C , 20-H ) :   0.9755 B(  0-C , 21-H ) :   0.9801
B(  0-C , 22-H ) :   0.9767 B(  1-C ,  2-O ) :   0.9082 B(  1-C , 23-H ) :   0.9746
B(  1-C , 24-H ) :   0.9580 B(  2-O ,  3-C ) :   1.1941 B(  3-C ,  4-O ) :   2.0890
B(  3-C ,  5-C ) :   0.9247 B(  5-C ,  6-C ) :   1.6836 B(  5-C , 12-C ) :   0.9592
B(  6-C ,  7-C ) :   0.9411 B(  6-C ,  8-N ) :   1.1199 B(  7-C , 25-H ) :   0.9805
B(  7-C , 26-H ) :   0.9700 B(  7-C , 27-H ) :   0.9661 B(  8-N ,  9-C ) :   1.1936
B(  8-N , 28-H ) :   0.9521 B(  9-C , 10-S ) :   1.6125 B(  9-C , 11-N ) :   1.2883
B( 11-N , 12-C ) :   0.9981 B( 11-N , 29-H ) :   0.9492 B( 12-C , 13-C ) :   0.9417
B( 12-C , 30-H ) :   0.9972 B( 13-C , 14-C ) :   1.3886 B( 13-C , 19-C ) :   1.3404
B( 14-C , 15-C ) :   1.3963 B( 14-C , 31-H ) :   0.9609 B( 15-C , 16-C ) :   1.3628
B( 15-C , 32-H ) :   0.9699 B( 16-C , 17-C ) :   1.3295 B( 16-C , 33-H ) :   0.9844
B( 17-C , 18-O ) :   1.1091 B( 17-C , 19-C ) :   1.3663 B( 18-O , 34-H ) :   0.9791
B( 19-C , 35-H ) :   0.9559

MP2 TOTAL ENERGY:    -1274.334787387 Eh
FINAL SINGLE POINT ENERGY     -1274.334787387000

DIPOLE MOMENT
-------------
                                X             Y             Z
Electronic contribution:     10.53625       8.22169       6.44549
Nuclear contribution   :    -12.05376      -9.17400      -6.86190
                        -----------------------------------------
Total Dipole Moment    :     -1.51751      -0.95231      -0.41641
                        -----------------------------------------
Magnitude (a.u.)       :      1.83933
Magnitude (Debye)      :      4.67520

Rotational constants in cm-1:     0.012300     0.009045     0.006865
Rotational constants in MHz :   368.754346   271.168038   205.799778

                             ****ORCA TERMINATED NORMALLY****
TOTAL RUN TIME: 0 days 1 hours 47 minutes 57 seconds 901 msec
