                         Program Version 5.0.0 -  RELEASE  -
|  1> ! ri-mp2 cc-pvtz cc-pvtz/c TightSCF NoKeepInts
|  2>
|  3> %scf
|  4>   MaxCore 4096
|  5> end
|  6> *xyz  0  1
|  7>     C       14.7719322   14.0544112   16.0081611
|  8>     C       15.5081576   15.0928289   16.8701747
|  9>     O       16.5305575   15.6866721   16.0510604
| 10>     C       17.7916207   15.7187563   16.5641352
| 11>     O       18.3946270   14.6796882   16.7698783
| 12>     C       18.0076864   16.9259676   17.4241599
| 13>     C       17.5451602   18.1605295   17.1078002
| 14>     C       16.7902404   18.5616065   15.8579404
| 15>     N       17.8199149   19.2424150   17.9493649
| 16>     C       18.6489494   19.1925578   19.0396890
| 17>     S       19.0063492   20.5438262   19.9235339
| 18>     N       19.1659890   17.9623451   19.3624037
| 19>     C       18.7866939   16.6891021   18.7201169
| 20>     C       17.9715752   15.8244247   19.6779354
| 21>     C       18.3611638   14.5004238   19.9509597
| 22>     C       17.5996104   13.6926190   20.8118753
| 23>     C       16.4362702   14.2117368   21.4049435
| 24>     C       16.0422073   15.5285228   21.1323557
| 25>     O       14.9127137   16.0293170   21.6927715
| 26>     C       16.8016908   16.3298745   20.2743101
| 27>     H       15.4680319   13.2777419   15.6664326
| 28>     H       14.3226846   14.5291920   15.1271946
| 29>     H       13.9743179   13.5705884   16.5847189
| 30>     H       14.8090113   15.8624449   17.2217274
| 31>     H       15.9407096   14.5915492   17.7483430
| 32>     H       17.1904534   18.0487391   14.9742132
| 33>     H       16.8550917   19.6382533   15.6583468
| 34>     H       15.7287236   18.2986572   15.9442988
| 35>     H       17.4519385   20.1540934   17.7281136
| 36>     H       19.7515505   17.9497739   20.1877459
| 37>     H       19.7113998   16.1510698   18.4653056
| 38>     H       19.2488305   14.0893777   19.4757899
| 39>     H       17.9091664   12.6677874   21.0096557
| 40>     H       15.8439229   13.5898916   22.0680343
| 41>     H       14.5686631   15.3583294   22.3017626
| 42>     H       16.4793945   17.3468856   20.0787472
| 43> *
| 44>
| 45>                          ****END OF INPUT****

CARTESIAN COORDINATES (ANGSTROEM)
---------------------------------
  C     14.771932   14.054411   16.008161
  C     15.508158   15.092829   16.870175
  O     16.530558   15.686672   16.051060
  C     17.791621   15.718756   16.564135
  O     18.394627   14.679688   16.769878
  C     18.007686   16.925968   17.424160
  C     17.545160   18.160529   17.107800
  C     16.790240   18.561606   15.857940
  N     17.819915   19.242415   17.949365
  C     18.648949   19.192558   19.039689
  S     19.006349   20.543826   19.923534
  N     19.165989   17.962345   19.362404
  C     18.786694   16.689102   18.720117
  C     17.971575   15.824425   19.677935
  C     18.361164   14.500424   19.950960
  C     17.599610   13.692619   20.811875
  C     16.436270   14.211737   21.404944
  C     16.042207   15.528523   21.132356
  O     14.912714   16.029317   21.692771
  C     16.801691   16.329874   20.274310
  H     15.468032   13.277742   15.666433
  H     14.322685   14.529192   15.127195
  H     13.974318   13.570588   16.584719
  H     14.809011   15.862445   17.221727
  H     15.940710   14.591549   17.748343
  H     17.190453   18.048739   14.974213
  H     16.855092   19.638253   15.658347
  H     15.728724   18.298657   15.944299
  H     17.451939   20.154093   17.728114
  H     19.751550   17.949774   20.187746
  H     19.711400   16.151070   18.465306
  H     19.248830   14.089378   19.475790
  H     17.909166   12.667787   21.009656
  H     15.843923   13.589892   22.068034
  H     14.568663   15.358329   22.301763
  H     16.479395   17.346886   20.078747

 Total Charge           Charge          ....    0
 Multiplicity           Mult            ....    1
 Number of Electrons    NEL             ....  154
 Basis Dimension        Dim             ....  828

ORBITAL ENERGIES
----------------

  NO   OCC          E(Eh)            E(eV)
   0   2.0000     -91.889701     -2500.4459
   1   2.0000     -20.597392      -560.4835
   2   2.0000     -20.580674      -560.0286
   3   2.0000     -20.557476      -559.3974
   4   2.0000     -15.629319      -425.2954
   5   2.0000     -15.609264      -424.7497
   6   2.0000     -11.394276      -310.0540
   7   2.0000     -11.385281      -309.8092
   8   2.0000     -11.333863      -308.4101
   9   2.0000     -11.313705      -307.8616
  10   2.0000     -11.309708      -307.7528
  11   2.0000     -11.299077      -307.4635
  12   2.0000     -11.261649      -306.4451
  13   2.0000     -11.259800      -306.3947
  14   2.0000     -11.259086      -306.3753
  15   2.0000     -11.253908      -306.2344
  16   2.0000     -11.243610      -305.9542
  17   2.0000     -11.239216      -305.8346
  18   2.0000     -11.236588      -305.7631
  19   2.0000     -11.225576      -305.4635
  20   2.0000      -8.894772      -242.0391
  21   2.0000      -6.576349      -178.9516
  22   2.0000      -6.574340      -178.8969
  23   2.0000      -6.573755      -178.8810
  24   2.0000      -1.452771       -39.5319
  25   2.0000      -1.417189       -38.5637
  26   2.0000      -1.356996       -36.9257
  27   2.0000      -1.340404       -36.4743
  28   2.0000      -1.238729       -33.7075
  29   2.0000      -1.157906       -31.5082
  30   2.0000      -1.122333       -30.5402
  31   2.0000      -1.045791       -28.4574
  32   2.0000      -1.032740       -28.1023
  33   2.0000      -1.015316       -27.6281
  34   2.0000      -1.000365       -27.2213
  35   2.0000      -0.985683       -26.8218
  36   2.0000      -0.924525       -25.1576
  37   2.0000      -0.878686       -23.9103
  38   2.0000      -0.850280       -23.1373
  39   2.0000      -0.840475       -22.8705
  40   2.0000      -0.833905       -22.6917
  41   2.0000      -0.829916       -22.5832
  42   2.0000      -0.755377       -20.5549
  43   2.0000      -0.735039       -20.0014
  44   2.0000      -0.729635       -19.8544
  45   2.0000      -0.695432       -18.9237
  46   2.0000      -0.687493       -18.7076
  47   2.0000      -0.680636       -18.5211
  48   2.0000      -0.674381       -18.3508
  49   2.0000      -0.661626       -18.0038
  50   2.0000      -0.648409       -17.6441
  51   2.0000      -0.643268       -17.5042
  52   2.0000      -0.635824       -17.3016
  53   2.0000      -0.609333       -16.5808
  54   2.0000      -0.605448       -16.4751
  55   2.0000      -0.603133       -16.4121
  56   2.0000      -0.600847       -16.3499
  57   2.0000      -0.581327       -15.8187
  58   2.0000      -0.577422       -15.7124
  59   2.0000      -0.564700       -15.3663
  60   2.0000      -0.562837       -15.3156
  61   2.0000      -0.551449       -15.0057
  62   2.0000      -0.536011       -14.5856
  63   2.0000      -0.523182       -14.2365
  64   2.0000      -0.513687       -13.9781
  65   2.0000      -0.509833       -13.8733
  66   2.0000      -0.504336       -13.7237
  67   2.0000      -0.498883       -13.5753
  68   2.0000      -0.482595       -13.1321
  69   2.0000      -0.466203       -12.6860
  70   2.0000      -0.456701       -12.4275
  71   2.0000      -0.452640       -12.3170
  72   2.0000      -0.355361        -9.6699
  73   2.0000      -0.349415        -9.5081
  74   2.0000      -0.329019        -8.9531
  75   2.0000      -0.321122        -8.7382
  76   2.0000      -0.316705        -8.6180
  77   0.0000       0.069582         1.8934
  78   0.0000       0.103181         2.8077
  79   0.0000       0.117894         3.2080
  80   0.0000       0.130938         3.5630
  81   0.0000       0.134437         3.6582

MULLIKEN ATOMIC CHARGES
-----------------------
   0 C :   -0.256312
   1 C :    0.042695
   2 O :   -0.378811
   3 C :    0.451098
   4 O :   -0.391897
   5 C :   -0.198636
   6 C :    0.133875
   7 C :   -0.279703
   8 N :   -0.124720
   9 C :    0.201887
  10 S :   -0.438525
  11 N :   -0.201441
  12 C :    0.056358
  13 C :    0.024116
  14 C :   -0.155674
  15 C :   -0.135618
  16 C :   -0.279428
  17 C :    0.309437
  18 O :   -0.358632
  19 C :   -0.269751
  20 H :    0.106494
  21 H :    0.092390
  22 H :    0.085949
  23 H :    0.091788
  24 H :    0.107956
  25 H :    0.125029
  26 H :    0.106239
  27 H :    0.123497
  28 H :    0.197210
  29 H :    0.194213
  30 H :    0.155806
  31 H :    0.158456
  32 H :    0.161730
  33 H :    0.131731
  34 H :    0.241273
  35 H :    0.169924
Sum of atomic charges:    0.0000000

LOEWDIN ATOMIC CHARGES
----------------------
   0 C :    0.108320
   1 C :   -0.015460
   2 O :    0.287927
   3 C :   -0.422002
   4 O :    0.132953
   5 C :   -0.094323
   6 C :   -0.075778
   7 C :    0.126929
   8 N :    0.404138
   9 C :   -0.457413
  10 S :   -0.035468
  11 N :    0.396955
  12 C :   -0.045463
  13 C :   -0.042346
  14 C :    0.020841
  15 C :    0.041688
  16 C :   -0.002017
  17 C :   -0.194725
  18 O :    0.393747
  19 C :    0.028763
  20 H :   -0.021821
  21 H :   -0.028801
  22 H :   -0.027640
  23 H :   -0.034433
  24 H :   -0.023674
  25 H :   -0.007310
  26 H :   -0.018852
  27 H :   -0.010404
  28 H :   -0.058541
  29 H :   -0.064065
  30 H :   -0.004392
  31 H :   -0.024145
  32 H :   -0.019842
  33 H :   -0.035209
  34 H :   -0.153608
  35 H :   -0.024528

  Mayer bond orders larger than 0.100000
B(  0-C ,  1-C ) :   0.9832 B(  0-C , 20-H ) :   0.9771 B(  0-C , 21-H ) :   0.9802
B(  0-C , 22-H ) :   0.9761 B(  1-C ,  2-O ) :   0.8771 B(  1-C , 23-H ) :   0.9763
B(  1-C , 24-H ) :   0.9678 B(  2-O ,  3-C ) :   1.0895 B(  3-C ,  4-O ) :   2.0370
B(  3-C ,  5-C ) :   1.0206 B(  5-C ,  6-C ) :   1.6667 B(  5-C , 12-C ) :   0.9641
B(  6-C ,  7-C ) :   0.9517 B(  6-C ,  8-N ) :   1.1378 B(  7-C , 25-H ) :   0.9708
B(  7-C , 26-H ) :   0.9872 B(  7-C , 27-H ) :   0.9638 B(  8-N ,  9-C ) :   1.1841
B(  8-N , 28-H ) :   0.9499 B(  9-C , 10-S ) :   1.6124 B(  9-C , 11-N ) :   1.2988
B( 11-N , 12-C ) :   0.9933 B( 11-N , 29-H ) :   0.9518 B( 12-C , 13-C ) :   0.9433
B( 12-C , 30-H ) :   0.9983 B( 13-C , 14-C ) :   1.3802 B( 13-C , 19-C ) :   1.3670
B( 14-C , 15-C ) :   1.3939 B( 14-C , 31-H ) :   0.9630 B( 15-C , 16-C ) :   1.3640
B( 15-C , 32-H ) :   0.9709 B( 16-C , 17-C ) :   1.3295 B( 16-C , 33-H ) :   0.9847
B( 17-C , 18-O ) :   1.1110 B( 17-C , 19-C ) :   1.3746 B( 18-O , 34-H ) :   0.9796
B( 19-C , 35-H ) :   0.9578

MP2 TOTAL ENERGY:    -1274.321378123 Eh
FINAL SINGLE POINT ENERGY     -1274.321378123007

DIPOLE MOMENT
-------------
                                X             Y             Z
Electronic contribution:     11.07946       9.99087       7.62680
Nuclear contribution   :    -12.43376     -11.12372      -8.05892
                        -----------------------------------------
Total Dipole Moment    :     -1.35430      -1.13285      -0.43212
                        -----------------------------------------
Magnitude (a.u.)       :      1.81775
Magnitude (Debye)      :      4.62034

Rotational constants in cm-1:     0.011827     0.009078     0.006519
Rotational constants in MHz :   354.553777   272.162350   195.441594

                             ****ORCA TERMINATED NORMALLY****
TOTAL RUN TIME: 0 days 1 hours 36 minutes 40 seconds 555 msec
