                         Program Version 4.2.0 -  RELEASE  -
|  1> ! ri-mp2 cc-pvtz cc-pvtz/c TightSCF  NoKeepInts
|  2>
|  3> %scf
|  4>   MaxCore 4096
|  5> end
|  6> *xyz  0  1
|  7>     C       14.4372032   15.9811255   16.4380013
|  8>     C       15.5378938   15.1700841   17.1451492
|  9>     O       16.7020140   15.0495445   16.2978286
| 10>     C       17.8834506   15.7316562   16.4629905
| 11>     O       18.9321395   15.1942179   16.1596382
| 12>     C       17.8699315   16.8729114   17.4219279
| 13>     C       17.3230876   18.0662901   17.1001704
| 14>     C       16.7112503   18.4523105   15.7708893
| 15>     N       17.4179161   19.1373417   17.9909013
| 16>     C       18.1248995   19.1139991   19.1651945
| 17>     S       18.2236719   20.4415886   20.1458002
| 18>     N       18.7500360   17.9339543   19.4875455
| 19>     C       18.6508546   16.6745745   18.7221199
| 20>     C       18.0608899   15.5444312   19.5618453
| 21>     C       18.5343400   14.2297855   19.3962348
| 22>     C       17.9876695   13.1711724   20.1400847
| 23>     C       16.9562890   13.4269649   21.0591720
| 24>     C       16.4783798   14.7334447   21.2257368
| 25>     O       15.4734618   14.9821534   22.1022891
| 26>     C       17.0228875   15.7857447   20.4824917
| 27>     H       14.5714004   17.0551351   16.5914478
| 28>     H       13.4550382   15.7164482   16.8487238
| 29>     H       14.4216534   15.7692988   15.3613315
| 30>     H       15.7646253   15.6002316   18.1264990
| 31>     H       15.1503962   14.1581173   17.3214310
| 32>     H       16.4960905   17.5828718   15.1382245
| 33>     H       17.4008474   19.0935033   15.2070440
| 34>     H       15.7737276   19.0057187   15.9044383
| 35>     H       16.9915204   20.0209506   17.7595665
| 36>     H       19.2542912   17.9442385   20.3653342
| 37>     H       19.6736159   16.3793754   18.4436771
| 38>     H       19.3230838   14.0255003   18.6745282
| 39>     H       18.3618064   12.1584434   19.9983512
| 40>     H       16.5303153   12.6113341   21.6343320
| 41>     H       15.2716985   14.1508250   22.5581792
| 42>     H       16.6286236   16.7867126   20.6248803
| 43> *
| 44>
| 45>                          ****END OF INPUT****

CARTESIAN COORDINATES (ANGSTROEM)
---------------------------------
  C     14.437203   15.981125   16.438001
  C     15.537894   15.170084   17.145149
  O     16.702014   15.049544   16.297829
  C     17.883451   15.731656   16.462991
  O     18.932140   15.194218   16.159638
  C     17.869931   16.872911   17.421928
  C     17.323088   18.066290   17.100170
  C     16.711250   18.452310   15.770889
  N     17.417916   19.137342   17.990901
  C     18.124900   19.113999   19.165194
  S     18.223672   20.441589   20.145800
  N     18.750036   17.933954   19.487545
  C     18.650855   16.674574   18.722120
  C     18.060890   15.544431   19.561845
  C     18.534340   14.229786   19.396235
  C     17.987669   13.171172   20.140085
  C     16.956289   13.426965   21.059172
  C     16.478380   14.733445   21.225737
  O     15.473462   14.982153   22.102289
  C     17.022887   15.785745   20.482492
  H     14.571400   17.055135   16.591448
  H     13.455038   15.716448   16.848724
  H     14.421653   15.769299   15.361332
  H     15.764625   15.600232   18.126499
  H     15.150396   14.158117   17.321431
  H     16.496091   17.582872   15.138224
  H     17.400847   19.093503   15.207044
  H     15.773728   19.005719   15.904438
  H     16.991520   20.020951   17.759566
  H     19.254291   17.944239   20.365334
  H     19.673616   16.379375   18.443677
  H     19.323084   14.025500   18.674528
  H     18.361806   12.158443   19.998351
  H     16.530315   12.611334   21.634332
  H     15.271698   14.150825   22.558179
  H     16.628624   16.786713   20.624880

 Total Charge           Charge          ....    0
 Multiplicity           Mult            ....    1
 Number of Electrons    NEL             ....  154
 Basis Dimension        Dim             ....  828

ORBITAL ENERGIES
----------------

  NO   OCC          E(Eh)            E(eV)
   0   2.0000     -91.890368     -2500.4640
   1   2.0000     -20.601330      -560.5907
   2   2.0000     -20.597782      -560.4941
   3   2.0000     -20.551606      -559.2376
   4   2.0000     -15.626419      -425.2165
   5   2.0000     -15.612529      -424.8385
   6   2.0000     -11.398394      -310.1661
   7   2.0000     -11.387279      -309.8636
   8   2.0000     -11.328420      -308.2620
   9   2.0000     -11.318744      -307.9987
  10   2.0000     -11.317155      -307.9554
  11   2.0000     -11.302157      -307.5473
  12   2.0000     -11.267126      -306.5941
  13   2.0000     -11.266193      -306.5687
  14   2.0000     -11.265018      -306.5367
  15   2.0000     -11.258948      -306.3716
  16   2.0000     -11.247682      -306.0650
  17   2.0000     -11.243679      -305.9561
  18   2.0000     -11.240721      -305.8756
  19   2.0000     -11.235044      -305.7211
  20   2.0000      -8.895483      -242.0584
  21   2.0000      -6.577072      -178.9712
  22   2.0000      -6.575045      -178.9161
  23   2.0000      -6.574470      -178.9004
  24   2.0000      -1.446543       -39.3624
  25   2.0000      -1.421141       -38.6712
  26   2.0000      -1.358554       -36.9681
  27   2.0000      -1.340304       -36.4715
  28   2.0000      -1.240537       -33.7567
  29   2.0000      -1.162930       -31.6449
  30   2.0000      -1.126429       -30.6517
  31   2.0000      -1.050060       -28.5736
  32   2.0000      -1.039900       -28.2971
  33   2.0000      -1.020765       -27.7764
  34   2.0000      -1.005282       -27.3551
  35   2.0000      -0.990530       -26.9537
  36   2.0000      -0.928691       -25.2710
  37   2.0000      -0.891115       -24.2485
  38   2.0000      -0.853466       -23.2240
  39   2.0000      -0.842507       -22.9258
  40   2.0000      -0.838218       -22.8091
  41   2.0000      -0.836436       -22.7606
  42   2.0000      -0.755940       -20.5702
  43   2.0000      -0.735564       -20.0157
  44   2.0000      -0.732786       -19.9401
  45   2.0000      -0.698863       -19.0170
  46   2.0000      -0.690067       -18.7777
  47   2.0000      -0.680104       -18.5066
  48   2.0000      -0.677019       -18.4226
  49   2.0000      -0.665955       -18.1216
  50   2.0000      -0.654595       -17.8124
  51   2.0000      -0.639522       -17.4023
  52   2.0000      -0.631523       -17.1846
  53   2.0000      -0.623941       -16.9783
  54   2.0000      -0.610969       -16.6253
  55   2.0000      -0.608135       -16.5482
  56   2.0000      -0.604732       -16.4556
  57   2.0000      -0.586855       -15.9691
  58   2.0000      -0.578881       -15.7521
  59   2.0000      -0.574831       -15.6419
  60   2.0000      -0.567490       -15.4422
  61   2.0000      -0.559796       -15.2328
  62   2.0000      -0.538496       -14.6532
  63   2.0000      -0.537213       -14.6183
  64   2.0000      -0.524099       -14.2615
  65   2.0000      -0.516085       -14.0434
  66   2.0000      -0.503676       -13.7057
  67   2.0000      -0.497429       -13.5357
  68   2.0000      -0.488743       -13.2994
  69   2.0000      -0.470840       -12.8122
  70   2.0000      -0.453441       -12.3388
  71   2.0000      -0.449553       -12.2330
  72   2.0000      -0.357561        -9.7297
  73   2.0000      -0.352764        -9.5992
  74   2.0000      -0.330087        -8.9821
  75   2.0000      -0.326502        -8.8846
  76   2.0000      -0.319595        -8.6966
  77   0.0000       0.088480         2.4077
  78   0.0000       0.103032         2.8036
  79   0.0000       0.116089         3.1589
  80   0.0000       0.126292         3.4366
  81   0.0000       0.128601         3.4994

MULLIKEN ATOMIC CHARGES
-----------------------
   0 C :   -0.309237
   1 C :    0.030676
   2 O :   -0.323301
   3 C :    0.397169
   4 O :   -0.377879
   5 C :   -0.194220
   6 C :    0.146471
   7 C :   -0.338318
   8 N :   -0.138323
   9 C :    0.208212
  10 S :   -0.441270
  11 N :   -0.227643
  12 C :    0.091810
  13 C :    0.004667
  14 C :   -0.204014
  15 C :   -0.133206
  16 C :   -0.273292
  17 C :    0.318174
  18 O :   -0.355638
  19 C :   -0.272664
  20 H :    0.089697
  21 H :    0.113783
  22 H :    0.113720
  23 H :    0.101499
  24 H :    0.123580
  25 H :    0.125103
  26 H :    0.152789
  27 H :    0.113622
  28 H :    0.195932
  29 H :    0.202671
  30 H :    0.165149
  31 H :    0.172135
  32 H :    0.165198
  33 H :    0.133272
  34 H :    0.241667
  35 H :    0.182009
Sum of atomic charges:    0.0000000

LOEWDIN ATOMIC CHARGES
----------------------
   0 C :    0.103865
   1 C :   -0.015331
   2 O :    0.300519
   3 C :   -0.416853
   4 O :    0.125537
   5 C :   -0.081162
   6 C :   -0.103336
   7 C :    0.123451
   8 N :    0.401829
   9 C :   -0.455370
  10 S :   -0.037884
  11 N :    0.397360
  12 C :   -0.043437
  13 C :   -0.044144
  14 C :    0.021733
  15 C :    0.046462
  16 C :    0.000005
  17 C :   -0.193493
  18 O :    0.395698
  19 C :    0.024845
  20 H :   -0.035014
  21 H :   -0.022440
  22 H :   -0.024082
  23 H :   -0.036437
  24 H :   -0.021279
  25 H :   -0.009720
  26 H :   -0.007915
  27 H :   -0.018542
  28 H :   -0.058090
  29 H :   -0.063925
  30 H :   -0.002277
  31 H :   -0.021241
  32 H :   -0.017708
  33 H :   -0.034318
  34 H :   -0.152613
  35 H :   -0.024693

  Mayer bond orders larger than 0.100000
B(  0-C ,  1-C ) :   0.9626 B(  0-C , 20-H ) :   0.9770 B(  0-C , 21-H ) :   0.9803
B(  0-C , 22-H ) :   0.9740 B(  1-C ,  2-O ) :   0.8953 B(  1-C , 23-H ) :   0.9583
B(  1-C , 24-H ) :   0.9861 B(  2-O ,  3-C ) :   1.1830 B(  3-C ,  4-O ) :   2.0967
B(  3-C ,  5-C ) :   0.9096 B(  5-C ,  6-C ) :   1.6918 B(  5-C , 12-C ) :   0.9492
B(  6-C ,  7-C ) :   0.9516 B(  6-C ,  8-N ) :   1.1100 B(  7-C , 25-H ) :   0.9788
B(  7-C , 26-H ) :   0.9631 B(  7-C , 27-H ) :   0.9717 B(  8-N ,  9-C ) :   1.2008
B(  8-N , 28-H ) :   0.9520 B(  9-C , 10-S ) :   1.6088 B(  9-C , 11-N ) :   1.2851
B( 11-N , 12-C ) :   0.9921 B( 11-N , 29-H ) :   0.9467 B( 12-C , 13-C ) :   0.9516
B( 12-C , 30-H ) :   0.9970 B( 13-C , 14-C ) :   1.3904 B( 13-C , 19-C ) :   1.3348
B( 14-C , 15-C ) :   1.4001 B( 14-C , 31-H ) :   0.9601 B( 15-C , 16-C ) :   1.3613
B( 15-C , 32-H ) :   0.9694 B( 16-C , 17-C ) :   1.3303 B( 16-C , 33-H ) :   0.9841
B( 17-C , 18-O ) :   1.1109 B( 17-C , 19-C ) :   1.3662 B( 18-O , 34-H ) :   0.9790
B( 19-C , 35-H ) :   0.9579

MP2 TOTAL ENERGY:    -1274.328614460 Eh
FINAL SINGLE POINT ENERGY     -1274.328614459982

DIPOLE MOMENT
-------------
                                X             Y             Z
Electronic contribution:     10.59207       5.19245       7.57083
Nuclear contribution   :    -12.04468      -6.36614      -7.84187
                        -----------------------------------------
Total Dipole Moment    :     -1.45261      -1.17369      -0.27104
                        -----------------------------------------
Magnitude (a.u.)       :      1.88709
Magnitude (Debye)      :      4.79660

Rotational constants in cm-1:     0.011673     0.009261     0.006785
Rotational constants in MHz :   349.934278   277.636875   203.417583

                             ****ORCA TERMINATED NORMALLY****
TOTAL RUN TIME: 0 days 1 hours 46 minutes 2 seconds 434 msec
