                         Program Version 4.2.0 -  RELEASE  -
|  1> ! ri-mp2 cc-pvtz cc-pvtz/c TightSCF  NoKeepInts
|  2>
|  3> %scf
|  4>   MaxCore 4096
|  5> end
|  6> *xyz  0  1
|  7>     C       14.6935643   14.3332599   17.1964116
|  8>     C       15.6260795   15.4265294   16.6508358
|  9>     O       16.9696718   14.9484137   16.8055368
| 10>     C       18.0339227   15.7441818   16.4942683
| 11>     O       19.0843160   15.2038906   16.2041585
| 12>     C       18.0787755   16.9381210   17.3829957
| 13>     C       17.6086713   18.1359972   16.9744093
| 14>     C       16.9858047   18.4417270   15.6295969
| 15>     N       17.7050608   19.2449706   17.8176159
| 16>     C       18.3430719   19.2444135   19.0315777
| 17>     S       18.4630443   20.6160555   19.9473988
| 18>     N       18.8701791   18.0473034   19.4536048
| 19>     C       18.7197668   16.7531367   18.7574294
| 20>     C       17.9276605   15.7629721   19.6043674
| 21>     C       18.4016830   14.4513267   19.7887769
| 22>     C       17.6645118   13.5239331   20.5439143
| 23>     C       16.4405772   13.9094267   21.1167671
| 24>     C       15.9619329   15.2130010   20.9287451
| 25>     O       14.7724994   15.5834922   21.4661410
| 26>     C       16.6980372   16.1349349   20.1782344
| 27>     H       14.8212932   13.4002392   16.6333707
| 28>     H       13.6446080   14.6433559   17.1184824
| 29>     H       14.9152621   14.1307328   18.2519249
| 30>     H       15.4051966   15.6210685   15.5931020
| 31>     H       15.4670533   16.3471165   17.2269549
| 32>     H       17.3185206   17.7391374   14.8551596
| 33>     H       17.2651278   19.4442799   15.2809847
| 34>     H       15.8912920   18.3980338   15.6830869
| 35>     H       17.3330153   20.1346805   17.5244798
| 36>     H       19.3121488   18.0732340   20.3637730
| 37>     H       19.7261816   16.3394476   18.5966890
| 38>     H       19.3372334   14.1442252   19.3271290
| 39>     H       18.0387817   12.5099686   20.6736179
| 40>     H       15.8661137   13.1941209   21.6958477
| 41>     H       14.4480629   14.8371841   21.9925959
| 42>     H       16.3082781   17.1380879   20.0440159
| 43> *
| 44>
| 45>                          ****END OF INPUT****

CARTESIAN COORDINATES (ANGSTROEM)
---------------------------------
  C     14.693564   14.333260   17.196412
  C     15.626079   15.426529   16.650836
  O     16.969672   14.948414   16.805537
  C     18.033923   15.744182   16.494268
  O     19.084316   15.203891   16.204158
  C     18.078775   16.938121   17.382996
  C     17.608671   18.135997   16.974409
  C     16.985805   18.441727   15.629597
  N     17.705061   19.244971   17.817616
  C     18.343072   19.244414   19.031578
  S     18.463044   20.616055   19.947399
  N     18.870179   18.047303   19.453605
  C     18.719767   16.753137   18.757429
  C     17.927661   15.762972   19.604367
  C     18.401683   14.451327   19.788777
  C     17.664512   13.523933   20.543914
  C     16.440577   13.909427   21.116767
  C     15.961933   15.213001   20.928745
  O     14.772499   15.583492   21.466141
  C     16.698037   16.134935   20.178234
  H     14.821293   13.400239   16.633371
  H     13.644608   14.643356   17.118482
  H     14.915262   14.130733   18.251925
  H     15.405197   15.621068   15.593102
  H     15.467053   16.347116   17.226955
  H     17.318521   17.739137   14.855160
  H     17.265128   19.444280   15.280985
  H     15.891292   18.398034   15.683087
  H     17.333015   20.134681   17.524480
  H     19.312149   18.073234   20.363773
  H     19.726182   16.339448   18.596689
  H     19.337233   14.144225   19.327129
  H     18.038782   12.509969   20.673618
  H     15.866114   13.194121   21.695848
  H     14.448063   14.837184   21.992596
  H     16.308278   17.138088   20.044016

 Total Charge           Charge          ....    0
 Multiplicity           Mult            ....    1
 Number of Electrons    NEL             ....  154
 Basis Dimension        Dim             ....  828

ORBITAL ENERGIES
----------------

  NO   OCC          E(Eh)            E(eV)
   0   2.0000     -91.886620     -2500.3620
   1   2.0000     -20.600435      -560.5663
   2   2.0000     -20.599083      -560.5295
   3   2.0000     -20.561342      -559.5026
   4   2.0000     -15.621617      -425.0858
   5   2.0000     -15.609786      -424.7639
   6   2.0000     -11.394225      -310.0526
   7   2.0000     -11.383625      -309.7642
   8   2.0000     -11.319689      -308.0244
   9   2.0000     -11.315910      -307.9216
  10   2.0000     -11.315334      -307.9059
  11   2.0000     -11.304793      -307.6190
  12   2.0000     -11.268394      -306.6286
  13   2.0000     -11.262388      -306.4652
  14   2.0000     -11.261818      -306.4496
  15   2.0000     -11.255603      -306.2805
  16   2.0000     -11.244557      -305.9800
  17   2.0000     -11.240169      -305.8606
  18   2.0000     -11.238321      -305.8103
  19   2.0000     -11.231365      -305.6210
  20   2.0000      -8.891771      -241.9574
  21   2.0000      -6.573371      -178.8705
  22   2.0000      -6.571335      -178.8151
  23   2.0000      -6.570772      -178.7998
  24   2.0000      -1.458356       -39.6839
  25   2.0000      -1.418844       -38.6087
  26   2.0000      -1.365250       -37.1503
  27   2.0000      -1.336063       -36.3561
  28   2.0000      -1.236836       -33.6560
  29   2.0000      -1.159360       -31.5478
  30   2.0000      -1.123595       -30.5746
  31   2.0000      -1.047560       -28.5055
  32   2.0000      -1.040718       -28.3194
  33   2.0000      -1.017042       -27.6751
  34   2.0000      -1.002946       -27.2916
  35   2.0000      -0.986458       -26.8429
  36   2.0000      -0.926165       -25.2022
  37   2.0000      -0.881469       -23.9860
  38   2.0000      -0.852350       -23.1936
  39   2.0000      -0.839579       -22.8461
  40   2.0000      -0.835900       -22.7460
  41   2.0000      -0.835316       -22.7301
  42   2.0000      -0.759818       -20.6757
  43   2.0000      -0.736328       -20.0365
  44   2.0000      -0.730306       -19.8727
  45   2.0000      -0.697736       -18.9863
  46   2.0000      -0.690698       -18.7949
  47   2.0000      -0.683740       -18.6055
  48   2.0000      -0.676642       -18.4124
  49   2.0000      -0.661139       -17.9905
  50   2.0000      -0.655688       -17.8422
  51   2.0000      -0.646818       -17.6008
  52   2.0000      -0.637738       -17.3537
  53   2.0000      -0.612886       -16.6775
  54   2.0000      -0.610244       -16.6056
  55   2.0000      -0.605983       -16.4896
  56   2.0000      -0.601808       -16.3760
  57   2.0000      -0.586153       -15.9500
  58   2.0000      -0.577428       -15.7126
  59   2.0000      -0.565638       -15.3918
  60   2.0000      -0.560154       -15.2426
  61   2.0000      -0.550879       -14.9902
  62   2.0000      -0.544049       -14.8043
  63   2.0000      -0.528997       -14.3947
  64   2.0000      -0.521671       -14.1954
  65   2.0000      -0.512993       -13.9593
  66   2.0000      -0.503134       -13.6910
  67   2.0000      -0.500404       -13.6167
  68   2.0000      -0.490208       -13.3392
  69   2.0000      -0.466192       -12.6857
  70   2.0000      -0.459130       -12.4936
  71   2.0000      -0.453666       -12.3449
  72   2.0000      -0.353941        -9.6312
  73   2.0000      -0.349695        -9.5157
  74   2.0000      -0.326736        -8.8909
  75   2.0000      -0.322769        -8.7830
  76   2.0000      -0.314511        -8.5583
  77   0.0000       0.092079         2.5056
  78   0.0000       0.097653         2.6573
  79   0.0000       0.107591         2.9277
  80   0.0000       0.125447         3.4136
  81   0.0000       0.128172         3.4877

MULLIKEN ATOMIC CHARGES
-----------------------
   0 C :   -0.263002
   1 C :   -0.001161
   2 O :   -0.302202
   3 C :    0.381812
   4 O :   -0.355348
   5 C :   -0.145849
   6 C :    0.114215
   7 C :   -0.320762
   8 N :   -0.133188
   9 C :    0.209258
  10 S :   -0.446840
  11 N :   -0.207609
  12 C :    0.036202
  13 C :    0.044051
  14 C :   -0.175940
  15 C :   -0.129998
  16 C :   -0.274191
  17 C :    0.290919
  18 O :   -0.362534
  19 C :   -0.257055
  20 H :    0.103489
  21 H :    0.086715
  22 H :    0.113089
  23 H :    0.107092
  24 H :    0.092699
  25 H :    0.123167
  26 H :    0.125227
  27 H :    0.123038
  28 H :    0.194175
  29 H :    0.196384
  30 H :    0.164997
  31 H :    0.156979
  32 H :    0.161639
  33 H :    0.132779
  34 H :    0.241670
  35 H :    0.176085
Sum of atomic charges:   -0.0000000

LOEWDIN ATOMIC CHARGES
----------------------
   0 C :    0.113700
   1 C :   -0.034777
   2 O :    0.328909
   3 C :   -0.425724
   4 O :    0.147383
   5 C :   -0.079697
   6 C :   -0.116664
   7 C :    0.123383
   8 N :    0.398644
   9 C :   -0.454668
  10 S :   -0.042488
  11 N :    0.397359
  12 C :   -0.041037
  13 C :   -0.039175
  14 C :    0.023333
  15 C :    0.046028
  16 C :   -0.001302
  17 C :   -0.194068
  18 O :    0.394465
  19 C :    0.028954
  20 H :   -0.024790
  21 H :   -0.025935
  22 H :   -0.022535
  23 H :   -0.035953
  24 H :   -0.038716
  25 H :   -0.010116
  26 H :   -0.012151
  27 H :   -0.017499
  28 H :   -0.060744
  29 H :   -0.063872
  30 H :   -0.003078
  31 H :   -0.024663
  32 H :   -0.019205
  33 H :   -0.035285
  34 H :   -0.153325
  35 H :   -0.024692

  Mayer bond orders larger than 0.100000
B(  0-C ,  1-C ) :   0.9833 B(  0-C , 20-H ) :   0.9803 B(  0-C , 21-H ) :   0.9763
B(  0-C , 22-H ) :   0.9732 B(  1-C ,  2-O ) :   0.9203 B(  1-C , 23-H ) :   0.9774
B(  1-C , 24-H ) :   0.9637 B(  2-O ,  3-C ) :   1.1068 B(  3-C ,  4-O ) :   2.1105
B(  3-C ,  5-C ) :   0.9261 B(  5-C ,  6-C ) :   1.7237 B(  5-C , 12-C ) :   0.9701
B(  6-C ,  7-C ) :   0.9329 B(  6-C ,  8-N ) :   1.1012 B(  7-C , 25-H ) :   0.9814
B(  7-C , 26-H ) :   0.9790 B(  7-C , 27-H ) :   0.9659 B(  8-N ,  9-C ) :   1.2023
B(  8-N , 28-H ) :   0.9537 B(  9-C , 10-S ) :   1.6047 B(  9-C , 11-N ) :   1.2850
B( 11-N , 12-C ) :   0.9995 B( 11-N , 29-H ) :   0.9490 B( 12-C , 13-C ) :   0.9479
B( 12-C , 30-H ) :   0.9986 B( 13-C , 14-C ) :   1.3800 B( 13-C , 19-C ) :   1.3511
B( 14-C , 15-C ) :   1.3958 B( 14-C , 31-H ) :   0.9661 B( 15-C , 16-C ) :   1.3639
B( 15-C , 32-H ) :   0.9708 B( 16-C , 17-C ) :   1.3295 B( 16-C , 33-H ) :   0.9847
B( 17-C , 18-O ) :   1.1034 B( 17-C , 19-C ) :   1.3706 B( 18-O , 34-H ) :   0.9793
B( 19-C , 35-H ) :   0.9571

MP2 TOTAL ENERGY:    -1274.315674869 Eh
FINAL SINGLE POINT ENERGY     -1274.315674868706

DIPOLE MOMENT
-------------
                                X             Y             Z
Electronic contribution:     10.61278       8.38450       6.46304
Nuclear contribution   :    -12.24025      -9.62340      -7.13934
                        -----------------------------------------
Total Dipole Moment    :     -1.62747      -1.23890      -0.67630
                        -----------------------------------------
Magnitude (a.u.)       :      2.15428
Magnitude (Debye)      :      5.47574

Rotational constants in cm-1:     0.012647     0.008967     0.006872
Rotational constants in MHz :   379.161071   268.814251   206.026624

                             ****ORCA TERMINATED NORMALLY****
TOTAL RUN TIME: 0 days 1 hours 47 minutes 16 seconds 535 msec
