                         Program Version 5.0.0 -  RELEASE  -
|  1> ! ri-mp2 cc-pvtz cc-pvtz/c TightSCF NoKeepInts
|  2>
|  3> %scf
|  4>   MaxCore 4096
|  5> end
|  6> *xyz  0  1
|  7>     C       15.0134709   14.0555807   16.6092460
|  8>     C       16.4525580   13.9928430   16.0504202
|  9>     O       17.2646683   15.0569505   16.5878459
| 10>     C       16.8865324   16.3702346   16.5092744
| 11>     O       16.0784470   16.7715037   15.6891639
| 12>     C       17.6523998   17.2473713   17.4602743
| 13>     C       17.5622191   18.6013029   17.4383983
| 14>     C       16.7332949   19.4493969   16.4976885
| 15>     N       18.3087270   19.3685385   18.3375893
| 16>     C       19.2163782   18.8677210   19.2321204
| 17>     S       20.1105706   19.8527939   20.2149791
| 18>     N       19.3470171   17.5031343   19.2736461
| 19>     C       18.5251274   16.5444685   18.5126287
| 20>     C       17.6841425   15.7056576   19.4709681
| 21>     C       17.9271984   14.3266979   19.6146333
| 22>     C       17.1450893   13.5497652   20.4857133
| 23>     C       16.1131222   14.1567163   21.2216102
| 24>     C       15.8715220   15.5305532   21.0846143
| 25>     O       14.8759488   16.1194565   21.7937651
| 26>     C       16.6512492   16.3010345   20.2166310
| 27>     H       15.0270728   14.1419893   17.7033381
| 28>     H       14.4658845   13.1423558   16.3474718
| 29>     H       14.4530017   14.9040675   16.1990245
| 30>     H       16.9042810   13.0282665   16.3147742
| 31>     H       16.4200194   14.0639052   14.9549647
| 32>     H       17.0028698   19.2440067   15.4538744
| 33>     H       16.8591722   20.5253360   16.6657872
| 34>     H       15.6662766   19.2185447   16.6109896
| 35>     H       18.2257504   20.3724854   18.3224598
| 36>     H       19.9945768   17.1621561   19.9723873
| 37>     H       19.2161798   15.8765021   17.9794930
| 38>     H       18.7199033   13.8538596   19.0411232
| 39>     H       17.3391884   12.4835204   20.5880093
| 40>     H       15.5064057   13.5610523   21.8956828
| 41>     H       14.4752652   15.4386379   22.3547853
| 42>     H       16.4514692   17.3635933   20.1286245
| 43> *
| 44>
| 45>                          ****END OF INPUT****

CARTESIAN COORDINATES (ANGSTROEM)
---------------------------------
  C     15.013471   14.055581   16.609246
  C     16.452558   13.992843   16.050420
  O     17.264668   15.056950   16.587846
  C     16.886532   16.370235   16.509274
  O     16.078447   16.771504   15.689164
  C     17.652400   17.247371   17.460274
  C     17.562219   18.601303   17.438398
  C     16.733295   19.449397   16.497688
  N     18.308727   19.368538   18.337589
  C     19.216378   18.867721   19.232120
  S     20.110571   19.852794   20.214979
  N     19.347017   17.503134   19.273646
  C     18.525127   16.544469   18.512629
  C     17.684142   15.705658   19.470968
  C     17.927198   14.326698   19.614633
  C     17.145089   13.549765   20.485713
  C     16.113122   14.156716   21.221610
  C     15.871522   15.530553   21.084614
  O     14.875949   16.119456   21.793765
  C     16.651249   16.301035   20.216631
  H     15.027073   14.141989   17.703338
  H     14.465884   13.142356   16.347472
  H     14.453002   14.904067   16.199025
  H     16.904281   13.028267   16.314774
  H     16.420019   14.063905   14.954965
  H     17.002870   19.244007   15.453874
  H     16.859172   20.525336   16.665787
  H     15.666277   19.218545   16.610990
  H     18.225750   20.372485   18.322460
  H     19.994577   17.162156   19.972387
  H     19.216180   15.876502   17.979493
  H     18.719903   13.853860   19.041123
  H     17.339188   12.483520   20.588009
  H     15.506406   13.561052   21.895683
  H     14.475265   15.438638   22.354785
  H     16.451469   17.363593   20.128624

 Total Charge           Charge          ....    0
 Multiplicity           Mult            ....    1
 Number of Electrons    NEL             ....  154
 Basis Dimension        Dim             ....  828

ORBITAL ENERGIES
----------------

  NO   OCC          E(Eh)            E(eV)
   0   2.0000     -91.888621     -2500.4165
   1   2.0000     -20.598640      -560.5175
   2   2.0000     -20.597156      -560.4771
   3   2.0000     -20.541448      -558.9612
   4   2.0000     -15.628687      -425.2782
   5   2.0000     -15.608092      -424.7178
   6   2.0000     -11.395323      -310.0825
   7   2.0000     -11.383831      -309.7698
   8   2.0000     -11.335596      -308.4572
   9   2.0000     -11.314480      -307.8827
  10   2.0000     -11.308469      -307.7191
  11   2.0000     -11.299374      -307.4716
  12   2.0000     -11.260130      -306.4037
  13   2.0000     -11.258525      -306.3600
  14   2.0000     -11.255821      -306.2865
  15   2.0000     -11.251830      -306.1779
  16   2.0000     -11.243885      -305.9617
  17   2.0000     -11.239188      -305.8339
  18   2.0000     -11.238759      -305.8222
  19   2.0000     -11.221838      -305.3617
  20   2.0000      -8.893689      -242.0096
  21   2.0000      -6.575265      -178.9221
  22   2.0000      -6.573259      -178.8675
  23   2.0000      -6.572673      -178.8515
  24   2.0000      -1.448432       -39.4138
  25   2.0000      -1.416846       -38.5543
  26   2.0000      -1.353763       -36.8378
  27   2.0000      -1.339668       -36.4542
  28   2.0000      -1.238238       -33.6942
  29   2.0000      -1.158274       -31.5182
  30   2.0000      -1.120356       -30.4864
  31   2.0000      -1.042977       -28.3809
  32   2.0000      -1.034648       -28.1542
  33   2.0000      -1.015686       -27.6382
  34   2.0000      -0.995242       -27.0819
  35   2.0000      -0.984012       -26.7763
  36   2.0000      -0.922503       -25.1026
  37   2.0000      -0.896583       -24.3973
  38   2.0000      -0.846951       -23.0467
  39   2.0000      -0.838081       -22.8053
  40   2.0000      -0.834656       -22.7121
  41   2.0000      -0.816466       -22.2172
  42   2.0000      -0.750246       -20.4152
  43   2.0000      -0.732591       -19.9348
  44   2.0000      -0.722689       -19.6654
  45   2.0000      -0.696165       -18.9436
  46   2.0000      -0.688491       -18.7348
  47   2.0000      -0.677647       -18.4397
  48   2.0000      -0.670950       -18.2575
  49   2.0000      -0.659305       -17.9406
  50   2.0000      -0.649547       -17.6751
  51   2.0000      -0.640907       -17.4400
  52   2.0000      -0.633271       -17.2322
  53   2.0000      -0.614736       -16.7278
  54   2.0000      -0.607153       -16.5215
  55   2.0000      -0.600373       -16.3370
  56   2.0000      -0.598941       -16.2980
  57   2.0000      -0.577807       -15.7229
  58   2.0000      -0.570650       -15.5282
  59   2.0000      -0.568522       -15.4703
  60   2.0000      -0.559285       -15.2189
  61   2.0000      -0.542891       -14.7728
  62   2.0000      -0.534749       -14.5512
  63   2.0000      -0.525520       -14.3001
  64   2.0000      -0.523048       -14.2328
  65   2.0000      -0.513194       -13.9647
  66   2.0000      -0.501819       -13.6552
  67   2.0000      -0.499895       -13.6028
  68   2.0000      -0.483500       -13.1567
  69   2.0000      -0.464220       -12.6321
  70   2.0000      -0.454646       -12.3715
  71   2.0000      -0.444722       -12.1015
  72   2.0000      -0.353847        -9.6287
  73   2.0000      -0.350024        -9.5246
  74   2.0000      -0.328109        -8.9283
  75   2.0000      -0.321970        -8.7613
  76   2.0000      -0.315989        -8.5985
  77   0.0000       0.076312         2.0766
  78   0.0000       0.105906         2.8818
  79   0.0000       0.125015         3.4018
  80   0.0000       0.132394         3.6026
  81   0.0000       0.137620         3.7448

MULLIKEN ATOMIC CHARGES
-----------------------
   0 C :   -0.317029
   1 C :    0.028317
   2 O :   -0.361169
   3 C :    0.470960
   4 O :   -0.436311
   5 C :   -0.225070
   6 C :    0.152070
   7 C :   -0.273345
   8 N :   -0.120010
   9 C :    0.211658
  10 S :   -0.440673
  11 N :   -0.206154
  12 C :    0.065929
  13 C :    0.052560
  14 C :   -0.186224
  15 C :   -0.132359
  16 C :   -0.278783
  17 C :    0.314423
  18 O :   -0.356552
  19 C :   -0.264559
  20 H :    0.108504
  21 H :    0.096759
  22 H :    0.124562
  23 H :    0.111048
  24 H :    0.111379
  25 H :    0.131417
  26 H :    0.095209
  27 H :    0.131396
  28 H :    0.196935
  29 H :    0.195111
  30 H :    0.150643
  31 H :    0.151840
  32 H :    0.160373
  33 H :    0.130628
  34 H :    0.240722
  35 H :    0.165795
Sum of atomic charges:   -0.0000000

LOEWDIN ATOMIC CHARGES
----------------------
   0 C :    0.104884
   1 C :   -0.015273
   2 O :    0.302752
   3 C :   -0.412941
   4 O :    0.098630
   5 C :   -0.094033
   6 C :   -0.059347
   7 C :    0.131520
   8 N :    0.406489
   9 C :   -0.456255
  10 S :   -0.036055
  11 N :    0.396476
  12 C :   -0.051978
  13 C :   -0.039702
  14 C :    0.014484
  15 C :    0.038689
  16 C :   -0.002053
  17 C :   -0.190273
  18 O :    0.395582
  19 C :    0.031278
  20 H :   -0.026293
  21 H :   -0.027562
  22 H :   -0.026250
  23 H :   -0.025122
  24 H :   -0.028102
  25 H :   -0.003873
  26 H :   -0.023455
  27 H :   -0.004778
  28 H :   -0.057632
  29 H :   -0.064542
  30 H :   -0.011476
  31 H :   -0.029864
  32 H :   -0.021348
  33 H :   -0.035406
  34 H :   -0.153802
  35 H :   -0.023366

  Mayer bond orders larger than 0.100000
B(  0-C ,  1-C ) :   0.9581 B(  0-C , 20-H ) :   0.9717 B(  0-C , 21-H ) :   0.9778
B(  0-C , 22-H ) :   0.9733 B(  1-C ,  2-O ) :   0.8970 B(  1-C , 23-H ) :   0.9842
B(  1-C , 24-H ) :   0.9839 B(  2-O ,  3-C ) :   1.1600 B(  3-C ,  4-O ) :   1.9665
B(  3-C ,  5-C ) :   1.0566 B(  5-C ,  6-C ) :   1.6542 B(  5-C , 12-C ) :   0.9706
B(  6-C ,  7-C ) :   0.9664 B(  6-C ,  8-N ) :   1.1652 B(  7-C , 25-H ) :   0.9605
B(  7-C , 26-H ) :   0.9903 B(  7-C , 27-H ) :   0.9605 B(  8-N ,  9-C ) :   1.1839
B(  8-N , 28-H ) :   0.9478 B(  9-C , 10-S ) :   1.6065 B(  9-C , 11-N ) :   1.3055
B( 11-N , 12-C ) :   0.9893 B( 11-N , 29-H ) :   0.9512 B( 12-C , 13-C ) :   0.9343
B( 12-C , 30-H ) :   1.0021 B( 13-C , 14-C ) :   1.3558 B( 13-C , 19-C ) :   1.3835
B( 14-C , 15-C ) :   1.3912 B( 14-C , 31-H ) :   0.9712 B( 15-C , 16-C ) :   1.3618
B( 15-C , 32-H ) :   0.9709 B( 16-C , 17-C ) :   1.3315 B( 16-C , 33-H ) :   0.9850
B( 17-C , 18-O ) :   1.1107 B( 17-C , 19-C ) :   1.3706 B( 18-O , 34-H ) :   0.9798
B( 19-C , 35-H ) :   0.9581

MP2 TOTAL ENERGY:    -1274.348512697 Eh
FINAL SINGLE POINT ENERGY     -1274.348512697313

DIPOLE MOMENT
-------------
                                X             Y             Z
Electronic contribution:     10.13189      10.02154       7.48709
Nuclear contribution   :    -11.14518     -11.77340      -7.87295
                        -----------------------------------------
Total Dipole Moment    :     -1.01329      -1.75186      -0.38586
                        -----------------------------------------
Magnitude (a.u.)       :      2.06025
Magnitude (Debye)      :      5.23675

Rotational constants in cm-1:     0.012236     0.008677     0.006271
Rotational constants in MHz :   366.836842   260.143461   187.985158

                             ****ORCA TERMINATED NORMALLY****
TOTAL RUN TIME: 0 days 2 hours 7 minutes 26 seconds 206 msec
