                         Program Version 4.2.0 -  RELEASE  -
|  1> ! ri-mp2 cc-pvtz cc-pvtz/c TightSCF  NoKeepInts
|  2>
|  3> %scf
|  4>   MaxCore 4096
|  5> end
|  6> *xyz  0  1
|  7>     C       14.3993860   15.8011223   16.3547848
|  8>     C       15.5197630   15.2462374   17.2525933
|  9>     O       16.6997866   15.0126357   16.4535013
| 10>     C       17.8543498   15.7582304   16.4734853
| 11>     O       18.8929485   15.2576501   16.0850225
| 12>     C       17.8892959   16.9042354   17.4261471
| 13>     C       17.3598226   18.1096078   17.1222841
| 14>     C       16.7066368   18.5116514   15.8194324
| 15>     N       17.4841032   19.1701665   18.0218660
| 16>     C       18.1952403   19.1198075   19.1928735
| 17>     S       18.3220647   20.4334580   20.1888875
| 18>     N       18.7958663   17.9232876   19.5009692
| 19>     C       18.6731680   16.6762130   18.7190701
| 20>     C       18.0676294   15.5444790   19.5453304
| 21>     C       18.5290780   14.2267727   19.3706647
| 22>     C       17.9657998   13.1668746   20.1001745
| 23>     C       16.9297300   13.4245606   21.0134747
| 24>     C       16.4637375   14.7342205   21.1885310
| 25>     O       15.4537855   14.9849312   22.0586804
| 26>     C       17.0249739   15.7878578   20.4598456
| 27>     H       14.6176449   16.8127493   16.0070533
| 28>     H       13.4530203   15.8347186   16.9084123
| 29>     H       14.2555849   15.1567434   15.4781979
| 30>     H       15.6979262   15.9219378   18.0963787
| 31>     H       15.1884775   14.2861848   17.6697114
| 32>     H       16.6221737   17.6740359   15.1164187
| 33>     H       17.3000886   19.2861118   15.3167471
| 34>     H       15.7008589   18.9159876   15.9864639
| 35>     H       17.0705075   20.0632767   17.8039295
| 36>     H       19.3019348   17.9131800   20.3777280
| 37>     H       19.6896143   16.3689943   18.4307690
| 38>     H       19.3196084   14.0211266   18.6513874
| 39>     H       18.3298779   12.1515843   19.9508879
| 40>     H       16.4905289   12.6078202   21.5769822
| 41>     H       15.2413293   14.1518405   22.5065087
| 42>     H       16.6406579   16.7917088   20.6088057
| 43> *
| 44>
| 45>                          ****END OF INPUT****

CARTESIAN COORDINATES (ANGSTROEM)
---------------------------------
  C     14.399386   15.801122   16.354785
  C     15.519763   15.246237   17.252593
  O     16.699787   15.012636   16.453501
  C     17.854350   15.758230   16.473485
  O     18.892948   15.257650   16.085023
  C     17.889296   16.904235   17.426147
  C     17.359823   18.109608   17.122284
  C     16.706637   18.511651   15.819432
  N     17.484103   19.170167   18.021866
  C     18.195240   19.119808   19.192873
  S     18.322065   20.433458   20.188887
  N     18.795866   17.923288   19.500969
  C     18.673168   16.676213   18.719070
  C     18.067629   15.544479   19.545330
  C     18.529078   14.226773   19.370665
  C     17.965800   13.166875   20.100175
  C     16.929730   13.424561   21.013475
  C     16.463738   14.734220   21.188531
  O     15.453786   14.984931   22.058680
  C     17.024974   15.787858   20.459846
  H     14.617645   16.812749   16.007053
  H     13.453020   15.834719   16.908412
  H     14.255585   15.156743   15.478198
  H     15.697926   15.921938   18.096379
  H     15.188477   14.286185   17.669711
  H     16.622174   17.674036   15.116419
  H     17.300089   19.286112   15.316747
  H     15.700859   18.915988   15.986464
  H     17.070508   20.063277   17.803929
  H     19.301935   17.913180   20.377728
  H     19.689614   16.368994   18.430769
  H     19.319608   14.021127   18.651387
  H     18.329878   12.151584   19.950888
  H     16.490529   12.607820   21.576982
  H     15.241329   14.151840   22.506509
  H     16.640658   16.791709   20.608806

 Total Charge           Charge          ....    0
 Multiplicity           Mult            ....    1
 Number of Electrons    NEL             ....  154
 Basis Dimension        Dim             ....  828

ORBITAL ENERGIES
----------------

  NO   OCC          E(Eh)            E(eV)
   0   2.0000     -91.889884     -2500.4509
   1   2.0000     -20.601347      -560.5911
   2   2.0000     -20.600204      -560.5601
   3   2.0000     -20.551749      -559.2415
   4   2.0000     -15.625471      -425.1907
   5   2.0000     -15.612506      -424.8379
   6   2.0000     -11.399002      -310.1826
   7   2.0000     -11.386949      -309.8546
   8   2.0000     -11.326601      -308.2125
   9   2.0000     -11.318522      -307.9926
  10   2.0000     -11.317766      -307.9721
  11   2.0000     -11.302402      -307.5540
  12   2.0000     -11.268378      -306.6282
  13   2.0000     -11.266033      -306.5644
  14   2.0000     -11.265553      -306.5513
  15   2.0000     -11.258730      -306.3656
  16   2.0000     -11.247696      -306.0654
  17   2.0000     -11.243709      -305.9569
  18   2.0000     -11.240962      -305.8821
  19   2.0000     -11.234445      -305.7048
  20   2.0000      -8.895008      -242.0455
  21   2.0000      -6.576600      -178.9584
  22   2.0000      -6.574569      -178.9031
  23   2.0000      -6.573998      -178.8876
  24   2.0000      -1.447359       -39.3846
  25   2.0000      -1.421160       -38.6717
  26   2.0000      -1.359234       -36.9866
  27   2.0000      -1.339793       -36.4576
  28   2.0000      -1.240288       -33.7500
  29   2.0000      -1.162938       -31.6452
  30   2.0000      -1.126410       -30.6512
  31   2.0000      -1.050213       -28.5778
  32   2.0000      -1.039947       -28.2984
  33   2.0000      -1.020743       -27.7758
  34   2.0000      -1.005859       -27.3708
  35   2.0000      -0.990142       -26.9431
  36   2.0000      -0.928772       -25.2732
  37   2.0000      -0.890809       -24.2401
  38   2.0000      -0.853647       -23.2289
  39   2.0000      -0.842273       -22.9194
  40   2.0000      -0.838301       -22.8113
  41   2.0000      -0.836955       -22.7747
  42   2.0000      -0.756071       -20.5737
  43   2.0000      -0.735438       -20.0123
  44   2.0000      -0.733043       -19.9471
  45   2.0000      -0.698866       -19.0171
  46   2.0000      -0.690101       -18.7786
  47   2.0000      -0.680014       -18.5041
  48   2.0000      -0.677536       -18.4367
  49   2.0000      -0.667224       -18.1561
  50   2.0000      -0.654447       -17.8084
  51   2.0000      -0.640189       -17.4204
  52   2.0000      -0.635137       -17.2830
  53   2.0000      -0.620248       -16.8778
  54   2.0000      -0.610952       -16.6248
  55   2.0000      -0.608316       -16.5531
  56   2.0000      -0.604738       -16.4558
  57   2.0000      -0.588852       -16.0235
  58   2.0000      -0.578978       -15.7548
  59   2.0000      -0.570890       -15.5347
  60   2.0000      -0.567539       -15.4435
  61   2.0000      -0.559571       -15.2267
  62   2.0000      -0.540554       -14.7092
  63   2.0000      -0.537517       -14.6266
  64   2.0000      -0.523654       -14.2494
  65   2.0000      -0.516410       -14.0522
  66   2.0000      -0.503621       -13.7042
  67   2.0000      -0.500083       -13.6080
  68   2.0000      -0.488644       -13.2967
  69   2.0000      -0.471598       -12.8328
  70   2.0000      -0.452731       -12.3194
  71   2.0000      -0.449244       -12.2246
  72   2.0000      -0.357228        -9.7207
  73   2.0000      -0.352518        -9.5925
  74   2.0000      -0.329687        -8.9712
  75   2.0000      -0.326292        -8.8789
  76   2.0000      -0.319047        -8.6817
  77   0.0000       0.090559         2.4642
  78   0.0000       0.103802         2.8246
  79   0.0000       0.114684         3.1207
  80   0.0000       0.126641         3.4461
  81   0.0000       0.128405         3.4941

MULLIKEN ATOMIC CHARGES
-----------------------
   0 C :   -0.279909
   1 C :    0.024082
   2 O :   -0.318024
   3 C :    0.390305
   4 O :   -0.377961
   5 C :   -0.185084
   6 C :    0.146777
   7 C :   -0.343582
   8 N :   -0.138771
   9 C :    0.209660
  10 S :   -0.442478
  11 N :   -0.226332
  12 C :    0.089240
  13 C :    0.002081
  14 C :   -0.194039
  15 C :   -0.133415
  16 C :   -0.275115
  17 C :    0.318356
  18 O :   -0.355739
  19 C :   -0.276454
  20 H :    0.086937
  21 H :    0.099459
  22 H :    0.110431
  23 H :    0.098960
  24 H :    0.124782
  25 H :    0.122377
  26 H :    0.151387
  27 H :    0.117873
  28 H :    0.195816
  29 H :    0.202351
  30 H :    0.165183
  31 H :    0.168172
  32 H :    0.164782
  33 H :    0.133337
  34 H :    0.241868
  35 H :    0.182688
Sum of atomic charges:   -0.0000000

LOEWDIN ATOMIC CHARGES
----------------------
   0 C :    0.105399
   1 C :   -0.016557
   2 O :    0.307027
   3 C :   -0.417824
   4 O :    0.125673
   5 C :   -0.079184
   6 C :   -0.107225
   7 C :    0.122955
   8 N :    0.401037
   9 C :   -0.455264
  10 S :   -0.038902
  11 N :    0.397414
  12 C :   -0.043379
  13 C :   -0.043470
  14 C :    0.023200
  15 C :    0.046345
  16 C :   -0.000154
  17 C :   -0.193708
  18 O :    0.395402
  19 C :    0.026134
  20 H :   -0.036185
  21 H :   -0.023714
  22 H :   -0.023296
  23 H :   -0.039577
  24 H :   -0.020737
  25 H :   -0.010149
  26 H :   -0.008265
  27 H :   -0.017942
  28 H :   -0.058040
  29 H :   -0.063859
  30 H :   -0.002145
  31 H :   -0.021359
  32 H :   -0.017837
  33 H :   -0.034336
  34 H :   -0.152615
  35 H :   -0.024862

  Mayer bond orders larger than 0.100000
B(  0-C ,  1-C ) :   0.9755 B(  0-C , 20-H ) :   0.9783 B(  0-C , 21-H ) :   0.9769
B(  0-C , 22-H ) :   0.9777 B(  1-C ,  2-O ) :   0.8941 B(  1-C , 23-H ) :   0.9572
B(  1-C , 24-H ) :   0.9803 B(  2-O ,  3-C ) :   1.1828 B(  3-C ,  4-O ) :   2.0963
B(  3-C ,  5-C ) :   0.9089 B(  5-C ,  6-C ) :   1.7002 B(  5-C , 12-C ) :   0.9551
B(  6-C ,  7-C ) :   0.9472 B(  6-C ,  8-N ) :   1.1093 B(  7-C , 25-H ) :   0.9822
B(  7-C , 26-H ) :   0.9644 B(  7-C , 27-H ) :   0.9695 B(  8-N ,  9-C ) :   1.2018
B(  8-N , 28-H ) :   0.9528 B(  9-C , 10-S ) :   1.6080 B(  9-C , 11-N ) :   1.2840
B( 11-N , 12-C ) :   0.9928 B( 11-N , 29-H ) :   0.9467 B( 12-C , 13-C ) :   0.9452
B( 12-C , 30-H ) :   0.9976 B( 13-C , 14-C ) :   1.3893 B( 13-C , 19-C ) :   1.3373
B( 14-C , 15-C ) :   1.4000 B( 14-C , 31-H ) :   0.9619 B( 15-C , 16-C ) :   1.3611
B( 15-C , 32-H ) :   0.9694 B( 16-C , 17-C ) :   1.3299 B( 16-C , 33-H ) :   0.9841
B( 17-C , 18-O ) :   1.1111 B( 17-C , 19-C ) :   1.3668 B( 18-O , 34-H ) :   0.9789
B( 19-C , 35-H ) :   0.9564

MP2 TOTAL ENERGY:    -1274.329149178 Eh
FINAL SINGLE POINT ENERGY     -1274.329149177900

DIPOLE MOMENT
-------------
                                X             Y             Z
Electronic contribution:     10.86194       5.36064       7.73228
Nuclear contribution   :    -12.37222      -6.51672      -8.00670
                        -----------------------------------------
Total Dipole Moment    :     -1.51028      -1.15608      -0.27442
                        -----------------------------------------
Magnitude (a.u.)       :      1.92166
Magnitude (Debye)      :      4.88446

Rotational constants in cm-1:     0.011749     0.009219     0.006782
Rotational constants in MHz :   352.215859   276.366475   203.322779

                             ****ORCA TERMINATED NORMALLY****
TOTAL RUN TIME: 0 days 1 hours 42 minutes 46 seconds 889 msec
