                         Program Version 5.0.0 -  RELEASE  -
|  1> ! ri-mp2 cc-pvtz cc-pvtz/c TightSCF NoKeepInts
|  2>
|  3> %scf
|  4>   MaxCore 4096
|  5> end
|  6> *xyz  0  1
|  7>     C       14.5765741   15.8737006   17.0634672
|  8>     C       15.7453042   14.9056012   16.8098659
|  9>     O       16.6766174   15.4904464   15.8770039
| 10>     C       17.9325375   15.7999297   16.3177190
| 11>     O       18.7763337   14.9223965   16.3561383
| 12>     C       17.9356505   16.9025047   17.3298565
| 13>     C       17.3193096   18.0886256   17.1094130
| 14>     C       16.5844590   18.5214030   15.8573318
| 15>     N       17.4134274   19.1083816   18.0597821
| 16>     C       18.2258307   19.0719328   19.1631462
| 17>     S       18.3666407   20.3662448   20.1825899
| 18>     N       18.9172969   17.9052972   19.3792370
| 19>     C       18.7352366   16.6570961   18.6122377
| 20>     C       18.0651553   15.5877800   19.4693042
| 21>     C       18.5924257   14.2844399   19.5190011
| 22>     C       17.9633697   13.2857743   20.2808833
| 23>     C       16.7942913   13.5909864   20.9983198
| 24>     C       16.2628260   14.8865576   20.9480911
| 25>     O       15.1258046   15.1813008   21.6267875
| 26>     C       16.8909766   15.8785797   20.1888399
| 27>     H       14.9012329   16.7352788   17.6575001
| 28>     H       13.7814573   15.3666052   17.6237206
| 29>     H       14.1526988   16.2303572   16.1166536
| 30>     H       16.2314974   14.6300829   17.7541058
| 31>     H       15.3462570   13.9828505   16.3691753
| 32>     H       16.8795228   17.9297453   14.9822725
| 33>     H       16.7970644   19.5690945   15.6103565
| 34>     H       15.5001679   18.4190833   15.9788138
| 35>     H       16.9216200   19.9757753   17.9126974
| 36>     H       19.4918046   17.8988481   20.2124858
| 37>     H       19.7320175   16.2927707   18.3232914
| 38>     H       19.4850485   14.0402530   18.9470542
| 39>     H       18.3795758   12.2800188   20.3067169
| 40>     H       16.3038593   12.8213399   21.5852722
| 41>     H       14.8830526   14.3971610   22.1422555
| 42>     H       16.4600560   16.8737568   20.1626130
| 43> *
| 44>
| 45>                          ****END OF INPUT****

CARTESIAN COORDINATES (ANGSTROEM)
---------------------------------
  C     14.576574   15.873701   17.063467
  C     15.745304   14.905601   16.809866
  O     16.676617   15.490446   15.877004
  C     17.932537   15.799930   16.317719
  O     18.776334   14.922396   16.356138
  C     17.935650   16.902505   17.329857
  C     17.319310   18.088626   17.109413
  C     16.584459   18.521403   15.857332
  N     17.413427   19.108382   18.059782
  C     18.225831   19.071933   19.163146
  S     18.366641   20.366245   20.182590
  N     18.917297   17.905297   19.379237
  C     18.735237   16.657096   18.612238
  C     18.065155   15.587780   19.469304
  C     18.592426   14.284440   19.519001
  C     17.963370   13.285774   20.280883
  C     16.794291   13.590986   20.998320
  C     16.262826   14.886558   20.948091
  O     15.125805   15.181301   21.626787
  C     16.890977   15.878580   20.188840
  H     14.901233   16.735279   17.657500
  H     13.781457   15.366605   17.623721
  H     14.152699   16.230357   16.116654
  H     16.231497   14.630083   17.754106
  H     15.346257   13.982850   16.369175
  H     16.879523   17.929745   14.982272
  H     16.797064   19.569094   15.610356
  H     15.500168   18.419083   15.978814
  H     16.921620   19.975775   17.912697
  H     19.491805   17.898848   20.212486
  H     19.732018   16.292771   18.323291
  H     19.485049   14.040253   18.947054
  H     18.379576   12.280019   20.306717
  H     16.303859   12.821340   21.585272
  H     14.883053   14.397161   22.142255
  H     16.460056   16.873757   20.162613

 Total Charge           Charge          ....    0
 Multiplicity           Mult            ....    1
 Number of Electrons    NEL             ....  154
 Basis Dimension        Dim             ....  828

ORBITAL ENERGIES
----------------

  NO   OCC          E(Eh)            E(eV)
   0   2.0000     -91.890670     -2500.4722
   1   2.0000     -20.599916      -560.5522
   2   2.0000     -20.577854      -559.9519
   3   2.0000     -20.558263      -559.4188
   4   2.0000     -15.629280      -425.2943
   5   2.0000     -15.610799      -424.7914
   6   2.0000     -11.394367      -310.0565
   7   2.0000     -11.386665      -309.8469
   8   2.0000     -11.333016      -308.3870
   9   2.0000     -11.316825      -307.9465
  10   2.0000     -11.312644      -307.8327
  11   2.0000     -11.298899      -307.4587
  12   2.0000     -11.262456      -306.4670
  13   2.0000     -11.262253      -306.4615
  14   2.0000     -11.262211      -306.4604
  15   2.0000     -11.256973      -306.3178
  16   2.0000     -11.246597      -306.0355
  17   2.0000     -11.241952      -305.9091
  18   2.0000     -11.239180      -305.8336
  19   2.0000     -11.231116      -305.6142
  20   2.0000      -8.895748      -242.0656
  21   2.0000      -6.577326      -178.9782
  22   2.0000      -6.575314      -178.9234
  23   2.0000      -6.574729      -178.9075
  24   2.0000      -1.449179       -39.4342
  25   2.0000      -1.419718       -38.6325
  26   2.0000      -1.354986       -36.8710
  27   2.0000      -1.341418       -36.5018
  28   2.0000      -1.240144       -33.7460
  29   2.0000      -1.160852       -31.5884
  30   2.0000      -1.123937       -30.5839
  31   2.0000      -1.047790       -28.5118
  32   2.0000      -1.034123       -28.1399
  33   2.0000      -1.018339       -27.7104
  34   2.0000      -1.002623       -27.2828
  35   2.0000      -0.988838       -26.9077
  36   2.0000      -0.926831       -25.2203
  37   2.0000      -0.884295       -24.0629
  38   2.0000      -0.850815       -23.1519
  39   2.0000      -0.842045       -22.9132
  40   2.0000      -0.836875       -22.7725
  41   2.0000      -0.830271       -22.5928
  42   2.0000      -0.755651       -20.5623
  43   2.0000      -0.735582       -20.0162
  44   2.0000      -0.730840       -19.8872
  45   2.0000      -0.698174       -18.9983
  46   2.0000      -0.688328       -18.7303
  47   2.0000      -0.680069       -18.5056
  48   2.0000      -0.675353       -18.3773
  49   2.0000      -0.659751       -17.9527
  50   2.0000      -0.655215       -17.8293
  51   2.0000      -0.644220       -17.5301
  52   2.0000      -0.636716       -17.3259
  53   2.0000      -0.609796       -16.5934
  54   2.0000      -0.608474       -16.5574
  55   2.0000      -0.604938       -16.4612
  56   2.0000      -0.601898       -16.3785
  57   2.0000      -0.580818       -15.8049
  58   2.0000      -0.579122       -15.7587
  59   2.0000      -0.575235       -15.6529
  60   2.0000      -0.564030       -15.3480
  61   2.0000      -0.553167       -15.0524
  62   2.0000      -0.542747       -14.7689
  63   2.0000      -0.525807       -14.3079
  64   2.0000      -0.518059       -14.0971
  65   2.0000      -0.513427       -13.9711
  66   2.0000      -0.503246       -13.6940
  67   2.0000      -0.497836       -13.5468
  68   2.0000      -0.483764       -13.1639
  69   2.0000      -0.467863       -12.7312
  70   2.0000      -0.454613       -12.3707
  71   2.0000      -0.450455       -12.2575
  72   2.0000      -0.357335        -9.7236
  73   2.0000      -0.351893        -9.5755
  74   2.0000      -0.330110        -8.9827
  75   2.0000      -0.324672        -8.8348
  76   2.0000      -0.318603        -8.6696
  77   0.0000       0.071875         1.9558
  78   0.0000       0.100178         2.7260
  79   0.0000       0.118281         3.2186
  80   0.0000       0.127969         3.4822
  81   0.0000       0.131526         3.5790

MULLIKEN ATOMIC CHARGES
-----------------------
   0 C :   -0.313052
   1 C :    0.031155
   2 O :   -0.374952
   3 C :    0.450758
   4 O :   -0.377314
   5 C :   -0.182334
   6 C :    0.098279
   7 C :   -0.297519
   8 N :   -0.124285
   9 C :    0.193577
  10 S :   -0.437724
  11 N :   -0.202762
  12 C :    0.058686
  13 C :    0.011186
  14 C :   -0.166918
  15 C :   -0.136138
  16 C :   -0.275828
  17 C :    0.311078
  18 O :   -0.358435
  19 C :   -0.266965
  20 H :    0.093922
  21 H :    0.119901
  22 H :    0.107009
  23 H :    0.106007
  24 H :    0.123200
  25 H :    0.129173
  26 H :    0.122842
  27 H :    0.123624
  28 H :    0.198310
  29 H :    0.194889
  30 H :    0.161270
  31 H :    0.164376
  32 H :    0.163209
  33 H :    0.133283
  34 H :    0.241701
  35 H :    0.176792
Sum of atomic charges:    0.0000000

LOEWDIN ATOMIC CHARGES
----------------------
   0 C :    0.103916
   1 C :   -0.009733
   2 O :    0.276834
   3 C :   -0.420669
   4 O :    0.138773
   5 C :   -0.091090
   6 C :   -0.083534
   7 C :    0.127880
   8 N :    0.403969
   9 C :   -0.457931
  10 S :   -0.035177
  11 N :    0.396953
  12 C :   -0.044532
  13 C :   -0.045057
  14 C :    0.020213
  15 C :    0.043424
  16 C :   -0.000951
  17 C :   -0.194819
  18 O :    0.395123
  19 C :    0.028698
  20 H :   -0.034884
  21 H :   -0.021730
  22 H :   -0.028330
  23 H :   -0.027915
  24 H :   -0.023916
  25 H :   -0.008188
  26 H :   -0.015094
  27 H :   -0.014242
  28 H :   -0.057203
  29 H :   -0.063893
  30 H :   -0.003240
  31 H :   -0.022812
  32 H :   -0.018864
  33 H :   -0.034485
  34 H :   -0.153060
  35 H :   -0.024435

  Mayer bond orders larger than 0.100000
B(  0-C ,  1-C ) :   0.9669 B(  0-C , 20-H ) :   0.9755 B(  0-C , 21-H ) :   0.9773
B(  0-C , 22-H ) :   0.9749 B(  1-C ,  2-O ) :   0.8859 B(  1-C , 23-H ) :   0.9663
B(  1-C , 24-H ) :   0.9861 B(  2-O ,  3-C ) :   1.1020 B(  3-C ,  4-O ) :   2.0688
B(  3-C ,  5-C ) :   0.9719 B(  5-C ,  6-C ) :   1.6775 B(  5-C , 12-C ) :   0.9568
B(  6-C ,  7-C ) :   0.9575 B(  6-C ,  8-N ) :   1.1180 B(  7-C , 25-H ) :   0.9723
B(  7-C , 26-H ) :   0.9805 B(  7-C , 27-H ) :   0.9614 B(  8-N ,  9-C ) :   1.1878
B(  8-N , 28-H ) :   0.9511 B(  9-C , 10-S ) :   1.6153 B(  9-C , 11-N ) :   1.2928
B( 11-N , 12-C ) :   0.9937 B( 11-N , 29-H ) :   0.9515 B( 12-C , 13-C ) :   0.9465
B( 12-C , 30-H ) :   0.9974 B( 13-C , 14-C ) :   1.3897 B( 13-C , 19-C ) :   1.3507
B( 14-C , 15-C ) :   1.3940 B( 14-C , 31-H ) :   0.9609 B( 15-C , 16-C ) :   1.3645
B( 15-C , 32-H ) :   0.9705 B( 16-C , 17-C ) :   1.3293 B( 16-C , 33-H ) :   0.9839
B( 17-C , 18-O ) :   1.1116 B( 17-C , 19-C ) :   1.3733 B( 18-O , 34-H ) :   0.9793
B( 19-C , 35-H ) :   0.9557

MP2 TOTAL ENERGY:    -1274.318909009 Eh
FINAL SINGLE POINT ENERGY     -1274.318909009006

DIPOLE MOMENT
-------------
                                X             Y             Z
Electronic contribution:     10.60997       6.10001       5.70488
Nuclear contribution   :    -11.84338      -7.27681      -6.04871
                        -----------------------------------------
Total Dipole Moment    :     -1.23341      -1.17680      -0.34383
                        -----------------------------------------
Magnitude (a.u.)       :      1.73907
Magnitude (Debye)      :      4.42037

Rotational constants in cm-1:     0.012015     0.009490     0.007138
Rotational constants in MHz :   360.203665   284.505690   213.990255

                             ****ORCA TERMINATED NORMALLY****
TOTAL RUN TIME: 0 days 1 hours 56 minutes 55 seconds 450 msec
