                         Program Version 4.2.0 -  RELEASE  -
|  1> ! ri-mp2 cc-pvtz cc-pvtz/c TightSCF  NoKeepInts
|  2>
|  3> %scf
|  4>   MaxCore 4096
|  5> end
|  6> *xyz  0  1
|  7>     C       14.2397042   15.3617675   16.4499161
|  8>     C       15.6687063   14.9430358   16.8342737
|  9>     O       16.5853661   15.5934091   15.9360352
| 10>     C       17.8549679   15.7969931   16.3895609
| 11>     O       18.6251638   14.8552603   16.4528802
| 12>     C       17.9395477   16.9288506   17.3672770
| 13>     C       17.3218965   18.1194196   17.1733059
| 14>     C       16.5020150   18.5406342   15.9722123
| 15>     N       17.4927398   19.1502748   18.1015857
| 16>     C       18.3782893   19.1183135   19.1473356
| 17>     S       18.6100535   20.4265891   20.1318114
| 18>     N       19.0620267   17.9427602   19.3370638
| 19>     C       18.7998013   16.6850116   18.6103179
| 20>     C       18.1421913   15.6559127   19.5265335
| 21>     C       18.6342455   14.3391177   19.5848314
| 22>     C       18.0207019   13.3799034   20.4075901
| 23>     C       16.9031105   13.7386727   21.1799533
| 24>     C       16.4069521   15.0478193   21.1228149
| 25>     O       15.3203874   15.3948526   21.8572501
| 26>     C       17.0189524   16.0001336   20.3017988
| 27>     H       13.5069681   14.8245408   17.0644047
| 28>     H       14.0389724   15.1292666   15.3965558
| 29>     H       14.0894679   16.4357441   16.6056764
| 30>     H       15.8552680   15.2383042   17.8747847
| 31>     H       15.7848392   13.8533557   16.7620714
| 32>     H       16.8521807   18.0510088   15.0549497
| 33>     H       16.5618993   19.6213748   15.7934566
| 34>     H       15.4465707   18.2808086   16.1084990
| 35>     H       17.0034842   20.0223468   17.9758695
| 36>     H       19.6907287   17.9387901   20.1302130
| 37>     H       19.7677957   16.2825592   18.2775306
| 38>     H       19.4872895   14.0534409   18.9732543
| 39>     H       18.4093085   12.3633674   20.4386605
| 40>     H       16.4250764   13.0000104   21.8149188
| 41>     H       15.0837561   14.6312259   22.4052392
| 42>     H       16.6165754   17.0071246   20.2735678
| 43> *
| 44>
| 45>                          ****END OF INPUT****

CARTESIAN COORDINATES (ANGSTROEM)
---------------------------------
  C     14.239704   15.361767   16.449916
  C     15.668706   14.943036   16.834274
  O     16.585366   15.593409   15.936035
  C     17.854968   15.796993   16.389561
  O     18.625164   14.855260   16.452880
  C     17.939548   16.928851   17.367277
  C     17.321896   18.119420   17.173306
  C     16.502015   18.540634   15.972212
  N     17.492740   19.150275   18.101586
  C     18.378289   19.118313   19.147336
  S     18.610053   20.426589   20.131811
  N     19.062027   17.942760   19.337064
  C     18.799801   16.685012   18.610318
  C     18.142191   15.655913   19.526533
  C     18.634245   14.339118   19.584831
  C     18.020702   13.379903   20.407590
  C     16.903111   13.738673   21.179953
  C     16.406952   15.047819   21.122815
  O     15.320387   15.394853   21.857250
  C     17.018952   16.000134   20.301799
  H     13.506968   14.824541   17.064405
  H     14.038972   15.129267   15.396556
  H     14.089468   16.435744   16.605676
  H     15.855268   15.238304   17.874785
  H     15.784839   13.853356   16.762071
  H     16.852181   18.051009   15.054950
  H     16.561899   19.621375   15.793457
  H     15.446571   18.280809   16.108499
  H     17.003484   20.022347   17.975870
  H     19.690729   17.938790   20.130213
  H     19.767796   16.282559   18.277531
  H     19.487289   14.053441   18.973254
  H     18.409308   12.363367   20.438660
  H     16.425076   13.000010   21.814919
  H     15.083756   14.631226   22.405239
  H     16.616575   17.007125   20.273568

 Total Charge           Charge          ....    0
 Multiplicity           Mult            ....    1
 Number of Electrons    NEL             ....  154
 Basis Dimension        Dim             ....  828

ORBITAL ENERGIES
----------------

  NO   OCC          E(Eh)            E(eV)
   0   2.0000     -91.890416     -2500.4653
   1   2.0000     -20.597936      -560.4983
   2   2.0000     -20.580366      -560.0202
   3   2.0000     -20.557957      -559.4105
   4   2.0000     -15.629627      -425.3038
   5   2.0000     -15.609969      -424.7688
   6   2.0000     -11.393878      -310.0432
   7   2.0000     -11.386077      -309.8309
   8   2.0000     -11.334242      -308.4204
   9   2.0000     -11.314541      -307.8843
  10   2.0000     -11.310955      -307.7867
  11   2.0000     -11.298411      -307.4454
  12   2.0000     -11.262478      -306.4676
  13   2.0000     -11.261490      -306.4407
  14   2.0000     -11.260177      -306.4050
  15   2.0000     -11.254501      -306.2505
  16   2.0000     -11.244093      -305.9673
  17   2.0000     -11.239893      -305.8530
  18   2.0000     -11.236726      -305.7668
  19   2.0000     -11.233525      -305.6797
  20   2.0000      -8.895485      -242.0585
  21   2.0000      -6.577062      -178.9710
  22   2.0000      -6.575052      -178.9163
  23   2.0000      -6.574466      -178.9003
  24   2.0000      -1.451871       -39.5074
  25   2.0000      -1.417777       -38.5797
  26   2.0000      -1.356657       -36.9165
  27   2.0000      -1.341146       -36.4944
  28   2.0000      -1.239463       -33.7275
  29   2.0000      -1.158494       -31.5242
  30   2.0000      -1.123050       -30.5597
  31   2.0000      -1.046424       -28.4746
  32   2.0000      -1.035535       -28.1783
  33   2.0000      -1.016182       -27.6517
  34   2.0000      -1.001639       -27.2560
  35   2.0000      -0.987504       -26.8713
  36   2.0000      -0.925393       -25.1812
  37   2.0000      -0.880397       -23.9568
  38   2.0000      -0.850507       -23.1435
  39   2.0000      -0.841296       -22.8928
  40   2.0000      -0.834515       -22.7083
  41   2.0000      -0.831256       -22.6196
  42   2.0000      -0.756892       -20.5961
  43   2.0000      -0.735844       -20.0233
  44   2.0000      -0.730143       -19.8682
  45   2.0000      -0.696101       -18.9419
  46   2.0000      -0.687158       -18.6985
  47   2.0000      -0.682056       -18.5597
  48   2.0000      -0.675604       -18.3841
  49   2.0000      -0.657737       -17.8979
  50   2.0000      -0.652781       -17.7631
  51   2.0000      -0.642855       -17.4930
  52   2.0000      -0.632327       -17.2065
  53   2.0000      -0.621260       -16.9053
  54   2.0000      -0.606684       -16.5087
  55   2.0000      -0.605518       -16.4770
  56   2.0000      -0.601614       -16.3708
  57   2.0000      -0.580281       -15.7902
  58   2.0000      -0.575640       -15.6639
  59   2.0000      -0.566528       -15.4160
  60   2.0000      -0.559605       -15.2276
  61   2.0000      -0.550705       -14.9854
  62   2.0000      -0.544392       -14.8136
  63   2.0000      -0.524019       -14.2593
  64   2.0000      -0.519679       -14.1412
  65   2.0000      -0.514305       -13.9949
  66   2.0000      -0.502564       -13.6755
  67   2.0000      -0.498434       -13.5631
  68   2.0000      -0.481669       -13.1069
  69   2.0000      -0.466964       -12.7067
  70   2.0000      -0.457257       -12.4426
  71   2.0000      -0.453134       -12.3304
  72   2.0000      -0.356907        -9.7119
  73   2.0000      -0.349757        -9.5174
  74   2.0000      -0.329715        -8.9720
  75   2.0000      -0.321913        -8.7597
  76   2.0000      -0.318002        -8.6533
  77   0.0000       0.070132         1.9084
  78   0.0000       0.102327         2.7845
  79   0.0000       0.118194         3.2162
  80   0.0000       0.130622         3.5544
  81   0.0000       0.133040         3.6202

MULLIKEN ATOMIC CHARGES
-----------------------
   0 C :   -0.277427
   1 C :    0.038160
   2 O :   -0.372965
   3 C :    0.466717
   4 O :   -0.384946
   5 C :   -0.220935
   6 C :    0.141096
   7 C :   -0.293576
   8 N :   -0.125622
   9 C :    0.195299
  10 S :   -0.437215
  11 N :   -0.203500
  12 C :    0.059846
  13 C :    0.025537
  14 C :   -0.168688
  15 C :   -0.136301
  16 C :   -0.275995
  17 C :    0.315800
  18 O :   -0.359037
  19 C :   -0.278039
  20 H :    0.102733
  21 H :    0.105359
  22 H :    0.086735
  23 H :    0.094852
  24 H :    0.113283
  25 H :    0.128088
  26 H :    0.114623
  27 H :    0.121534
  28 H :    0.197871
  29 H :    0.194825
  30 H :    0.159424
  31 H :    0.163777
  32 H :    0.162592
  33 H :    0.132102
  34 H :    0.241081
  35 H :    0.172915
Sum of atomic charges:   -0.0000000

LOEWDIN ATOMIC CHARGES
----------------------
   0 C :    0.109784
   1 C :   -0.014795
   2 O :    0.282905
   3 C :   -0.419679
   4 O :    0.137304
   5 C :   -0.093945
   6 C :   -0.078288
   7 C :    0.127636
   8 N :    0.404089
   9 C :   -0.458218
  10 S :   -0.034893
  11 N :    0.396883
  12 C :   -0.044829
  13 C :   -0.042790
  14 C :    0.021595
  15 C :    0.043358
  16 C :   -0.001442
  17 C :   -0.195160
  18 O :    0.394291
  19 C :    0.026353
  20 H :   -0.022574
  21 H :   -0.024749
  22 H :   -0.033189
  23 H :   -0.032835
  24 H :   -0.026957
  25 H :   -0.007116
  26 H :   -0.016962
  27 H :   -0.014426
  28 H :   -0.057986
  29 H :   -0.063956
  30 H :   -0.003477
  31 H :   -0.023266
  32 H :   -0.019423
  33 H :   -0.035097
  34 H :   -0.153486
  35 H :   -0.024659

  Mayer bond orders larger than 0.100000
B(  0-C ,  1-C ) :   0.9780 B(  0-C , 20-H ) :   0.9768 B(  0-C , 21-H ) :   0.9774
B(  0-C , 22-H ) :   0.9784 B(  1-C ,  2-O ) :   0.8932 B(  1-C , 23-H ) :   0.9602
B(  1-C , 24-H ) :   0.9834 B(  2-O ,  3-C ) :   1.0958 B(  3-C ,  4-O ) :   2.0548
B(  3-C ,  5-C ) :   0.9947 B(  5-C ,  6-C ) :   1.6676 B(  5-C , 12-C ) :   0.9576
B(  6-C ,  7-C ) :   0.9540 B(  6-C ,  8-N ) :   1.1324 B(  7-C , 25-H ) :   0.9708
B(  7-C , 26-H ) :   0.9849 B(  7-C , 27-H ) :   0.9640 B(  8-N ,  9-C ) :   1.1853
B(  8-N , 28-H ) :   0.9506 B(  9-C , 10-S ) :   1.6147 B(  9-C , 11-N ) :   1.2959
B( 11-N , 12-C ) :   0.9929 B( 11-N , 29-H ) :   0.9516 B( 12-C , 13-C ) :   0.9476
B( 12-C , 30-H ) :   0.9981 B( 13-C , 14-C ) :   1.3851 B( 13-C , 19-C ) :   1.3502
B( 14-C , 15-C ) :   1.3963 B( 14-C , 31-H ) :   0.9604 B( 15-C , 16-C ) :   1.3644
B( 15-C , 32-H ) :   0.9704 B( 16-C , 17-C ) :   1.3301 B( 16-C , 33-H ) :   0.9843
B( 17-C , 18-O ) :   1.1114 B( 17-C , 19-C ) :   1.3707 B( 18-O , 34-H ) :   0.9796
B( 19-C , 35-H ) :   0.9598

MP2 TOTAL ENERGY:    -1274.321401695 Eh
FINAL SINGLE POINT ENERGY     -1274.321401694637

DIPOLE MOMENT
-------------
                                X             Y             Z
Electronic contribution:     11.75311       7.29392       6.77853
Nuclear contribution   :    -13.05681      -8.46351      -7.17438
                        -----------------------------------------
Total Dipole Moment    :     -1.30370      -1.16959      -0.39585
                        -----------------------------------------
Magnitude (a.u.)       :      1.79563
Magnitude (Debye)      :      4.56413

Rotational constants in cm-1:     0.011360     0.009420     0.006850
Rotational constants in MHz :   340.570530   282.394419   205.350279

                             ****ORCA TERMINATED NORMALLY****
TOTAL RUN TIME: 0 days 1 hours 47 minutes 35 seconds 601 msec
