                         Program Version 4.2.0 -  RELEASE  -
|  1> ! ri-mp2 cc-pvtz cc-pvtz/c TightSCF  NoKeepInts
|  2>
|  3> %scf
|  4>   MaxCore 4096
|  5> end
|  6> *xyz  0  1
|  7>     C       15.1103142   13.8722554   16.4452611
|  8>     C       16.5563124   14.0052547   15.9204670
|  9>     O       17.2467936   15.0558258   16.6248241
| 10>     C       16.8317875   16.3583931   16.5496852
| 11>     O       16.0246808   16.7419316   15.7199030
| 12>     C       17.5904243   17.2571868   17.4864505
| 13>     C       17.4717190   18.6089130   17.4585152
| 14>     C       16.6107261   19.4346185   16.5266860
| 15>     N       18.2167684   19.3967392   18.3410374
| 16>     C       19.1531598   18.9205228   19.2192431
| 17>     S       20.0464948   19.9300359   20.1777722
| 18>     N       19.3134884   17.5592558   19.2652745
| 19>     C       18.4927674   16.5794168   18.5302590
| 20>     C       17.6816501   15.7393410   19.5128434
| 21>     C       17.9305695   14.3607166   19.6495032
| 22>     C       17.1777397   13.5835664   20.5458388
| 23>     C       16.1693954   14.1899276   21.3142595
| 24>     C       15.9216741   15.5633128   21.1837765
| 25>     O       14.9488841   16.1516806   21.9243636
| 26>     C       16.6722338   16.3340060   20.2905989
| 27>     H       15.1037759   13.7791219   17.5387459
| 28>     H       14.6337862   12.9790818   16.0238694
| 29>     H       14.4971637   14.7379162   16.1671865
| 30>     H       17.0862879   13.0573757   16.0785128
| 31>     H       16.5437124   14.2137061   14.8420773
| 32>     H       16.8773011   19.2390833   15.4802240
| 33>     H       16.7066936   20.5133954   16.6963285
| 34>     H       15.5517685   19.1730565   16.6485254
| 35>     H       18.1123405   20.3986113   18.3220173
| 36>     H       19.9824894   17.2359339   19.9521128
| 37>     H       19.1848133   15.9159321   17.9928985
| 38>     H       18.7047939   13.8882116   19.0510520
| 39>     H       17.3759310   12.5175455   20.6422029
| 40>     H       15.5852844   13.5940627   22.0078065
| 41>     H       14.5647538   15.4698003   22.4955450
| 42>     H       16.4685212   17.3962653   20.2083332
| 43> *
| 44>
| 45>                          ****END OF INPUT****

CARTESIAN COORDINATES (ANGSTROEM)
---------------------------------
  C     15.110314   13.872255   16.445261
  C     16.556312   14.005255   15.920467
  O     17.246794   15.055826   16.624824
  C     16.831788   16.358393   16.549685
  O     16.024681   16.741932   15.719903
  C     17.590424   17.257187   17.486451
  C     17.471719   18.608913   17.458515
  C     16.610726   19.434618   16.526686
  N     18.216768   19.396739   18.341037
  C     19.153160   18.920523   19.219243
  S     20.046495   19.930036   20.177772
  N     19.313488   17.559256   19.265275
  C     18.492767   16.579417   18.530259
  C     17.681650   15.739341   19.512843
  C     17.930570   14.360717   19.649503
  C     17.177740   13.583566   20.545839
  C     16.169395   14.189928   21.314259
  C     15.921674   15.563313   21.183777
  O     14.948884   16.151681   21.924364
  C     16.672234   16.334006   20.290599
  H     15.103776   13.779122   17.538746
  H     14.633786   12.979082   16.023869
  H     14.497164   14.737916   16.167186
  H     17.086288   13.057376   16.078513
  H     16.543712   14.213706   14.842077
  H     16.877301   19.239083   15.480224
  H     16.706694   20.513395   16.696328
  H     15.551768   19.173057   16.648525
  H     18.112340   20.398611   18.322017
  H     19.982489   17.235934   19.952113
  H     19.184813   15.915932   17.992898
  H     18.704794   13.888212   19.051052
  H     17.375931   12.517546   20.642203
  H     15.585284   13.594063   22.007807
  H     14.564754   15.469800   22.495545
  H     16.468521   17.396265   20.208333

 Total Charge           Charge          ....    0
 Multiplicity           Mult            ....    1
 Number of Electrons    NEL             ....  154
 Basis Dimension        Dim             ....  828

ORBITAL ENERGIES
----------------

  NO   OCC          E(Eh)            E(eV)
   0   2.0000     -91.888471     -2500.4124
   1   2.0000     -20.600656      -560.5723
   2   2.0000     -20.596325      -560.4545
   3   2.0000     -20.541715      -558.9685
   4   2.0000     -15.628557      -425.2747
   5   2.0000     -15.607884      -424.7121
   6   2.0000     -11.395746      -310.0940
   7   2.0000     -11.383639      -309.7646
   8   2.0000     -11.335516      -308.4551
   9   2.0000     -11.313513      -307.8563
  10   2.0000     -11.308175      -307.7111
  11   2.0000     -11.299113      -307.4645
  12   2.0000     -11.259276      -306.3805
  13   2.0000     -11.258708      -306.3650
  14   2.0000     -11.254858      -306.2602
  15   2.0000     -11.251752      -306.1757
  16   2.0000     -11.243071      -305.9395
  17   2.0000     -11.238451      -305.8138
  18   2.0000     -11.237976      -305.8009
  19   2.0000     -11.221973      -305.3654
  20   2.0000      -8.893538      -242.0055
  21   2.0000      -6.575115      -178.9180
  22   2.0000      -6.573108      -178.8634
  23   2.0000      -6.572523      -178.8474
  24   2.0000      -1.449886       -39.4534
  25   2.0000      -1.416007       -38.5315
  26   2.0000      -1.354456       -36.8566
  27   2.0000      -1.339536       -36.4506
  28   2.0000      -1.238035       -33.6886
  29   2.0000      -1.157514       -31.4976
  30   2.0000      -1.120141       -30.4806
  31   2.0000      -1.042504       -28.3680
  32   2.0000      -1.035290       -28.1717
  33   2.0000      -1.014808       -27.6143
  34   2.0000      -0.994920       -27.0731
  35   2.0000      -0.983732       -26.7687
  36   2.0000      -0.922144       -25.0928
  37   2.0000      -0.895866       -24.3778
  38   2.0000      -0.846707       -23.0401
  39   2.0000      -0.837457       -22.7884
  40   2.0000      -0.833864       -22.6906
  41   2.0000      -0.816550       -22.2195
  42   2.0000      -0.752627       -20.4800
  43   2.0000      -0.732138       -19.9225
  44   2.0000      -0.722682       -19.6652
  45   2.0000      -0.695502       -18.9256
  46   2.0000      -0.688373       -18.7316
  47   2.0000      -0.678702       -18.4684
  48   2.0000      -0.670679       -18.2501
  49   2.0000      -0.658357       -17.9148
  50   2.0000      -0.649036       -17.6612
  51   2.0000      -0.640966       -17.4416
  52   2.0000      -0.632270       -17.2050
  53   2.0000      -0.613167       -16.6851
  54   2.0000      -0.606267       -16.4974
  55   2.0000      -0.599671       -16.3179
  56   2.0000      -0.598515       -16.2864
  57   2.0000      -0.577211       -15.7067
  58   2.0000      -0.570407       -15.5216
  59   2.0000      -0.570116       -15.5137
  60   2.0000      -0.560443       -15.2504
  61   2.0000      -0.542936       -14.7740
  62   2.0000      -0.535024       -14.5587
  63   2.0000      -0.525493       -14.2994
  64   2.0000      -0.522968       -14.2307
  65   2.0000      -0.512959       -13.9583
  66   2.0000      -0.501520       -13.6470
  67   2.0000      -0.499490       -13.5918
  68   2.0000      -0.483221       -13.1491
  69   2.0000      -0.463765       -12.6197
  70   2.0000      -0.455374       -12.3914
  71   2.0000      -0.445777       -12.1302
  72   2.0000      -0.353756        -9.6262
  73   2.0000      -0.349307        -9.5051
  74   2.0000      -0.327884        -8.9222
  75   2.0000      -0.321026        -8.7356
  76   2.0000      -0.315708        -8.5908
  77   0.0000       0.076571         2.0836
  78   0.0000       0.106904         2.9090
  79   0.0000       0.125225         3.4075
  80   0.0000       0.132850         3.6150
  81   0.0000       0.138007         3.7554

MULLIKEN ATOMIC CHARGES
-----------------------
   0 C :   -0.309246
   1 C :    0.025062
   2 O :   -0.355659
   3 C :    0.472802
   4 O :   -0.438549
   5 C :   -0.218373
   6 C :    0.149112
   7 C :   -0.274134
   8 N :   -0.119319
   9 C :    0.210879
  10 S :   -0.440669
  11 N :   -0.204941
  12 C :    0.058327
  13 C :    0.058654
  14 C :   -0.183150
  15 C :   -0.132972
  16 C :   -0.278943
  17 C :    0.315816
  18 O :   -0.356476
  19 C :   -0.267930
  20 H :    0.105859
  21 H :    0.095187
  22 H :    0.121679
  23 H :    0.111432
  24 H :    0.109112
  25 H :    0.131307
  26 H :    0.095137
  27 H :    0.131281
  28 H :    0.196898
  29 H :    0.194806
  30 H :    0.150770
  31 H :    0.149954
  32 H :    0.160166
  33 H :    0.130143
  34 H :    0.240581
  35 H :    0.165395
Sum of atomic charges:   -0.0000000

LOEWDIN ATOMIC CHARGES
----------------------
   0 C :    0.105140
   1 C :   -0.016352
   2 O :    0.305125
   3 C :   -0.411664
   4 O :    0.097295
   5 C :   -0.093512
   6 C :   -0.059377
   7 C :    0.131395
   8 N :    0.406429
   9 C :   -0.456552
  10 S :   -0.036109
  11 N :    0.396578
  12 C :   -0.052297
  13 C :   -0.039792
  14 C :    0.014418
  15 C :    0.038797
  16 C :   -0.001818
  17 C :   -0.189966
  18 O :    0.395249
  19 C :    0.031520
  20 H :   -0.026855
  21 H :   -0.027921
  22 H :   -0.026043
  23 H :   -0.025132
  24 H :   -0.028029
  25 H :   -0.003988
  26 H :   -0.023474
  27 H :   -0.004778
  28 H :   -0.057661
  29 H :   -0.064498
  30 H :   -0.011708
  31 H :   -0.030016
  32 H :   -0.021509
  33 H :   -0.035497
  34 H :   -0.153958
  35 H :   -0.023439

  Mayer bond orders larger than 0.100000
B(  0-C ,  1-C ) :   0.9603 B(  0-C , 20-H ) :   0.9730 B(  0-C , 21-H ) :   0.9773
B(  0-C , 22-H ) :   0.9736 B(  1-C ,  2-O ) :   0.9003 B(  1-C , 23-H ) :   0.9847
B(  1-C , 24-H ) :   0.9819 B(  2-O ,  3-C ) :   1.1619 B(  3-C ,  4-O ) :   1.9564
B(  3-C ,  5-C ) :   1.0616 B(  5-C ,  6-C ) :   1.6547 B(  5-C , 12-C ) :   0.9718
B(  6-C ,  7-C ) :   0.9668 B(  6-C ,  8-N ) :   1.1651 B(  7-C , 25-H ) :   0.9603
B(  7-C , 26-H ) :   0.9904 B(  7-C , 27-H ) :   0.9608 B(  8-N ,  9-C ) :   1.1836
B(  8-N , 28-H ) :   0.9479 B(  9-C , 10-S ) :   1.6068 B(  9-C , 11-N ) :   1.3051
B( 11-N , 12-C ) :   0.9899 B( 11-N , 29-H ) :   0.9512 B( 12-C , 13-C ) :   0.9345
B( 12-C , 30-H ) :   1.0024 B( 13-C , 14-C ) :   1.3558 B( 13-C , 19-C ) :   1.3824
B( 14-C , 15-C ) :   1.3926 B( 14-C , 31-H ) :   0.9714 B( 15-C , 16-C ) :   1.3619
B( 15-C , 32-H ) :   0.9708 B( 16-C , 17-C ) :   1.3315 B( 16-C , 33-H ) :   0.9852
B( 17-C , 18-O ) :   1.1102 B( 17-C , 19-C ) :   1.3717 B( 18-O , 34-H ) :   0.9799
B( 19-C , 35-H ) :   0.9581

MP2 TOTAL ENERGY:    -1274.349625361 Eh
FINAL SINGLE POINT ENERGY     -1274.349625360838

DIPOLE MOMENT
-------------
                                X             Y             Z
Electronic contribution:      9.73080      10.49827       8.00239
Nuclear contribution   :    -10.68612     -12.27166      -8.45038
                        -----------------------------------------
Total Dipole Moment    :     -0.95532      -1.77339      -0.44800
                        -----------------------------------------
Magnitude (a.u.)       :      2.06355
Magnitude (Debye)      :      5.24512

Rotational constants in cm-1:     0.011948     0.008686     0.006194
Rotational constants in MHz :   358.195999   260.390406   185.705107

                             ****ORCA TERMINATED NORMALLY****
TOTAL RUN TIME: 0 days 1 hours 39 minutes 39 seconds 672 msec
