                         Program Version 5.0.0 -  RELEASE  -
|  1> ! ri-mp2 cc-pvtz cc-pvtz/c TightSCF NoKeepInts
|  2>
|  3> %scf
|  4>   MaxCore 4096
|  5> end
|  6> *xyz  0  1
|  7>     C       15.3124974   13.8014097   15.3432281
|  8>     C       15.1422020   14.9574421   16.3499623
|  9>     O       16.1704282   15.9439657   16.1383330
| 10>     C       17.4109440   15.7645300   16.6836124
| 11>     O       17.8838427   14.6546387   16.8631510
| 12>     C       17.8330211   16.9306498   17.5275779
| 13>     C       17.4967332   18.2200326   17.2680611
| 14>     C       16.6869984   18.7470479   16.1013917
| 15>     N       17.9816570   19.2435111   18.0883938
| 16>     C       18.9099833   19.0763068   19.0821708
| 17>     S       19.5213984   20.3593354   19.9280792
| 18>     N       19.3068005   17.7880602   19.3388583
| 19>     C       18.7022028   16.5826240   18.7405892
| 20>     C       17.8952032   15.8147294   19.7844011
| 21>     C       18.1580369   14.4542605   20.0293309
| 22>     C       17.4126993   13.7406417   20.9827903
| 23>     C       16.3941472   14.3921612   21.6988084
| 24>     C       16.1261999   15.7459883   21.4551258
| 25>     O       15.1382530   16.3760780   22.1393793
| 26>     C       16.8691930   16.4533554   20.5048546
| 27>     H       15.3530732   14.1850741   14.3164348
| 28>     H       14.4679596   13.1056923   15.4153438
| 29>     H       16.2304575   13.2333194   15.5363256
| 30>     H       14.1613742   15.4225672   16.1886140
| 31>     H       15.1737708   14.5775555   17.3807247
| 32>     H       16.9816456   18.2557358   15.1656327
| 33>     H       16.8189258   19.8254825   15.9511531
| 34>     H       15.6173203   18.5593607   16.2570534
| 35>     H       17.7027979   20.1960571   17.9151430
| 36>     H       19.9691596   17.6896234   20.0974993
| 37>     H       19.5209451   15.9361982   18.3927393
| 38>     H       18.9331536   13.9434401   19.4631211
| 39>     H       17.6226564   12.6870660   21.1582683
| 40>     H       15.8150683   13.8443311   22.4346939
| 41>     H       14.7790666   15.7425660   22.7785489
| 42>     H       16.6471840   17.5011617   20.3346046
| 43> *
| 44>
| 45>                          ****END OF INPUT****

CARTESIAN COORDINATES (ANGSTROEM)
---------------------------------
  C     15.312497   13.801410   15.343228
  C     15.142202   14.957442   16.349962
  O     16.170428   15.943966   16.138333
  C     17.410944   15.764530   16.683612
  O     17.883843   14.654639   16.863151
  C     17.833021   16.930650   17.527578
  C     17.496733   18.220033   17.268061
  C     16.686998   18.747048   16.101392
  N     17.981657   19.243511   18.088394
  C     18.909983   19.076307   19.082171
  S     19.521398   20.359335   19.928079
  N     19.306801   17.788060   19.338858
  C     18.702203   16.582624   18.740589
  C     17.895203   15.814729   19.784401
  C     18.158037   14.454260   20.029331
  C     17.412699   13.740642   20.982790
  C     16.394147   14.392161   21.698808
  C     16.126200   15.745988   21.455126
  O     15.138253   16.376078   22.139379
  C     16.869193   16.453355   20.504855
  H     15.353073   14.185074   14.316435
  H     14.467960   13.105692   15.415344
  H     16.230457   13.233319   15.536326
  H     14.161374   15.422567   16.188614
  H     15.173771   14.577556   17.380725
  H     16.981646   18.255736   15.165633
  H     16.818926   19.825482   15.951153
  H     15.617320   18.559361   16.257053
  H     17.702798   20.196057   17.915143
  H     19.969160   17.689623   20.097499
  H     19.520945   15.936198   18.392739
  H     18.933154   13.943440   19.463121
  H     17.622656   12.687066   21.158268
  H     15.815068   13.844331   22.434694
  H     14.779067   15.742566   22.778549
  H     16.647184   17.501162   20.334605

 Total Charge           Charge          ....    0
 Multiplicity           Mult            ....    1
 Number of Electrons    NEL             ....  154
 Basis Dimension        Dim             ....  828

ORBITAL ENERGIES
----------------

  NO   OCC          E(Eh)            E(eV)
   0   2.0000     -91.887962     -2500.3986
   1   2.0000     -20.593741      -560.3842
   2   2.0000     -20.593055      -560.3655
   3   2.0000     -20.552658      -559.2663
   4   2.0000     -15.627549      -425.2472
   5   2.0000     -15.607237      -424.6945
   6   2.0000     -11.396989      -310.1279
   7   2.0000     -11.383212      -309.7529
   8   2.0000     -11.333092      -308.3891
   9   2.0000     -11.309842      -307.7564
  10   2.0000     -11.307264      -307.6863
  11   2.0000     -11.301405      -307.5269
  12   2.0000     -11.259631      -306.3901
  13   2.0000     -11.258966      -306.3720
  14   2.0000     -11.255613      -306.2808
  15   2.0000     -11.250073      -306.1301
  16   2.0000     -11.239683      -305.8473
  17   2.0000     -11.235574      -305.7355
  18   2.0000     -11.232836      -305.6610
  19   2.0000     -11.220658      -305.3296
  20   2.0000      -8.893036      -241.9918
  21   2.0000      -6.574616      -178.9044
  22   2.0000      -6.572606      -178.8497
  23   2.0000      -6.572023      -178.8338
  24   2.0000      -1.452598       -39.5272
  25   2.0000      -1.413493       -38.4631
  26   2.0000      -1.358217       -36.9590
  27   2.0000      -1.338769       -36.4297
  28   2.0000      -1.236900       -33.6578
  29   2.0000      -1.154098       -31.4046
  30   2.0000      -1.120095       -30.4793
  31   2.0000      -1.042838       -28.3771
  32   2.0000      -1.032194       -28.0874
  33   2.0000      -1.011535       -27.5253
  34   2.0000      -0.997419       -27.1412
  35   2.0000      -0.982744       -26.7418
  36   2.0000      -0.922051       -25.0903
  37   2.0000      -0.888222       -24.1697
  38   2.0000      -0.847772       -23.0691
  39   2.0000      -0.837060       -22.7776
  40   2.0000      -0.830138       -22.5892
  41   2.0000      -0.821686       -22.3592
  42   2.0000      -0.750954       -20.4345
  43   2.0000      -0.732774       -19.9398
  44   2.0000      -0.726571       -19.7710
  45   2.0000      -0.692450       -18.8425
  46   2.0000      -0.685539       -18.6545
  47   2.0000      -0.680936       -18.5292
  48   2.0000      -0.671806       -18.2808
  49   2.0000      -0.662813       -18.0361
  50   2.0000      -0.646089       -17.5810
  51   2.0000      -0.641412       -17.4537
  52   2.0000      -0.633211       -17.2305
  53   2.0000      -0.604877       -16.4595
  54   2.0000      -0.601584       -16.3699
  55   2.0000      -0.598461       -16.2849
  56   2.0000      -0.596041       -16.2191
  57   2.0000      -0.586094       -15.9484
  58   2.0000      -0.574604       -15.6358
  59   2.0000      -0.568756       -15.4766
  60   2.0000      -0.560968       -15.2647
  61   2.0000      -0.546986       -14.8842
  62   2.0000      -0.535263       -14.5652
  63   2.0000      -0.519212       -14.1285
  64   2.0000      -0.516493       -14.0545
  65   2.0000      -0.511020       -13.9056
  66   2.0000      -0.502668       -13.6783
  67   2.0000      -0.496502       -13.5105
  68   2.0000      -0.480655       -13.0793
  69   2.0000      -0.463007       -12.5991
  70   2.0000      -0.455434       -12.3930
  71   2.0000      -0.451931       -12.2977
  72   2.0000      -0.353324        -9.6144
  73   2.0000      -0.345903        -9.4125
  74   2.0000      -0.327231        -8.9044
  75   2.0000      -0.317042        -8.6272
  76   2.0000      -0.314773        -8.5654
  77   0.0000       0.074157         2.0179
  78   0.0000       0.108973         2.9653
  79   0.0000       0.120905         3.2900
  80   0.0000       0.134257         3.6533
  81   0.0000       0.138878         3.7791

MULLIKEN ATOMIC CHARGES
-----------------------
   0 C :   -0.286674
   1 C :    0.045580
   2 O :   -0.362478
   3 C :    0.428922
   4 O :   -0.414610
   5 C :   -0.150172
   6 C :    0.136403
   7 C :   -0.282838
   8 N :   -0.123376
   9 C :    0.202651
  10 S :   -0.440521
  11 N :   -0.199520
  12 C :    0.045039
  13 C :    0.050139
  14 C :   -0.164899
  15 C :   -0.133819
  16 C :   -0.280648
  17 C :    0.311544
  18 O :   -0.358407
  19 C :   -0.272777
  20 H :    0.090338
  21 H :    0.090278
  22 H :    0.122514
  23 H :    0.099828
  24 H :    0.098461
  25 H :    0.123299
  26 H :    0.102245
  27 H :    0.126876
  28 H :    0.196924
  29 H :    0.193839
  30 H :    0.154689
  31 H :    0.155041
  32 H :    0.160145
  33 H :    0.129387
  34 H :    0.240300
  35 H :    0.166295
Sum of atomic charges:   -0.0000000

LOEWDIN ATOMIC CHARGES
----------------------
   0 C :    0.104701
   1 C :   -0.014314
   2 O :    0.293942
   3 C :   -0.411749
   4 O :    0.121670
   5 C :   -0.091639
   6 C :   -0.071642
   7 C :    0.125585
   8 N :    0.404139
   9 C :   -0.458022
  10 S :   -0.036964
  11 N :    0.397290
  12 C :   -0.045633
  13 C :   -0.039725
  14 C :    0.020853
  15 C :    0.040535
  16 C :   -0.002519
  17 C :   -0.193148
  18 O :    0.393338
  19 C :    0.028563
  20 H :   -0.029808
  21 H :   -0.029695
  22 H :   -0.025898
  23 H :   -0.025639
  24 H :   -0.026686
  25 H :   -0.008657
  26 H :   -0.020126
  27 H :   -0.009595
  28 H :   -0.058939
  29 H :   -0.063997
  30 H :   -0.005054
  31 H :   -0.025174
  32 H :   -0.020907
  33 H :   -0.036069
  34 H :   -0.154589
  35 H :   -0.024429

  Mayer bond orders larger than 0.100000
B(  0-C ,  1-C ) :   0.9726 B(  0-C , 20-H ) :   0.9760 B(  0-C , 21-H ) :   0.9765
B(  0-C , 22-H ) :   0.9722 B(  1-C ,  2-O ) :   0.9016 B(  1-C , 23-H ) :   0.9838
B(  1-C , 24-H ) :   0.9741 B(  2-O ,  3-C ) :   1.0978 B(  3-C ,  4-O ) :   1.9833
B(  3-C ,  5-C ) :   1.0418 B(  5-C ,  6-C ) :   1.6612 B(  5-C , 12-C ) :   0.9635
B(  6-C ,  7-C ) :   0.9536 B(  6-C ,  8-N ) :   1.1387 B(  7-C , 25-H ) :   0.9694
B(  7-C , 26-H ) :   0.9894 B(  7-C , 27-H ) :   0.9628 B(  8-N ,  9-C ) :   1.1834
B(  8-N , 28-H ) :   0.9496 B(  9-C , 10-S ) :   1.6098 B(  9-C , 11-N ) :   1.3009
B( 11-N , 12-C ) :   0.9929 B( 11-N , 29-H ) :   0.9517 B( 12-C , 13-C ) :   0.9450
B( 12-C , 30-H ) :   0.9987 B( 13-C , 14-C ) :   1.3764 B( 13-C , 19-C ) :   1.3695
B( 14-C , 15-C ) :   1.3946 B( 14-C , 31-H ) :   0.9645 B( 15-C , 16-C ) :   1.3631
B( 15-C , 32-H ) :   0.9711 B( 16-C , 17-C ) :   1.3308 B( 16-C , 33-H ) :   0.9855
B( 17-C , 18-O ) :   1.1090 B( 17-C , 19-C ) :   1.3774 B( 18-O , 34-H ) :   0.9803
B( 19-C , 35-H ) :   0.9580

MP2 TOTAL ENERGY:    -1274.332107311 Eh
FINAL SINGLE POINT ENERGY     -1274.332107311332

DIPOLE MOMENT
-------------
                                X             Y             Z
Electronic contribution:     10.50546      10.47067       9.67541
Nuclear contribution   :    -12.07313     -11.65195     -10.38211
                        -----------------------------------------
Total Dipole Moment    :     -1.56767      -1.18128      -0.70670
                        -----------------------------------------
Magnitude (a.u.)       :      2.08625
Magnitude (Debye)      :      5.30283

Rotational constants in cm-1:     0.011148     0.008999     0.006085
Rotational constants in MHz :   334.213732   269.785255   182.438103

                             ****ORCA TERMINATED NORMALLY****
TOTAL RUN TIME: 0 days 1 hours 27 minutes 55 seconds 132 msec
