                         Program Version 5.0.0 -  RELEASE  -
|  1> ! ri-mp2 cc-pvtz cc-pvtz/c TightSCF NoKeepInts
|  2>
|  3> %scf
|  4>   MaxCore 4096
|  5> end
|  6> *xyz  0  1
|  7>     C       15.4513354   13.6891086   15.7511315
|  8>     C       15.3407931   15.1528678   15.2713913
|  9>     O       16.2892530   16.0896036   15.8498395
| 10>     C       17.3059882   15.8160811   16.7273842
| 11>     O       17.8407179   14.7257213   16.8341487
| 12>     C       17.7115366   16.9790761   17.5920655
| 13>     C       17.3217428   18.2708414   17.4181715
| 14>     C       16.4193670   18.8463871   16.3452297
| 15>     N       17.8219279   19.2666940   18.2644733
| 16>     C       18.8112432   19.0846589   19.1938463
| 17>     S       19.4362094   20.3468711   20.0610166
| 18>     N       19.2549783   17.7991091   19.3676537
| 19>     C       18.6406083   16.6069509   18.7547649
| 20>     C       17.8992460   15.7868658   19.8078773
| 21>     C       18.1896947   14.4209375   19.9812160
| 22>     C       17.5079540   13.6597161   20.9453819
| 23>     C       16.5259649   14.2686909   21.7449969
| 24>     C       16.2307179   15.6278863   21.5733411
| 25>     O       15.2784469   16.2173837   22.3395557
| 26>     C       16.9104942   16.3827686   20.6123098
| 27>     H       16.3854573   13.2285288   15.4057907
| 28>     H       14.6227756   13.0949798   15.3475272
| 29>     H       15.4073724   13.6261214   16.8459341
| 30>     H       15.4539265   15.1678819   14.1796961
| 31>     H       14.3271120   15.5114268   15.4916967
| 32>     H       15.3976003   18.4614328   16.4510055
| 33>     H       16.7831907   18.5770112   15.3457981
| 34>     H       16.3613172   19.9409917   16.3812418
| 35>     H       17.5094428   20.2177808   18.1524117
| 36>     H       19.9629345   17.6848196   20.0814975
| 37>     H       19.4547124   15.9891852   18.3486329
| 38>     H       18.9363788   13.9433813   19.3512733
| 39>     H       17.7381413   12.6025449   21.0644930
| 40>     H       15.9957689   13.6841079   22.4893274
| 41>     H       14.9542750   15.5498103   22.9624554
| 42>     H       16.6683745   17.4337756   20.4994234
| 43> *
| 44>
| 45>                          ****END OF INPUT****

CARTESIAN COORDINATES (ANGSTROEM)
---------------------------------
  C     15.451335   13.689109   15.751131
  C     15.340793   15.152868   15.271391
  O     16.289253   16.089604   15.849839
  C     17.305988   15.816081   16.727384
  O     17.840718   14.725721   16.834149
  C     17.711537   16.979076   17.592066
  C     17.321743   18.270841   17.418171
  C     16.419367   18.846387   16.345230
  N     17.821928   19.266694   18.264473
  C     18.811243   19.084659   19.193846
  S     19.436209   20.346871   20.061017
  N     19.254978   17.799109   19.367654
  C     18.640608   16.606951   18.754765
  C     17.899246   15.786866   19.807877
  C     18.189695   14.420938   19.981216
  C     17.507954   13.659716   20.945382
  C     16.525965   14.268691   21.744997
  C     16.230718   15.627886   21.573341
  O     15.278447   16.217384   22.339556
  C     16.910494   16.382769   20.612310
  H     16.385457   13.228529   15.405791
  H     14.622776   13.094980   15.347527
  H     15.407372   13.626121   16.845934
  H     15.453926   15.167882   14.179696
  H     14.327112   15.511427   15.491697
  H     15.397600   18.461433   16.451006
  H     16.783191   18.577011   15.345798
  H     16.361317   19.940992   16.381242
  H     17.509443   20.217781   18.152412
  H     19.962934   17.684820   20.081497
  H     19.454712   15.989185   18.348633
  H     18.936379   13.943381   19.351273
  H     17.738141   12.602545   21.064493
  H     15.995769   13.684108   22.489327
  H     14.954275   15.549810   22.962455
  H     16.668374   17.433776   20.499423

 Total Charge           Charge          ....    0
 Multiplicity           Mult            ....    1
 Number of Electrons    NEL             ....  154
 Basis Dimension        Dim             ....  828

ORBITAL ENERGIES
----------------

  NO   OCC          E(Eh)            E(eV)
   0   2.0000     -91.887392     -2500.3831
   1   2.0000     -20.599217      -560.5332
   2   2.0000     -20.591468      -560.3223
   3   2.0000     -20.543647      -559.0211
   4   2.0000     -15.627570      -425.2478
   5   2.0000     -15.605922      -424.6587
   6   2.0000     -11.398535      -310.1699
   7   2.0000     -11.382048      -309.7213
   8   2.0000     -11.335734      -308.4610
   9   2.0000     -11.307536      -307.6937
  10   2.0000     -11.307243      -307.6857
  11   2.0000     -11.304252      -307.6043
  12   2.0000     -11.259706      -306.3922
  13   2.0000     -11.257992      -306.3455
  14   2.0000     -11.253001      -306.2097
  15   2.0000     -11.247403      -306.0574
  16   2.0000     -11.237052      -305.7757
  17   2.0000     -11.233089      -305.6679
  18   2.0000     -11.229956      -305.5826
  19   2.0000     -11.225662      -305.4658
  20   2.0000      -8.892462      -241.9762
  21   2.0000      -6.574041      -178.8888
  22   2.0000      -6.572033      -178.8341
  23   2.0000      -6.571449      -178.8182
  24   2.0000      -1.444967       -39.3196
  25   2.0000      -1.411208       -38.4009
  26   2.0000      -1.356128       -36.9021
  27   2.0000      -1.338646       -36.4264
  28   2.0000      -1.236229       -33.6395
  29   2.0000      -1.151554       -31.3354
  30   2.0000      -1.117970       -30.4215
  31   2.0000      -1.041679       -28.3455
  32   2.0000      -1.034519       -28.1507
  33   2.0000      -1.009110       -27.4593
  34   2.0000      -0.996671       -27.1208
  35   2.0000      -0.981878       -26.7183
  36   2.0000      -0.920951       -25.0604
  37   2.0000      -0.897440       -24.4206
  38   2.0000      -0.847573       -23.0636
  39   2.0000      -0.835421       -22.7330
  40   2.0000      -0.827553       -22.5189
  41   2.0000      -0.817220       -22.2377
  42   2.0000      -0.742506       -20.2046
  43   2.0000      -0.726263       -19.7626
  44   2.0000      -0.723868       -19.6974
  45   2.0000      -0.689589       -18.7647
  46   2.0000      -0.683705       -18.6046
  47   2.0000      -0.676987       -18.4217
  48   2.0000      -0.673894       -18.3376
  49   2.0000      -0.664008       -18.0686
  50   2.0000      -0.647166       -17.6103
  51   2.0000      -0.643378       -17.5072
  52   2.0000      -0.633730       -17.2447
  53   2.0000      -0.609117       -16.5749
  54   2.0000      -0.600330       -16.3358
  55   2.0000      -0.599035       -16.3006
  56   2.0000      -0.594969       -16.1899
  57   2.0000      -0.577635       -15.7183
  58   2.0000      -0.573169       -15.5967
  59   2.0000      -0.568237       -15.4625
  60   2.0000      -0.557616       -15.1735
  61   2.0000      -0.541935       -14.7468
  62   2.0000      -0.537952       -14.6384
  63   2.0000      -0.525851       -14.3091
  64   2.0000      -0.516497       -14.0546
  65   2.0000      -0.510634       -13.8951
  66   2.0000      -0.499576       -13.5942
  67   2.0000      -0.494598       -13.4587
  68   2.0000      -0.478724       -13.0268
  69   2.0000      -0.462423       -12.5832
  70   2.0000      -0.452929       -12.3248
  71   2.0000      -0.447709       -12.1828
  72   2.0000      -0.353249        -9.6124
  73   2.0000      -0.343651        -9.3512
  74   2.0000      -0.326571        -8.8864
  75   2.0000      -0.315163        -8.5760
  76   2.0000      -0.313251        -8.5240
  77   0.0000       0.076294         2.0761
  78   0.0000       0.113193         3.0801
  79   0.0000       0.121743         3.3128
  80   0.0000       0.136009         3.7010
  81   0.0000       0.139249         3.7892

MULLIKEN ATOMIC CHARGES
-----------------------
   0 C :   -0.293991
   1 C :    0.050564
   2 O :   -0.359637
   3 C :    0.444825
   4 O :   -0.425510
   5 C :   -0.167826
   6 C :    0.144507
   7 C :   -0.283795
   8 N :   -0.121611
   9 C :    0.200811
  10 S :   -0.440252
  11 N :   -0.197637
  12 C :    0.036714
  13 C :    0.057198
  14 C :   -0.164531
  15 C :   -0.134520
  16 C :   -0.279490
  17 C :    0.311728
  18 O :   -0.359117
  19 C :   -0.274267
  20 H :    0.119468
  21 H :    0.097297
  22 H :    0.107682
  23 H :    0.093448
  24 H :    0.090076
  25 H :    0.124843
  26 H :    0.128426
  27 H :    0.102604
  28 H :    0.196447
  29 H :    0.193687
  30 H :    0.154683
  31 H :    0.154837
  32 H :    0.159304
  33 H :    0.128115
  34 H :    0.239999
  35 H :    0.164921
Sum of atomic charges:    0.0000000

LOEWDIN ATOMIC CHARGES
----------------------
   0 C :    0.103724
   1 C :   -0.008259
   2 O :    0.292615
   3 C :   -0.413994
   4 O :    0.113322
   5 C :   -0.090984
   6 C :   -0.064737
   7 C :    0.124343
   8 N :    0.404709
   9 C :   -0.459481
  10 S :   -0.036797
  11 N :    0.398072
  12 C :   -0.046811
  13 C :   -0.038976
  14 C :    0.021753
  15 C :    0.040126
  16 C :   -0.002750
  17 C :   -0.192867
  18 O :    0.392918
  19 C :    0.028164
  20 H :   -0.023945
  21 H :   -0.027198
  22 H :   -0.024510
  23 H :   -0.028129
  24 H :   -0.028897
  25 H :   -0.010200
  26 H :   -0.008011
  27 H :   -0.021531
  28 H :   -0.059497
  29 H :   -0.063664
  30 H :   -0.005536
  31 H :   -0.025149
  32 H :   -0.021306
  33 H :   -0.036494
  34 H :   -0.154962
  35 H :   -0.025065

  Mayer bond orders larger than 0.100000
B(  0-C ,  1-C ) :   0.9787 B(  0-C , 20-H ) :   0.9721 B(  0-C , 21-H ) :   0.9726
B(  0-C , 22-H ) :   0.9738 B(  1-C ,  2-O ) :   0.9007 B(  1-C , 23-H ) :   0.9789
B(  1-C , 24-H ) :   0.9785 B(  2-O ,  3-C ) :   1.1462 B(  3-C ,  4-O ) :   1.9843
B(  3-C ,  5-C ) :   1.0468 B(  5-C ,  6-C ) :   1.6511 B(  5-C , 12-C ) :   0.9655
B(  6-C ,  7-C ) :   0.9540 B(  6-C ,  8-N ) :   1.1470 B(  7-C , 25-H ) :   0.9651
B(  7-C , 26-H ) :   0.9646 B(  7-C , 27-H ) :   0.9924 B(  8-N ,  9-C ) :   1.1790
B(  8-N , 28-H ) :   0.9486 B(  9-C , 10-S ) :   1.6097 B(  9-C , 11-N ) :   1.3052
B( 11-N , 12-C ) :   0.9908 B( 11-N , 29-H ) :   0.9521 B( 12-C , 13-C ) :   0.9458
B( 12-C , 30-H ) :   1.0005 B( 13-C , 14-C ) :   1.3748 B( 13-C , 19-C ) :   1.3694
B( 14-C , 15-C ) :   1.3944 B( 14-C , 31-H ) :   0.9644 B( 15-C , 16-C ) :   1.3620
B( 15-C , 32-H ) :   0.9714 B( 16-C , 17-C ) :   1.3317 B( 16-C , 33-H ) :   0.9860
B( 17-C , 18-O ) :   1.1080 B( 17-C , 19-C ) :   1.3785 B( 18-O , 34-H ) :   0.9806
B( 19-C , 35-H ) :   0.9584

MP2 TOTAL ENERGY:    -1274.336683271 Eh
FINAL SINGLE POINT ENERGY     -1274.336683271420

DIPOLE MOMENT
-------------
                                X             Y             Z
Electronic contribution:     10.09368      10.42197      10.05756
Nuclear contribution   :    -11.75635     -11.64025     -11.10376
                        -----------------------------------------
Total Dipole Moment    :     -1.66266      -1.21828      -1.04621
                        -----------------------------------------
Magnitude (a.u.)       :      2.31153
Magnitude (Debye)      :      5.87545

Rotational constants in cm-1:     0.010737     0.009031     0.005927
Rotational constants in MHz :   321.881225   270.747395   177.680592

                             ****ORCA TERMINATED NORMALLY****
TOTAL RUN TIME: 0 days 1 hours 55 minutes 44 seconds 86 msec
