                         Program Version 4.2.0 -  RELEASE  -
|  1> ! ri-mp2 cc-pvtz cc-pvtz/c TightSCF  NoKeepInts
|  2>
|  3> %scf
|  4>   MaxCore 4096
|  5> end
|  6> *xyz  0  1
|  7>     C       14.7686500   14.4794433   17.3139863
|  8>     C       15.6774514   15.3527647   16.4340241
|  9>     O       17.0294848   14.9365724   16.6791605
| 10>     C       18.0886716   15.7735226   16.4704551
| 11>     O       19.1708681   15.2677496   16.2405318
| 12>     C       18.0436799   16.9484744   17.3852533
| 13>     C       17.5527889   18.1410869   16.9825350
| 14>     C       16.9767157   18.4687700   15.6215564
| 15>     N       17.5987357   19.2389414   17.8442155
| 16>     C       18.2251601   19.2434419   19.0639361
| 17>     S       18.2975833   20.6074575   19.9960011
| 18>     N       18.7860178   18.0583437   19.4752485
| 19>     C       18.6688758   16.7665602   18.7678836
| 20>     C       17.8973086   15.7454080   19.5983078
| 21>     C       18.3442782   14.4131048   19.6662769
| 22>     C       17.6396914   13.4584102   20.4182650
| 23>     C       16.4767552   13.8379577   21.1095867
| 24>     C       16.0243759   15.1623946   21.0394704
| 25>     O       14.8929665   15.5281287   21.6928247
| 26>     C       16.7253509   16.1103231   20.2871342
| 27>     H       14.8883953   13.4191124   17.0586484
| 28>     H       13.7154852   14.7511679   17.1742760
| 29>     H       15.0185296   14.6063691   18.3739340
| 30>     H       15.4243222   15.2330019   15.3724747
| 31>     H       15.5194744   16.3982085   16.7214777
| 32>     H       17.1885588   17.6895972   14.8793699
| 33>     H       17.4078252   19.3990262   15.2294398
| 34>     H       15.8888840   18.5993208   15.6749505
| 35>     H       17.2051974   20.1211365   17.5564551
| 36>     H       19.2231038   18.0869260   20.3876982
| 37>     H       19.6868806   16.3779092   18.6171562
| 38>     H       19.2341921   14.1132309   19.1171488
| 39>     H       17.9932401   12.4295509   20.4567132
| 40>     H       15.9284993   13.1027408   21.6891385
| 41>     H       14.5860121   14.7576225   22.1941539
| 42>     H       16.3529900   17.1282233   20.2443123
| 43> *
| 44>
| 45>                          ****END OF INPUT****

CARTESIAN COORDINATES (ANGSTROEM)
---------------------------------
  C     14.768650   14.479443   17.313986
  C     15.677451   15.352765   16.434024
  O     17.029485   14.936572   16.679160
  C     18.088672   15.773523   16.470455
  O     19.170868   15.267750   16.240532
  C     18.043680   16.948474   17.385253
  C     17.552789   18.141087   16.982535
  C     16.976716   18.468770   15.621556
  N     17.598736   19.238941   17.844216
  C     18.225160   19.243442   19.063936
  S     18.297583   20.607457   19.996001
  N     18.786018   18.058344   19.475248
  C     18.668876   16.766560   18.767884
  C     17.897309   15.745408   19.598308
  C     18.344278   14.413105   19.666277
  C     17.639691   13.458410   20.418265
  C     16.476755   13.837958   21.109587
  C     16.024376   15.162395   21.039470
  O     14.892966   15.528129   21.692825
  C     16.725351   16.110323   20.287134
  H     14.888395   13.419112   17.058648
  H     13.715485   14.751168   17.174276
  H     15.018530   14.606369   18.373934
  H     15.424322   15.233002   15.372475
  H     15.519474   16.398208   16.721478
  H     17.188559   17.689597   14.879370
  H     17.407825   19.399026   15.229440
  H     15.888884   18.599321   15.674950
  H     17.205197   20.121136   17.556455
  H     19.223104   18.086926   20.387698
  H     19.686881   16.377909   18.617156
  H     19.234192   14.113231   19.117149
  H     17.993240   12.429551   20.456713
  H     15.928499   13.102741   21.689138
  H     14.586012   14.757623   22.194154
  H     16.352990   17.128223   20.244312

 Total Charge           Charge          ....    0
 Multiplicity           Mult            ....    1
 Number of Electrons    NEL             ....  154
 Basis Dimension        Dim             ....  828

ORBITAL ENERGIES
----------------

  NO   OCC          E(Eh)            E(eV)
   0   2.0000     -91.886999     -2500.3724
   1   2.0000     -20.600843      -560.5774
   2   2.0000     -20.598073      -560.5021
   3   2.0000     -20.560795      -559.4877
   4   2.0000     -15.621996      -425.0961
   5   2.0000     -15.609894      -424.7668
   6   2.0000     -11.395390      -310.0843
   7   2.0000     -11.383969      -309.7735
   8   2.0000     -11.321066      -308.0619
   9   2.0000     -11.315799      -307.9186
  10   2.0000     -11.314408      -307.8807
  11   2.0000     -11.304843      -307.6204
  12   2.0000     -11.269649      -306.6627
  13   2.0000     -11.264367      -306.5190
  14   2.0000     -11.261689      -306.4461
  15   2.0000     -11.254864      -306.2604
  16   2.0000     -11.243793      -305.9592
  17   2.0000     -11.239698      -305.8477
  18   2.0000     -11.237457      -305.7867
  19   2.0000     -11.229548      -305.5715
  20   2.0000      -8.892144      -241.9675
  21   2.0000      -6.573743      -178.8806
  22   2.0000      -6.571707      -178.8252
  23   2.0000      -6.571143      -178.8099
  24   2.0000      -1.457795       -39.6686
  25   2.0000      -1.417874       -38.5823
  26   2.0000      -1.364721       -37.1359
  27   2.0000      -1.336624       -36.3714
  28   2.0000      -1.237204       -33.6660
  29   2.0000      -1.158789       -31.5322
  30   2.0000      -1.123692       -30.5772
  31   2.0000      -1.047337       -28.4995
  32   2.0000      -1.040329       -28.3088
  33   2.0000      -1.016686       -27.6654
  34   2.0000      -1.003359       -27.3028
  35   2.0000      -0.986825       -26.8529
  36   2.0000      -0.926206       -25.2033
  37   2.0000      -0.882851       -24.0236
  38   2.0000      -0.852319       -23.1928
  39   2.0000      -0.839465       -22.8430
  40   2.0000      -0.835129       -22.7250
  41   2.0000      -0.834521       -22.7085
  42   2.0000      -0.759908       -20.6781
  43   2.0000      -0.736364       -20.0375
  44   2.0000      -0.729911       -19.8619
  45   2.0000      -0.696751       -18.9595
  46   2.0000      -0.691073       -18.8050
  47   2.0000      -0.683914       -18.6102
  48   2.0000      -0.676497       -18.4084
  49   2.0000      -0.662465       -18.0266
  50   2.0000      -0.653048       -17.7703
  51   2.0000      -0.642362       -17.4796
  52   2.0000      -0.637203       -17.3392
  53   2.0000      -0.618744       -16.8369
  54   2.0000      -0.610643       -16.6164
  55   2.0000      -0.605454       -16.4752
  56   2.0000      -0.601734       -16.3740
  57   2.0000      -0.587742       -15.9933
  58   2.0000      -0.576372       -15.6839
  59   2.0000      -0.565500       -15.3881
  60   2.0000      -0.561294       -15.2736
  61   2.0000      -0.553148       -15.0519
  62   2.0000      -0.537959       -14.6386
  63   2.0000      -0.531512       -14.4632
  64   2.0000      -0.520295       -14.1579
  65   2.0000      -0.512579       -13.9480
  66   2.0000      -0.500956       -13.6317
  67   2.0000      -0.500092       -13.6082
  68   2.0000      -0.490322       -13.3423
  69   2.0000      -0.466368       -12.6905
  70   2.0000      -0.459337       -12.4992
  71   2.0000      -0.453435       -12.3386
  72   2.0000      -0.354831        -9.6554
  73   2.0000      -0.349257        -9.5038
  74   2.0000      -0.326948        -8.8967
  75   2.0000      -0.321965        -8.7611
  76   2.0000      -0.315256        -8.5786
  77   0.0000       0.092010         2.5037
  78   0.0000       0.098157         2.6710
  79   0.0000       0.108459         2.9513
  80   0.0000       0.126399         3.4395
  81   0.0000       0.128867         3.5067

MULLIKEN ATOMIC CHARGES
-----------------------
   0 C :   -0.268839
   1 C :    0.010956
   2 O :   -0.304731
   3 C :    0.379205
   4 O :   -0.358548
   5 C :   -0.133770
   6 C :    0.113239
   7 C :   -0.321536
   8 N :   -0.133795
   9 C :    0.207160
  10 S :   -0.446048
  11 N :   -0.214287
  12 C :    0.039141
  13 C :    0.040497
  14 C :   -0.183828
  15 C :   -0.137135
  16 C :   -0.265800
  17 C :    0.296051
  18 O :   -0.363805
  19 C :   -0.258540
  20 H :    0.102211
  21 H :    0.088640
  22 H :    0.119209
  23 H :    0.109932
  24 H :    0.081417
  25 H :    0.117338
  26 H :    0.132711
  27 H :    0.122377
  28 H :    0.194088
  29 H :    0.198372
  30 H :    0.167619
  31 H :    0.159775
  32 H :    0.162038
  33 H :    0.132022
  34 H :    0.240972
  35 H :    0.175692
Sum of atomic charges:   -0.0000000

LOEWDIN ATOMIC CHARGES
----------------------
   0 C :    0.112712
   1 C :   -0.030997
   2 O :    0.327294
   3 C :   -0.425552
   4 O :    0.145042
   5 C :   -0.078261
   6 C :   -0.117421
   7 C :    0.121725
   8 N :    0.399123
   9 C :   -0.455322
  10 S :   -0.042125
  11 N :    0.397731
  12 C :   -0.040930
  13 C :   -0.039961
  14 C :    0.024240
  15 C :    0.045523
  16 C :   -0.001612
  17 C :   -0.194744
  18 O :    0.394954
  19 C :    0.026637
  20 H :   -0.025058
  21 H :   -0.026658
  22 H :   -0.022780
  23 H :   -0.033486
  24 H :   -0.038397
  25 H :   -0.011506
  26 H :   -0.010759
  27 H :   -0.017595
  28 H :   -0.059826
  29 H :   -0.063818
  30 H :   -0.002485
  31 H :   -0.023539
  32 H :   -0.019140
  33 H :   -0.035358
  34 H :   -0.153409
  35 H :   -0.024243

  Mayer bond orders larger than 0.100000
B(  0-C ,  1-C ) :   0.9824 B(  0-C , 20-H ) :   0.9812 B(  0-C , 21-H ) :   0.9764
B(  0-C , 22-H ) :   0.9710 B(  1-C ,  2-O ) :   0.9304 B(  1-C , 23-H ) :   0.9783
B(  1-C , 24-H ) :   0.9621 B(  2-O ,  3-C ) :   1.1007 B(  3-C ,  4-O ) :   2.1047
B(  3-C ,  5-C ) :   0.9295 B(  5-C ,  6-C ) :   1.7171 B(  5-C , 12-C ) :   0.9683
B(  6-C ,  7-C ) :   0.9436 B(  6-C ,  8-N ) :   1.1034 B(  7-C , 25-H ) :   0.9818
B(  7-C , 26-H ) :   0.9732 B(  7-C , 27-H ) :   0.9664 B(  8-N ,  9-C ) :   1.2023
B(  8-N , 28-H ) :   0.9542 B(  9-C , 10-S ) :   1.6052 B(  9-C , 11-N ) :   1.2847
B( 11-N , 12-C ) :   0.9944 B( 11-N , 29-H ) :   0.9481 B( 12-C , 13-C ) :   0.9462
B( 12-C , 30-H ) :   0.9988 B( 13-C , 14-C ) :   1.3815 B( 13-C , 19-C ) :   1.3543
B( 14-C , 15-C ) :   1.3972 B( 14-C , 31-H ) :   0.9654 B( 15-C , 16-C ) :   1.3602
B( 15-C , 32-H ) :   0.9707 B( 16-C , 17-C ) :   1.3343 B( 16-C , 33-H ) :   0.9849
B( 17-C , 18-O ) :   1.1028 B( 17-C , 19-C ) :   1.3676 B( 18-O , 34-H ) :   0.9797
B( 19-C , 35-H ) :   0.9562

MP2 TOTAL ENERGY:    -1274.316282779 Eh
FINAL SINGLE POINT ENERGY     -1274.316282779490

DIPOLE MOMENT
-------------
                                X             Y             Z
Electronic contribution:     10.26626       8.19109       6.59653
Nuclear contribution   :    -11.85131      -9.43630      -7.39284
                        -----------------------------------------
Total Dipole Moment    :     -1.58505      -1.24521      -0.79631
                        -----------------------------------------
Magnitude (a.u.)       :      2.16726
Magnitude (Debye)      :      5.50874

Rotational constants in cm-1:     0.012379     0.009130     0.006809
Rotational constants in MHz :   371.108839   273.708490   204.119827

                             ****ORCA TERMINATED NORMALLY****
TOTAL RUN TIME: 0 days 1 hours 48 minutes 41 seconds 74 msec
