                         Program Version 4.2.0 -  RELEASE  -
|  1> ! ri-mp2 cc-pvtz cc-pvtz/c TightSCF  NoKeepInts
|  2>
|  3> %scf
|  4>   MaxCore 4096
|  5> end
|  6> *xyz  0  1
|  7>     C       15.0501472   14.2553112   16.9000574
|  8>     C       16.4349949   13.9586970   16.2805363
|  9>     O       17.3763855   15.0287490   16.5154926
| 10>     C       17.0314156   16.3456333   16.3825622
| 11>     O       16.2326899   16.7265051   15.5440121
| 12>     C       17.7067449   17.2307351   17.3931593
| 13>     C       17.5742570   18.5813308   17.3816033
| 14>     C       16.7726738   19.4149096   16.4049401
| 15>     N       18.2477076   19.3601274   18.3273750
| 16>     C       19.1383483   18.8783969   19.2491501
| 17>     S       19.9591752   19.8793595   20.2788090
| 18>     N       19.3177451   17.5189272   19.2751219
| 19>     C       18.5480806   16.5437331   18.4812564
| 20>     C       17.6880246   15.6887065   19.4075832
| 21>     C       17.9693853   14.3205093   19.5812978
| 22>     C       17.1721937   13.5280424   20.4242546
| 23>     C       16.0869025   14.1087899   21.1023257
| 24>     C       15.8078446   15.4723392   20.9367737
| 25>     O       14.7604889   16.0358381   21.5895619
| 26>     C       16.6023097   16.2581725   20.0963737
| 27>     H       15.1495327   14.5560496   17.9503951
| 28>     H       14.4216963   13.3574933   16.8647514
| 29>     H       14.5208466   15.0470064   16.3564215
| 30>     H       16.8353920   13.0291241   16.7047741
| 31>     H       16.3129328   13.8102497   15.1994072
| 32>     H       17.1022446   19.2265660   15.3752038
| 33>     H       16.8597534   20.4923341   16.5875126
| 34>     H       15.7080162   19.1538666   16.4599302
| 35>     H       18.1294112   20.3606506   18.3224599
| 36>     H       19.9524573   17.1909128   19.9916245
| 37>     H       19.2731789   15.8894451   17.9770856
| 38>     H       18.8047926   13.8681486   19.0536035
| 39>     H       17.3965874   12.4703005   20.5505757
| 40>     H       15.4685606   13.5011347   21.7548556
| 41>     H       14.3612645   15.3513170   22.1471984
| 42>     H       16.3728180   17.3125878   19.9859546
| 43> *
| 44>
| 45>                          ****END OF INPUT****

CARTESIAN COORDINATES (ANGSTROEM)
---------------------------------
  C     15.050147   14.255311   16.900057
  C     16.434995   13.958697   16.280536
  O     17.376386   15.028749   16.515493
  C     17.031416   16.345633   16.382562
  O     16.232690   16.726505   15.544012
  C     17.706745   17.230735   17.393159
  C     17.574257   18.581331   17.381603
  C     16.772674   19.414910   16.404940
  N     18.247708   19.360127   18.327375
  C     19.138348   18.878397   19.249150
  S     19.959175   19.879359   20.278809
  N     19.317745   17.518927   19.275122
  C     18.548081   16.543733   18.481256
  C     17.688025   15.688707   19.407583
  C     17.969385   14.320509   19.581298
  C     17.172194   13.528042   20.424255
  C     16.086903   14.108790   21.102326
  C     15.807845   15.472339   20.936774
  O     14.760489   16.035838   21.589562
  C     16.602310   16.258173   20.096374
  H     15.149533   14.556050   17.950395
  H     14.421696   13.357493   16.864751
  H     14.520847   15.047006   16.356421
  H     16.835392   13.029124   16.704774
  H     16.312933   13.810250   15.199407
  H     17.102245   19.226566   15.375204
  H     16.859753   20.492334   16.587513
  H     15.708016   19.153867   16.459930
  H     18.129411   20.360651   18.322460
  H     19.952457   17.190913   19.991625
  H     19.273179   15.889445   17.977086
  H     18.804793   13.868149   19.053604
  H     17.396587   12.470300   20.550576
  H     15.468561   13.501135   21.754856
  H     14.361265   15.351317   22.147198
  H     16.372818   17.312588   19.985955

 Total Charge           Charge          ....    0
 Multiplicity           Mult            ....    1
 Number of Electrons    NEL             ....  154
 Basis Dimension        Dim             ....  828

ORBITAL ENERGIES
----------------

  NO   OCC          E(Eh)            E(eV)
   0   2.0000     -91.889260     -2500.4339
   1   2.0000     -20.598647      -560.5177
   2   2.0000     -20.593900      -560.3885
   3   2.0000     -20.541718      -558.9686
   4   2.0000     -15.629418      -425.2981
   5   2.0000     -15.608691      -424.7341
   6   2.0000     -11.394531      -310.0610
   7   2.0000     -11.384411      -309.7856
   8   2.0000     -11.336175      -308.4730
   9   2.0000     -11.316160      -307.9284
  10   2.0000     -11.309394      -307.7443
  11   2.0000     -11.299097      -307.4641
  12   2.0000     -11.261663      -306.4454
  13   2.0000     -11.258634      -306.3630
  14   2.0000     -11.257742      -306.3387
  15   2.0000     -11.252249      -306.1892
  16   2.0000     -11.245495      -306.0055
  17   2.0000     -11.240562      -305.8712
  18   2.0000     -11.240383      -305.8664
  19   2.0000     -11.221463      -305.3515
  20   2.0000      -8.894319      -242.0267
  21   2.0000      -6.575893      -178.9391
  22   2.0000      -6.573889      -178.8846
  23   2.0000      -6.573302      -178.8686
  24   2.0000      -1.446485       -39.3609
  25   2.0000      -1.418368       -38.5958
  26   2.0000      -1.352414       -36.8011
  27   2.0000      -1.340381       -36.4736
  28   2.0000      -1.238964       -33.7139
  29   2.0000      -1.159743       -31.5582
  30   2.0000      -1.120910       -30.5015
  31   2.0000      -1.044026       -28.4094
  32   2.0000      -1.033194       -28.1146
  33   2.0000      -1.017433       -27.6858
  34   2.0000      -0.996113       -27.1056
  35   2.0000      -0.984868       -26.7996
  36   2.0000      -0.923430       -25.1278
  37   2.0000      -0.896778       -24.4026
  38   2.0000      -0.847619       -23.0649
  39   2.0000      -0.839646       -22.8479
  40   2.0000      -0.836207       -22.7543
  41   2.0000      -0.816519       -22.2186
  42   2.0000      -0.747724       -20.3466
  43   2.0000      -0.733532       -19.9604
  44   2.0000      -0.722776       -19.6677
  45   2.0000      -0.697632       -18.9835
  46   2.0000      -0.689392       -18.7593
  47   2.0000      -0.675796       -18.3893
  48   2.0000      -0.671004       -18.2589
  49   2.0000      -0.661036       -17.9877
  50   2.0000      -0.650340       -17.6967
  51   2.0000      -0.641312       -17.4510
  52   2.0000      -0.634488       -17.2653
  53   2.0000      -0.618221       -16.8227
  54   2.0000      -0.608891       -16.5688
  55   2.0000      -0.601898       -16.3785
  56   2.0000      -0.599756       -16.3202
  57   2.0000      -0.579122       -15.7587
  58   2.0000      -0.571095       -15.5403
  59   2.0000      -0.566871       -15.4253
  60   2.0000      -0.554718       -15.0946
  61   2.0000      -0.543485       -14.7890
  62   2.0000      -0.534250       -14.5377
  63   2.0000      -0.526516       -14.3272
  64   2.0000      -0.524249       -14.2656
  65   2.0000      -0.513829       -13.9820
  66   2.0000      -0.502088       -13.6625
  67   2.0000      -0.500705       -13.6249
  68   2.0000      -0.482790       -13.1374
  69   2.0000      -0.464943       -12.6517
  70   2.0000      -0.453660       -12.3447
  71   2.0000      -0.443791       -12.0762
  72   2.0000      -0.354631        -9.6500
  73   2.0000      -0.351417        -9.5625
  74   2.0000      -0.328848        -8.9484
  75   2.0000      -0.323945        -8.8150
  76   2.0000      -0.316639        -8.6162
  77   0.0000       0.074609         2.0302
  78   0.0000       0.104183         2.8350
  79   0.0000       0.124316         3.3828
  80   0.0000       0.131318         3.5733
  81   0.0000       0.136992         3.7277

MULLIKEN ATOMIC CHARGES
-----------------------
   0 C :   -0.326381
   1 C :    0.032046
   2 O :   -0.374582
   3 C :    0.476820
   4 O :   -0.431381
   5 C :   -0.237613
   6 C :    0.155564
   7 C :   -0.272160
   8 N :   -0.121533
   9 C :    0.211372
  10 S :   -0.439569
  11 N :   -0.205887
  12 C :    0.066813
  13 C :    0.035025
  14 C :   -0.177127
  15 C :   -0.135992
  16 C :   -0.272600
  17 C :    0.307997
  18 O :   -0.358754
  19 C :   -0.254933
  20 H :    0.110178
  21 H :    0.100461
  22 H :    0.125814
  23 H :    0.110419
  24 H :    0.118093
  25 H :    0.131934
  26 H :    0.095379
  27 H :    0.131531
  28 H :    0.197489
  29 H :    0.194813
  30 H :    0.151242
  31 H :    0.154678
  32 H :    0.161657
  33 H :    0.131747
  34 H :    0.240951
  35 H :    0.166487
Sum of atomic charges:    0.0000000

LOEWDIN ATOMIC CHARGES
----------------------
   0 C :    0.105133
   1 C :   -0.014370
   2 O :    0.297190
   3 C :   -0.415440
   4 O :    0.101399
   5 C :   -0.095387
   6 C :   -0.058703
   7 C :    0.131761
   8 N :    0.406665
   9 C :   -0.456297
  10 S :   -0.035193
  11 N :    0.396503
  12 C :   -0.051821
  13 C :   -0.039849
  14 C :    0.015482
  15 C :    0.039161
  16 C :   -0.001943
  17 C :   -0.190943
  18 O :    0.396260
  19 C :    0.030998
  20 H :   -0.026805
  21 H :   -0.026434
  22 H :   -0.026429
  23 H :   -0.025857
  24 H :   -0.028331
  25 H :   -0.003576
  26 H :   -0.023379
  27 H :   -0.004804
  28 H :   -0.057505
  29 H :   -0.064618
  30 H :   -0.010414
  31 H :   -0.029430
  32 H :   -0.020970
  33 H :   -0.035170
  34 H :   -0.153441
  35 H :   -0.023446

  Mayer bond orders larger than 0.100000
B(  0-C ,  1-C ) :   0.9560 B(  0-C , 20-H ) :   0.9692 B(  0-C , 21-H ) :   0.9781
B(  0-C , 22-H ) :   0.9735 B(  1-C ,  2-O ) :   0.8879 B(  1-C , 23-H ) :   0.9825
B(  1-C , 24-H ) :   0.9861 B(  2-O ,  3-C ) :   1.1472 B(  3-C ,  4-O ) :   1.9813
B(  3-C ,  5-C ) :   1.0566 B(  5-C ,  6-C ) :   1.6531 B(  5-C , 12-C ) :   0.9694
B(  6-C ,  7-C ) :   0.9658 B(  6-C ,  8-N ) :   1.1640 B(  7-C , 25-H ) :   0.9603
B(  7-C , 26-H ) :   0.9902 B(  7-C , 27-H ) :   0.9605 B(  8-N ,  9-C ) :   1.1831
B(  8-N , 28-H ) :   0.9478 B(  9-C , 10-S ) :   1.6078 B(  9-C , 11-N ) :   1.3054
B( 11-N , 12-C ) :   0.9867 B( 11-N , 29-H ) :   0.9517 B( 12-C , 13-C ) :   0.9352
B( 12-C , 30-H ) :   1.0017 B( 13-C , 14-C ) :   1.3585 B( 13-C , 19-C ) :   1.3858
B( 14-C , 15-C ) :   1.3867 B( 14-C , 31-H ) :   0.9707 B( 15-C , 16-C ) :   1.3622
B( 15-C , 32-H ) :   0.9709 B( 16-C , 17-C ) :   1.3319 B( 16-C , 33-H ) :   0.9846
B( 17-C , 18-O ) :   1.1111 B( 17-C , 19-C ) :   1.3700 B( 18-O , 34-H ) :   0.9796
B( 19-C , 35-H ) :   0.9581

MP2 TOTAL ENERGY:    -1274.346072324 Eh
FINAL SINGLE POINT ENERGY     -1274.346072323704

DIPOLE MOMENT
-------------
                                X             Y             Z
Electronic contribution:     10.08245       9.69097       6.50955
Nuclear contribution   :    -11.09154     -11.41609      -6.73297
                        -----------------------------------------
Total Dipole Moment    :     -1.00909      -1.72512      -0.22343
                        -----------------------------------------
Magnitude (a.u.)       :      2.01102
Magnitude (Debye)      :      5.11162

Rotational constants in cm-1:     0.012570     0.008806     0.006424
Rotational constants in MHz :   376.839226   263.988400   192.591046

                             ****ORCA TERMINATED NORMALLY****
TOTAL RUN TIME: 0 days 1 hours 43 minutes 46 seconds 101 msec
