                         Program Version 4.2.0 -  RELEASE  -
|  1> ! ri-mp2 cc-pvtz cc-pvtz/c TightSCF  NoKeepInts
|  2>
|  3> %scf
|  4>   MaxCore 4096
|  5> end
|  6> *xyz  0  1
|  7>     C       15.9367758   13.3410215   17.3901466
|  8>     C       16.1422643   14.2240667   16.1494156
|  9>     O       17.2914672   15.0693333   16.3609935
| 10>     C       17.1628690   16.4090133   16.1234187
| 11>     O       16.4651894   16.8185897   15.2112793
| 12>     C       17.6388057   17.2665346   17.2645380
| 13>     C       17.4371424   18.6096357   17.2992374
| 14>     C       16.6787014   19.4543427   16.2975670
| 15>     N       18.0077892   19.3758300   18.3206130
| 16>     C       18.9449466   18.9148398   19.2066629
| 17>     S       19.7148550   19.9196624   20.2714601
| 18>     N       19.2270745   17.5737415   19.1502922
| 19>     C       18.4472122   16.5862344   18.3826743
| 20>     C       17.5861051   15.7846835   19.3533984
| 21>     C       18.0340654   14.5348473   19.8214017
| 22>     C       17.2737816   13.8031710   20.7494501
| 23>     C       16.0575835   14.3278022   21.2189051
| 24>     C       15.6134602   15.5768613   20.7638618
| 25>     O       14.4423865   16.0886966   21.2191600
| 26>     C       16.3720482   16.3029475   19.8404148
| 27>     H       16.8617443   12.8126592   17.6514088
| 28>     H       15.1556353   12.5944690   17.2032985
| 29>     H       15.6233592   13.9474884   18.2467734
| 30>     H       16.3078762   13.5962268   15.2643869
| 31>     H       15.2307292   14.8145241   15.9816776
| 32>     H       15.6418271   19.1064331   16.2063142
| 33>     H       17.1376856   19.3792155   15.3034851
| 34>     H       16.6473673   20.5162914   16.5679641
| 35>     H       17.8199835   20.3646485   18.3653076
| 36>     H       19.9021180   17.2571898   19.8341016
| 37>     H       19.1592043   15.8971431   17.9066953
| 38>     H       18.9766566   14.1289152   19.4641413
| 39>     H       17.6286460   12.8368027   21.1035864
| 40>     H       15.4675387   13.7673177   21.9365996
| 41>     H       14.0955157   15.4755979   21.8846830
| 42>     H       16.0165900   17.2752226   19.5186858
| 43> *
| 44>
| 45>                          ****END OF INPUT****

CARTESIAN COORDINATES (ANGSTROEM)
---------------------------------
  C     15.936776   13.341022   17.390147
  C     16.142264   14.224067   16.149416
  O     17.291467   15.069333   16.360993
  C     17.162869   16.409013   16.123419
  O     16.465189   16.818590   15.211279
  C     17.638806   17.266535   17.264538
  C     17.437142   18.609636   17.299237
  C     16.678701   19.454343   16.297567
  N     18.007789   19.375830   18.320613
  C     18.944947   18.914840   19.206663
  S     19.714855   19.919662   20.271460
  N     19.227075   17.573742   19.150292
  C     18.447212   16.586234   18.382674
  C     17.586105   15.784683   19.353398
  C     18.034065   14.534847   19.821402
  C     17.273782   13.803171   20.749450
  C     16.057583   14.327802   21.218905
  C     15.613460   15.576861   20.763862
  O     14.442386   16.088697   21.219160
  C     16.372048   16.302947   19.840415
  H     16.861744   12.812659   17.651409
  H     15.155635   12.594469   17.203298
  H     15.623359   13.947488   18.246773
  H     16.307876   13.596227   15.264387
  H     15.230729   14.814524   15.981678
  H     15.641827   19.106433   16.206314
  H     17.137686   19.379216   15.303485
  H     16.647367   20.516291   16.567964
  H     17.819983   20.364649   18.365308
  H     19.902118   17.257190   19.834102
  H     19.159204   15.897143   17.906695
  H     18.976657   14.128915   19.464141
  H     17.628646   12.836803   21.103586
  H     15.467539   13.767318   21.936600
  H     14.095516   15.475598   21.884683
  H     16.016590   17.275223   19.518686

 Total Charge           Charge          ....    0
 Multiplicity           Mult            ....    1
 Number of Electrons    NEL             ....  154
 Basis Dimension        Dim             ....  828

ORBITAL ENERGIES
----------------

  NO   OCC          E(Eh)            E(eV)
   0   2.0000     -91.889632     -2500.4440
   1   2.0000     -20.599841      -560.5502
   2   2.0000     -20.593285      -560.3718
   3   2.0000     -20.543287      -559.0112
   4   2.0000     -15.630362      -425.3238
   5   2.0000     -15.608492      -424.7287
   6   2.0000     -11.393725      -310.0390
   7   2.0000     -11.384319      -309.7831
   8   2.0000     -11.337141      -308.4993
   9   2.0000     -11.317182      -307.9562
  10   2.0000     -11.310314      -307.7693
  11   2.0000     -11.294012      -307.3257
  12   2.0000     -11.262344      -306.4640
  13   2.0000     -11.259807      -306.3949
  14   2.0000     -11.258113      -306.3488
  15   2.0000     -11.252722      -306.2021
  16   2.0000     -11.245710      -306.0113
  17   2.0000     -11.240588      -305.8719
  18   2.0000     -11.240126      -305.8594
  19   2.0000     -11.221550      -305.3539
  20   2.0000      -8.894666      -242.0362
  21   2.0000      -6.576234      -178.9484
  22   2.0000      -6.574237      -178.8941
  23   2.0000      -6.573646      -178.8780
  24   2.0000      -1.449419       -39.4407
  25   2.0000      -1.419501       -38.6266
  26   2.0000      -1.352131       -36.7934
  27   2.0000      -1.341347       -36.4999
  28   2.0000      -1.239654       -33.7327
  29   2.0000      -1.159833       -31.5607
  30   2.0000      -1.120870       -30.5004
  31   2.0000      -1.044091       -28.4112
  32   2.0000      -1.035034       -28.1647
  33   2.0000      -1.018111       -27.7042
  34   2.0000      -0.997047       -27.1310
  35   2.0000      -0.984857       -26.7993
  36   2.0000      -0.924042       -25.1445
  37   2.0000      -0.885900       -24.1066
  38   2.0000      -0.847935       -23.0735
  39   2.0000      -0.840487       -22.8708
  40   2.0000      -0.835632       -22.7387
  41   2.0000      -0.817435       -22.2435
  42   2.0000      -0.762373       -20.7452
  43   2.0000      -0.734350       -19.9827
  44   2.0000      -0.720811       -19.6143
  45   2.0000      -0.698456       -19.0059
  46   2.0000      -0.688839       -18.7443
  47   2.0000      -0.678738       -18.4694
  48   2.0000      -0.673299       -18.3214
  49   2.0000      -0.665958       -18.1216
  50   2.0000      -0.647907       -17.6304
  51   2.0000      -0.645527       -17.5657
  52   2.0000      -0.638145       -17.3648
  53   2.0000      -0.610834       -16.6216
  54   2.0000      -0.603329       -16.4174
  55   2.0000      -0.600144       -16.3307
  56   2.0000      -0.586572       -15.9614
  57   2.0000      -0.578625       -15.7452
  58   2.0000      -0.571843       -15.5606
  59   2.0000      -0.566585       -15.4176
  60   2.0000      -0.563215       -15.3259
  61   2.0000      -0.551198       -14.9989
  62   2.0000      -0.537476       -14.6255
  63   2.0000      -0.528066       -14.3694
  64   2.0000      -0.520599       -14.1662
  65   2.0000      -0.513219       -13.9654
  66   2.0000      -0.503559       -13.7025
  67   2.0000      -0.495592       -13.4857
  68   2.0000      -0.484130       -13.1739
  69   2.0000      -0.463087       -12.6012
  70   2.0000      -0.452577       -12.3152
  71   2.0000      -0.446252       -12.1431
  72   2.0000      -0.356751        -9.7077
  73   2.0000      -0.352694        -9.5973
  74   2.0000      -0.329424        -8.9641
  75   2.0000      -0.324316        -8.8251
  76   2.0000      -0.316793        -8.6204
  77   0.0000       0.072999         1.9864
  78   0.0000       0.104531         2.8444
  79   0.0000       0.122187         3.3249
  80   0.0000       0.129692         3.5291
  81   0.0000       0.133342         3.6284

MULLIKEN ATOMIC CHARGES
-----------------------
   0 C :   -0.290585
   1 C :    0.044563
   2 O :   -0.368233
   3 C :    0.469194
   4 O :   -0.421145
   5 C :   -0.249476
   6 C :    0.153426
   7 C :   -0.268658
   8 N :   -0.123272
   9 C :    0.217101
  10 S :   -0.439910
  11 N :   -0.207189
  12 C :    0.052538
  13 C :    0.078897
  14 C :   -0.208248
  15 C :   -0.118937
  16 C :   -0.277331
  17 C :    0.304329
  18 O :   -0.359075
  19 C :   -0.248767
  20 H :    0.095796
  21 H :    0.109065
  22 H :    0.105372
  23 H :    0.103858
  24 H :    0.094721
  25 H :    0.129678
  26 H :    0.133817
  27 H :    0.094850
  28 H :    0.198284
  29 H :    0.193176
  30 H :    0.149345
  31 H :    0.149328
  32 H :    0.161830
  33 H :    0.132061
  34 H :    0.241682
  35 H :    0.167915
Sum of atomic charges:    0.0000000

LOEWDIN ATOMIC CHARGES
----------------------
   0 C :    0.104479
   1 C :   -0.012383
   2 O :    0.293859
   3 C :   -0.417363
   4 O :    0.104871
   5 C :   -0.096615
   6 C :   -0.057748
   7 C :    0.130940
   8 N :    0.407627
   9 C :   -0.454788
  10 S :   -0.034418
  11 N :    0.396197
  12 C :   -0.053322
  13 C :   -0.035158
  14 C :    0.014841
  15 C :    0.044884
  16 C :   -0.002069
  17 C :   -0.190666
  18 O :    0.396165
  19 C :    0.028490
  20 H :   -0.029200
  21 H :   -0.026269
  22 H :   -0.025914
  23 H :   -0.029755
  24 H :   -0.027551
  25 H :   -0.005437
  26 H :   -0.003219
  27 H :   -0.023342
  28 H :   -0.057491
  29 H :   -0.066066
  30 H :   -0.007761
  31 H :   -0.031159
  32 H :   -0.020471
  33 H :   -0.035103
  34 H :   -0.153009
  35 H :   -0.026077

  Mayer bond orders larger than 0.100000
B(  0-C ,  1-C ) :   0.9726 B(  0-C , 20-H ) :   0.9743 B(  0-C , 21-H ) :   0.9791
B(  0-C , 22-H ) :   0.9739 B(  1-C ,  2-O ) :   0.8901 B(  1-C , 23-H ) :   0.9885
B(  1-C , 24-H ) :   0.9712 B(  2-O ,  3-C ) :   1.1368 B(  3-C ,  4-O ) :   1.9899
B(  3-C ,  5-C ) :   1.0684 B(  5-C ,  6-C ) :   1.6486 B(  5-C , 12-C ) :   0.9753
B(  6-C ,  7-C ) :   0.9693 B(  6-C ,  8-N ) :   1.1578 B(  7-C , 25-H ) :   0.9618
B(  7-C , 26-H ) :   0.9582 B(  7-C , 27-H ) :   0.9899 B(  8-N ,  9-C ) :   1.1817
B(  8-N , 28-H ) :   0.9479 B(  9-C , 10-S ) :   1.6053 B(  9-C , 11-N ) :   1.3065
B( 11-N , 12-C ) :   0.9612 B( 11-N , 29-H ) :   0.9531 B( 12-C , 13-C ) :   0.9464
B( 12-C , 30-H ) :   1.0022 B( 13-C , 14-C ) :   1.3484 B( 13-C , 19-C ) :   1.3742
B( 14-C , 15-C ) :   1.3847 B( 14-C , 31-H ) :   0.9751 B( 15-C , 16-C ) :   1.3649
B( 15-C , 32-H ) :   0.9706 B( 16-C , 17-C ) :   1.3301 B( 16-C , 33-H ) :   0.9849
B( 17-C , 18-O ) :   1.1135 B( 17-C , 19-C ) :   1.3731 B( 18-O , 34-H ) :   0.9792
B( 19-C , 35-H ) :   0.9562

MP2 TOTAL ENERGY:    -1274.341217699 Eh
FINAL SINGLE POINT ENERGY     -1274.341217699119

DIPOLE MOMENT
-------------
                                X             Y             Z
Electronic contribution:      8.24910      11.18185       4.81920
Nuclear contribution   :     -9.25932     -12.77504      -4.80836
                        -----------------------------------------
Total Dipole Moment    :     -1.01022      -1.59318       0.01085
                        -----------------------------------------
Magnitude (a.u.)       :      1.88650
Magnitude (Debye)      :      4.79511

Rotational constants in cm-1:     0.012197     0.009015     0.006467
Rotational constants in MHz :   365.666086   270.252394   193.868366

                             ****ORCA TERMINATED NORMALLY****
TOTAL RUN TIME: 0 days 1 hours 49 minutes 3 seconds 449 msec
