                         Program Version 4.2.0 -  RELEASE  -
|  1> ! ri-mp2 cc-pvtz cc-pvtz/c TightSCF  NoKeepInts
|  2>
|  3> %scf
|  4>   MaxCore 4096
|  5> end
|  6> *xyz  0  1
|  7>     C       15.0888456   13.9201937   15.8278989
|  8>     C       15.9694761   14.4075934   16.9936453
|  9>     O       17.0642991   15.1774865   16.4614392
| 10>     C       16.9019587   16.5270533   16.3334722
| 11>     O       16.0228343   16.9832295   15.6245670
| 12>     C       17.5893181   17.3117558   17.4201307
| 13>     C       17.4286727   18.6534383   17.5594352
| 14>     C       16.5507177   19.5666179   16.7302739
| 15>     N       18.1567592   19.3495555   18.5292717
| 16>     C       19.1736102   18.8158021   19.2749386
| 17>     S       20.0866887   19.7383325   20.3000326
| 18>     N       19.4051779   17.4733292   19.1178001
| 19>     C       18.5377360   16.5506690   18.3638941
| 20>     C       17.7973784   15.6486570   19.3464217
| 21>     C       18.2099370   14.3157035   19.5321986
| 22>     C       17.5306488   13.4755558   20.4303827
| 23>     C       16.4337994   13.9736303   21.1539431
| 24>     C       16.0279646   15.3038692   20.9809732
| 25>     O       14.9709388   15.7887541   21.6793652
| 26>     C       16.7044450   16.1371237   20.0848459
| 27>     H       14.6174009   14.7652210   15.3108874
| 28>     H       14.2930664   13.2622778   16.1970494
| 29>     H       15.6874253   13.3605241   15.0986531
| 30>     H       15.3768130   14.9980118   17.7058196
| 31>     H       16.3657992   13.5317503   17.5228264
| 32>     H       15.4974161   19.2700522   16.8153663
| 33>     H       16.8225412   19.5046838   15.6687561
| 34>     H       16.6231489   20.6192369   17.0279125
| 35>     H       18.0053435   20.3383529   18.6499664
| 36>     H       20.1429531   17.1027044   19.7027645
| 37>     H       19.1882905   15.9208461   17.7405330
| 38>     H       19.0570989   13.9272856   18.9727609
| 39>     H       17.8562216   12.4453303   20.5657752
| 40>     H       15.9070279   13.3290379   21.8501969
| 41>     H       14.6760455   15.0924588   22.2856606
| 42>     H       16.3792015   17.1658758   19.9741419
| 43> *
| 44>
| 45>                          ****END OF INPUT****

CARTESIAN COORDINATES (ANGSTROEM)
---------------------------------
  C     15.088846   13.920194   15.827899
  C     15.969476   14.407593   16.993645
  O     17.064299   15.177486   16.461439
  C     16.901959   16.527053   16.333472
  O     16.022834   16.983230   15.624567
  C     17.589318   17.311756   17.420131
  C     17.428673   18.653438   17.559435
  C     16.550718   19.566618   16.730274
  N     18.156759   19.349556   18.529272
  C     19.173610   18.815802   19.274939
  S     20.086689   19.738332   20.300033
  N     19.405178   17.473329   19.117800
  C     18.537736   16.550669   18.363894
  C     17.797378   15.648657   19.346422
  C     18.209937   14.315703   19.532199
  C     17.530649   13.475556   20.430383
  C     16.433799   13.973630   21.153943
  C     16.027965   15.303869   20.980973
  O     14.970939   15.788754   21.679365
  C     16.704445   16.137124   20.084846
  H     14.617401   14.765221   15.310887
  H     14.293066   13.262278   16.197049
  H     15.687425   13.360524   15.098653
  H     15.376813   14.998012   17.705820
  H     16.365799   13.531750   17.522826
  H     15.497416   19.270052   16.815366
  H     16.822541   19.504684   15.668756
  H     16.623149   20.619237   17.027912
  H     18.005343   20.338353   18.649966
  H     20.142953   17.102704   19.702765
  H     19.188291   15.920846   17.740533
  H     19.057099   13.927286   18.972761
  H     17.856222   12.445330   20.565775
  H     15.907028   13.329038   21.850197
  H     14.676045   15.092459   22.285661
  H     16.379202   17.165876   19.974142

 Total Charge           Charge          ....    0
 Multiplicity           Mult            ....    1
 Number of Electrons    NEL             ....  154
 Basis Dimension        Dim             ....  828

ORBITAL ENERGIES
----------------

  NO   OCC          E(Eh)            E(eV)
   0   2.0000     -91.890595     -2500.4702
   1   2.0000     -20.601497      -560.5952
   2   2.0000     -20.582990      -560.0916
   3   2.0000     -20.547764      -559.1331
   4   2.0000     -15.631220      -425.3471
   5   2.0000     -15.609798      -424.7642
   6   2.0000     -11.394283      -310.0542
   7   2.0000     -11.385435      -309.8134
   8   2.0000     -11.337899      -308.5199
   9   2.0000     -11.319126      -308.0091
  10   2.0000     -11.311564      -307.8033
  11   2.0000     -11.294927      -307.3506
  12   2.0000     -11.264017      -306.5095
  13   2.0000     -11.260476      -306.4131
  14   2.0000     -11.259859      -306.3963
  15   2.0000     -11.253787      -306.2311
  16   2.0000     -11.248155      -306.0779
  17   2.0000     -11.242804      -305.9322
  18   2.0000     -11.242760      -305.9311
  19   2.0000     -11.215571      -305.1912
  20   2.0000      -8.895639      -242.0626
  21   2.0000      -6.577208      -178.9749
  22   2.0000      -6.575208      -178.9205
  23   2.0000      -6.574617      -178.9044
  24   2.0000      -1.447986       -39.4017
  25   2.0000      -1.421178       -38.6722
  26   2.0000      -1.353385       -36.8275
  27   2.0000      -1.342263       -36.5248
  28   2.0000      -1.240727       -33.7619
  29   2.0000      -1.162034       -31.6206
  30   2.0000      -1.121598       -30.5202
  31   2.0000      -1.046017       -28.4636
  32   2.0000      -1.030089       -28.0301
  33   2.0000      -1.020297       -27.7637
  34   2.0000      -0.997157       -27.1340
  35   2.0000      -0.985525       -26.8175
  36   2.0000      -0.925388       -25.1811
  37   2.0000      -0.882126       -24.0039
  38   2.0000      -0.849755       -23.1230
  39   2.0000      -0.842530       -22.9264
  40   2.0000      -0.838469       -22.8159
  41   2.0000      -0.827029       -22.5046
  42   2.0000      -0.755771       -20.5656
  43   2.0000      -0.735315       -20.0089
  44   2.0000      -0.721506       -19.6332
  45   2.0000      -0.700471       -19.0608
  46   2.0000      -0.691342       -18.8124
  47   2.0000      -0.679541       -18.4912
  48   2.0000      -0.670184       -18.2366
  49   2.0000      -0.658655       -17.9229
  50   2.0000      -0.648846       -17.6560
  51   2.0000      -0.647697       -17.6247
  52   2.0000      -0.637088       -17.3360
  53   2.0000      -0.612256       -16.6603
  54   2.0000      -0.605535       -16.4774
  55   2.0000      -0.601659       -16.3720
  56   2.0000      -0.589587       -16.0435
  57   2.0000      -0.583666       -15.8824
  58   2.0000      -0.577089       -15.7034
  59   2.0000      -0.571715       -15.5572
  60   2.0000      -0.565572       -15.3900
  61   2.0000      -0.539936       -14.6924
  62   2.0000      -0.535180       -14.5630
  63   2.0000      -0.529018       -14.3953
  64   2.0000      -0.516799       -14.0628
  65   2.0000      -0.511144       -13.9089
  66   2.0000      -0.504419       -13.7259
  67   2.0000      -0.497678       -13.5425
  68   2.0000      -0.487046       -13.2532
  69   2.0000      -0.463884       -12.6229
  70   2.0000      -0.454075       -12.3560
  71   2.0000      -0.442243       -12.0341
  72   2.0000      -0.356833        -9.7099
  73   2.0000      -0.354189        -9.6380
  74   2.0000      -0.330525        -8.9940
  75   2.0000      -0.326250        -8.8777
  76   2.0000      -0.317909        -8.6507
  77   0.0000       0.069671         1.8958
  78   0.0000       0.100241         2.7277
  79   0.0000       0.122318         3.3284
  80   0.0000       0.129008         3.5105
  81   0.0000       0.132967         3.6182

MULLIKEN ATOMIC CHARGES
-----------------------
   0 C :   -0.267072
   1 C :    0.023637
   2 O :   -0.386156
   3 C :    0.492447
   4 O :   -0.413657
   5 C :   -0.263791
   6 C :    0.161116
   7 C :   -0.269768
   8 N :   -0.123487
   9 C :    0.214753
  10 S :   -0.438342
  11 N :   -0.205314
  12 C :    0.060612
  13 C :    0.071194
  14 C :   -0.206079
  15 C :   -0.126951
  16 C :   -0.275816
  17 C :    0.318806
  18 O :   -0.356314
  19 C :   -0.272904
  20 H :    0.114952
  21 H :    0.085987
  22 H :    0.092067
  23 H :    0.096634
  24 H :    0.112171
  25 H :    0.130433
  26 H :    0.132547
  27 H :    0.095495
  28 H :    0.197955
  29 H :    0.194152
  30 H :    0.150853
  31 H :    0.149649
  32 H :    0.165656
  33 H :    0.133257
  34 H :    0.241956
  35 H :    0.169325
Sum of atomic charges:   -0.0000000

LOEWDIN ATOMIC CHARGES
----------------------
   0 C :    0.105268
   1 C :   -0.019570
   2 O :    0.287690
   3 C :   -0.417837
   4 O :    0.118516
   5 C :   -0.098374
   6 C :   -0.057669
   7 C :    0.131200
   8 N :    0.407206
   9 C :   -0.456098
  10 S :   -0.033675
  11 N :    0.396154
  12 C :   -0.052795
  13 C :   -0.036282
  14 C :    0.014880
  15 C :    0.041325
  16 C :   -0.001579
  17 C :   -0.190469
  18 O :    0.396325
  19 C :    0.031129
  20 H :   -0.026141
  21 H :   -0.031025
  22 H :   -0.028013
  23 H :   -0.030874
  24 H :   -0.025509
  25 H :   -0.005137
  26 H :   -0.003400
  27 H :   -0.023151
  28 H :   -0.057279
  29 H :   -0.065156
  30 H :   -0.008197
  31 H :   -0.029463
  32 H :   -0.020084
  33 H :   -0.034511
  34 H :   -0.152635
  35 H :   -0.024769

  Mayer bond orders larger than 0.100000
B(  0-C ,  1-C ) :   0.9854 B(  0-C , 20-H ) :   0.9733 B(  0-C , 21-H ) :   0.9778
B(  0-C , 22-H ) :   0.9786 B(  1-C ,  2-O ) :   0.8725 B(  1-C , 23-H ) :   0.9669
B(  1-C , 24-H ) :   0.9764 B(  2-O ,  3-C ) :   1.0901 B(  3-C ,  4-O ) :   1.9931
B(  3-C ,  5-C ) :   1.0785 B(  5-C ,  6-C ) :   1.6455 B(  5-C , 12-C ) :   0.9700
B(  6-C ,  7-C ) :   0.9677 B(  6-C ,  8-N ) :   1.1611 B(  7-C , 25-H ) :   0.9604
B(  7-C , 26-H ) :   0.9593 B(  7-C , 27-H ) :   0.9903 B(  8-N ,  9-C ) :   1.1807
B(  8-N , 28-H ) :   0.9476 B(  9-C , 10-S ) :   1.6078 B(  9-C , 11-N ) :   1.3066
B( 11-N , 12-C ) :   0.9700 B( 11-N , 29-H ) :   0.9526 B( 12-C , 13-C ) :   0.9455
B( 12-C , 30-H ) :   1.0013 B( 13-C , 14-C ) :   1.3412 B( 13-C , 19-C ) :   1.3685
B( 14-C , 15-C ) :   1.3880 B( 14-C , 31-H ) :   0.9768 B( 15-C , 16-C ) :   1.3640
B( 15-C , 32-H ) :   0.9688 B( 16-C , 17-C ) :   1.3295 B( 16-C , 33-H ) :   0.9838
B( 17-C , 18-O ) :   1.1133 B( 17-C , 19-C ) :   1.3681 B( 18-O , 34-H ) :   0.9789
B( 19-C , 35-H ) :   0.9586

MP2 TOTAL ENERGY:    -1274.331889843 Eh
FINAL SINGLE POINT ENERGY     -1274.331889842704

DIPOLE MOMENT
-------------
                                X             Y             Z
Electronic contribution:     10.46662       9.77656       7.21272
Nuclear contribution   :    -11.42835     -11.26650      -7.07176
                        -----------------------------------------
Total Dipole Moment    :     -0.96172      -1.48995       0.14096
                        -----------------------------------------
Magnitude (a.u.)       :      1.77897
Magnitude (Debye)      :      4.52177

Rotational constants in cm-1:     0.012181     0.008871     0.006325
Rotational constants in MHz :   365.173404   265.957740   189.633582

                             ****ORCA TERMINATED NORMALLY****
TOTAL RUN TIME: 0 days 1 hours 43 minutes 51 seconds 228 msec
