                         Program Version 4.2.0 -  RELEASE  -
|  1> ! ri-mp2 cc-pvtz cc-pvtz/c TightSCF  NoKeepInts
|  2>
|  3> %scf
|  4>   MaxCore 4096
|  5> end
|  6> *xyz  0  1
|  7>     C       16.1516654   13.1021873   17.2675532
|  8>     C       15.9013732   14.3965694   16.4760068
|  9>     O       17.1457737   15.1083348   16.3523148
| 10>     C       17.0698625   16.4539715   16.1362982
| 11>     O       16.2927558   16.8979856   15.3090171
| 12>     C       17.6536575   17.2784342   17.2515036
| 13>     C       17.5546062   18.6332038   17.2807848
| 14>     C       16.8468374   19.5272152   16.2846266
| 15>     N       18.1968301   19.3600711   18.2878219
| 16>     C       19.1018409   18.8334702   19.1700441
| 17>     S       19.9571102   19.7815232   20.2217468
| 18>     N       19.2796031   17.4746708   19.1201835
| 19>     C       18.4248350   16.5434617   18.3616161
| 20>     C       17.5294189   15.7930557   19.3450295
| 21>     C       18.0492571   14.6863147   20.0434262
| 22>     C       17.2612608   13.9908046   20.9759469
| 23>     C       15.9406035   14.4057430   21.2155581
| 24>     C       15.4222007   15.5138265   20.5322916
| 25>     O       14.1490803   15.9206032   20.7650460
| 26>     C       16.2097071   16.2076115   19.6082971
| 27>     H       16.9290657   12.4976165   16.7844475
| 28>     H       15.2344670   12.5033954   17.3197090
| 29>     H       16.4685034   13.3218495   18.2910795
| 30>     H       15.4981153   14.1683499   15.4803688
| 31>     H       15.1627703   15.0048796   17.0163501
| 32>     H       15.7738004   19.2985442   16.2556893
| 33>     H       17.2423714   19.3682158   15.2733178
| 34>     H       16.9517888   20.5939419   16.5148156
| 35>     H       18.0837496   20.3603024   18.3293064
| 36>     H       19.9343555   17.1131527   19.8011266
| 37>     H       19.0823180   15.8075510   17.8768782
| 38>     H       19.0706907   14.3631653   19.8611105
| 39>     H       17.6741981   13.1359467   21.5090008
| 40>     H       15.3274589   13.8715775   21.9340443
| 41>     H       13.7891994   15.3620523   21.4707231
| 42>     H       15.7858681   17.0724013   19.1109196
| 43> *
| 44>
| 45>                          ****END OF INPUT****

CARTESIAN COORDINATES (ANGSTROEM)
---------------------------------
  C     16.151665   13.102187   17.267553
  C     15.901373   14.396569   16.476007
  O     17.145774   15.108335   16.352315
  C     17.069862   16.453972   16.136298
  O     16.292756   16.897986   15.309017
  C     17.653657   17.278434   17.251504
  C     17.554606   18.633204   17.280785
  C     16.846837   19.527215   16.284627
  N     18.196830   19.360071   18.287822
  C     19.101841   18.833470   19.170044
  S     19.957110   19.781523   20.221747
  N     19.279603   17.474671   19.120183
  C     18.424835   16.543462   18.361616
  C     17.529419   15.793056   19.345029
  C     18.049257   14.686315   20.043426
  C     17.261261   13.990805   20.975947
  C     15.940603   14.405743   21.215558
  C     15.422201   15.513827   20.532292
  O     14.149080   15.920603   20.765046
  C     16.209707   16.207611   19.608297
  H     16.929066   12.497616   16.784447
  H     15.234467   12.503395   17.319709
  H     16.468503   13.321849   18.291079
  H     15.498115   14.168350   15.480369
  H     15.162770   15.004880   17.016350
  H     15.773800   19.298544   16.255689
  H     17.242371   19.368216   15.273318
  H     16.951789   20.593942   16.514816
  H     18.083750   20.360302   18.329306
  H     19.934355   17.113153   19.801127
  H     19.082318   15.807551   17.876878
  H     19.070691   14.363165   19.861110
  H     17.674198   13.135947   21.509001
  H     15.327459   13.871578   21.934044
  H     13.789199   15.362052   21.470723
  H     15.785868   17.072401   19.110920

 Total Charge           Charge          ....    0
 Multiplicity           Mult            ....    1
 Number of Electrons    NEL             ....  154
 Basis Dimension        Dim             ....  828

ORBITAL ENERGIES
----------------

  NO   OCC          E(Eh)            E(eV)
   0   2.0000     -91.890104     -2500.4568
   1   2.0000     -20.602201      -560.6144
   2   2.0000     -20.588306      -560.2363
   3   2.0000     -20.544546      -559.0455
   4   2.0000     -15.630997      -425.3410
   5   2.0000     -15.609291      -424.7504
   6   2.0000     -11.392627      -310.0091
   7   2.0000     -11.384968      -309.8007
   8   2.0000     -11.338166      -308.5272
   9   2.0000     -11.319461      -308.0182
  10   2.0000     -11.311642      -307.8054
  11   2.0000     -11.293812      -307.3202
  12   2.0000     -11.265595      -306.5524
  13   2.0000     -11.260760      -306.4209
  14   2.0000     -11.259974      -306.3995
  15   2.0000     -11.253541      -306.2244
  16   2.0000     -11.247232      -306.0527
  17   2.0000     -11.242586      -305.9263
  18   2.0000     -11.242452      -305.9227
  19   2.0000     -11.222233      -305.3725
  20   2.0000      -8.895143      -242.0492
  21   2.0000      -6.576714      -178.9615
  22   2.0000      -6.574713      -178.9070
  23   2.0000      -6.574124      -178.8910
  24   2.0000      -1.449816       -39.4515
  25   2.0000      -1.421807       -38.6893
  26   2.0000      -1.351736       -36.7826
  27   2.0000      -1.342037       -36.5187
  28   2.0000      -1.240551       -33.7571
  29   2.0000      -1.161821       -31.6148
  30   2.0000      -1.121607       -30.5205
  31   2.0000      -1.045599       -28.4522
  32   2.0000      -1.033979       -28.1360
  33   2.0000      -1.020529       -27.7700
  34   2.0000      -0.998112       -27.1600
  35   2.0000      -0.985412       -26.8144
  36   2.0000      -0.925305       -25.1788
  37   2.0000      -0.882057       -24.0020
  38   2.0000      -0.849754       -23.1230
  39   2.0000      -0.842408       -22.9231
  40   2.0000      -0.836592       -22.7648
  41   2.0000      -0.821837       -22.3633
  42   2.0000      -0.762440       -20.7471
  43   2.0000      -0.736154       -20.0318
  44   2.0000      -0.722423       -19.6581
  45   2.0000      -0.700246       -19.0547
  46   2.0000      -0.689415       -18.7599
  47   2.0000      -0.677707       -18.4414
  48   2.0000      -0.673278       -18.3208
  49   2.0000      -0.663808       -18.0631
  50   2.0000      -0.648595       -17.6492
  51   2.0000      -0.645265       -17.5585
  52   2.0000      -0.639993       -17.4151
  53   2.0000      -0.613921       -16.7057
  54   2.0000      -0.605840       -16.4858
  55   2.0000      -0.602048       -16.3825
  56   2.0000      -0.598365       -16.2823
  57   2.0000      -0.582364       -15.8469
  58   2.0000      -0.572749       -15.5853
  59   2.0000      -0.567184       -15.4339
  60   2.0000      -0.551027       -14.9942
  61   2.0000      -0.548193       -14.9171
  62   2.0000      -0.538442       -14.6517
  63   2.0000      -0.530958       -14.4481
  64   2.0000      -0.516053       -14.0425
  65   2.0000      -0.511114       -13.9081
  66   2.0000      -0.506257       -13.7759
  67   2.0000      -0.499877       -13.6024
  68   2.0000      -0.485825       -13.2200
  69   2.0000      -0.463771       -12.6199
  70   2.0000      -0.455460       -12.3937
  71   2.0000      -0.444272       -12.0893
  72   2.0000      -0.357131        -9.7180
  73   2.0000      -0.354744        -9.6531
  74   2.0000      -0.330699        -8.9988
  75   2.0000      -0.325880        -8.8676
  76   2.0000      -0.318006        -8.6534
  77   0.0000       0.072230         1.9655
  78   0.0000       0.102937         2.8011
  79   0.0000       0.120418         3.2767
  80   0.0000       0.126123         3.4320
  81   0.0000       0.130925         3.5627

MULLIKEN ATOMIC CHARGES
-----------------------
   0 C :   -0.275152
   1 C :    0.029693
   2 O :   -0.373262
   3 C :    0.482403
   4 O :   -0.416698
   5 C :   -0.282045
   6 C :    0.168543
   7 C :   -0.266166
   8 N :   -0.127375
   9 C :    0.224623
  10 S :   -0.442180
  11 N :   -0.213567
  12 C :    0.067737
  13 C :    0.089517
  14 C :   -0.233757
  15 C :   -0.124955
  16 C :   -0.276862
  17 C :    0.316289
  18 O :   -0.357406
  19 C :   -0.263421
  20 H :    0.096360
  21 H :    0.093429
  22 H :    0.108390
  23 H :    0.121673
  24 H :    0.091309
  25 H :    0.130875
  26 H :    0.132334
  27 H :    0.095691
  28 H :    0.197599
  29 H :    0.192615
  30 H :    0.148196
  31 H :    0.150928
  32 H :    0.161474
  33 H :    0.132353
  34 H :    0.242699
  35 H :    0.178116
Sum of atomic charges:   -0.0000000

LOEWDIN ATOMIC CHARGES
----------------------
   0 C :    0.110298
   1 C :   -0.019019
   2 O :    0.291684
   3 C :   -0.419383
   4 O :    0.110973
   5 C :   -0.097467
   6 C :   -0.055838
   7 C :    0.131334
   8 N :    0.408740
   9 C :   -0.453096
  10 S :   -0.035351
  11 N :    0.395664
  12 C :   -0.052475
  13 C :   -0.031723
  14 C :    0.009347
  15 C :    0.044022
  16 C :   -0.002154
  17 C :   -0.189597
  18 O :    0.396148
  19 C :    0.029764
  20 H :   -0.028183
  21 H :   -0.025137
  22 H :   -0.028281
  23 H :   -0.029029
  24 H :   -0.031930
  25 H :   -0.005348
  26 H :   -0.003234
  27 H :   -0.023089
  28 H :   -0.057198
  29 H :   -0.067649
  30 H :   -0.007457
  31 H :   -0.031182
  32 H :   -0.019461
  33 H :   -0.034725
  34 H :   -0.152186
  35 H :   -0.027780

  Mayer bond orders larger than 0.100000
B(  0-C ,  1-C ) :   0.9732 B(  0-C , 20-H ) :   0.9775 B(  0-C , 21-H ) :   0.9788
B(  0-C , 22-H ) :   0.9731 B(  1-C ,  2-O ) :   0.8811 B(  1-C , 23-H ) :   0.9847
B(  1-C , 24-H ) :   0.9692 B(  2-O ,  3-C ) :   1.1301 B(  3-C ,  4-O ) :   1.9991
B(  3-C ,  5-C ) :   1.0626 B(  5-C ,  6-C ) :   1.6404 B(  5-C , 12-C ) :   0.9804
B(  6-C ,  7-C ) :   0.9661 B(  6-C ,  8-N ) :   1.1640 B(  7-C , 25-H ) :   0.9602
B(  7-C , 26-H ) :   0.9593 B(  7-C , 27-H ) :   0.9904 B(  8-N ,  9-C ) :   1.1860
B(  8-N , 28-H ) :   0.9478 B(  9-C , 10-S ) :   1.5962 B(  9-C , 11-N ) :   1.3077
B( 11-N , 12-C ) :   0.9476 B( 11-N , 29-H ) :   0.9515 B( 12-C , 13-C ) :   0.9544
B( 12-C , 30-H ) :   0.9994 B( 13-C , 14-C ) :   1.3552 B( 13-C , 19-C ) :   1.3552
B( 14-C , 15-C ) :   1.4038 B( 14-C , 31-H ) :   0.9731 B( 15-C , 16-C ) :   1.3579
B( 15-C , 32-H ) :   0.9709 B( 16-C , 17-C ) :   1.3391 B( 16-C , 33-H ) :   0.9847
B( 17-C , 18-O ) :   1.1148 B( 17-C , 19-C ) :   1.3570 B( 18-O , 34-H ) :   0.9786
B( 19-C , 35-H ) :   0.9541

MP2 TOTAL ENERGY:    -1274.337328349 Eh
FINAL SINGLE POINT ENERGY     -1274.337328348952

DIPOLE MOMENT
-------------
                                X             Y             Z
Electronic contribution:      7.90777      11.08074       4.29719
Nuclear contribution   :     -8.91749     -12.49847      -4.09379
                        -----------------------------------------
Total Dipole Moment    :     -1.00972      -1.41774       0.20341
                        -----------------------------------------
Magnitude (a.u.)       :      1.75240
Magnitude (Debye)      :      4.45424

Rotational constants in cm-1:     0.012588     0.008760     0.006496
Rotational constants in MHz :   377.378794   262.616452   194.731740

                             ****ORCA TERMINATED NORMALLY****
TOTAL RUN TIME: 0 days 1 hours 47 minutes 37 seconds 413 msec
