                         Program Version 4.2.0 -  RELEASE  -
|  1> ! ri-mp2 cc-pvtz cc-pvtz/c TightSCF  NoKeepInts
|  2>
|  3> %scf
|  4>   MaxCore 4096
|  5> end
|  6> *xyz  0  1
|  7>     C       15.7047020   13.7936042   15.0019673
|  8>     C       15.0501078   15.0185634   15.6783712
|  9>     O       15.9957445   16.0116661   16.1467365
| 10>     C       17.1659274   15.7502498   16.8106223
| 11>     O       17.6282436   14.6318522   16.9559985
| 12>     C       17.6613483   16.9107168   17.6279680
| 13>     C       17.3353169   18.2127854   17.4122691
| 14>     C       16.4464335   18.7873508   16.3278690
| 15>     N       17.9101964   19.2130669   18.2035941
| 16>     C       18.9209404   19.0148117   19.1065433
| 17>     S       19.6375447   20.2744557   19.9037582
| 18>     N       19.3079902   17.7154742   19.3135006
| 19>     C       18.6137559   16.5333902   18.7694499
| 20>     C       17.8738175   15.7917536   19.8800216
| 21>     C       18.1090706   14.4221262   20.1012452
| 22>     C       17.4299548   13.7335354   21.1203453
| 23>     C       16.5063107   14.4196313   21.9270204
| 24>     C       16.2659466   15.7828047   21.7077712
| 25>     O       15.3700272   16.4467032   22.4811004
| 26>     C       16.9431247   16.4653481   20.6923658
| 27>     H       16.5162340   14.1019259   14.3311961
| 28>     H       14.9618217   13.2477898   14.4081194
| 29>     H       16.1063202   13.0921337   15.7434307
| 30>     H       14.3666710   15.4978171   14.9658170
| 31>     H       14.4464768   14.6657936   16.5249503
| 32>     H       15.3943947   18.5428583   16.5205342
| 33>     H       16.7150798   18.3786200   15.3458240
| 34>     H       16.5233908   19.8787622   16.2517669
| 35>     H       17.6394451   20.1736433   18.0662760
| 36>     H       20.0334867   17.5921893   20.0079727
| 37>     H       19.3798500   15.8602407   18.3581704
| 38>     H       18.8099374   13.8851443   19.4666577
| 39>     H       17.6167040   12.6726334   21.2763882
| 40>     H       15.9782222   13.8912907   22.7136713
| 41>     H       15.0380718   15.8203702   23.1415582
| 42>     H       16.7443901   17.5208975   20.5431490
| 43> *
| 44>
| 45>                          ****END OF INPUT****

CARTESIAN COORDINATES (ANGSTROEM)
---------------------------------
  C     15.704702   13.793604   15.001967
  C     15.050108   15.018563   15.678371
  O     15.995744   16.011666   16.146736
  C     17.165927   15.750250   16.810622
  O     17.628244   14.631852   16.955998
  C     17.661348   16.910717   17.627968
  C     17.335317   18.212785   17.412269
  C     16.446434   18.787351   16.327869
  N     17.910196   19.213067   18.203594
  C     18.920940   19.014812   19.106543
  S     19.637545   20.274456   19.903758
  N     19.307990   17.715474   19.313501
  C     18.613756   16.533390   18.769450
  C     17.873817   15.791754   19.880022
  C     18.109071   14.422126   20.101245
  C     17.429955   13.733535   21.120345
  C     16.506311   14.419631   21.927020
  C     16.265947   15.782805   21.707771
  O     15.370027   16.446703   22.481100
  C     16.943125   16.465348   20.692366
  H     16.516234   14.101926   14.331196
  H     14.961822   13.247790   14.408119
  H     16.106320   13.092134   15.743431
  H     14.366671   15.497817   14.965817
  H     14.446477   14.665794   16.524950
  H     15.394395   18.542858   16.520534
  H     16.715080   18.378620   15.345824
  H     16.523391   19.878762   16.251767
  H     17.639445   20.173643   18.066276
  H     20.033487   17.592189   20.007973
  H     19.379850   15.860241   18.358170
  H     18.809937   13.885144   19.466658
  H     17.616704   12.672633   21.276388
  H     15.978222   13.891291   22.713671
  H     15.038072   15.820370   23.141558
  H     16.744390   17.520898   20.543149

 Total Charge           Charge          ....    0
 Multiplicity           Mult            ....    1
 Number of Electrons    NEL             ....  154
 Basis Dimension        Dim             ....  828

ORBITAL ENERGIES
----------------

  NO   OCC          E(Eh)            E(eV)
   0   2.0000     -91.887170     -2500.3770
   1   2.0000     -20.600606      -560.5710
   2   2.0000     -20.591114      -560.3127
   3   2.0000     -20.545688      -559.0766
   4   2.0000     -15.627027      -425.2330
   5   2.0000     -15.605883      -424.6577
   6   2.0000     -11.398329      -310.1643
   7   2.0000     -11.382010      -309.7202
   8   2.0000     -11.334246      -308.4205
   9   2.0000     -11.306921      -307.6770
  10   2.0000     -11.305542      -307.6394
  11   2.0000     -11.304871      -307.6212
  12   2.0000     -11.259468      -306.3857
  13   2.0000     -11.257944      -306.3442
  14   2.0000     -11.252817      -306.2047
  15   2.0000     -11.247168      -306.0510
  16   2.0000     -11.236752      -305.7676
  17   2.0000     -11.232727      -305.6580
  18   2.0000     -11.229865      -305.5802
  19   2.0000     -11.223758      -305.4140
  20   2.0000      -8.892241      -241.9702
  21   2.0000      -6.573821      -178.8828
  22   2.0000      -6.571813      -178.8281
  23   2.0000      -6.571229      -178.8122
  24   2.0000      -1.447752       -39.3953
  25   2.0000      -1.410847       -38.3911
  26   2.0000      -1.357516       -36.9399
  27   2.0000      -1.338225       -36.4149
  28   2.0000      -1.235960       -33.6322
  29   2.0000      -1.151330       -31.3293
  30   2.0000      -1.118219       -30.4283
  31   2.0000      -1.041471       -28.3399
  32   2.0000      -1.033905       -28.1340
  33   2.0000      -1.008807       -27.4510
  34   2.0000      -0.996171       -27.1072
  35   2.0000      -0.981610       -26.7110
  36   2.0000      -0.920696       -25.0534
  37   2.0000      -0.895504       -24.3679
  38   2.0000      -0.847103       -23.0508
  39   2.0000      -0.835120       -22.7248
  40   2.0000      -0.827317       -22.5124
  41   2.0000      -0.817555       -22.2468
  42   2.0000      -0.745099       -20.2752
  43   2.0000      -0.728497       -19.8234
  44   2.0000      -0.724139       -19.7048
  45   2.0000      -0.690219       -18.7818
  46   2.0000      -0.684026       -18.6133
  47   2.0000      -0.678650       -18.4670
  48   2.0000      -0.670395       -18.2424
  49   2.0000      -0.665074       -18.0976
  50   2.0000      -0.644908       -17.5488
  51   2.0000      -0.642138       -17.4735
  52   2.0000      -0.633618       -17.2416
  53   2.0000      -0.604132       -16.4393
  54   2.0000      -0.599087       -16.3020
  55   2.0000      -0.597524       -16.2595
  56   2.0000      -0.594204       -16.1691
  57   2.0000      -0.587072       -15.9750
  58   2.0000      -0.571971       -15.5641
  59   2.0000      -0.568751       -15.4765
  60   2.0000      -0.559156       -15.2154
  61   2.0000      -0.543658       -14.7937
  62   2.0000      -0.536509       -14.5991
  63   2.0000      -0.521828       -14.1997
  64   2.0000      -0.516727       -14.0609
  65   2.0000      -0.510420       -13.8892
  66   2.0000      -0.500302       -13.6139
  67   2.0000      -0.494681       -13.4610
  68   2.0000      -0.479359       -13.0440
  69   2.0000      -0.461066       -12.5462
  70   2.0000      -0.456672       -12.4267
  71   2.0000      -0.446812       -12.1584
  72   2.0000      -0.352983        -9.6052
  73   2.0000      -0.343289        -9.3414
  74   2.0000      -0.326358        -8.8807
  75   2.0000      -0.314828        -8.5669
  76   2.0000      -0.313162        -8.5216
  77   0.0000       0.077327         2.1042
  78   0.0000       0.113589         3.0909
  79   0.0000       0.121663         3.3106
  80   0.0000       0.136461         3.7133
  81   0.0000       0.140231         3.8159

MULLIKEN ATOMIC CHARGES
-----------------------
   0 C :   -0.294516
   1 C :    0.051361
   2 O :   -0.356865
   3 C :    0.437266
   4 O :   -0.428461
   5 C :   -0.143720
   6 C :    0.136167
   7 C :   -0.286258
   8 N :   -0.121276
   9 C :    0.201363
  10 S :   -0.440862
  11 N :   -0.196975
  12 C :    0.033051
  13 C :    0.057116
  14 C :   -0.163111
  15 C :   -0.134223
  16 C :   -0.279205
  17 C :    0.311399
  18 O :   -0.359012
  19 C :   -0.270657
  20 H :    0.096667
  21 H :    0.095061
  22 H :    0.124042
  23 H :    0.097876
  24 H :    0.091103
  25 H :    0.127672
  26 H :    0.123965
  27 H :    0.102180
  28 H :    0.196526
  29 H :    0.193294
  30 H :    0.154230
  31 H :    0.153646
  32 H :    0.158814
  33 H :    0.127822
  34 H :    0.239889
  35 H :    0.164630
Sum of atomic charges:    0.0000000

LOEWDIN ATOMIC CHARGES
----------------------
   0 C :    0.102720
   1 C :   -0.009579
   2 O :    0.294473
   3 C :   -0.412425
   4 O :    0.114261
   5 C :   -0.089877
   6 C :   -0.067270
   7 C :    0.124467
   8 N :    0.404406
   9 C :   -0.459013
  10 S :   -0.037233
  11 N :    0.397758
  12 C :   -0.046252
  13 C :   -0.038592
  14 C :    0.021382
  15 C :    0.040464
  16 C :   -0.002549
  17 C :   -0.192514
  18 O :    0.393022
  19 C :    0.028917
  20 H :   -0.026458
  21 H :   -0.029306
  22 H :   -0.025199
  23 H :   -0.025268
  24 H :   -0.028324
  25 H :   -0.009761
  26 H :   -0.009179
  27 H :   -0.021095
  28 H :   -0.059361
  29 H :   -0.063805
  30 H :   -0.005370
  31 H :   -0.025504
  32 H :   -0.021429
  33 H :   -0.036526
  34 H :   -0.155034
  35 H :   -0.024948

  Mayer bond orders larger than 0.100000
B(  0-C ,  1-C ) :   0.9705 B(  0-C , 20-H ) :   0.9758 B(  0-C , 21-H ) :   0.9760
B(  0-C , 22-H ) :   0.9719 B(  1-C ,  2-O ) :   0.9040 B(  1-C , 23-H ) :   0.9831
B(  1-C , 24-H ) :   0.9796 B(  2-O ,  3-C ) :   1.1391 B(  3-C ,  4-O ) :   1.9725
B(  3-C ,  5-C ) :   1.0574 B(  5-C ,  6-C ) :   1.6504 B(  5-C , 12-C ) :   0.9643
B(  6-C ,  7-C ) :   0.9558 B(  6-C ,  8-N ) :   1.1445 B(  7-C , 25-H ) :   0.9632
B(  7-C , 26-H ) :   0.9669 B(  7-C , 27-H ) :   0.9915 B(  8-N ,  9-C ) :   1.1800
B(  8-N , 28-H ) :   0.9493 B(  9-C , 10-S ) :   1.6095 B(  9-C , 11-N ) :   1.3036
B( 11-N , 12-C ) :   0.9934 B( 11-N , 29-H ) :   0.9520 B( 12-C , 13-C ) :   0.9475
B( 12-C , 30-H ) :   0.9996 B( 13-C , 14-C ) :   1.3756 B( 13-C , 19-C ) :   1.3699
B( 14-C , 15-C ) :   1.3947 B( 14-C , 31-H ) :   0.9650 B( 15-C , 16-C ) :   1.3628
B( 15-C , 32-H ) :   0.9715 B( 16-C , 17-C ) :   1.3313 B( 16-C , 33-H ) :   0.9861
B( 17-C , 18-O ) :   1.1080 B( 17-C , 19-C ) :   1.3791 B( 18-O , 34-H ) :   0.9807
B( 19-C , 35-H ) :   0.9584

MP2 TOTAL ENERGY:    -1274.337528125 Eh
FINAL SINGLE POINT ENERGY     -1274.337528125185

DIPOLE MOMENT
-------------
                                X             Y             Z
Electronic contribution:      9.76106      10.21382      11.14438
Nuclear contribution   :    -11.43579     -11.39814     -12.13461
                        -----------------------------------------
Total Dipole Moment    :     -1.67473      -1.18432      -0.99023
                        -----------------------------------------
Magnitude (a.u.)       :      2.27770
Magnitude (Debye)      :      5.78945

Rotational constants in cm-1:     0.010664     0.008890     0.005853
Rotational constants in MHz :   319.702199   266.518322   175.478318

                             ****ORCA TERMINATED NORMALLY****
TOTAL RUN TIME: 0 days 1 hours 33 minutes 2 seconds 284 msec
