                         Program Version 5.0.0 -  RELEASE  -
|  1> ! ri-mp2 cc-pvtz cc-pvtz/c TightSCF NoKeepInts
|  2>
|  3> %scf
|  4>   MaxCore 4096
|  5> end
|  6> *xyz  0  1
|  7>     C       15.2408795   13.9447273   16.9725870
|  8>     C       16.4917896   14.0167462   16.0730205
|  9>     O       17.3547601   15.0678026   16.5451762
| 10>     C       16.9829177   16.3755637   16.3959352
| 11>     O       16.1517507   16.7257180   15.5749390
| 12>     C       17.6312259   17.2845189   17.4030972
| 13>     C       17.4462555   18.6290495   17.3948343
| 14>     C       16.6039385   19.4322850   16.4269888
| 15>     N       18.0978679   19.4324695   18.3352378
| 16>     C       19.0166181   18.9851505   19.2466153
| 17>     S       19.8087489   20.0166580   20.2686429
| 18>     N       19.2506209   17.6339806   19.2674889
| 19>     C       18.5114410   16.6300000   18.4807676
| 20>     C       17.7020522   15.7382964   19.4181715
| 21>     C       18.0824454   14.4001502   19.6326693
| 22>     C       17.3385423   13.5742633   20.4922010
| 23>     C       16.2056517   14.0906611   21.1439967
| 24>     C       15.8268901   15.4240997   20.9363506
| 25>     O       14.7340145   15.9257174   21.5646886
| 26>     C       16.5698737   16.2439485   20.0814929
| 27>     H       15.5257714   13.8149938   18.0239027
| 28>     H       14.6097105   13.0964257   16.6821995
| 29>     H       14.6382640   14.8576111   16.8876071
| 30>     H       17.0259239   13.0594667   16.1241029
| 31>     H       16.2014478   14.1907143   15.0278072
| 32>     H       16.9283878   19.2556353   15.3936029
| 33>     H       16.6538693   20.5122805   16.6083982
| 34>     H       15.5501322   19.1328480   16.4942954
| 35>     H       17.9394494   20.4274269   18.3340524
| 36>     H       19.9044236   17.3302616   19.9774754
| 37>     H       19.2557530   16.0061850   17.9661267
| 38>     H       18.9545231   13.9968665   19.1250377
| 39>     H       17.6399052   12.5401971   20.6502215
| 40>     H       15.6276784   13.4568786   21.8085072
| 41>     H       14.3790198   15.2272592   22.1347495
| 42>     H       16.2644564   17.2751434   19.9410122
| 43> *
| 44>
| 45>                          ****END OF INPUT****

CARTESIAN COORDINATES (ANGSTROEM)
---------------------------------
  C     15.240879   13.944727   16.972587
  C     16.491790   14.016746   16.073020
  O     17.354760   15.067803   16.545176
  C     16.982918   16.375564   16.395935
  O     16.151751   16.725718   15.574939
  C     17.631226   17.284519   17.403097
  C     17.446255   18.629050   17.394834
  C     16.603939   19.432285   16.426989
  N     18.097868   19.432469   18.335238
  C     19.016618   18.985150   19.246615
  S     19.808749   20.016658   20.268643
  N     19.250621   17.633981   19.267489
  C     18.511441   16.630000   18.480768
  C     17.702052   15.738296   19.418171
  C     18.082445   14.400150   19.632669
  C     17.338542   13.574263   20.492201
  C     16.205652   14.090661   21.143997
  C     15.826890   15.424100   20.936351
  O     14.734015   15.925717   21.564689
  C     16.569874   16.243948   20.081493
  H     15.525771   13.814994   18.023903
  H     14.609711   13.096426   16.682199
  H     14.638264   14.857611   16.887607
  H     17.025924   13.059467   16.124103
  H     16.201448   14.190714   15.027807
  H     16.928388   19.255635   15.393603
  H     16.653869   20.512280   16.608398
  H     15.550132   19.132848   16.494295
  H     17.939449   20.427427   18.334052
  H     19.904424   17.330262   19.977475
  H     19.255753   16.006185   17.966127
  H     18.954523   13.996866   19.125038
  H     17.639905   12.540197   20.650222
  H     15.627678   13.456879   21.808507
  H     14.379020   15.227259   22.134750
  H     16.264456   17.275143   19.941012

 Total Charge           Charge          ....    0
 Multiplicity           Mult            ....    1
 Number of Electrons    NEL             ....  154
 Basis Dimension        Dim             ....  828

ORBITAL ENERGIES
----------------

  NO   OCC          E(Eh)            E(eV)
   0   2.0000     -91.889062     -2500.4285
   1   2.0000     -20.598504      -560.5138
   2   2.0000     -20.597798      -560.4946
   3   2.0000     -20.541637      -558.9664
   4   2.0000     -15.629313      -425.2952
   5   2.0000     -15.608551      -424.7303
   6   2.0000     -11.394798      -310.0682
   7   2.0000     -11.384248      -309.7811
   8   2.0000     -11.336313      -308.4768
   9   2.0000     -11.315233      -307.9031
  10   2.0000     -11.309350      -307.7430
  11   2.0000     -11.296031      -307.3806
  12   2.0000     -11.260805      -306.4221
  13   2.0000     -11.259069      -306.3748
  14   2.0000     -11.256531      -306.3058
  15   2.0000     -11.252310      -306.1909
  16   2.0000     -11.244391      -305.9754
  17   2.0000     -11.239513      -305.8427
  18   2.0000     -11.239153      -305.8329
  19   2.0000     -11.220738      -305.3318
  20   2.0000      -8.894122      -242.0214
  21   2.0000      -6.575696      -178.9338
  22   2.0000      -6.573691      -178.8792
  23   2.0000      -6.573105      -178.8633
  24   2.0000      -1.450025       -39.4572
  25   2.0000      -1.417477       -38.5715
  26   2.0000      -1.353657       -36.8349
  27   2.0000      -1.340296       -36.4713
  28   2.0000      -1.238859       -33.7111
  29   2.0000      -1.158822       -31.5331
  30   2.0000      -1.120888       -30.5009
  31   2.0000      -1.043482       -28.3946
  32   2.0000      -1.033853       -28.1326
  33   2.0000      -1.016341       -27.6560
  34   2.0000      -0.995717       -27.0948
  35   2.0000      -0.984498       -26.7896
  36   2.0000      -0.923118       -25.1193
  37   2.0000      -0.894231       -24.3333
  38   2.0000      -0.847367       -23.0580
  39   2.0000      -0.838703       -22.8223
  40   2.0000      -0.835054       -22.7230
  41   2.0000      -0.815172       -22.1820
  42   2.0000      -0.754102       -20.5202
  43   2.0000      -0.733327       -19.9548
  44   2.0000      -0.723414       -19.6851
  45   2.0000      -0.696902       -18.9637
  46   2.0000      -0.689031       -18.7495
  47   2.0000      -0.678031       -18.4502
  48   2.0000      -0.670750       -18.2520
  49   2.0000      -0.662097       -18.0166
  50   2.0000      -0.648835       -17.6557
  51   2.0000      -0.641467       -17.4552
  52   2.0000      -0.632783       -17.2189
  53   2.0000      -0.610711       -16.6183
  54   2.0000      -0.608220       -16.5505
  55   2.0000      -0.600821       -16.3492
  56   2.0000      -0.599452       -16.3119
  57   2.0000      -0.578512       -15.7421
  58   2.0000      -0.570949       -15.5363
  59   2.0000      -0.567353       -15.4385
  60   2.0000      -0.557997       -15.1839
  61   2.0000      -0.543395       -14.7865
  62   2.0000      -0.532783       -14.4978
  63   2.0000      -0.529822       -14.4172
  64   2.0000      -0.525987       -14.3128
  65   2.0000      -0.513494       -13.9729
  66   2.0000      -0.502052       -13.6615
  67   2.0000      -0.500007       -13.6059
  68   2.0000      -0.479838       -13.0571
  69   2.0000      -0.464836       -12.6488
  70   2.0000      -0.454124       -12.3574
  71   2.0000      -0.446029       -12.1371
  72   2.0000      -0.354579        -9.6486
  73   2.0000      -0.350819        -9.5463
  74   2.0000      -0.328578        -8.9411
  75   2.0000      -0.322780        -8.7833
  76   2.0000      -0.316535        -8.6133
  77   0.0000       0.075696         2.0598
  78   0.0000       0.105417         2.8685
  79   0.0000       0.124500         3.3878
  80   0.0000       0.131947         3.5905
  81   0.0000       0.137684         3.7466

MULLIKEN ATOMIC CHARGES
-----------------------
   0 C :   -0.310751
   1 C :    0.021127
   2 O :   -0.361949
   3 C :    0.462988
   4 O :   -0.433528
   5 C :   -0.231025
   6 C :    0.155451
   7 C :   -0.271812
   8 N :   -0.121982
   9 C :    0.213209
  10 S :   -0.440234
  11 N :   -0.206690
  12 C :    0.065455
  13 C :    0.054893
  14 C :   -0.187122
  15 C :   -0.134948
  16 C :   -0.278862
  17 C :    0.312031
  18 O :   -0.357131
  19 C :   -0.254349
  20 H :    0.109227
  21 H :    0.101682
  22 H :    0.112132
  23 H :    0.112741
  24 H :    0.118344
  25 H :    0.131290
  26 H :    0.095375
  27 H :    0.131921
  28 H :    0.197316
  29 H :    0.195169
  30 H :    0.150295
  31 H :    0.150716
  32 H :    0.160636
  33 H :    0.131008
  34 H :    0.240950
  35 H :    0.166425
Sum of atomic charges:   -0.0000000

LOEWDIN ATOMIC CHARGES
----------------------
   0 C :    0.105120
   1 C :   -0.017611
   2 O :    0.304614
   3 C :   -0.414712
   4 O :    0.096883
   5 C :   -0.094657
   6 C :   -0.058968
   7 C :    0.131674
   8 N :    0.406722
   9 C :   -0.455831
  10 S :   -0.035489
  11 N :    0.396456
  12 C :   -0.051764
  13 C :   -0.038517
  14 C :    0.013145
  15 C :    0.039018
  16 C :   -0.002519
  17 C :   -0.189755
  18 O :    0.396030
  19 C :    0.031890
  20 H :   -0.026080
  21 H :   -0.027531
  22 H :   -0.026215
  23 H :   -0.025359
  24 H :   -0.028023
  25 H :   -0.003775
  26 H :   -0.023347
  27 H :   -0.004714
  28 H :   -0.057513
  29 H :   -0.064651
  30 H :   -0.010642
  31 H :   -0.029917
  32 H :   -0.021114
  33 H :   -0.035405
  34 H :   -0.153612
  35 H :   -0.023832

  Mayer bond orders larger than 0.100000
B(  0-C ,  1-C ) :   0.9588 B(  0-C , 20-H ) :   0.9699 B(  0-C , 21-H ) :   0.9780
B(  0-C , 22-H ) :   0.9757 B(  1-C ,  2-O ) :   0.8911 B(  1-C , 23-H ) :   0.9844
B(  1-C , 24-H ) :   0.9816 B(  2-O ,  3-C ) :   1.1584 B(  3-C ,  4-O ) :   1.9716
B(  3-C ,  5-C ) :   1.0606 B(  5-C ,  6-C ) :   1.6540 B(  5-C , 12-C ) :   0.9722
B(  6-C ,  7-C ) :   0.9661 B(  6-C ,  8-N ) :   1.1650 B(  7-C , 25-H ) :   0.9605
B(  7-C , 26-H ) :   0.9903 B(  7-C , 27-H ) :   0.9602 B(  8-N ,  9-C ) :   1.1832
B(  8-N , 28-H ) :   0.9477 B(  9-C , 10-S ) :   1.6060 B(  9-C , 11-N ) :   1.3066
B( 11-N , 12-C ) :   0.9832 B( 11-N , 29-H ) :   0.9515 B( 12-C , 13-C ) :   0.9362
B( 12-C , 30-H ) :   1.0019 B( 13-C , 14-C ) :   1.3546 B( 13-C , 19-C ) :   1.3841
B( 14-C , 15-C ) :   1.3913 B( 14-C , 31-H ) :   0.9722 B( 15-C , 16-C ) :   1.3590
B( 15-C , 32-H ) :   0.9718 B( 16-C , 17-C ) :   1.3313 B( 16-C , 33-H ) :   0.9853
B( 17-C , 18-O ) :   1.1114 B( 17-C , 19-C ) :   1.3705 B( 18-O , 34-H ) :   0.9796
B( 19-C , 35-H ) :   0.9573

MP2 TOTAL ENERGY:    -1274.351119539 Eh
FINAL SINGLE POINT ENERGY     -1274.351119539050

DIPOLE MOMENT
-------------
                                X             Y             Z
Electronic contribution:      9.37057      10.47175       6.55468
Nuclear contribution   :    -10.24080     -12.22347      -6.88342
                        -----------------------------------------
Total Dipole Moment    :     -0.87023      -1.75172      -0.32875
                        -----------------------------------------
Magnitude (a.u.)       :      1.98341
Magnitude (Debye)      :      5.04143

Rotational constants in cm-1:     0.012499     0.008747     0.006372
Rotational constants in MHz :   374.706110   262.213965   191.038914

                             ****ORCA TERMINATED NORMALLY****
TOTAL RUN TIME: 0 days 2 hours 1 minutes 55 seconds 198 msec
