                         Program Version 5.0.0 -  RELEASE  -
|  1> ! ri-mp2 cc-pvtz cc-pvtz/c TightSCF NoKeepInts
|  2>
|  3> %scf
|  4>   MaxCore 4096
|  5> end
|  6> *xyz  0  1
|  7>     C       14.6009974   14.3818460   15.3939180
|  8>     C       15.5626520   14.6432529   16.5649313
|  9>     O       16.5431280   15.5919175   16.1112622
| 10>     C       17.7613191   15.6005209   16.7236170
| 11>     O       18.3377509   14.5610301   16.9974616
| 12>     C       17.9860940   16.8511253   17.5192415
| 13>     C       17.5266675   18.0748831   17.1543702
| 14>     C       16.7552858   18.4338792   15.9012610
| 15>     N       17.8239044   19.1917977   17.9413444
| 16>     C       18.6768992   19.1884288   19.0137451
| 17>     S       19.0637939   20.5778309   19.8232158
| 18>     N       19.1939651   17.9716058   19.3817670
| 19>     C       18.7876619   16.6727205   18.8121571
| 20>     C       17.9905942   15.8661346   19.8339451
| 21>     C       18.3953618   14.5662128   20.1890931
| 22>     C       17.6581454   13.8155005   21.1201287
| 23>     C       16.5044958   14.3682233   21.7017224
| 24>     C       16.0954072   15.6609587   21.3475918
| 25>     O       14.9769881   16.1943622   21.9005040
| 26>     C       16.8308455   16.4054604   20.4201250
| 27>     H       15.1453717   13.9774508   14.5312904
| 28>     H       14.1031593   15.3097387   15.0865259
| 29>     H       13.8303990   13.6571502   15.6835986
| 30>     H       15.0227014   15.0363558   17.4364655
| 31>     H       16.0341636   13.6920432   16.8485506
| 32>     H       17.1701575   17.9209536   15.0244782
| 33>     H       16.7820582   19.5088216   15.6849747
| 34>     H       15.7032833   18.1371847   15.9962090
| 35>     H       17.4550600   20.0942104   17.6867145
| 36>     H       19.7962137   17.9932379   20.1946990
| 37>     H       19.7022377   16.1137714   18.5663988
| 38>     H       19.2768047   14.1293196   19.7259077
| 39>     H       17.9792619   12.8088394   21.3818814
| 40>     H       15.9312701   13.7909960   22.4195551
| 41>     H       14.6444756   15.5589260   22.5522120
| 42>     H       16.4984253   17.4053092   20.1631363
| 43> *
| 44>
| 45>                          ****END OF INPUT****

CARTESIAN COORDINATES (ANGSTROEM)
---------------------------------
  C     14.600997   14.381846   15.393918
  C     15.562652   14.643253   16.564931
  O     16.543128   15.591917   16.111262
  C     17.761319   15.600521   16.723617
  O     18.337751   14.561030   16.997462
  C     17.986094   16.851125   17.519241
  C     17.526667   18.074883   17.154370
  C     16.755286   18.433879   15.901261
  N     17.823904   19.191798   17.941344
  C     18.676899   19.188429   19.013745
  S     19.063794   20.577831   19.823216
  N     19.193965   17.971606   19.381767
  C     18.787662   16.672721   18.812157
  C     17.990594   15.866135   19.833945
  C     18.395362   14.566213   20.189093
  C     17.658145   13.815501   21.120129
  C     16.504496   14.368223   21.701722
  C     16.095407   15.660959   21.347592
  O     14.976988   16.194362   21.900504
  C     16.830845   16.405460   20.420125
  H     15.145372   13.977451   14.531290
  H     14.103159   15.309739   15.086526
  H     13.830399   13.657150   15.683599
  H     15.022701   15.036356   17.436466
  H     16.034164   13.692043   16.848551
  H     17.170157   17.920954   15.024478
  H     16.782058   19.508822   15.684975
  H     15.703283   18.137185   15.996209
  H     17.455060   20.094210   17.686715
  H     19.796214   17.993238   20.194699
  H     19.702238   16.113771   18.566399
  H     19.276805   14.129320   19.725908
  H     17.979262   12.808839   21.381881
  H     15.931270   13.790996   22.419555
  H     14.644476   15.558926   22.552212
  H     16.498425   17.405309   20.163136

 Total Charge           Charge          ....    0
 Multiplicity           Mult            ....    1
 Number of Electrons    NEL             ....  154
 Basis Dimension        Dim             ....  828

ORBITAL ENERGIES
----------------

  NO   OCC          E(Eh)            E(eV)
   0   2.0000     -91.888516     -2500.4136
   1   2.0000     -20.594723      -560.4109
   2   2.0000     -20.589368      -560.2652
   3   2.0000     -20.553262      -559.2827
   4   2.0000     -15.628304      -425.2678
   5   2.0000     -15.607778      -424.7092
   6   2.0000     -11.394849      -310.0696
   7   2.0000     -11.383861      -309.7706
   8   2.0000     -11.333761      -308.4073
   9   2.0000     -11.310740      -307.7809
  10   2.0000     -11.307736      -307.6991
  11   2.0000     -11.298015      -307.4346
  12   2.0000     -11.259950      -306.3988
  13   2.0000     -11.259692      -306.3918
  14   2.0000     -11.256351      -306.3009
  15   2.0000     -11.250812      -306.1502
  16   2.0000     -11.240430      -305.8677
  17   2.0000     -11.236443      -305.7591
  18   2.0000     -11.233608      -305.6820
  19   2.0000     -11.230906      -305.6085
  20   2.0000      -8.893588      -242.0068
  21   2.0000      -6.575167      -178.9194
  22   2.0000      -6.573157      -178.8647
  23   2.0000      -6.572573      -178.8488
  24   2.0000      -1.453335       -39.5473
  25   2.0000      -1.414485       -38.4901
  26   2.0000      -1.357255       -36.9328
  27   2.0000      -1.339364       -36.4459
  28   2.0000      -1.237483       -33.6736
  29   2.0000      -1.154927       -31.4272
  30   2.0000      -1.120760       -30.4974
  31   2.0000      -1.044324       -28.4175
  32   2.0000      -1.035885       -28.1879
  33   2.0000      -1.012370       -27.5480
  34   2.0000      -0.998646       -27.1745
  35   2.0000      -0.984118       -26.7792
  36   2.0000      -0.922570       -25.1044
  37   2.0000      -0.882874       -24.0242
  38   2.0000      -0.847906       -23.0727
  39   2.0000      -0.837570       -22.7914
  40   2.0000      -0.830918       -22.6104
  41   2.0000      -0.824014       -22.4225
  42   2.0000      -0.758337       -20.6354
  43   2.0000      -0.735910       -20.0251
  44   2.0000      -0.727309       -19.7911
  45   2.0000      -0.692803       -18.8521
  46   2.0000      -0.685706       -18.6590
  47   2.0000      -0.680984       -18.5305
  48   2.0000      -0.674399       -18.3513
  49   2.0000      -0.656061       -17.8523
  50   2.0000      -0.648680       -17.6515
  51   2.0000      -0.641438       -17.4544
  52   2.0000      -0.630329       -17.1521
  53   2.0000      -0.620614       -16.8878
  54   2.0000      -0.603181       -16.4134
  55   2.0000      -0.602220       -16.3872
  56   2.0000      -0.598107       -16.2753
  57   2.0000      -0.578036       -15.7291
  58   2.0000      -0.575451       -15.6588
  59   2.0000      -0.563016       -15.3204
  60   2.0000      -0.559801       -15.2330
  61   2.0000      -0.547394       -14.8954
  62   2.0000      -0.534348       -14.5403
  63   2.0000      -0.524248       -14.2655
  64   2.0000      -0.520071       -14.1518
  65   2.0000      -0.511119       -13.9082
  66   2.0000      -0.501739       -13.6530
  67   2.0000      -0.496757       -13.5175
  68   2.0000      -0.482275       -13.1234
  69   2.0000      -0.464741       -12.6463
  70   2.0000      -0.460612       -12.5339
  71   2.0000      -0.451007       -12.2725
  72   2.0000      -0.354004        -9.6329
  73   2.0000      -0.346687        -9.4338
  74   2.0000      -0.327782        -8.9194
  75   2.0000      -0.317811        -8.6481
  76   2.0000      -0.315399        -8.5824
  77   0.0000       0.072118         1.9624
  78   0.0000       0.106765         2.9052
  79   0.0000       0.119072         3.2401
  80   0.0000       0.133448         3.6313
  81   0.0000       0.136483         3.7139

MULLIKEN ATOMIC CHARGES
-----------------------
   0 C :   -0.261522
   1 C :    0.034978
   2 O :   -0.369852
   3 C :    0.462653
   4 O :   -0.405856
   5 C :   -0.196959
   6 C :    0.139532
   7 C :   -0.282751
   8 N :   -0.124592
   9 C :    0.203053
  10 S :   -0.439903
  11 N :   -0.200338
  12 C :    0.050078
  13 C :    0.051997
  14 C :   -0.162467
  15 C :   -0.132905
  16 C :   -0.280332
  17 C :    0.312805
  18 O :   -0.359126
  19 C :   -0.281012
  20 H :    0.100899
  21 H :    0.089654
  22 H :    0.090075
  23 H :    0.094433
  24 H :    0.114560
  25 H :    0.124689
  26 H :    0.104332
  27 H :    0.124964
  28 H :    0.197152
  29 H :    0.194162
  30 H :    0.154610
  31 H :    0.155246
  32 H :    0.160286
  33 H :    0.129568
  34 H :    0.240694
  35 H :    0.167195
Sum of atomic charges:    0.0000000

LOEWDIN ATOMIC CHARGES
----------------------
   0 C :    0.107460
   1 C :   -0.015008
   2 O :    0.295051
   3 C :   -0.414828
   4 O :    0.122632
   5 C :   -0.093411
   6 C :   -0.072750
   7 C :    0.125709
   8 N :    0.404214
   9 C :   -0.457715
  10 S :   -0.036438
  11 N :    0.397191
  12 C :   -0.045643
  13 C :   -0.039816
  14 C :    0.021677
  15 C :    0.041483
  16 C :   -0.002177
  17 C :   -0.193785
  18 O :    0.393140
  19 C :    0.027992
  20 H :   -0.024133
  21 H :   -0.030455
  22 H :   -0.025133
  23 H :   -0.032767
  24 H :   -0.026185
  25 H :   -0.008011
  26 H :   -0.019817
  27 H :   -0.010316
  28 H :   -0.058805
  29 H :   -0.064010
  30 H :   -0.004771
  31 H :   -0.024902
  32 H :   -0.020664
  33 H :   -0.035946
  34 H :   -0.154321
  35 H :   -0.024742

  Mayer bond orders larger than 0.100000
B(  0-C ,  1-C ) :   0.9775 B(  0-C , 20-H ) :   0.9777 B(  0-C , 21-H ) :   0.9796
B(  0-C , 22-H ) :   0.9763 B(  1-C ,  2-O ) :   0.8883 B(  1-C , 23-H ) :   0.9714
B(  1-C , 24-H ) :   0.9750 B(  2-O ,  3-C ) :   1.0979 B(  3-C ,  4-O ) :   2.0192
B(  3-C ,  5-C ) :   1.0342 B(  5-C ,  6-C ) :   1.6655 B(  5-C , 12-C ) :   0.9642
B(  6-C ,  7-C ) :   0.9520 B(  6-C ,  8-N ) :   1.1401 B(  7-C , 25-H ) :   0.9699
B(  7-C , 26-H ) :   0.9885 B(  7-C , 27-H ) :   0.9635 B(  8-N ,  9-C ) :   1.1834
B(  8-N , 28-H ) :   0.9497 B(  9-C , 10-S ) :   1.6105 B(  9-C , 11-N ) :   1.3010
B( 11-N , 12-C ) :   0.9917 B( 11-N , 29-H ) :   0.9517 B( 12-C , 13-C ) :   0.9460
B( 12-C , 30-H ) :   0.9986 B( 13-C , 14-C ) :   1.3771 B( 13-C , 19-C ) :   1.3672
B( 14-C , 15-C ) :   1.3942 B( 14-C , 31-H ) :   0.9642 B( 15-C , 16-C ) :   1.3637
B( 15-C , 32-H ) :   0.9710 B( 16-C , 17-C ) :   1.3314 B( 16-C , 33-H ) :   0.9853
B( 17-C , 18-O ) :   1.1089 B( 17-C , 19-C ) :   1.3752 B( 18-O , 34-H ) :   0.9800
B( 19-C , 35-H ) :   0.9582

MP2 TOTAL ENERGY:    -1274.329514173 Eh
FINAL SINGLE POINT ENERGY     -1274.329514173149

DIPOLE MOMENT
-------------
                                X             Y             Z
Electronic contribution:     11.36060       9.82311       9.31027
Nuclear contribution   :    -12.77058     -11.13161      -9.93991
                        -----------------------------------------
Total Dipole Moment    :     -1.40998      -1.30850      -0.62964
                        -----------------------------------------
Magnitude (a.u.)       :      2.02402
Magnitude (Debye)      :      5.14465

Rotational constants in cm-1:     0.010913     0.009102     0.006249
Rotational constants in MHz :   327.155443   272.868267   187.348078

                             ****ORCA TERMINATED NORMALLY****
TOTAL RUN TIME: 0 days 1 hours 51 minutes 40 seconds 609 msec
