                         Program Version 5.0.0 -  RELEASE  -
|  1> ! ri-mp2 cc-pvtz cc-pvtz/c TightSCF NoKeepInts
|  2>
|  3> %scf
|  4>   MaxCore 4096
|  5> end
|  6> *xyz  0  1
|  7>     C       14.1896342   14.9846554   15.4968707
|  8>     C       15.6659919   14.6050900   15.7002652
|  9>     O       16.3876438   15.8180008   15.9701895
| 10>     C       17.5457625   15.7452364   16.6868198
| 11>     O       18.1751231   14.7046140   16.7887749
| 12>     C       17.7988212   16.9287086   17.5765356
| 13>     C       17.2387609   18.1568636   17.4177653
| 14>     C       16.2768407   18.6125594   16.3394471
| 15>     N       17.5985063   19.1999235   18.2777719
| 16>     C       18.6052016   19.1399022   19.2049010
| 17>     S       19.0539410   20.4620328   20.0915896
| 18>     N       19.2222464   17.9245387   19.3585425
| 19>     C       18.7766802   16.6678946   18.7279859
| 20>     C       18.1609647   15.7375095   19.7700055
| 21>     C       18.6497089   14.4281182   19.9335586
| 22>     C       18.0846824   13.5662570   20.8884839
| 23>     C       17.0205953   14.0164449   21.6882670
| 24>     C       16.5281742   15.3184863   21.5261784
| 25>     O       15.4965470   15.7541332   22.2925625
| 26>     C       17.0923411   16.1738445   20.5745864
| 27>     H       13.7880001   15.4706148   16.3947998
| 28>     H       13.5880242   14.0906073   15.2924494
| 29>     H       14.0804255   15.6733848   14.6499576
| 30>     H       15.7388985   13.9142714   16.5520850
| 31>     H       16.0713641   14.1062585   14.8100572
| 32>     H       16.6447411   18.3320905   15.3445784
| 33>     H       16.1318071   19.6996198   16.3328361
| 34>     H       15.2922558   18.1487327   16.4783158
| 35>     H       17.1574501   20.1004259   18.1802020
| 36>     H       19.9398970   17.8981698   20.0714312
| 37>     H       19.6649039   16.1741597   18.3078685
| 38>     H       19.4611402   14.0716697   19.3036713
| 39>     H       18.4682864   12.5537785   21.0005032
| 40>     H       16.5801081   13.3535365   22.4254419
| 41>     H       15.2733192   15.0412599   22.9096094
| 42>     H       16.6982113   17.1786066   20.4690919
| 43> *
| 44>
| 45>                          ****END OF INPUT****

CARTESIAN COORDINATES (ANGSTROEM)
---------------------------------
  C     14.189634   14.984655   15.496871
  C     15.665992   14.605090   15.700265
  O     16.387644   15.818001   15.970190
  C     17.545762   15.745236   16.686820
  O     18.175123   14.704614   16.788775
  C     17.798821   16.928709   17.576536
  C     17.238761   18.156864   17.417765
  C     16.276841   18.612559   16.339447
  N     17.598506   19.199924   18.277772
  C     18.605202   19.139902   19.204901
  S     19.053941   20.462033   20.091590
  N     19.222246   17.924539   19.358542
  C     18.776680   16.667895   18.727986
  C     18.160965   15.737509   19.770005
  C     18.649709   14.428118   19.933559
  C     18.084682   13.566257   20.888484
  C     17.020595   14.016445   21.688267
  C     16.528174   15.318486   21.526178
  O     15.496547   15.754133   22.292562
  C     17.092341   16.173845   20.574586
  H     13.788000   15.470615   16.394800
  H     13.588024   14.090607   15.292449
  H     14.080426   15.673385   14.649958
  H     15.738898   13.914271   16.552085
  H     16.071364   14.106258   14.810057
  H     16.644741   18.332090   15.344578
  H     16.131807   19.699620   16.332836
  H     15.292256   18.148733   16.478316
  H     17.157450   20.100426   18.180202
  H     19.939897   17.898170   20.071431
  H     19.664904   16.174160   18.307869
  H     19.461140   14.071670   19.303671
  H     18.468286   12.553778   21.000503
  H     16.580108   13.353537   22.425442
  H     15.273319   15.041260   22.909609
  H     16.698211   17.178607   20.469092

 Total Charge           Charge          ....    0
 Multiplicity           Mult            ....    1
 Number of Electrons    NEL             ....  154
 Basis Dimension        Dim             ....  828

ORBITAL ENERGIES
----------------

  NO   OCC          E(Eh)            E(eV)
   0   2.0000     -91.888139     -2500.4034
   1   2.0000     -20.601275      -560.5892
   2   2.0000     -20.592106      -560.3397
   3   2.0000     -20.546815      -559.1073
   4   2.0000     -15.628463      -425.2721
   5   2.0000     -15.606842      -424.6838
   6   2.0000     -11.394919      -310.0715
   7   2.0000     -11.383085      -309.7495
   8   2.0000     -11.336064      -308.4700
   9   2.0000     -11.307902      -307.7036
  10   2.0000     -11.305864      -307.6482
  11   2.0000     -11.299531      -307.4759
  12   2.0000     -11.260563      -306.4155
  13   2.0000     -11.259109      -306.3759
  14   2.0000     -11.253766      -306.2305
  15   2.0000     -11.247994      -306.0735
  16   2.0000     -11.237658      -305.7922
  17   2.0000     -11.235050      -305.7213
  18   2.0000     -11.233789      -305.6869
  19   2.0000     -11.230732      -305.6038
  20   2.0000      -8.893204      -241.9964
  21   2.0000      -6.574781      -178.9089
  22   2.0000      -6.572774      -178.8543
  23   2.0000      -6.572189      -178.8383
  24   2.0000      -1.455173       -39.5973
  25   2.0000      -1.411843       -38.4182
  26   2.0000      -1.357144       -36.9298
  27   2.0000      -1.339392       -36.4467
  28   2.0000      -1.237052       -33.6619
  29   2.0000      -1.152447       -31.3597
  30   2.0000      -1.119738       -30.4696
  31   2.0000      -1.044716       -28.4282
  32   2.0000      -1.037162       -28.2226
  33   2.0000      -1.009829       -27.4788
  34   2.0000      -0.997916       -27.1547
  35   2.0000      -0.983562       -26.7641
  36   2.0000      -0.921264       -25.0689
  37   2.0000      -0.888584       -24.1796
  38   2.0000      -0.847053       -23.0495
  39   2.0000      -0.835212       -22.7273
  40   2.0000      -0.828177       -22.5358
  41   2.0000      -0.818213       -22.2647
  42   2.0000      -0.761681       -20.7264
  43   2.0000      -0.735916       -20.0253
  44   2.0000      -0.725112       -19.7313
  45   2.0000      -0.691147       -18.8071
  46   2.0000      -0.684030       -18.6134
  47   2.0000      -0.681588       -18.5470
  48   2.0000      -0.676163       -18.3993
  49   2.0000      -0.659796       -17.9540
  50   2.0000      -0.649839       -17.6830
  51   2.0000      -0.643760       -17.5176
  52   2.0000      -0.635157       -17.2835
  53   2.0000      -0.601280       -16.3617
  54   2.0000      -0.600460       -16.3393
  55   2.0000      -0.596111       -16.2210
  56   2.0000      -0.594882       -16.1876
  57   2.0000      -0.579504       -15.7691
  58   2.0000      -0.573555       -15.6072
  59   2.0000      -0.565235       -15.3808
  60   2.0000      -0.561476       -15.2785
  61   2.0000      -0.556106       -15.1324
  62   2.0000      -0.540712       -14.7135
  63   2.0000      -0.519041       -14.1238
  64   2.0000      -0.517787       -14.0897
  65   2.0000      -0.511266       -13.9122
  66   2.0000      -0.503718       -13.7069
  67   2.0000      -0.495902       -13.4942
  68   2.0000      -0.480888       -13.0856
  69   2.0000      -0.462977       -12.5982
  70   2.0000      -0.460598       -12.5335
  71   2.0000      -0.456104       -12.4112
  72   2.0000      -0.354192        -9.6381
  73   2.0000      -0.344315        -9.3693
  74   2.0000      -0.327280        -8.9057
  75   2.0000      -0.315771        -8.5926
  76   2.0000      -0.314089        -8.5468
  77   0.0000       0.075536         2.0554
  78   0.0000       0.112065         3.0495
  79   0.0000       0.120177         3.2702
  80   0.0000       0.135650         3.6912
  81   0.0000       0.138953         3.7811

MULLIKEN ATOMIC CHARGES
-----------------------
   0 C :   -0.279589
   1 C :    0.049411
   2 O :   -0.340961
   3 C :    0.429651
   4 O :   -0.420727
   5 C :   -0.170329
   6 C :    0.143434
   7 C :   -0.287469
   8 N :   -0.122851
   9 C :    0.201681
  10 S :   -0.439326
  11 N :   -0.197679
  12 C :    0.038772
  13 C :    0.056257
  14 C :   -0.160727
  15 C :   -0.134090
  16 C :   -0.279470
  17 C :    0.311236
  18 O :   -0.359192
  19 C :   -0.273466
  20 H :    0.096945
  21 H :    0.103580
  22 H :    0.095034
  23 H :    0.094657
  24 H :    0.096633
  25 H :    0.127243
  26 H :    0.104581
  27 H :    0.126499
  28 H :    0.196873
  29 H :    0.193713
  30 H :    0.153621
  31 H :    0.153570
  32 H :    0.159360
  33 H :    0.128232
  34 H :    0.240142
  35 H :    0.164749
Sum of atomic charges:    0.0000000

LOEWDIN ATOMIC CHARGES
----------------------
   0 C :    0.106114
   1 C :   -0.016266
   2 O :    0.305140
   3 C :   -0.415709
   4 O :    0.107033
   5 C :   -0.091885
   6 C :   -0.067013
   7 C :    0.125117
   8 N :    0.404713
   9 C :   -0.458718
  10 S :   -0.036021
  11 N :    0.397751
  12 C :   -0.046282
  13 C :   -0.038925
  14 C :    0.022164
  15 C :    0.040838
  16 C :   -0.002482
  17 C :   -0.192877
  18 O :    0.392904
  19 C :    0.028099
  20 H :   -0.027330
  21 H :   -0.022813
  22 H :   -0.028668
  23 H :   -0.025720
  24 H :   -0.029479
  25 H :   -0.008325
  26 H :   -0.020787
  27 H :   -0.010200
  28 H :   -0.059123
  29 H :   -0.063720
  30 H :   -0.004833
  31 H :   -0.025183
  32 H :   -0.021145
  33 H :   -0.036389
  34 H :   -0.154871
  35 H :   -0.025107

  Mayer bond orders larger than 0.100000
B(  0-C ,  1-C ) :   0.9703 B(  0-C , 20-H ) :   0.9770 B(  0-C , 21-H ) :   0.9789
B(  0-C , 22-H ) :   0.9774 B(  1-C ,  2-O ) :   0.9051 B(  1-C , 23-H ) :   0.9732
B(  1-C , 24-H ) :   0.9817 B(  2-O ,  3-C ) :   1.1535 B(  3-C ,  4-O ) :   1.9977
B(  3-C ,  5-C ) :   1.0473 B(  5-C ,  6-C ) :   1.6503 B(  5-C , 12-C ) :   0.9662
B(  6-C ,  7-C ) :   0.9539 B(  6-C ,  8-N ) :   1.1448 B(  7-C , 25-H ) :   0.9663
B(  7-C , 26-H ) :   0.9913 B(  7-C , 27-H ) :   0.9636 B(  8-N ,  9-C ) :   1.1795
B(  8-N , 28-H ) :   0.9489 B(  9-C , 10-S ) :   1.6107 B(  9-C , 11-N ) :   1.3038
B( 11-N , 12-C ) :   0.9915 B( 11-N , 29-H ) :   0.9520 B( 12-C , 13-C ) :   0.9471
B( 12-C , 30-H ) :   0.9994 B( 13-C , 14-C ) :   1.3760 B( 13-C , 19-C ) :   1.3693
B( 14-C , 15-C ) :   1.3946 B( 14-C , 31-H ) :   0.9648 B( 15-C , 16-C ) :   1.3625
B( 15-C , 32-H ) :   0.9713 B( 16-C , 17-C ) :   1.3314 B( 16-C , 33-H ) :   0.9860
B( 17-C , 18-O ) :   1.1080 B( 17-C , 19-C ) :   1.3789 B( 18-O , 34-H ) :   0.9805
B( 19-C , 35-H ) :   0.9585

MP2 TOTAL ENERGY:    -1274.344999939 Eh
FINAL SINGLE POINT ENERGY     -1274.344999938589

DIPOLE MOMENT
-------------
                                X             Y             Z
Electronic contribution:     12.04872       8.64583      10.03136
Nuclear contribution   :    -13.52568      -9.97954     -10.95435
                        -----------------------------------------
Total Dipole Moment    :     -1.47696      -1.33371      -0.92299
                        -----------------------------------------
Magnitude (a.u.)       :      2.19365
Magnitude (Debye)      :      5.57583

Rotational constants in cm-1:     0.010341     0.009095     0.006068
Rotational constants in MHz :   310.027623   272.656637   181.926108

                             ****ORCA TERMINATED NORMALLY****
TOTAL RUN TIME: 0 days 1 hours 50 minutes 39 seconds 940 msec
