                         Program Version 4.2.0 -  RELEASE  -
|  1> ! ri-mp2 cc-pvtz cc-pvtz/c TightSCF  NoKeepInts
|  2>
|  3> %scf
|  4>   MaxCore 4096
|  5> end
|  6> *xyz  0  1
|  7>     C       15.2034496   13.7704974   16.5442184
|  8>     C       16.5762808   14.0295062   15.8903522
|  9>     O       17.2557836   15.0709521   16.6152551
| 10>     C       16.8289082   16.3688306   16.5334788
| 11>     O       16.0000243   16.7348742   15.7170588
| 12>     C       17.5666015   17.2785164   17.4762054
| 13>     C       17.4194631   18.6274657   17.4539678
| 14>     C       16.5430437   19.4385153   16.5236938
| 15>     N       18.1469214   19.4269234   18.3406820
| 16>     C       19.0940764   18.9667685   19.2159546
| 17>     S       19.9664606   19.9907509   20.1784206
| 18>     N       19.2839032   17.6090460   19.2551732
| 19>     C       18.4824875   16.6152752   18.5175513
| 20>     C       17.6889213   15.7563177   19.4982255
| 21>     C       17.9683733   14.3834240   19.6337396
| 22>     C       17.2317080   13.5885610   20.5279635
| 23>     C       16.2088389   14.1713157   21.2954338
| 24>     C       15.9307647   15.5390015   21.1661902
| 25>     O       14.9439320   16.1045987   21.9059486
| 26>     C       16.6653753   16.3273810   20.2751947
| 27>     H       15.3189659   13.5627725   17.6156434
| 28>     H       14.7146651   12.9067593   16.0778838
| 29>     H       14.5384742   14.6354626   16.4295076
| 30>     H       17.1733399   13.1097780   15.9342981
| 31>     H       16.4512533   14.3067675   14.8346679
| 32>     H       16.8109839   19.2477716   15.4767118
| 33>     H       16.6211101   20.5187437   16.6933217
| 34>     H       15.4888975   19.1589526   16.6474100
| 35>     H       18.0207134   20.4263742   18.3267170
| 36>     H       19.9602636   17.2969600   19.9400013
| 37>     H       19.1869864   15.9670449   17.9777661
| 38>     H       18.7536390   13.9289456   19.0357236
| 39>     H       17.4534723   12.5271030   20.6232912
| 40>     H       15.6370482   13.5617225   21.9873068
| 41>     H       14.5738056   15.4134270   22.4751932
| 42>     H       16.4380644   17.3848934   20.1938483
| 43> *
| 44>
| 45>                          ****END OF INPUT****

CARTESIAN COORDINATES (ANGSTROEM)
---------------------------------
  C     15.203450   13.770497   16.544218
  C     16.576281   14.029506   15.890352
  O     17.255784   15.070952   16.615255
  C     16.828908   16.368831   16.533479
  O     16.000024   16.734874   15.717059
  C     17.566602   17.278516   17.476205
  C     17.419463   18.627466   17.453968
  C     16.543044   19.438515   16.523694
  N     18.146921   19.426923   18.340682
  C     19.094076   18.966768   19.215955
  S     19.966461   19.990751   20.178421
  N     19.283903   17.609046   19.255173
  C     18.482487   16.615275   18.517551
  C     17.688921   15.756318   19.498226
  C     17.968373   14.383424   19.633740
  C     17.231708   13.588561   20.527963
  C     16.208839   14.171316   21.295434
  C     15.930765   15.539001   21.166190
  O     14.943932   16.104599   21.905949
  C     16.665375   16.327381   20.275195
  H     15.318966   13.562772   17.615643
  H     14.714665   12.906759   16.077884
  H     14.538474   14.635463   16.429508
  H     17.173340   13.109778   15.934298
  H     16.451253   14.306767   14.834668
  H     16.810984   19.247772   15.476712
  H     16.621110   20.518744   16.693322
  H     15.488898   19.158953   16.647410
  H     18.020713   20.426374   18.326717
  H     19.960264   17.296960   19.940001
  H     19.186986   15.967045   17.977766
  H     18.753639   13.928946   19.035724
  H     17.453472   12.527103   20.623291
  H     15.637048   13.561722   21.987307
  H     14.573806   15.413427   22.475193
  H     16.438064   17.384893   20.193848

 Total Charge           Charge          ....    0
 Multiplicity           Mult            ....    1
 Number of Electrons    NEL             ....  154
 Basis Dimension        Dim             ....  828

ORBITAL ENERGIES
----------------

  NO   OCC          E(Eh)            E(eV)
   0   2.0000     -91.888597     -2500.4158
   1   2.0000     -20.601255      -560.5886
   2   2.0000     -20.596275      -560.4531
   3   2.0000     -20.541798      -558.9707
   4   2.0000     -15.628718      -425.2790
   5   2.0000     -15.608029      -424.7161
   6   2.0000     -11.395608      -310.0903
   7   2.0000     -11.383780      -309.7684
   8   2.0000     -11.335689      -308.4598
   9   2.0000     -11.313476      -307.8553
  10   2.0000     -11.308405      -307.7174
  11   2.0000     -11.297864      -307.4305
  12   2.0000     -11.259262      -306.3801
  13   2.0000     -11.258819      -306.3680
  14   2.0000     -11.254799      -306.2586
  15   2.0000     -11.251881      -306.1792
  16   2.0000     -11.243048      -305.9389
  17   2.0000     -11.238440      -305.8135
  18   2.0000     -11.237916      -305.7992
  19   2.0000     -11.222074      -305.3682
  20   2.0000      -8.893663      -242.0089
  21   2.0000      -6.575239      -178.9213
  22   2.0000      -6.573233      -178.8668
  23   2.0000      -6.572647      -178.8508
  24   2.0000      -1.450865       -39.4801
  25   2.0000      -1.415956       -38.5301
  26   2.0000      -1.354653       -36.8620
  27   2.0000      -1.339679       -36.4545
  28   2.0000      -1.238173       -33.6924
  29   2.0000      -1.157521       -31.4978
  30   2.0000      -1.120321       -30.4855
  31   2.0000      -1.042589       -28.3703
  32   2.0000      -1.035456       -28.1762
  33   2.0000      -1.014798       -27.6141
  34   2.0000      -0.994987       -27.0750
  35   2.0000      -0.983878       -26.7727
  36   2.0000      -0.922250       -25.0957
  37   2.0000      -0.894868       -24.3506
  38   2.0000      -0.846764       -23.0416
  39   2.0000      -0.837447       -22.7881
  40   2.0000      -0.833832       -22.6897
  41   2.0000      -0.816238       -22.2110
  42   2.0000      -0.754810       -20.5394
  43   2.0000      -0.732279       -19.9263
  44   2.0000      -0.722990       -19.6736
  45   2.0000      -0.695546       -18.9268
  46   2.0000      -0.688551       -18.7364
  47   2.0000      -0.679074       -18.4785
  48   2.0000      -0.670697       -18.2506
  49   2.0000      -0.659048       -17.9336
  50   2.0000      -0.648556       -17.6481
  51   2.0000      -0.640987       -17.4421
  52   2.0000      -0.631558       -17.1856
  53   2.0000      -0.612318       -16.6620
  54   2.0000      -0.606290       -16.4980
  55   2.0000      -0.599602       -16.3160
  56   2.0000      -0.598547       -16.2873
  57   2.0000      -0.577266       -15.7082
  58   2.0000      -0.570461       -15.5230
  59   2.0000      -0.569669       -15.5015
  60   2.0000      -0.560639       -15.2558
  61   2.0000      -0.543266       -14.7830
  62   2.0000      -0.534565       -14.5463
  63   2.0000      -0.526782       -14.3345
  64   2.0000      -0.524024       -14.2594
  65   2.0000      -0.513002       -13.9595
  66   2.0000      -0.501056       -13.6344
  67   2.0000      -0.499487       -13.5917
  68   2.0000      -0.482614       -13.1326
  69   2.0000      -0.463952       -12.6248
  70   2.0000      -0.455312       -12.3897
  71   2.0000      -0.446839       -12.1591
  72   2.0000      -0.353960        -9.6318
  73   2.0000      -0.349335        -9.5059
  74   2.0000      -0.327990        -8.9251
  75   2.0000      -0.320966        -8.7339
  76   2.0000      -0.315832        -8.5942
  77   0.0000       0.076557         2.0832
  78   0.0000       0.106881         2.9084
  79   0.0000       0.125230         3.4077
  80   0.0000       0.132842         3.6148
  81   0.0000       0.138391         3.7658

MULLIKEN ATOMIC CHARGES
-----------------------
   0 C :   -0.302415
   1 C :    0.019807
   2 O :   -0.354011
   3 C :    0.472093
   4 O :   -0.438349
   5 C :   -0.220026
   6 C :    0.149732
   7 C :   -0.274137
   8 N :   -0.119634
   9 C :    0.210875
  10 S :   -0.440440
  11 N :   -0.204846
  12 C :    0.056750
  13 C :    0.060676
  14 C :   -0.183393
  15 C :   -0.134640
  16 C :   -0.278144
  17 C :    0.315490
  18 O :   -0.356508
  19 C :   -0.266903
  20 H :    0.105828
  21 H :    0.095361
  22 H :    0.115987
  23 H :    0.111824
  24 H :    0.112347
  25 H :    0.131023
  26 H :    0.095203
  27 H :    0.131676
  28 H :    0.196969
  29 H :    0.194793
  30 H :    0.150713
  31 H :    0.149437
  32 H :    0.160634
  33 H :    0.130219
  34 H :    0.240578
  35 H :    0.165431
Sum of atomic charges:   -0.0000000

LOEWDIN ATOMIC CHARGES
----------------------
   0 C :    0.105165
   1 C :   -0.017756
   2 O :    0.307297
   3 C :   -0.412140
   4 O :    0.095807
   5 C :   -0.093648
   6 C :   -0.059350
   7 C :    0.131497
   8 N :    0.406460
   9 C :   -0.456491
  10 S :   -0.035923
  11 N :    0.396563
  12 C :   -0.052238
  13 C :   -0.039704
  14 C :    0.014376
  15 C :    0.038828
  16 C :   -0.001808
  17 C :   -0.189769
  18 O :    0.395258
  19 C :    0.031746
  20 H :   -0.026827
  21 H :   -0.028012
  22 H :   -0.025585
  23 H :   -0.025553
  24 H :   -0.027825
  25 H :   -0.004007
  26 H :   -0.023435
  27 H :   -0.004677
  28 H :   -0.057630
  29 H :   -0.064486
  30 H :   -0.011607
  31 H :   -0.030058
  32 H :   -0.021550
  33 H :   -0.035499
  34 H :   -0.153961
  35 H :   -0.023459

  Mayer bond orders larger than 0.100000
B(  0-C ,  1-C ) :   0.9608 B(  0-C , 20-H ) :   0.9724 B(  0-C , 21-H ) :   0.9771
B(  0-C , 22-H ) :   0.9751 B(  1-C ,  2-O ) :   0.8984 B(  1-C , 23-H ) :   0.9848
B(  1-C , 24-H ) :   0.9805 B(  2-O ,  3-C ) :   1.1633 B(  3-C ,  4-O ) :   1.9557
B(  3-C ,  5-C ) :   1.0640 B(  5-C ,  6-C ) :   1.6549 B(  5-C , 12-C ) :   0.9722
B(  6-C ,  7-C ) :   0.9666 B(  6-C ,  8-N ) :   1.1653 B(  7-C , 25-H ) :   0.9604
B(  7-C , 26-H ) :   0.9904 B(  7-C , 27-H ) :   0.9606 B(  8-N ,  9-C ) :   1.1834
B(  8-N , 28-H ) :   0.9478 B(  9-C , 10-S ) :   1.6070 B(  9-C , 11-N ) :   1.3051
B( 11-N , 12-C ) :   0.9895 B( 11-N , 29-H ) :   0.9512 B( 12-C , 13-C ) :   0.9350
B( 12-C , 30-H ) :   1.0023 B( 13-C , 14-C ) :   1.3554 B( 13-C , 19-C ) :   1.3826
B( 14-C , 15-C ) :   1.3928 B( 14-C , 31-H ) :   0.9717 B( 15-C , 16-C ) :   1.3609
B( 15-C , 32-H ) :   0.9709 B( 16-C , 17-C ) :   1.3317 B( 16-C , 33-H ) :   0.9852
B( 17-C , 18-O ) :   1.1102 B( 17-C , 19-C ) :   1.3717 B( 18-O , 34-H ) :   0.9799
B( 19-C , 35-H ) :   0.9580

MP2 TOTAL ENERGY:    -1274.351177334 Eh
FINAL SINGLE POINT ENERGY     -1274.351177333698

DIPOLE MOMENT
-------------
                                X             Y             Z
Electronic contribution:      9.44380      10.79335       7.80143
Nuclear contribution   :    -10.34361     -12.57044      -8.26090
                        -----------------------------------------
Total Dipole Moment    :     -0.89981      -1.77709      -0.45947
                        -----------------------------------------
Magnitude (a.u.)       :      2.04422
Magnitude (Debye)      :      5.19600

Rotational constants in cm-1:     0.012017     0.008680     0.006206
Rotational constants in MHz :   360.252266   260.226107   186.043120

                             ****ORCA TERMINATED NORMALLY****
TOTAL RUN TIME: 0 days 1 hours 39 minutes 52 seconds 116 msec
