                         Program Version 4.2.0 -  RELEASE  -
|  1> ! ri-mp2 cc-pvtz cc-pvtz/c TightSCF  NoKeepInts
|  2>
|  3> %scf
|  4>   MaxCore 4096
|  5> end
|  6> *xyz  0  1
|  7>     C       15.0587042   15.6049544   17.5177110
|  8>     C       15.6221147   15.2396907   16.1283913
|  9>     O       17.0197660   14.8728313   16.1675462
| 10>     C       18.1279584   15.6288489   16.4768959
| 11>     O       19.2140133   15.0806885   16.4372158
| 12>     C       17.9454270   16.8031780   17.3801609
| 13>     C       17.4054875   17.9668411   16.9485338
| 14>     C       16.8953968   18.2771770   15.5582255
| 15>     N       17.3668723   19.0747787   17.7979166
| 16>     C       17.9864476   19.1416392   19.0183913
| 17>     S       17.9679894   20.5231841   19.9267155
| 18>     N       18.6266774   18.0051054   19.4471908
| 19>     C       18.5824120   16.6936821   18.7687573
| 20>     C       17.8872403   15.6371590   19.6251581
| 21>     C       18.3286845   14.3016424   19.5816699
| 22>     C       17.6978280   13.3107669   20.3517930
| 23>     C       16.6141748   13.6559723   21.1765009
| 24>     C       16.1690069   14.9836106   21.2234303
| 25>     O       15.1152936   15.3182051   22.0097528
| 26>     C       16.7979693   15.9683738   20.4548126
| 27>     H       15.3769879   14.8655503   18.2628784
| 28>     H       13.9624259   15.5917230   17.4899864
| 29>     H       15.3568414   16.6002558   17.8567305
| 30>     H       15.0625692   14.3704243   15.7588175
| 31>     H       15.4460322   16.0528569   15.4165151
| 32>     H       17.1932405   17.5163347   14.8265456
| 33>     H       17.3032151   19.2301616   15.1970117
| 34>     H       15.8015628   18.3565751   15.5475984
| 35>     H       16.9204787   19.9254553   17.4929647
| 36>     H       19.0660325   18.0792088   20.3560780
| 37>     H       19.6230441   16.3660338   18.6265432
| 38>     H       19.1605963   14.0278852   18.9357541
| 39>     H       18.0481764   12.2811315   20.3030341
| 40>     H       16.1228744   12.8929903   21.7711613
| 41>     H       14.8473618   14.5208142   22.4909470
| 42>     H       16.4260969   16.9862696   20.5046648
| 43> *
| 44>
| 45>                          ****END OF INPUT****

CARTESIAN COORDINATES (ANGSTROEM)
---------------------------------
  C     15.058704   15.604954   17.517711
  C     15.622115   15.239691   16.128391
  O     17.019766   14.872831   16.167546
  C     18.127958   15.628849   16.476896
  O     19.214013   15.080688   16.437216
  C     17.945427   16.803178   17.380161
  C     17.405487   17.966841   16.948534
  C     16.895397   18.277177   15.558225
  N     17.366872   19.074779   17.797917
  C     17.986448   19.141639   19.018391
  S     17.967989   20.523184   19.926716
  N     18.626677   18.005105   19.447191
  C     18.582412   16.693682   18.768757
  C     17.887240   15.637159   19.625158
  C     18.328684   14.301642   19.581670
  C     17.697828   13.310767   20.351793
  C     16.614175   13.655972   21.176501
  C     16.169007   14.983611   21.223430
  O     15.115294   15.318205   22.009753
  C     16.797969   15.968374   20.454813
  H     15.376988   14.865550   18.262878
  H     13.962426   15.591723   17.489986
  H     15.356841   16.600256   17.856731
  H     15.062569   14.370424   15.758817
  H     15.446032   16.052857   15.416515
  H     17.193241   17.516335   14.826546
  H     17.303215   19.230162   15.197012
  H     15.801563   18.356575   15.547598
  H     16.920479   19.925455   17.492965
  H     19.066032   18.079209   20.356078
  H     19.623044   16.366034   18.626543
  H     19.160596   14.027885   18.935754
  H     18.048176   12.281132   20.303034
  H     16.122874   12.892990   21.771161
  H     14.847362   14.520814   22.490947
  H     16.426097   16.986270   20.504665

 Total Charge           Charge          ....    0
 Multiplicity           Mult            ....    1
 Number of Electrons    NEL             ....  154
 Basis Dimension        Dim             ....  828

ORBITAL ENERGIES
----------------

  NO   OCC          E(Eh)            E(eV)
   0   2.0000     -91.889975     -2500.4533
   1   2.0000     -20.599672      -560.5456
   2   2.0000     -20.597208      -560.4785
   3   2.0000     -20.550269      -559.2013
   4   2.0000     -15.627177      -425.2371
   5   2.0000     -15.611179      -424.8018
   6   2.0000     -11.400068      -310.2116
   7   2.0000     -11.386546      -309.8437
   8   2.0000     -11.328567      -308.2660
   9   2.0000     -11.314736      -307.8896
  10   2.0000     -11.313714      -307.8618
  11   2.0000     -11.309871      -307.7572
  12   2.0000     -11.272232      -306.7330
  13   2.0000     -11.266355      -306.5731
  14   2.0000     -11.261543      -306.4422
  15   2.0000     -11.254350      -306.2464
  16   2.0000     -11.243516      -305.9516
  17   2.0000     -11.238959      -305.8276
  18   2.0000     -11.236051      -305.7485
  19   2.0000     -11.229729      -305.5765
  20   2.0000      -8.895084      -242.0475
  21   2.0000      -6.576674      -178.9604
  22   2.0000      -6.574646      -178.9052
  23   2.0000      -6.574072      -178.8896
  24   2.0000      -1.446515       -39.3617
  25   2.0000      -1.417036       -38.5595
  26   2.0000      -1.357236       -36.9323
  27   2.0000      -1.340584       -36.4791
  28   2.0000      -1.239944       -33.7406
  29   2.0000      -1.158753       -31.5313
  30   2.0000      -1.125271       -30.6202
  31   2.0000      -1.047934       -28.5157
  32   2.0000      -1.039063       -28.2744
  33   2.0000      -1.016936       -27.6722
  34   2.0000      -1.005546       -27.3623
  35   2.0000      -0.990030       -26.9401
  36   2.0000      -0.927851       -25.2481
  37   2.0000      -0.897125       -24.4120
  38   2.0000      -0.854631       -23.2557
  39   2.0000      -0.840458       -22.8700
  40   2.0000      -0.834100       -22.6970
  41   2.0000      -0.829641       -22.5757
  42   2.0000      -0.748735       -20.3741
  43   2.0000      -0.739188       -20.1143
  44   2.0000      -0.730361       -19.8741
  45   2.0000      -0.694907       -18.9094
  46   2.0000      -0.687291       -18.7021
  47   2.0000      -0.679243       -18.4832
  48   2.0000      -0.674853       -18.3637
  49   2.0000      -0.663838       -18.0639
  50   2.0000      -0.652058       -17.7434
  51   2.0000      -0.648368       -17.6430
  52   2.0000      -0.640604       -17.4317
  53   2.0000      -0.614883       -16.7318
  54   2.0000      -0.609829       -16.5943
  55   2.0000      -0.605442       -16.4749
  56   2.0000      -0.601892       -16.3783
  57   2.0000      -0.591246       -16.0886
  58   2.0000      -0.580686       -15.8013
  59   2.0000      -0.573647       -15.6097
  60   2.0000      -0.565411       -15.3856
  61   2.0000      -0.557425       -15.1683
  62   2.0000      -0.541525       -14.7357
  63   2.0000      -0.528847       -14.3907
  64   2.0000      -0.517815       -14.0905
  65   2.0000      -0.512917       -13.9572
  66   2.0000      -0.503717       -13.7068
  67   2.0000      -0.501034       -13.6338
  68   2.0000      -0.483998       -13.1702
  69   2.0000      -0.463349       -12.6084
  70   2.0000      -0.454309       -12.3624
  71   2.0000      -0.451805       -12.2942
  72   2.0000      -0.356435        -9.6991
  73   2.0000      -0.348169        -9.4742
  74   2.0000      -0.329623        -8.9695
  75   2.0000      -0.322543        -8.7768
  76   2.0000      -0.318173        -8.6579
  77   0.0000       0.086076         2.3423
  78   0.0000       0.106018         2.8849
  79   0.0000       0.112394         3.0584
  80   0.0000       0.129775         3.5314
  81   0.0000       0.131096         3.5673

MULLIKEN ATOMIC CHARGES
-----------------------
   0 C :   -0.323846
   1 C :    0.015957
   2 O :   -0.320620
   3 C :    0.405588
   4 O :   -0.379443
   5 C :   -0.179604
   6 C :    0.132598
   7 C :   -0.334369
   8 N :   -0.136390
   9 C :    0.204816
  10 S :   -0.441138
  11 N :   -0.226818
  12 C :    0.081751
  13 C :    0.026514
  14 C :   -0.207976
  15 C :   -0.135550
  16 C :   -0.277129
  17 C :    0.315235
  18 O :   -0.358748
  19 C :   -0.272416
  20 H :    0.127333
  21 H :    0.114328
  22 H :    0.106839
  23 H :    0.133735
  24 H :    0.088188
  25 H :    0.124284
  26 H :    0.138706
  27 H :    0.123316
  28 H :    0.196297
  29 H :    0.202301
  30 H :    0.169290
  31 H :    0.172998
  32 H :    0.163526
  33 H :    0.131938
  34 H :    0.241033
  35 H :    0.177478
Sum of atomic charges:   -0.0000000

LOEWDIN ATOMIC CHARGES
----------------------
   0 C :    0.104119
   1 C :   -0.020005
   2 O :    0.303194
   3 C :   -0.416614
   4 O :    0.126472
   5 C :   -0.077275
   6 C :   -0.103997
   7 C :    0.122958
   8 N :    0.401661
   9 C :   -0.457329
  10 S :   -0.038106
  11 N :    0.398616
  12 C :   -0.041879
  13 C :   -0.041733
  14 C :    0.021655
  15 C :    0.043944
  16 C :   -0.002171
  17 C :   -0.194300
  18 O :    0.395346
  19 C :    0.028683
  20 H :   -0.019057
  21 H :   -0.025018
  22 H :   -0.037738
  23 H :   -0.017120
  24 H :   -0.040412
  25 H :   -0.009621
  26 H :   -0.009054
  27 H :   -0.017388
  28 H :   -0.058256
  29 H :   -0.063475
  30 H :   -0.001299
  31 H :   -0.021734
  32 H :   -0.018629
  33 H :   -0.035094
  34 H :   -0.153651
  35 H :   -0.025690

  Mayer bond orders larger than 0.100000
B(  0-C ,  1-C ) :   0.9539 B(  0-C , 20-H ) :   0.9692 B(  0-C , 21-H ) :   0.9769
B(  0-C , 22-H ) :   0.9730 B(  1-C ,  2-O ) :   0.9129 B(  1-C , 23-H ) :   0.9824
B(  1-C , 24-H ) :   0.9756 B(  2-O ,  3-C ) :   1.1555 B(  3-C ,  4-O ) :   2.0797
B(  3-C ,  5-C ) :   0.9188 B(  5-C ,  6-C ) :   1.7024 B(  5-C , 12-C ) :   0.9552
B(  6-C ,  7-C ) :   0.9436 B(  6-C ,  8-N ) :   1.1000 B(  7-C , 25-H ) :   0.9814
B(  7-C , 26-H ) :   0.9723 B(  7-C , 27-H ) :   0.9651 B(  8-N ,  9-C ) :   1.1964
B(  8-N , 28-H ) :   0.9529 B(  9-C , 10-S ) :   1.6084 B(  9-C , 11-N ) :   1.2872
B( 11-N , 12-C ) :   0.9857 B( 11-N , 29-H ) :   0.9477 B( 12-C , 13-C ) :   0.9504
B( 12-C , 30-H ) :   0.9949 B( 13-C , 14-C ) :   1.3884 B( 13-C , 19-C ) :   1.3396
B( 14-C , 15-C ) :   1.4023 B( 14-C , 31-H ) :   0.9594 B( 15-C , 16-C ) :   1.3578
B( 15-C , 32-H ) :   0.9702 B( 16-C , 17-C ) :   1.3308 B( 16-C , 33-H ) :   0.9850
B( 17-C , 18-O ) :   1.1098 B( 17-C , 19-C ) :   1.3703 B( 18-O , 34-H ) :   0.9797
B( 19-C , 35-H ) :   0.9571

MP2 TOTAL ENERGY:    -1274.323238801 Eh
FINAL SINGLE POINT ENERGY     -1274.323238800540

DIPOLE MOMENT
-------------
                                X             Y             Z
Electronic contribution:      9.27030       5.98712       6.40697
Nuclear contribution   :    -10.82675      -7.05638      -7.17734
                        -----------------------------------------
Total Dipole Moment    :     -1.55645      -1.06926      -0.77038
                        -----------------------------------------
Magnitude (a.u.)       :      2.03944
Magnitude (Debye)      :      5.18386

Rotational constants in cm-1:     0.011900     0.009594     0.006858
Rotational constants in MHz :   356.756769   287.624803   205.603764

                             ****ORCA TERMINATED NORMALLY****
TOTAL RUN TIME: 0 days 1 hours 50 minutes 30 seconds 306 msec
