                         Program Version 5.0.0 -  RELEASE  -
|  1> ! ri-mp2 cc-pvtz cc-pvtz/c TightSCF NoKeepInts
|  2>
|  3> %scf
|  4>   MaxCore 4096
|  5> end
|  6> *xyz  0  1
|  7>     C       14.6466697   14.7841650   16.3095671
|  8>     C       15.8692840   14.8908499   17.2360067
|  9>     O       17.0317778   15.0067978   16.3924237
| 10>     C       17.6693994   16.1996060   16.1867445
| 11>     O       17.9065345   16.5713653   15.0526247
| 12>     C       17.8006429   17.1113877   17.3696959
| 13>     C       17.4042107   18.4031752   17.2943510
| 14>     C       16.6477098   19.0421518   16.1509009
| 15>     N       17.7111801   19.2922963   18.3268134
| 16>     C       18.5645702   19.0122507   19.3613622
| 17>     S       18.9831860   20.1533621   20.4823893
| 18>     N       19.0591572   17.7325374   19.4209636
| 19>     C       18.6180503   16.6077640   18.5722728
| 20>     C       17.9164583   15.5623566   19.4321182
| 21>     C       18.3244701   14.2159072   19.3840285
| 22>     C       17.6836935   13.2460467   20.1731249
| 23>     C       16.6295341   13.6250204   21.0215235
| 24>     C       16.2265017   14.9658359   21.0798483
| 25>     O       15.2062700   15.3346144   21.8938641
| 26>     C       16.8650556   15.9293249   20.2927531
| 27>     H       14.5476502   15.6856099   15.6919459
| 28>     H       13.7275182   14.6653559   16.8960079
| 29>     H       14.7431095   13.9185333   15.6420906
| 30>     H       15.7382924   15.7512264   17.9016496
| 31>     H       15.9395771   13.9806414   17.8454921
| 32>     H       15.8730584   18.3675922   15.7654428
| 33>     H       17.3298753   19.2614019   15.3188727
| 34>     H       16.1546059   19.9773727   16.4412059
| 35>     H       17.3786905   20.2426907   18.2829725
| 36>     H       19.6710486   17.5543524   20.2075552
| 37>     H       19.5255767   16.1411641   18.1630327
| 38>     H       19.1354798   13.9165307   18.7245482
| 39>     H       18.0044939   12.2064231   20.1251791
| 40>     H       16.1317094   12.8785574   21.6322075
| 41>     H       14.9422225   14.5548920   22.4057863
| 42>     H       16.5397355   16.9628409   20.3566346
| 43> *
| 44>
| 45>                          ****END OF INPUT****

CARTESIAN COORDINATES (ANGSTROEM)
---------------------------------
  C     14.646670   14.784165   16.309567
  C     15.869284   14.890850   17.236007
  O     17.031778   15.006798   16.392424
  C     17.669399   16.199606   16.186744
  O     17.906534   16.571365   15.052625
  C     17.800643   17.111388   17.369696
  C     17.404211   18.403175   17.294351
  C     16.647710   19.042152   16.150901
  N     17.711180   19.292296   18.326813
  C     18.564570   19.012251   19.361362
  S     18.983186   20.153362   20.482389
  N     19.059157   17.732537   19.420964
  C     18.618050   16.607764   18.572273
  C     17.916458   15.562357   19.432118
  C     18.324470   14.215907   19.384028
  C     17.683694   13.246047   20.173125
  C     16.629534   13.625020   21.021523
  C     16.226502   14.965836   21.079848
  O     15.206270   15.334614   21.893864
  C     16.865056   15.929325   20.292753
  H     14.547650   15.685610   15.691946
  H     13.727518   14.665356   16.896008
  H     14.743109   13.918533   15.642091
  H     15.738292   15.751226   17.901650
  H     15.939577   13.980641   17.845492
  H     15.873058   18.367592   15.765443
  H     17.329875   19.261402   15.318873
  H     16.154606   19.977373   16.441206
  H     17.378691   20.242691   18.282972
  H     19.671049   17.554352   20.207555
  H     19.525577   16.141164   18.163033
  H     19.135480   13.916531   18.724548
  H     18.004494   12.206423   20.125179
  H     16.131709   12.878557   21.632207
  H     14.942222   14.554892   22.405786
  H     16.539735   16.962841   20.356635

 Total Charge           Charge          ....    0
 Multiplicity           Mult            ....    1
 Number of Electrons    NEL             ....  154
 Basis Dimension        Dim             ....  828

ORBITAL ENERGIES
----------------

  NO   OCC          E(Eh)            E(eV)
   0   2.0000     -91.891177     -2500.4860
   1   2.0000     -20.604366      -560.6733
   2   2.0000     -20.592141      -560.3406
   3   2.0000     -20.550736      -559.2140
   4   2.0000     -15.628613      -425.2762
   5   2.0000     -15.612329      -424.8331
   6   2.0000     -11.394684      -310.0651
   7   2.0000     -11.386798      -309.8505
   8   2.0000     -11.331524      -308.3464
   9   2.0000     -11.322587      -308.1033
  10   2.0000     -11.319208      -308.0113
  11   2.0000     -11.296763      -307.4005
  12   2.0000     -11.268144      -306.6218
  13   2.0000     -11.263591      -306.4979
  14   2.0000     -11.260412      -306.4114
  15   2.0000     -11.256932      -306.3167
  16   2.0000     -11.252409      -306.1936
  17   2.0000     -11.246946      -306.0450
  18   2.0000     -11.246681      -306.0377
  19   2.0000     -11.227012      -305.5025
  20   2.0000      -8.896245      -242.0791
  21   2.0000      -6.577820      -178.9916
  22   2.0000      -6.575810      -178.9369
  23   2.0000      -6.575224      -178.9209
  24   2.0000      -1.446633       -39.3649
  25   2.0000      -1.424173       -38.7537
  26   2.0000      -1.357323       -36.9346
  27   2.0000      -1.341346       -36.4999
  28   2.0000      -1.241513       -33.7833
  29   2.0000      -1.165594       -31.7174
  30   2.0000      -1.124256       -30.5926
  31   2.0000      -1.050353       -28.5815
  32   2.0000      -1.034349       -28.1461
  33   2.0000      -1.024059       -27.8661
  34   2.0000      -1.002572       -27.2814
  35   2.0000      -0.988990       -26.9118
  36   2.0000      -0.928680       -25.2707
  37   2.0000      -0.882874       -24.0242
  38   2.0000      -0.852823       -23.2065
  39   2.0000      -0.844874       -22.9902
  40   2.0000      -0.842930       -22.9373
  41   2.0000      -0.836329       -22.7577
  42   2.0000      -0.757141       -20.6028
  43   2.0000      -0.738115       -20.0851
  44   2.0000      -0.724357       -19.7107
  45   2.0000      -0.703482       -19.1427
  46   2.0000      -0.693321       -18.8662
  47   2.0000      -0.679890       -18.5008
  48   2.0000      -0.673226       -18.3194
  49   2.0000      -0.670579       -18.2474
  50   2.0000      -0.653765       -17.7898
  51   2.0000      -0.647293       -17.6138
  52   2.0000      -0.638491       -17.3742
  53   2.0000      -0.613900       -16.7051
  54   2.0000      -0.608764       -16.5653
  55   2.0000      -0.604164       -16.4401
  56   2.0000      -0.595341       -16.2001
  57   2.0000      -0.584001       -15.8915
  58   2.0000      -0.578066       -15.7300
  59   2.0000      -0.571197       -15.5431
  60   2.0000      -0.561483       -15.2787
  61   2.0000      -0.555444       -15.1144
  62   2.0000      -0.545210       -14.8359
  63   2.0000      -0.531307       -14.4576
  64   2.0000      -0.522204       -14.2099
  65   2.0000      -0.518101       -14.0982
  66   2.0000      -0.506590       -13.7850
  67   2.0000      -0.501965       -13.6592
  68   2.0000      -0.485867       -13.2211
  69   2.0000      -0.469332       -12.7712
  70   2.0000      -0.453131       -12.3303
  71   2.0000      -0.446942       -12.1619
  72   2.0000      -0.358739        -9.7618
  73   2.0000      -0.353893        -9.6299
  74   2.0000      -0.332113        -9.0373
  75   2.0000      -0.329538        -8.9672
  76   2.0000      -0.319493        -8.6938
  77   0.0000       0.079037         2.1507
  78   0.0000       0.097337         2.6487
  79   0.0000       0.117976         3.2103
  80   0.0000       0.126752         3.4491
  81   0.0000       0.127817         3.4781

MULLIKEN ATOMIC CHARGES
-----------------------
   0 C :   -0.258286
   1 C :    0.010314
   2 O :   -0.329378
   3 C :    0.398473
   4 O :   -0.371010
   5 C :   -0.237942
   6 C :    0.163072
   7 C :   -0.280384
   8 N :   -0.126130
   9 C :    0.202120
  10 S :   -0.436193
  11 N :   -0.200468
  12 C :    0.041296
  13 C :    0.017166
  14 C :   -0.167663
  15 C :   -0.151155
  16 C :   -0.268995
  17 C :    0.305726
  18 O :   -0.353920
  19 C :   -0.242878
  20 H :    0.090239
  21 H :    0.090669
  22 H :    0.105148
  23 H :    0.102950
  24 H :    0.118276
  25 H :    0.118091
  26 H :    0.144546
  27 H :    0.097006
  28 H :    0.197727
  29 H :    0.194109
  30 H :    0.158339
  31 H :    0.148321
  32 H :    0.165640
  33 H :    0.135624
  34 H :    0.241902
  35 H :    0.177650
Sum of atomic charges:    0.0000000

LOEWDIN ATOMIC CHARGES
----------------------
   0 C :    0.106120
   1 C :   -0.024938
   2 O :    0.303453
   3 C :   -0.422383
   4 O :    0.129295
   5 C :   -0.092794
   6 C :   -0.081020
   7 C :    0.130009
   8 N :    0.404401
   9 C :   -0.457030
  10 S :   -0.033924
  11 N :    0.396567
  12 C :   -0.051642
  13 C :   -0.042851
  14 C :    0.017658
  15 C :    0.042586
  16 C :    0.000280
  17 C :   -0.192210
  18 O :    0.397250
  19 C :    0.033286
  20 H :   -0.029827
  21 H :   -0.027284
  22 H :   -0.024070
  23 H :   -0.039327
  24 H :   -0.023829
  25 H :   -0.009636
  26 H :   -0.002604
  27 H :   -0.021235
  28 H :   -0.057848
  29 H :   -0.064276
  30 H :   -0.007728
  31 H :   -0.027708
  32 H :   -0.018837
  33 H :   -0.033524
  34 H :   -0.152128
  35 H :   -0.022254

  Mayer bond orders larger than 0.100000
B(  0-C ,  1-C ) :   0.9799 B(  0-C , 20-H ) :   0.9773 B(  0-C , 21-H ) :   0.9770
B(  0-C , 22-H ) :   0.9805 B(  1-C ,  2-O ) :   0.8805 B(  1-C , 23-H ) :   0.9583
B(  1-C , 24-H ) :   0.9773 B(  2-O ,  3-C ) :   1.1830 B(  3-C ,  4-O ) :   2.1070
B(  3-C ,  5-C ) :   0.9367 B(  5-C ,  6-C ) :   1.7007 B(  5-C , 12-C ) :   0.9618
B(  6-C ,  7-C ) :   0.9504 B(  6-C ,  8-N ) :   1.1311 B(  7-C , 25-H ) :   0.9733
B(  7-C , 26-H ) :   0.9580 B(  7-C , 27-H ) :   0.9852 B(  8-N ,  9-C ) :   1.1911
B(  8-N , 28-H ) :   0.9497 B(  9-C , 10-S ) :   1.6163 B(  9-C , 11-N ) :   1.2864
B( 11-N , 12-C ) :   0.9985 B( 11-N , 29-H ) :   0.9507 B( 12-C , 13-C ) :   0.9420
B( 12-C , 30-H ) :   1.0108 B( 13-C , 14-C ) :   1.3642 B( 13-C , 19-C ) :   1.3513
B( 14-C , 15-C ) :   1.3957 B( 14-C , 31-H ) :   0.9736 B( 15-C , 16-C ) :   1.3652
B( 15-C , 32-H ) :   0.9701 B( 16-C , 17-C ) :   1.3248 B( 16-C , 33-H ) :   0.9830
B( 17-C , 18-O ) :   1.1156 B( 17-C , 19-C ) :   1.3727 B( 18-O , 34-H ) :   0.9786
B( 19-C , 35-H ) :   0.9575

MP2 TOTAL ENERGY:    -1274.328867093 Eh
FINAL SINGLE POINT ENERGY     -1274.328867093123

DIPOLE MOMENT
-------------
                                X             Y             Z
Electronic contribution:     10.95780       7.78416       7.08828
Nuclear contribution   :    -12.25297      -9.37561      -6.72509
                        -----------------------------------------
Total Dipole Moment    :     -1.29517      -1.59145       0.36319
                        -----------------------------------------
Magnitude (a.u.)       :      2.08377
Magnitude (Debye)      :      5.29653

Rotational constants in cm-1:     0.011612     0.009513     0.006397
Rotational constants in MHz :   348.125685   285.184704   191.787672

                             ****ORCA TERMINATED NORMALLY****
TOTAL RUN TIME: 0 days 1 hours 47 minutes 16 seconds 830 msec
