                         Program Version 4.2.0 -  RELEASE  -
|  1> ! ri-mp2 cc-pvtz cc-pvtz/c TightSCF  NoKeepInts
|  2>
|  3> %scf
|  4>   MaxCore 4096
|  5> end
|  6> *xyz  0  1
|  7>     C       15.1012378   15.2720087   16.9782890
|  8>     C       16.2300150   14.2260083   16.8137204
|  9>     O       17.5232436   14.7813383   16.4565466
| 10>     C       17.6869947   16.0870961   16.0944515
| 11>     O       17.3466504   16.4461754   14.9816209
| 12>     C       17.8205395   17.0214463   17.2676476
| 13>     C       17.4309592   18.3206163   17.2127621
| 14>     C       16.6927493   19.0117526   16.0866895
| 15>     N       17.7488462   19.1893896   18.2611309
| 16>     C       18.6331327   18.8995278   19.2665405
| 17>     S       19.1072371   20.0352093   20.3712408
| 18>     N       19.1135401   17.6146183   19.3039645
| 19>     C       18.5839540   16.4980298   18.4987852
| 20>     C       17.7704902   15.5760660   19.4024094
| 21>     C       18.1771907   14.2435698   19.6062522
| 22>     C       17.4436422   13.3923056   20.4497552
| 23>     C       16.2983969   13.8788045   21.1026190
| 24>     C       15.9005465   15.2096278   20.9168421
| 25>     O       14.7970156   15.6838988   21.5472664
| 26>     C       16.6340051   16.0548170   20.0787550
| 27>     H       15.3272865   16.0071231   17.7556810
| 28>     H       14.1679665   14.7709714   17.2622744
| 29>     H       14.9159101   15.8023837   16.0356753
| 30>     H       16.3233921   13.6458166   17.7396888
| 31>     H       15.9283663   13.5232868   16.0262167
| 32>     H       17.3393103   19.1056026   15.2046166
| 33>     H       16.3452909   20.0159717   16.3560420
| 34>     H       15.8125930   18.4301190   15.7851786
| 35>     H       17.4193364   20.1412804   18.2356827
| 36>     H       19.7450062   17.4233523   20.0713572
| 37>     H       19.4457916   15.9272854   18.1251557
| 38>     H       19.0607677   13.8624932   19.1005716
| 39>     H       17.7639815   12.3619712   20.5961330
| 40>     H       15.7281828   13.2250407   21.7546253
| 41>     H       14.4681836   14.9823484   22.1294972
| 42>     H       16.3152478   17.0846474   19.9583146
| 43> *
| 44>
| 45>                          ****END OF INPUT****

CARTESIAN COORDINATES (ANGSTROEM)
---------------------------------
  C     15.101238   15.272009   16.978289
  C     16.230015   14.226008   16.813720
  O     17.523244   14.781338   16.456547
  C     17.686995   16.087096   16.094452
  O     17.346650   16.446175   14.981621
  C     17.820539   17.021446   17.267648
  C     17.430959   18.320616   17.212762
  C     16.692749   19.011753   16.086689
  N     17.748846   19.189390   18.261131
  C     18.633133   18.899528   19.266541
  S     19.107237   20.035209   20.371241
  N     19.113540   17.614618   19.303964
  C     18.583954   16.498030   18.498785
  C     17.770490   15.576066   19.402409
  C     18.177191   14.243570   19.606252
  C     17.443642   13.392306   20.449755
  C     16.298397   13.878804   21.102619
  C     15.900546   15.209628   20.916842
  O     14.797016   15.683899   21.547266
  C     16.634005   16.054817   20.078755
  H     15.327286   16.007123   17.755681
  H     14.167967   14.770971   17.262274
  H     14.915910   15.802384   16.035675
  H     16.323392   13.645817   17.739689
  H     15.928366   13.523287   16.026217
  H     17.339310   19.105603   15.204617
  H     16.345291   20.015972   16.356042
  H     15.812593   18.430119   15.785179
  H     17.419336   20.141280   18.235683
  H     19.745006   17.423352   20.071357
  H     19.445792   15.927285   18.125156
  H     19.060768   13.862493   19.100572
  H     17.763981   12.361971   20.596133
  H     15.728183   13.225041   21.754625
  H     14.468184   14.982348   22.129497
  H     16.315248   17.084647   19.958315

 Total Charge           Charge          ....    0
 Multiplicity           Mult            ....    1
 Number of Electrons    NEL             ....  154
 Basis Dimension        Dim             ....  828

ORBITAL ENERGIES
----------------

  NO   OCC          E(Eh)            E(eV)
   0   2.0000     -91.891273     -2500.4887
   1   2.0000     -20.601544      -560.5965
   2   2.0000     -20.576694      -559.9203
   3   2.0000     -20.551329      -559.2301
   4   2.0000     -15.630840      -425.3368
   5   2.0000     -15.610312      -424.7782
   6   2.0000     -11.393920      -310.0443
   7   2.0000     -11.385898      -309.8260
   8   2.0000     -11.336125      -308.4717
   9   2.0000     -11.319088      -308.0080
  10   2.0000     -11.313838      -307.8652
  11   2.0000     -11.299731      -307.4813
  12   2.0000     -11.264300      -306.5172
  13   2.0000     -11.259892      -306.3972
  14   2.0000     -11.259838      -306.3958
  15   2.0000     -11.254252      -306.2438
  16   2.0000     -11.248535      -306.0882
  17   2.0000     -11.243670      -305.9558
  18   2.0000     -11.242643      -305.9279
  19   2.0000     -11.227338      -305.5114
  20   2.0000      -8.896300      -242.0806
  21   2.0000      -6.577866      -178.9928
  22   2.0000      -6.575871      -178.9385
  23   2.0000      -6.575275      -178.9223
  24   2.0000      -1.443583       -39.2819
  25   2.0000      -1.421280       -38.6750
  26   2.0000      -1.349762       -36.7289
  27   2.0000      -1.342322       -36.5264
  28   2.0000      -1.240971       -33.7685
  29   2.0000      -1.161882       -31.6164
  30   2.0000      -1.121500       -30.5176
  31   2.0000      -1.046406       -28.4742
  32   2.0000      -1.030891       -28.0520
  33   2.0000      -1.020433       -27.7674
  34   2.0000      -1.000541       -27.2261
  35   2.0000      -0.987348       -26.8671
  36   2.0000      -0.925992       -25.1975
  37   2.0000      -0.896662       -24.3994
  38   2.0000      -0.849271       -23.1098
  39   2.0000      -0.843886       -22.9633
  40   2.0000      -0.839185       -22.8354
  41   2.0000      -0.820679       -22.3318
  42   2.0000      -0.745506       -20.2862
  43   2.0000      -0.735616       -20.0171
  44   2.0000      -0.720830       -19.6148
  45   2.0000      -0.700408       -19.0591
  46   2.0000      -0.691287       -18.8109
  47   2.0000      -0.672972       -18.3125
  48   2.0000      -0.672037       -18.2871
  49   2.0000      -0.659849       -17.9554
  50   2.0000      -0.655104       -17.8263
  51   2.0000      -0.646397       -17.5894
  52   2.0000      -0.637841       -17.3565
  53   2.0000      -0.627603       -17.0780
  54   2.0000      -0.611650       -16.6439
  55   2.0000      -0.603884       -16.4325
  56   2.0000      -0.601757       -16.3746
  57   2.0000      -0.581345       -15.8192
  58   2.0000      -0.573495       -15.6056
  59   2.0000      -0.565977       -15.4010
  60   2.0000      -0.546898       -14.8819
  61   2.0000      -0.544220       -14.8090
  62   2.0000      -0.537830       -14.6351
  63   2.0000      -0.532344       -14.4858
  64   2.0000      -0.528994       -14.3947
  65   2.0000      -0.516363       -14.0509
  66   2.0000      -0.504973       -13.7410
  67   2.0000      -0.493978       -13.4418
  68   2.0000      -0.481777       -13.1098
  69   2.0000      -0.467673       -12.7260
  70   2.0000      -0.452223       -12.3056
  71   2.0000      -0.443901       -12.0792
  72   2.0000      -0.357587        -9.7304
  73   2.0000      -0.352391        -9.5891
  74   2.0000      -0.330754        -9.0003
  75   2.0000      -0.326691        -8.8897
  76   2.0000      -0.318505        -8.6670
  77   0.0000       0.067748         1.8435
  78   0.0000       0.101970         2.7747
  79   0.0000       0.120186         3.2704
  80   0.0000       0.127558         3.4710
  81   0.0000       0.132577         3.6076

MULLIKEN ATOMIC CHARGES
-----------------------
   0 C :   -0.349666
   1 C :    0.042692
   2 O :   -0.395110
   3 C :    0.502939
   4 O :   -0.397699
   5 C :   -0.278567
   6 C :    0.164083
   7 C :   -0.273915
   8 N :   -0.123532
   9 C :    0.200589
  10 S :   -0.434008
  11 N :   -0.193854
  12 C :    0.050583
  13 C :    0.066779
  14 C :   -0.182638
  15 C :   -0.134652
  16 C :   -0.275809
  17 C :    0.323143
  18 O :   -0.356972
  19 C :   -0.303701
  20 H :    0.109363
  21 H :    0.117896
  22 H :    0.119841
  23 H :    0.114532
  24 H :    0.121462
  25 H :    0.139613
  26 H :    0.094912
  27 H :    0.125917
  28 H :    0.197978
  29 H :    0.191909
  30 H :    0.148691
  31 H :    0.150505
  32 H :    0.165199
  33 H :    0.133743
  34 H :    0.241597
  35 H :    0.176152
Sum of atomic charges:   -0.0000000

LOEWDIN ATOMIC CHARGES
----------------------
   0 C :    0.105546
   1 C :   -0.005320
   2 O :    0.274325
   3 C :   -0.423767
   4 O :    0.128063
   5 C :   -0.097312
   6 C :   -0.063550
   7 C :    0.130428
   8 N :    0.406502
   9 C :   -0.458381
  10 S :   -0.031919
  11 N :    0.396550
  12 C :   -0.052442
  13 C :   -0.039225
  14 C :    0.017532
  15 C :    0.039598
  16 C :   -0.001999
  17 C :   -0.190925
  18 O :    0.396426
  19 C :    0.033965
  20 H :   -0.037138
  21 H :   -0.021323
  22 H :   -0.028266
  23 H :   -0.028194
  24 H :   -0.026924
  25 H :   -0.002951
  26 H :   -0.022876
  27 H :   -0.007762
  28 H :   -0.057752
  29 H :   -0.064776
  30 H :   -0.006599
  31 H :   -0.028088
  32 H :   -0.020115
  33 H :   -0.034430
  34 H :   -0.152766
  35 H :   -0.024135

  Mayer bond orders larger than 0.100000
B(  0-C ,  1-C ) :   0.9614 B(  0-C , 20-H ) :   0.9682 B(  0-C , 21-H ) :   0.9760
B(  0-C , 22-H ) :   0.9725 B(  1-C ,  2-O ) :   0.8794 B(  1-C , 23-H ) :   0.9713
B(  1-C , 24-H ) :   0.9861 B(  2-O ,  3-C ) :   1.1064 B(  3-C ,  4-O ) :   2.0387
B(  3-C ,  5-C ) :   1.0261 B(  5-C ,  6-C ) :   1.6612 B(  5-C , 12-C ) :   0.9695
B(  6-C ,  7-C ) :   0.9650 B(  6-C ,  8-N ) :   1.1458 B(  7-C , 25-H ) :   0.9570
B(  7-C , 26-H ) :   0.9877 B(  7-C , 27-H ) :   0.9670 B(  8-N ,  9-C ) :   1.1806
B(  8-N , 28-H ) :   0.9487 B(  9-C , 10-S ) :   1.6184 B(  9-C , 11-N ) :   1.2968
B( 11-N , 12-C ) :   0.9891 B( 11-N , 29-H ) :   0.9534 B( 12-C , 13-C ) :   0.9396
B( 12-C , 30-H ) :   1.0053 B( 13-C , 14-C ) :   1.3543 B( 13-C , 19-C ) :   1.3575
B( 14-C , 15-C ) :   1.3904 B( 14-C , 31-H ) :   0.9731 B( 15-C , 16-C ) :   1.3612
B( 15-C , 32-H ) :   0.9702 B( 16-C , 17-C ) :   1.3295 B( 16-C , 33-H ) :   0.9837
B( 17-C , 18-O ) :   1.1138 B( 17-C , 19-C ) :   1.3699 B( 18-O , 34-H ) :   0.9793
B( 19-C , 35-H ) :   0.9560

MP2 TOTAL ENERGY:    -1274.320840861 Eh
FINAL SINGLE POINT ENERGY     -1274.320840861075

DIPOLE MOMENT
-------------
                                X             Y             Z
Electronic contribution:     10.06776       7.31143       5.61539
Nuclear contribution   :    -11.21358      -8.86086      -5.41506
                        -----------------------------------------
Total Dipole Moment    :     -1.14582      -1.54943       0.20033
                        -----------------------------------------
Magnitude (a.u.)       :      1.93747
Magnitude (Debye)      :      4.92465

Rotational constants in cm-1:     0.011984     0.009815     0.006729
Rotational constants in MHz :   359.262771   294.251816   201.738933

                             ****ORCA TERMINATED NORMALLY****
TOTAL RUN TIME: 0 days 2 hours 14 minutes 9 seconds 3 msec
