                         Program Version 4.2.0 -  RELEASE  -
|  1> ! ri-mp2 cc-pvtz cc-pvtz/c TightSCF  NoKeepInts
|  2>
|  3> %scf
|  4>   MaxCore 4096
|  5> end
|  6> *xyz  0  1
|  7>     C       15.0282600   15.6094643   17.5286867
|  8>     C       15.6479334   15.1942092   16.1781785
|  9>     O       17.0375051   14.8244345   16.3047589
| 10>     C       18.1278117   15.6451676   16.4724663
| 11>     O       19.2299158   15.1343254   16.3967958
| 12>     C       17.9487911   16.8194872   17.3746992
| 13>     C       17.4023369   17.9793251   16.9429817
| 14>     C       16.8762030   18.2778105   15.5561094
| 15>     N       17.3590862   19.0874382   17.7918524
| 16>     C       17.9737985   19.1548134   19.0149493
| 17>     S       17.9461187   20.5350066   19.9251415
| 18>     N       18.6159106   18.0197969   19.4456483
| 19>     C       18.5824980   16.7095235   18.7640925
| 20>     C       17.8931066   15.6448211   19.6150591
| 21>     C       18.3407228   14.3117194   19.5622928
| 22>     C       17.7163043   13.3131151   20.3276475
| 23>     C       16.6330113   13.6481448   21.1570114
| 24>     C       16.1815723   14.9733240   21.2128888
| 25>     O       15.1279255   15.2979960   22.0034703
| 26>     C       16.8040039   15.9657802   20.4488582
| 27>     H       15.2782588   14.8731802   18.3025741
| 28>     H       13.9352536   15.6413659   17.4448074
| 29>     H       15.3543959   16.5965547   17.8661217
| 30>     H       15.1010277   14.3124447   15.8194571
| 31>     H       15.5119147   15.9795701   15.4270087
| 32>     H       17.1987679   17.5311998   14.8202523
| 33>     H       17.2470646   19.2466731   15.1973397
| 34>     H       15.7801039   18.3164687   15.5502555
| 35>     H       16.9095118   19.9363866   17.4868101
| 36>     H       19.0508544   18.0944043   20.3565934
| 37>     H       19.6256448   16.3897143   18.6225752
| 38>     H       19.1716830   14.0459752   18.9118179
| 39>     H       18.0710508   12.2854088   20.2712596
| 40>     H       16.1465939   12.8791857   21.7479393
| 41>     H       14.8648017   14.4962645   22.4800612
| 42>     H       16.4272571   16.9815004   20.5055379
| 43> *
| 44>
| 45>                          ****END OF INPUT****

CARTESIAN COORDINATES (ANGSTROEM)
---------------------------------
  C     15.028260   15.609464   17.528687
  C     15.647933   15.194209   16.178179
  O     17.037505   14.824435   16.304759
  C     18.127812   15.645168   16.472466
  O     19.229916   15.134325   16.396796
  C     17.948791   16.819487   17.374699
  C     17.402337   17.979325   16.942982
  C     16.876203   18.277810   15.556109
  N     17.359086   19.087438   17.791852
  C     17.973799   19.154813   19.014949
  S     17.946119   20.535007   19.925141
  N     18.615911   18.019797   19.445648
  C     18.582498   16.709523   18.764092
  C     17.893107   15.644821   19.615059
  C     18.340723   14.311719   19.562293
  C     17.716304   13.313115   20.327648
  C     16.633011   13.648145   21.157011
  C     16.181572   14.973324   21.212889
  O     15.127925   15.297996   22.003470
  C     16.804004   15.965780   20.448858
  H     15.278259   14.873180   18.302574
  H     13.935254   15.641366   17.444807
  H     15.354396   16.596555   17.866122
  H     15.101028   14.312445   15.819457
  H     15.511915   15.979570   15.427009
  H     17.198768   17.531200   14.820252
  H     17.247065   19.246673   15.197340
  H     15.780104   18.316469   15.550255
  H     16.909512   19.936387   17.486810
  H     19.050854   18.094404   20.356593
  H     19.625645   16.389714   18.622575
  H     19.171683   14.045975   18.911818
  H     18.071051   12.285409   20.271260
  H     16.146594   12.879186   21.747939
  H     14.864802   14.496265   22.480061
  H     16.427257   16.981500   20.505538

 Total Charge           Charge          ....    0
 Multiplicity           Mult            ....    1
 Number of Electrons    NEL             ....  154
 Basis Dimension        Dim             ....  828

ORBITAL ENERGIES
----------------

  NO   OCC          E(Eh)            E(eV)
   0   2.0000     -91.889349     -2500.4363
   1   2.0000     -20.599848      -560.5504
   2   2.0000     -20.596930      -560.4710
   3   2.0000     -20.553141      -559.2794
   4   2.0000     -15.626036      -425.2061
   5   2.0000     -15.610954      -424.7956
   6   2.0000     -11.399334      -310.1916
   7   2.0000     -11.386019      -309.8293
   8   2.0000     -11.326480      -308.2092
   9   2.0000     -11.315131      -307.9004
  10   2.0000     -11.313325      -307.8512
  11   2.0000     -11.309197      -307.7389
  12   2.0000     -11.272125      -306.7301
  13   2.0000     -11.265942      -306.5619
  14   2.0000     -11.261302      -306.4356
  15   2.0000     -11.253975      -306.2362
  16   2.0000     -11.243182      -305.9425
  17   2.0000     -11.238693      -305.8204
  18   2.0000     -11.235890      -305.7441
  19   2.0000     -11.229295      -305.5646
  20   2.0000      -8.894464      -242.0307
  21   2.0000      -6.576057      -178.9436
  22   2.0000      -6.574026      -178.8884
  23   2.0000      -6.573455      -178.8728
  24   2.0000      -1.449081       -39.4315
  25   2.0000      -1.416766       -38.5522
  26   2.0000      -1.358889       -36.9773
  27   2.0000      -1.339683       -36.4546
  28   2.0000      -1.239331       -33.7239
  29   2.0000      -1.158415       -31.5221
  30   2.0000      -1.124882       -30.6096
  31   2.0000      -1.047716       -28.5098
  32   2.0000      -1.038888       -28.2696
  33   2.0000      -1.016559       -27.6620
  34   2.0000      -1.005059       -27.3491
  35   2.0000      -0.989546       -26.9269
  36   2.0000      -0.927432       -25.2367
  37   2.0000      -0.895997       -24.3813
  38   2.0000      -0.853970       -23.2377
  39   2.0000      -0.839979       -22.8570
  40   2.0000      -0.833792       -22.6886
  41   2.0000      -0.829968       -22.5846
  42   2.0000      -0.750856       -20.4318
  43   2.0000      -0.738815       -20.1042
  44   2.0000      -0.730152       -19.8684
  45   2.0000      -0.694652       -18.9024
  46   2.0000      -0.687308       -18.7026
  47   2.0000      -0.680096       -18.5063
  48   2.0000      -0.675101       -18.3704
  49   2.0000      -0.664345       -18.0777
  50   2.0000      -0.651841       -17.7375
  51   2.0000      -0.646004       -17.5787
  52   2.0000      -0.640341       -17.4246
  53   2.0000      -0.614235       -16.7142
  54   2.0000      -0.609529       -16.5861
  55   2.0000      -0.605158       -16.4672
  56   2.0000      -0.601645       -16.3716
  57   2.0000      -0.590932       -16.0801
  58   2.0000      -0.582225       -15.8431
  59   2.0000      -0.573850       -15.6152
  60   2.0000      -0.565098       -15.3771
  61   2.0000      -0.557722       -15.1764
  62   2.0000      -0.541731       -14.7412
  63   2.0000      -0.528056       -14.3691
  64   2.0000      -0.516702       -14.0602
  65   2.0000      -0.512504       -13.9459
  66   2.0000      -0.504138       -13.7183
  67   2.0000      -0.500751       -13.6261
  68   2.0000      -0.484875       -13.1941
  69   2.0000      -0.462768       -12.5926
  70   2.0000      -0.455289       -12.3890
  71   2.0000      -0.452530       -12.3140
  72   2.0000      -0.355872        -9.6838
  73   2.0000      -0.347791        -9.4639
  74   2.0000      -0.329054        -8.9540
  75   2.0000      -0.321981        -8.7615
  76   2.0000      -0.317510        -8.6399
  77   0.0000       0.087807         2.3894
  78   0.0000       0.103885         2.8269
  79   0.0000       0.112193         3.0529
  80   0.0000       0.129242         3.5169
  81   0.0000       0.131127         3.5682

MULLIKEN ATOMIC CHARGES
-----------------------
   0 C :   -0.318514
   1 C :    0.009660
   2 O :   -0.318416
   3 C :    0.396671
   4 O :   -0.373584
   5 C :   -0.166379
   6 C :    0.127140
   7 C :   -0.333757
   8 N :   -0.135895
   9 C :    0.206717
  10 S :   -0.442274
  11 N :   -0.228067
  12 C :    0.079854
  13 C :    0.034637
  14 C :   -0.205638
  15 C :   -0.135089
  16 C :   -0.277083
  17 C :    0.314648
  18 O :   -0.359181
  19 C :   -0.276263
  20 H :    0.126052
  21 H :    0.113199
  22 H :    0.105264
  23 H :    0.132631
  24 H :    0.089326
  25 H :    0.122248
  26 H :    0.136971
  27 H :    0.123959
  28 H :    0.195811
  29 H :    0.202454
  30 H :    0.169570
  31 H :    0.169965
  32 H :    0.163159
  33 H :    0.131843
  34 H :    0.240994
  35 H :    0.177366
Sum of atomic charges:    0.0000000

LOEWDIN ATOMIC CHARGES
----------------------
   0 C :    0.104318
   1 C :   -0.021791
   2 O :    0.307193
   3 C :   -0.418016
   4 O :    0.131465
   5 C :   -0.076643
   6 C :   -0.107353
   7 C :    0.122507
   8 N :    0.401074
   9 C :   -0.456832
  10 S :   -0.039050
  11 N :    0.398665
  12 C :   -0.041594
  13 C :   -0.041136
  14 C :    0.022827
  15 C :    0.044063
  16 C :   -0.002346
  17 C :   -0.194511
  18 O :    0.395249
  19 C :    0.028854
  20 H :   -0.019166
  21 H :   -0.025626
  22 H :   -0.037825
  23 H :   -0.017833
  24 H :   -0.040249
  25 H :   -0.010629
  26 H :   -0.009466
  27 H :   -0.017247
  28 H :   -0.058760
  29 H :   -0.063583
  30 H :   -0.001346
  31 H :   -0.021872
  32 H :   -0.018755
  33 H :   -0.035187
  34 H :   -0.153716
  35 H :   -0.025682

  Mayer bond orders larger than 0.100000
B(  0-C ,  1-C ) :   0.9554 B(  0-C , 20-H ) :   0.9701 B(  0-C , 21-H ) :   0.9768
B(  0-C , 22-H ) :   0.9730 B(  1-C ,  2-O ) :   0.9147 B(  1-C , 23-H ) :   0.9833
B(  1-C , 24-H ) :   0.9771 B(  2-O ,  3-C ) :   1.1362 B(  3-C ,  4-O ) :   2.0847
B(  3-C ,  5-C ) :   0.9172 B(  5-C ,  6-C ) :   1.7086 B(  5-C , 12-C ) :   0.9554
B(  6-C ,  7-C ) :   0.9415 B(  6-C ,  8-N ) :   1.0990 B(  7-C , 25-H ) :   0.9818
B(  7-C , 26-H ) :   0.9734 B(  7-C , 27-H ) :   0.9651 B(  8-N ,  9-C ) :   1.1980
B(  8-N , 28-H ) :   0.9533 B(  9-C , 10-S ) :   1.6070 B(  9-C , 11-N ) :   1.2862
B( 11-N , 12-C ) :   0.9850 B( 11-N , 29-H ) :   0.9474 B( 12-C , 13-C ) :   0.9510
B( 12-C , 30-H ) :   0.9954 B( 13-C , 14-C ) :   1.3865 B( 13-C , 19-C ) :   1.3383
B( 14-C , 15-C ) :   1.4028 B( 14-C , 31-H ) :   0.9609 B( 15-C , 16-C ) :   1.3572
B( 15-C , 32-H ) :   0.9703 B( 16-C , 17-C ) :   1.3314 B( 16-C , 33-H ) :   0.9851
B( 17-C , 18-O ) :   1.1091 B( 17-C , 19-C ) :   1.3696 B( 18-O , 34-H ) :   0.9797
B( 19-C , 35-H ) :   0.9574

MP2 TOTAL ENERGY:    -1274.320578601 Eh
FINAL SINGLE POINT ENERGY     -1274.320578600973

DIPOLE MOMENT
-------------
                                X             Y             Z
Electronic contribution:      9.33413       6.02443       6.40669
Nuclear contribution   :    -10.87578      -7.15501      -7.23250
                        -----------------------------------------
Total Dipole Moment    :     -1.54165      -1.13059      -0.82581
                        -----------------------------------------
Magnitude (a.u.)       :      2.08251
Magnitude (Debye)      :      5.29333

Rotational constants in cm-1:     0.012016     0.009563     0.006879
Rotational constants in MHz :   360.237236   286.689247   206.240088

                             ****ORCA TERMINATED NORMALLY****
TOTAL RUN TIME: 0 days 1 hours 52 minutes 2 seconds 820 msec
