                         Program Version 5.0.0 -  RELEASE  -
|  1> ! ri-mp2 cc-pvtz cc-pvtz/c TightSCF NoKeepInts
|  2>
|  3> %scf
|  4>   MaxCore 4096
|  5> end
|  6> *xyz  0  1
|  7>     C       15.0933795   15.5268064   17.2495004
|  8>     C       15.6921160   14.9867303   15.9356318
|  9>     O       16.9443447   15.5874699   15.5208415
| 10>     C       18.0178289   15.7785373   16.3502458
| 11>     O       18.8146324   14.8700138   16.4998776
| 12>     C       17.8858508   16.8693611   17.3729202
| 13>     C       17.2881289   18.0564934   17.0995128
| 14>     C       16.6777737   18.4932114   15.7817194
| 15>     N       17.3205931   19.0852326   18.0453716
| 16>     C       18.1118689   19.0868384   19.1639781
| 17>     S       18.2196115   20.4078124   20.1528193
| 18>     N       18.8145286   17.9353509   19.4179030
| 19>     C       18.6236124   16.6574504   18.7034181
| 20>     C       17.9258274   15.6336698   19.5976897
| 21>     C       18.3494803   14.2915986   19.5972667
| 22>     C       17.7139293   13.3366047   20.4079836
| 23>     C       16.6439186   13.7247425   21.2313771
| 24>     C       16.2179594   15.0594590   21.2379613
| 25>     O       15.1790924   15.4359988   22.0251251
| 26>     C       16.8521678   16.0081449   20.4294893
| 27>     H       15.7197226   15.2521384   18.1017326
| 28>     H       14.1091651   15.0739025   17.4203116
| 29>     H       14.9539680   16.6114555   17.2324873
| 30>     H       15.8482967   13.9059143   16.0531297
| 31>     H       14.9581683   15.1189820   15.1303345
| 32>     H       15.6716017   18.0821371   15.6458239
| 33>     H       17.2910879   18.1574642   14.9359298
| 34>     H       16.6033307   19.5846606   15.7002761
| 35>     H       16.8229367   19.9433415   17.8682121
| 36>     H       19.3777769   17.9561050   20.2585653
| 37>     H       19.6234036   16.2636445   18.4684427
| 38>     H       19.1711968   13.9840958   18.9540758
| 39>     H       18.0507528   12.3014691   20.3924357
| 40>     H       16.1492480   12.9898462   21.8577801
| 41>     H       14.9109194   14.6618213   22.5425779
| 42>     H       16.4987799   17.0334955   20.4512525
| 43> *
| 44>
| 45>                          ****END OF INPUT****

CARTESIAN COORDINATES (ANGSTROEM)
---------------------------------
  C     15.093379   15.526806   17.249500
  C     15.692116   14.986730   15.935632
  O     16.944345   15.587470   15.520841
  C     18.017829   15.778537   16.350246
  O     18.814632   14.870014   16.499878
  C     17.885851   16.869361   17.372920
  C     17.288129   18.056493   17.099513
  C     16.677774   18.493211   15.781719
  N     17.320593   19.085233   18.045372
  C     18.111869   19.086838   19.163978
  S     18.219611   20.407812   20.152819
  N     18.814529   17.935351   19.417903
  C     18.623612   16.657450   18.703418
  C     17.925827   15.633670   19.597690
  C     18.349480   14.291599   19.597267
  C     17.713929   13.336605   20.407984
  C     16.643919   13.724742   21.231377
  C     16.217959   15.059459   21.237961
  O     15.179092   15.435999   22.025125
  C     16.852168   16.008145   20.429489
  H     15.719723   15.252138   18.101733
  H     14.109165   15.073903   17.420312
  H     14.953968   16.611456   17.232487
  H     15.848297   13.905914   16.053130
  H     14.958168   15.118982   15.130334
  H     15.671602   18.082137   15.645824
  H     17.291088   18.157464   14.935930
  H     16.603331   19.584661   15.700276
  H     16.822937   19.943341   17.868212
  H     19.377777   17.956105   20.258565
  H     19.623404   16.263645   18.468443
  H     19.171197   13.984096   18.954076
  H     18.050753   12.301469   20.392436
  H     16.149248   12.989846   21.857780
  H     14.910919   14.661821   22.542578
  H     16.498780   17.033496   20.451252

 Total Charge           Charge          ....    0
 Multiplicity           Mult            ....    1
 Number of Electrons    NEL             ....  154
 Basis Dimension        Dim             ....  828

ORBITAL ENERGIES
----------------

  NO   OCC          E(Eh)            E(eV)
   0   2.0000     -91.891291     -2500.4891
   1   2.0000     -20.596195      -560.4510
   2   2.0000     -20.581352      -560.0471
   3   2.0000     -20.553273      -559.2830
   4   2.0000     -15.631182      -425.3461
   5   2.0000     -15.609878      -424.7664
   6   2.0000     -11.395725      -310.0934
   7   2.0000     -11.386447      -309.8410
   8   2.0000     -11.336609      -308.4848
   9   2.0000     -11.312805      -307.8371
  10   2.0000     -11.310735      -307.7808
  11   2.0000     -11.307559      -307.6943
  12   2.0000     -11.263654      -306.4996
  13   2.0000     -11.262491      -306.4680
  14   2.0000     -11.259570      -306.3885
  15   2.0000     -11.253150      -306.2138
  16   2.0000     -11.242544      -305.9252
  17   2.0000     -11.238135      -305.8052
  18   2.0000     -11.234602      -305.7091
  19   2.0000     -11.230847      -305.6069
  20   2.0000      -8.896346      -242.0819
  21   2.0000      -6.577921      -178.9943
  22   2.0000      -6.575913      -178.9397
  23   2.0000      -6.575323      -178.9236
  24   2.0000      -1.444708       -39.3125
  25   2.0000      -1.416033       -38.5322
  26   2.0000      -1.352687       -36.8085
  27   2.0000      -1.342323       -36.5265
  28   2.0000      -1.240030       -33.7429
  29   2.0000      -1.156791       -31.4779
  30   2.0000      -1.122690       -30.5499
  31   2.0000      -1.045164       -28.4404
  32   2.0000      -1.035855       -28.1870
  33   2.0000      -1.015030       -27.6204
  34   2.0000      -1.002286       -27.2736
  35   2.0000      -0.989173       -26.9168
  36   2.0000      -0.925918       -25.1955
  37   2.0000      -0.895792       -24.3757
  38   2.0000      -0.851566       -23.1723
  39   2.0000      -0.840446       -22.8697
  40   2.0000      -0.832866       -22.6634
  41   2.0000      -0.821853       -22.3638
  42   2.0000      -0.748215       -20.3600
  43   2.0000      -0.732850       -19.9419
  44   2.0000      -0.728460       -19.8224
  45   2.0000      -0.694393       -18.8954
  46   2.0000      -0.687666       -18.7123
  47   2.0000      -0.674703       -18.3596
  48   2.0000      -0.673278       -18.3208
  49   2.0000      -0.662326       -18.0228
  50   2.0000      -0.652837       -17.7646
  51   2.0000      -0.648692       -17.6518
  52   2.0000      -0.641741       -17.4627
  53   2.0000      -0.615234       -16.7414
  54   2.0000      -0.603540       -16.4232
  55   2.0000      -0.602154       -16.3855
  56   2.0000      -0.600373       -16.3370
  57   2.0000      -0.585986       -15.9455
  58   2.0000      -0.575201       -15.6520
  59   2.0000      -0.565367       -15.3844
  60   2.0000      -0.563065       -15.3218
  61   2.0000      -0.552628       -15.0378
  62   2.0000      -0.546166       -14.8619
  63   2.0000      -0.528445       -14.3797
  64   2.0000      -0.520890       -14.1741
  65   2.0000      -0.513485       -13.9727
  66   2.0000      -0.500322       -13.6145
  67   2.0000      -0.487625       -13.2689
  68   2.0000      -0.483191       -13.1483
  69   2.0000      -0.466897       -12.7049
  70   2.0000      -0.456286       -12.4162
  71   2.0000      -0.449073       -12.2199
  72   2.0000      -0.357178        -9.7193
  73   2.0000      -0.347285        -9.4501
  74   2.0000      -0.330473        -8.9926
  75   2.0000      -0.321468        -8.7476
  76   2.0000      -0.318495        -8.6667
  77   0.0000       0.069943         1.9032
  78   0.0000       0.106594         2.9006
  79   0.0000       0.118283         3.2187
  80   0.0000       0.130522         3.5517
  81   0.0000       0.132387         3.6024

MULLIKEN ATOMIC CHARGES
-----------------------
   0 C :   -0.345998
   1 C :    0.043870
   2 O :   -0.382588
   3 C :    0.462116
   4 O :   -0.387350
   5 C :   -0.219805
   6 C :    0.147865
   7 C :   -0.286866
   8 N :   -0.129623
   9 C :    0.188770
  10 S :   -0.434437
  11 N :   -0.210847
  12 C :    0.070582
  13 C :    0.020708
  14 C :   -0.191913
  15 C :   -0.140041
  16 C :   -0.274812
  17 C :    0.313164
  18 O :   -0.357884
  19 C :   -0.261396
  20 H :    0.131228
  21 H :    0.124244
  22 H :    0.099700
  23 H :    0.109341
  24 H :    0.112425
  25 H :    0.117536
  26 H :    0.134960
  27 H :    0.110711
  28 H :    0.197783
  29 H :    0.197166
  30 H :    0.161857
  31 H :    0.171620
  32 H :    0.162721
  33 H :    0.131579
  34 H :    0.240656
  35 H :    0.172958
Sum of atomic charges:   -0.0000000

LOEWDIN ATOMIC CHARGES
----------------------
   0 C :    0.105611
   1 C :   -0.014830
   2 O :    0.274245
   3 C :   -0.416655
   4 O :    0.129320
   5 C :   -0.091251
   6 C :   -0.073556
   7 C :    0.127550
   8 N :    0.405653
   9 C :   -0.459784
  10 S :   -0.033600
  11 N :    0.397255
  12 C :   -0.043723
  13 C :   -0.042816
  14 C :    0.019117
  15 C :    0.041855
  16 C :   -0.002037
  17 C :   -0.194156
  18 O :    0.395032
  19 C :    0.027859
  20 H :   -0.026930
  21 H :   -0.020751
  22 H :   -0.034845
  23 H :   -0.025081
  24 H :   -0.022717
  25 H :   -0.015699
  26 H :   -0.005613
  27 H :   -0.017720
  28 H :   -0.058605
  29 H :   -0.063698
  30 H :   -0.002523
  31 H :   -0.023146
  32 H :   -0.019488
  33 H :   -0.035363
  34 H :   -0.153990
  35 H :   -0.024919

  Mayer bond orders larger than 0.100000
B(  0-C ,  1-C ) :   0.9624 B(  0-C , 20-H ) :   0.9627 B(  0-C , 21-H ) :   0.9783
B(  0-C , 22-H ) :   0.9730 B(  1-C ,  2-O ) :   0.8957 B(  1-C , 23-H ) :   0.9833
B(  1-C , 24-H ) :   0.9819 B(  2-O ,  3-C ) :   1.0959 B(  3-C ,  4-O ) :   2.0438
B(  3-C ,  5-C ) :   1.0040 B(  5-C ,  6-C ) :   1.6667 B(  5-C , 12-C ) :   0.9508
B(  6-C ,  7-C ) :   0.9502 B(  6-C ,  8-N ) :   1.1223 B(  7-C , 25-H ) :   0.9651
B(  7-C , 26-H ) :   0.9670 B(  7-C , 27-H ) :   0.9881 B(  8-N ,  9-C ) :   1.1822
B(  8-N , 28-H ) :   0.9492 B(  9-C , 10-S ) :   1.6159 B(  9-C , 11-N ) :   1.2952
B( 11-N , 12-C ) :   0.9803 B( 11-N , 29-H ) :   0.9509 B( 12-C , 13-C ) :   0.9514
B( 12-C , 30-H ) :   0.9966 B( 13-C , 14-C ) :   1.3915 B( 13-C , 19-C ) :   1.3480
B( 14-C , 15-C ) :   1.3982 B( 14-C , 31-H ) :   0.9579 B( 15-C , 16-C ) :   1.3617
B( 15-C , 32-H ) :   0.9706 B( 16-C , 17-C ) :   1.3305 B( 16-C , 33-H ) :   0.9847
B( 17-C , 18-O ) :   1.1114 B( 17-C , 19-C ) :   1.3726 B( 18-O , 34-H ) :   0.9799
B( 19-C , 35-H ) :   0.9591

MP2 TOTAL ENERGY:    -1274.321238667 Eh
FINAL SINGLE POINT ENERGY     -1274.321238666635

DIPOLE MOMENT
-------------
                                X             Y             Z
Electronic contribution:      9.55066       7.02988       6.46128
Nuclear contribution   :    -10.96464      -8.16450      -7.06508
                        -----------------------------------------
Total Dipole Moment    :     -1.41398      -1.13462      -0.60380
                        -----------------------------------------
Magnitude (a.u.)       :      1.91083
Magnitude (Debye)      :      4.85694

Rotational constants in cm-1:     0.011225     0.009975     0.006746
Rotational constants in MHz :   336.518138   299.051910   202.240113

                             ****ORCA TERMINATED NORMALLY****
TOTAL RUN TIME: 0 days 1 hours 47 minutes 57 seconds 745 msec
