                         Program Version 4.2.0 -  RELEASE  -
|  1> ! ri-mp2 cc-pvtz cc-pvtz/c TightSCF  NoKeepInts
|  2>
|  3> %scf
|  4>   MaxCore 4096
|  5> end
|  6> *xyz  0  1
|  7>     C       15.5568597   13.3139906   16.1209566
|  8>     C       15.6700387   14.6428633   16.8854813
|  9>     O       16.8609787   15.3044714   16.4188723
| 10>     C       16.8226482   16.6613383   16.2864591
| 11>     O       15.9860515   17.1828260   15.5706248
| 12>     C       17.5439279   17.3855109   17.3926832
| 13>     C       17.4433084   18.7286235   17.5698353
| 14>     C       16.5929032   19.7009044   16.7801219
| 15>     N       18.2175074   19.3663615   18.5442412
| 16>     C       19.2332536   18.7726131   19.2449633
| 17>     S       20.2099862   19.6293879   20.2684407
| 18>     N       19.4079590   17.4274735   19.0425949
| 19>     C       18.4771541   16.5610393   18.2974191
| 20>     C       17.7225390   15.6776935   19.2851551
| 21>     C       18.0522394   14.3148423   19.4110948
| 22>     C       17.3608686   13.4929330   20.3169285
| 23>     C       16.3358878   14.0389549   21.1082218
| 24>     C       16.0124461   15.3978304   20.9934766
| 25>     O       15.0245036   15.9284691   21.7568075
| 26>     C       16.7001773   16.2129833   20.0892349
| 27>     H       14.6555962   12.7693309   16.4271098
| 28>     H       16.4283562   12.6783405   16.3203007
| 29>     H       15.4987488   13.4954010   15.0402724
| 30>     H       14.7762689   15.2460056   16.6734456
| 31>     H       15.7128568   14.4619043   17.9658337
| 32>     H       15.5312822   19.4323311   16.8533465
| 33>     H       16.8637266   19.6753672   15.7168334
| 34>     H       16.6955441   20.7374774   17.1219259
| 35>     H       18.1090425   20.3565278   18.6959649
| 36>     H       20.1471795   17.0115802   19.5943813
| 37>     H       19.0790904   15.9117602   17.6458342
| 38>     H       18.8427105   13.8890868   18.7984873
| 39>     H       17.6213330   12.4393879   20.4050432
| 40>     H       15.8002561   13.4083620   21.8104557
| 41>     H       14.7136216   15.2341625   22.3573346
| 42>     H       16.4401482   17.2638645   20.0238181
| 43> *
| 44>
| 45>                          ****END OF INPUT****

CARTESIAN COORDINATES (ANGSTROEM)
---------------------------------
  C     15.556860   13.313991   16.120957
  C     15.670039   14.642863   16.885481
  O     16.860979   15.304471   16.418872
  C     16.822648   16.661338   16.286459
  O     15.986051   17.182826   15.570625
  C     17.543928   17.385511   17.392683
  C     17.443308   18.728624   17.569835
  C     16.592903   19.700904   16.780122
  N     18.217507   19.366361   18.544241
  C     19.233254   18.772613   19.244963
  S     20.209986   19.629388   20.268441
  N     19.407959   17.427474   19.042595
  C     18.477154   16.561039   18.297419
  C     17.722539   15.677694   19.285155
  C     18.052239   14.314842   19.411095
  C     17.360869   13.492933   20.316928
  C     16.335888   14.038955   21.108222
  C     16.012446   15.397830   20.993477
  O     15.024504   15.928469   21.756808
  C     16.700177   16.212983   20.089235
  H     14.655596   12.769331   16.427110
  H     16.428356   12.678340   16.320301
  H     15.498749   13.495401   15.040272
  H     14.776269   15.246006   16.673446
  H     15.712857   14.461904   17.965834
  H     15.531282   19.432331   16.853347
  H     16.863727   19.675367   15.716833
  H     16.695544   20.737477   17.121926
  H     18.109043   20.356528   18.695965
  H     20.147180   17.011580   19.594381
  H     19.079090   15.911760   17.645834
  H     18.842710   13.889087   18.798487
  H     17.621333   12.439388   20.405043
  H     15.800256   13.408362   21.810456
  H     14.713622   15.234163   22.357335
  H     16.440148   17.263865   20.023818

 Total Charge           Charge          ....    0
 Multiplicity           Mult            ....    1
 Number of Electrons    NEL             ....  154
 Basis Dimension        Dim             ....  828

ORBITAL ENERGIES
----------------

  NO   OCC          E(Eh)            E(eV)
   0   2.0000     -91.890568     -2500.4695
   1   2.0000     -20.601381      -560.5921
   2   2.0000     -20.584419      -560.1305
   3   2.0000     -20.546705      -559.1043
   4   2.0000     -15.631070      -425.3430
   5   2.0000     -15.609718      -424.7620
   6   2.0000     -11.393148      -310.0233
   7   2.0000     -11.385336      -309.8107
   8   2.0000     -11.337568      -308.5109
   9   2.0000     -11.319317      -308.0143
  10   2.0000     -11.311615      -307.8047
  11   2.0000     -11.292059      -307.2726
  12   2.0000     -11.263782      -306.5031
  13   2.0000     -11.260590      -306.4162
  14   2.0000     -11.259828      -306.3955
  15   2.0000     -11.253374      -306.2199
  16   2.0000     -11.248156      -306.0779
  17   2.0000     -11.242815      -305.9325
  18   2.0000     -11.242537      -305.9250
  19   2.0000     -11.223830      -305.4159
  20   2.0000      -8.895608      -242.0618
  21   2.0000      -6.577176      -178.9741
  22   2.0000      -6.575178      -178.9197
  23   2.0000      -6.574585      -178.9036
  24   2.0000      -1.448781       -39.4233
  25   2.0000      -1.421051       -38.6688
  26   2.0000      -1.352276       -36.7973
  27   2.0000      -1.342144       -36.5216
  28   2.0000      -1.240622       -33.7591
  29   2.0000      -1.162011       -31.6199
  30   2.0000      -1.121486       -30.5172
  31   2.0000      -1.045909       -28.4606
  32   2.0000      -1.033924       -28.1345
  33   2.0000      -1.020172       -27.7603
  34   2.0000      -0.997585       -27.1457
  35   2.0000      -0.985602       -26.8196
  36   2.0000      -0.925307       -25.1789
  37   2.0000      -0.879429       -23.9305
  38   2.0000      -0.849163       -23.1069
  39   2.0000      -0.842057       -22.9135
  40   2.0000      -0.838261       -22.8102
  41   2.0000      -0.826635       -22.4939
  42   2.0000      -0.761105       -20.7107
  43   2.0000      -0.736026       -20.0283
  44   2.0000      -0.724411       -19.7122
  45   2.0000      -0.700420       -19.0594
  46   2.0000      -0.690989       -18.8028
  47   2.0000      -0.678547       -18.4642
  48   2.0000      -0.672305       -18.2944
  49   2.0000      -0.655997       -17.8506
  50   2.0000      -0.648322       -17.6417
  51   2.0000      -0.644058       -17.5257
  52   2.0000      -0.628629       -17.1059
  53   2.0000      -0.620621       -16.8880
  54   2.0000      -0.611956       -16.6522
  55   2.0000      -0.603588       -16.4245
  56   2.0000      -0.601044       -16.3552
  57   2.0000      -0.581642       -15.8273
  58   2.0000      -0.572318       -15.5736
  59   2.0000      -0.566108       -15.4046
  60   2.0000      -0.559493       -15.2246
  61   2.0000      -0.540167       -14.6987
  62   2.0000      -0.534390       -14.5415
  63   2.0000      -0.529484       -14.4080
  64   2.0000      -0.516772       -14.0621
  65   2.0000      -0.513943       -13.9851
  66   2.0000      -0.504825       -13.7370
  67   2.0000      -0.496152       -13.5010
  68   2.0000      -0.489191       -13.3116
  69   2.0000      -0.464658       -12.6440
  70   2.0000      -0.454490       -12.3673
  71   2.0000      -0.445607       -12.1256
  72   2.0000      -0.356971        -9.7137
  73   2.0000      -0.354275        -9.6403
  74   2.0000      -0.330608        -8.9963
  75   2.0000      -0.326538        -8.8856
  76   2.0000      -0.317761        -8.6467
  77   0.0000       0.069181         1.8825
  78   0.0000       0.102079         2.7777
  79   0.0000       0.122480         3.3329
  80   0.0000       0.127890         3.4801
  81   0.0000       0.132905         3.6165

MULLIKEN ATOMIC CHARGES
-----------------------
   0 C :   -0.260564
   1 C :    0.021896
   2 O :   -0.386280
   3 C :    0.504158
   4 O :   -0.411413
   5 C :   -0.280175
   6 C :    0.159241
   7 C :   -0.268792
   8 N :   -0.124315
   9 C :    0.213649
  10 S :   -0.437701
  11 N :   -0.203245
  12 C :    0.057920
  13 C :    0.023916
  14 C :   -0.171016
  15 C :   -0.132987
  16 C :   -0.275992
  17 C :    0.305938
  18 O :   -0.356291
  19 C :   -0.239547
  20 H :    0.085473
  21 H :    0.090213
  22 H :    0.104075
  23 H :    0.109533
  24 H :    0.116625
  25 H :    0.130402
  26 H :    0.133211
  27 H :    0.094962
  28 H :    0.198303
  29 H :    0.193574
  30 H :    0.149249
  31 H :    0.150500
  32 H :    0.162570
  33 H :    0.133181
  34 H :    0.241799
  35 H :    0.167931
Sum of atomic charges:    0.0000000

LOEWDIN ATOMIC CHARGES
----------------------
   0 C :    0.107831
   1 C :   -0.015087
   2 O :    0.291883
   3 C :   -0.419119
   4 O :    0.114421
   5 C :   -0.098589
   6 C :   -0.057907
   7 C :    0.131181
   8 N :    0.407088
   9 C :   -0.456371
  10 S :   -0.033415
  11 N :    0.396243
  12 C :   -0.053161
  13 C :   -0.038271
  14 C :    0.013054
  15 C :    0.041017
  16 C :   -0.002164
  17 C :   -0.190369
  18 O :    0.396653
  19 C :    0.030581
  20 H :   -0.027088
  21 H :   -0.030054
  22 H :   -0.023772
  23 H :   -0.029293
  24 H :   -0.032530
  25 H :   -0.005124
  26 H :   -0.003337
  27 H :   -0.023254
  28 H :   -0.057356
  29 H :   -0.065160
  30 H :   -0.007859
  31 H :   -0.029423
  32 H :   -0.019789
  33 H :   -0.034473
  34 H :   -0.152683
  35 H :   -0.024304

  Mayer bond orders larger than 0.100000
B(  0-C ,  1-C ) :   0.9839 B(  0-C , 20-H ) :   0.9764 B(  0-C , 21-H ) :   0.9797
B(  0-C , 22-H ) :   0.9793 B(  1-C ,  2-O ) :   0.8698 B(  1-C , 23-H ) :   0.9742
B(  1-C , 24-H ) :   0.9649 B(  2-O ,  3-C ) :   1.1057 B(  3-C ,  4-O ) :   2.0097
B(  3-C ,  5-C ) :   1.0700 B(  5-C ,  6-C ) :   1.6492 B(  5-C , 12-C ) :   0.9707
B(  6-C ,  7-C ) :   0.9684 B(  6-C ,  8-N ) :   1.1583 B(  7-C , 25-H ) :   0.9613
B(  7-C , 26-H ) :   0.9587 B(  7-C , 27-H ) :   0.9899 B(  8-N ,  9-C ) :   1.1807
B(  8-N , 28-H ) :   0.9477 B(  9-C , 10-S ) :   1.6094 B(  9-C , 11-N ) :   1.3053
B( 11-N , 12-C ) :   0.9723 B( 11-N , 29-H ) :   0.9532 B( 12-C , 13-C ) :   0.9423
B( 12-C , 30-H ) :   1.0023 B( 13-C , 14-C ) :   1.3528 B( 13-C , 19-C ) :   1.3790
B( 14-C , 15-C ) :   1.3938 B( 14-C , 31-H ) :   0.9733 B( 15-C , 16-C ) :   1.3618
B( 15-C , 32-H ) :   0.9705 B( 16-C , 17-C ) :   1.3282 B( 16-C , 33-H ) :   0.9843
B( 17-C , 18-O ) :   1.1145 B( 17-C , 19-C ) :   1.3758 B( 18-O , 34-H ) :   0.9789
B( 19-C , 35-H ) :   0.9567

MP2 TOTAL ENERGY:    -1274.332566343 Eh
FINAL SINGLE POINT ENERGY     -1274.332566343153

DIPOLE MOMENT
-------------
                                X             Y             Z
Electronic contribution:      9.82715      10.70737       6.61380
Nuclear contribution   :    -10.89805     -12.17364      -6.48532
                        -----------------------------------------
Total Dipole Moment    :     -1.07090      -1.46627       0.12848
                        -----------------------------------------
Magnitude (a.u.)       :      1.82024
Magnitude (Debye)      :      4.62668

Rotational constants in cm-1:     0.012306     0.008737     0.006322
Rotational constants in MHz :   368.921277   261.914043   189.529939

                             ****ORCA TERMINATED NORMALLY****
TOTAL RUN TIME: 0 days 1 hours 43 minutes 53 seconds 187 msec
