                         Program Version 5.0.0 -  RELEASE  -
|  1> ! ri-mp2 cc-pvtz cc-pvtz/c TightSCF NoKeepInts
|  2>
|  3> %scf
|  4>   MaxCore 4096
|  5> end
|  6> *xyz  0  1
|  7>     C       15.2785995   14.4502407   17.1568404
|  8>     C       15.5572769   14.9582497   15.7228088
|  9>     O       16.5644725   15.9936635   15.7024376
| 10>     C       17.6935790   15.8947538   16.4627786
| 11>     O       18.2990905   14.8414822   16.5733109
| 12>     C       17.8843788   17.0347842   17.4195878
| 13>     C       17.3910721   18.2867961   17.2375395
| 14>     C       16.5979355   18.8097986   16.0578038
| 15>     N       17.6658662   19.2847381   18.1781178
| 16>     C       18.5250902   19.1490512   19.2365949
| 17>     S       18.8822384   20.4168966   20.2368323
| 18>     N       19.0735488   17.9055522   19.4242080
| 19>     C       18.6944078   16.6932483   18.6743846
| 20>     C       17.9207352   15.7294686   19.5701591
| 21>     C       18.3513952   14.3990147   19.7258655
| 22>     C       17.6312147   13.5025941   20.5330191
| 23>     C       16.4687370   13.9390511   21.1907838
| 24>     C       16.0349600   15.2626236   21.0364746
| 25>     O       14.9072553   15.6845978   21.6619164
| 26>     C       16.7541694   16.1527275   20.2329889
| 27>     H       16.1264176   13.8829614   17.5606795
| 28>     H       14.4083127   13.7832403   17.1591657
| 29>     H       15.0648207   15.2867275   17.8336929
| 30>     H       15.8936600   14.1115085   15.1096623
| 31>     H       14.6306360   15.3458174   15.2806126
| 32>     H       15.5701735   18.4268692   16.0822211
| 33>     H       17.0529118   18.4945397   15.1104074
| 34>     H       16.5445349   19.9050906   16.0376509
| 35>     H       17.2738598   20.2049939   18.0575571
| 36>     H       19.6798812   17.8244852   20.2302864
| 37>     H       19.6208978   16.1969644   18.3509596
| 38>     H       19.2383123   14.0532429   19.2003434
| 39>     H       17.9715127   12.4740741   20.6391869
| 40>     H       15.9077594   13.2490348   21.8122026
| 41>     H       14.5859705   14.9502311   22.2064172
| 42>     H       16.4013163   17.1728865   20.1285018
| 43> *
| 44>
| 45>                          ****END OF INPUT****

CARTESIAN COORDINATES (ANGSTROEM)
---------------------------------
  C     15.278600   14.450241   17.156840
  C     15.557277   14.958250   15.722809
  O     16.564473   15.993664   15.702438
  C     17.693579   15.894754   16.462779
  O     18.299090   14.841482   16.573311
  C     17.884379   17.034784   17.419588
  C     17.391072   18.286796   17.237540
  C     16.597935   18.809799   16.057804
  N     17.665866   19.284738   18.178118
  C     18.525090   19.149051   19.236595
  S     18.882238   20.416897   20.236832
  N     19.073549   17.905552   19.424208
  C     18.694408   16.693248   18.674385
  C     17.920735   15.729469   19.570159
  C     18.351395   14.399015   19.725865
  C     17.631215   13.502594   20.533019
  C     16.468737   13.939051   21.190784
  C     16.034960   15.262624   21.036475
  O     14.907255   15.684598   21.661916
  C     16.754169   16.152728   20.232989
  H     16.126418   13.882961   17.560679
  H     14.408313   13.783240   17.159166
  H     15.064821   15.286727   17.833693
  H     15.893660   14.111508   15.109662
  H     14.630636   15.345817   15.280613
  H     15.570173   18.426869   16.082221
  H     17.052912   18.494540   15.110407
  H     16.544535   19.905091   16.037651
  H     17.273860   20.204994   18.057557
  H     19.679881   17.824485   20.230286
  H     19.620898   16.196964   18.350960
  H     19.238312   14.053243   19.200343
  H     17.971513   12.474074   20.639187
  H     15.907759   13.249035   21.812203
  H     14.585971   14.950231   22.206417
  H     16.401316   17.172887   20.128502

 Total Charge           Charge          ....    0
 Multiplicity           Mult            ....    1
 Number of Electrons    NEL             ....  154
 Basis Dimension        Dim             ....  828

ORBITAL ENERGIES
----------------

  NO   OCC          E(Eh)            E(eV)
   0   2.0000     -91.888904     -2500.4242
   1   2.0000     -20.595000      -560.4185
   2   2.0000     -20.589693      -560.2740
   3   2.0000     -20.549445      -559.1788
   4   2.0000     -15.628996      -425.2866
   5   2.0000     -15.607962      -424.7142
   6   2.0000     -11.395376      -310.0839
   7   2.0000     -11.384084      -309.7767
   8   2.0000     -11.335728      -308.4608
   9   2.0000     -11.310864      -307.7843
  10   2.0000     -11.307419      -307.6905
  11   2.0000     -11.302164      -307.5475
  12   2.0000     -11.260296      -306.4082
  13   2.0000     -11.259389      -306.3835
  14   2.0000     -11.256282      -306.2990
  15   2.0000     -11.251114      -306.1584
  16   2.0000     -11.240777      -305.8771
  17   2.0000     -11.236369      -305.7571
  18   2.0000     -11.233608      -305.6820
  19   2.0000     -11.223638      -305.4107
  20   2.0000      -8.893970      -242.0172
  21   2.0000      -6.575546      -178.9297
  22   2.0000      -6.573539      -178.8751
  23   2.0000      -6.572953      -178.8591
  24   2.0000      -1.449180       -39.4342
  25   2.0000      -1.414773       -38.4979
  26   2.0000      -1.354794       -36.8658
  27   2.0000      -1.339998       -36.4632
  28   2.0000      -1.237936       -33.6859
  29   2.0000      -1.155238       -31.4356
  30   2.0000      -1.120744       -30.4970
  31   2.0000      -1.043286       -28.3892
  32   2.0000      -1.030751       -28.0482
  33   2.0000      -1.012677       -27.5563
  34   2.0000      -0.999138       -27.1879
  35   2.0000      -0.984784       -26.7973
  36   2.0000      -0.923313       -25.1246
  37   2.0000      -0.895151       -24.3583
  38   2.0000      -0.848517       -23.0893
  39   2.0000      -0.837595       -22.7921
  40   2.0000      -0.831199       -22.6181
  41   2.0000      -0.816368       -22.2145
  42   2.0000      -0.746207       -20.3053
  43   2.0000      -0.733279       -19.9535
  44   2.0000      -0.727188       -19.7878
  45   2.0000      -0.693019       -18.8580
  46   2.0000      -0.686134       -18.6707
  47   2.0000      -0.676850       -18.4180
  48   2.0000      -0.671965       -18.2851
  49   2.0000      -0.658313       -17.9136
  50   2.0000      -0.653993       -17.7961
  51   2.0000      -0.645517       -17.5654
  52   2.0000      -0.634022       -17.2526
  53   2.0000      -0.618750       -16.8370
  54   2.0000      -0.603116       -16.4116
  55   2.0000      -0.601887       -16.3782
  56   2.0000      -0.598734       -16.2924
  57   2.0000      -0.578667       -15.7463
  58   2.0000      -0.575555       -15.6616
  59   2.0000      -0.563676       -15.3384
  60   2.0000      -0.552237       -15.0271
  61   2.0000      -0.546218       -14.8633
  62   2.0000      -0.534836       -14.5536
  63   2.0000      -0.529508       -14.4087
  64   2.0000      -0.519787       -14.1441
  65   2.0000      -0.510459       -13.8903
  66   2.0000      -0.499317       -13.5871
  67   2.0000      -0.494287       -13.4502
  68   2.0000      -0.480684       -13.0801
  69   2.0000      -0.464449       -12.6383
  70   2.0000      -0.457060       -12.4372
  71   2.0000      -0.449243       -12.2245
  72   2.0000      -0.354421        -9.6443
  73   2.0000      -0.346865        -9.4387
  74   2.0000      -0.328113        -8.9284
  75   2.0000      -0.318270        -8.6606
  76   2.0000      -0.315804        -8.5935
  77   0.0000       0.072670         1.9774
  78   0.0000       0.107473         2.9245
  79   0.0000       0.119614         3.2549
  80   0.0000       0.132731         3.6118
  81   0.0000       0.141091         3.8393

MULLIKEN ATOMIC CHARGES
-----------------------
   0 C :   -0.335910
   1 C :    0.053340
   2 O :   -0.378381
   3 C :    0.461327
   4 O :   -0.417221
   5 C :   -0.188639
   6 C :    0.144544
   7 C :   -0.281741
   8 N :   -0.123413
   9 C :    0.202227
  10 S :   -0.438827
  11 N :   -0.200603
  12 C :    0.049530
  13 C :    0.059729
  14 C :   -0.171625
  15 C :   -0.133265
  16 C :   -0.277859
  17 C :    0.321535
  18 O :   -0.360985
  19 C :   -0.295025
  20 H :    0.132027
  21 H :    0.108348
  22 H :    0.102074
  23 H :    0.104152
  24 H :    0.104882
  25 H :    0.123156
  26 H :    0.128240
  27 H :    0.103238
  28 H :    0.197167
  29 H :    0.194151
  30 H :    0.153944
  31 H :    0.157060
  32 H :    0.161610
  33 H :    0.130393
  34 H :    0.240672
  35 H :    0.170148
Sum of atomic charges:    0.0000000

LOEWDIN ATOMIC CHARGES
----------------------
   0 C :    0.105484
   1 C :   -0.013982
   2 O :    0.290067
   3 C :   -0.416659
   4 O :    0.115643
   5 C :   -0.093258
   6 C :   -0.068936
   7 C :    0.125803
   8 N :    0.404724
   9 C :   -0.458212
  10 S :   -0.035651
  11 N :    0.397652
  12 C :   -0.045742
  13 C :   -0.040052
  14 C :    0.021841
  15 C :    0.041030
  16 C :   -0.002053
  17 C :   -0.193121
  18 O :    0.393752
  19 C :    0.029921
  20 H :   -0.023117
  21 H :   -0.025652
  22 H :   -0.029588
  23 H :   -0.028324
  24 H :   -0.025575
  25 H :   -0.010293
  26 H :   -0.007171
  27 H :   -0.020494
  28 H :   -0.058828
  29 H :   -0.063823
  30 H :   -0.004696
  31 H :   -0.024881
  32 H :   -0.020667
  33 H :   -0.035817
  34 H :   -0.154203
  35 H :   -0.025124

  Mayer bond orders larger than 0.100000
B(  0-C ,  1-C ) :   0.9589 B(  0-C , 20-H ) :   0.9670 B(  0-C , 21-H ) :   0.9763
B(  0-C , 22-H ) :   0.9718 B(  1-C ,  2-O ) :   0.8965 B(  1-C , 23-H ) :   0.9849
B(  1-C , 24-H ) :   0.9829 B(  2-O ,  3-C ) :   1.0989 B(  3-C ,  4-O ) :   2.0090
B(  3-C ,  5-C ) :   1.0419 B(  5-C ,  6-C ) :   1.6551 B(  5-C , 12-C ) :   0.9649
B(  6-C ,  7-C ) :   0.9539 B(  6-C ,  8-N ) :   1.1447 B(  7-C , 25-H ) :   0.9640
B(  7-C , 26-H ) :   0.9670 B(  7-C , 27-H ) :   0.9901 B(  8-N ,  9-C ) :   1.1813
B(  8-N , 28-H ) :   0.9491 B(  9-C , 10-S ) :   1.6114 B(  9-C , 11-N ) :   1.3024
B( 11-N , 12-C ) :   0.9914 B( 11-N , 29-H ) :   0.9518 B( 12-C , 13-C ) :   0.9446
B( 12-C , 30-H ) :   0.9992 B( 13-C , 14-C ) :   1.3766 B( 13-C , 19-C ) :   1.3566
B( 14-C , 15-C ) :   1.3920 B( 14-C , 31-H ) :   0.9640 B( 15-C , 16-C ) :   1.3619
B( 15-C , 32-H ) :   0.9709 B( 16-C , 17-C ) :   1.3323 B( 16-C , 33-H ) :   0.9848
B( 17-C , 18-O ) :   1.1076 B( 17-C , 19-C ) :   1.3693 B( 18-O , 34-H ) :   0.9803
B( 19-C , 35-H ) :   0.9588

MP2 TOTAL ENERGY:    -1274.336642251 Eh
FINAL SINGLE POINT ENERGY     -1274.336642250514

DIPOLE MOMENT
-------------
                                X             Y             Z
Electronic contribution:      9.74605       9.40864       6.67361
Nuclear contribution   :    -11.18688     -10.65294      -7.46868
                        -----------------------------------------
Total Dipole Moment    :     -1.44083      -1.24430      -0.79507
                        -----------------------------------------
Magnitude (a.u.)       :      2.06311
Magnitude (Debye)      :      5.24401

Rotational constants in cm-1:     0.011860     0.009393     0.006593
Rotational constants in MHz :   355.546433   281.608973   197.647951

                             ****ORCA TERMINATED NORMALLY****
TOTAL RUN TIME: 0 days 1 hours 59 minutes 20 seconds 706 msec
