                         Program Version 4.2.0 -  RELEASE  -
|  1> ! ri-mp2 cc-pvtz cc-pvtz/c TightSCF  NoKeepInts
|  2>
|  3> %scf
|  4>   MaxCore 4096
|  5> end
|  6> *xyz  0  1
|  7>     C       15.0277275   15.6372270   17.0709598
|  8>     C       16.0217225   14.4562516   16.9919374
|  9>     O       17.2716362   14.7749286   16.3274849
| 10>     C       17.8190006   16.0172900   16.1332701
| 11>     O       18.1303667   16.3623421   15.0084574
| 12>     C       17.8070507   16.9807515   17.2829759
| 13>     C       17.4088064   18.2641620   17.1091496
| 14>     C       16.7713467   18.8522633   15.8691757
| 15>     N       17.6060012   19.2046194   18.1226006
| 16>     C       18.3664265   18.9903889   19.2411069
| 17>     S       18.6640025   20.1901915   20.3394577
| 18>     N       18.8771376   17.7266334   19.4022811
| 19>     C       18.5324589   16.5553946   18.5726172
| 20>     C       17.8012182   15.5318043   19.4316103
| 21>     C       18.3070506   14.2236819   19.5580548
| 22>     C       17.6513727   13.2788806   20.3654238
| 23>     C       16.4855409   13.6461127   21.0589582
| 24>     C       15.9886643   14.9518884   20.9492072
| 25>     O       14.8643793   15.3105151   21.6178275
| 26>     C       16.6439000   15.8906201   20.1463796
| 27>     H       15.3283540   16.3936043   17.8010616
| 28>     H       14.0426204   15.2689422   17.3824657
| 29>     H       14.9074448   16.1116416   16.0894637
| 30>     H       16.2055910   14.0707105   17.9991082
| 31>     H       15.5450709   13.6395552   16.4345865
| 32>     H       16.0899468   18.1370043   15.3935879
| 33>     H       17.5424343   19.1028246   15.1289417
| 34>     H       16.1954235   19.7604716   16.0824039
| 35>     H       17.2645314   20.1452460   18.0035176
| 36>     H       19.4175781   17.5965278   20.2482569
| 37>     H       19.4814397   16.0981512   18.2581217
| 38>     H       19.2073284   13.9341380   19.0216014
| 39>     H       18.0474890   12.2681776   20.4521562
| 40>     H       15.9757905   12.9191553   21.6831228
| 41>     H       14.5997096   14.5597365   22.1709130
| 42>     H       16.2504378   16.9001662   20.0857556
| 43> *
| 44>
| 45>                          ****END OF INPUT****

CARTESIAN COORDINATES (ANGSTROEM)
---------------------------------
  C     15.027727   15.637227   17.070960
  C     16.021722   14.456252   16.991937
  O     17.271636   14.774929   16.327485
  C     17.819001   16.017290   16.133270
  O     18.130367   16.362342   15.008457
  C     17.807051   16.980752   17.282976
  C     17.408806   18.264162   17.109150
  C     16.771347   18.852263   15.869176
  N     17.606001   19.204619   18.122601
  C     18.366426   18.990389   19.241107
  S     18.664002   20.190192   20.339458
  N     18.877138   17.726633   19.402281
  C     18.532459   16.555395   18.572617
  C     17.801218   15.531804   19.431610
  C     18.307051   14.223682   19.558055
  C     17.651373   13.278881   20.365424
  C     16.485541   13.646113   21.058958
  C     15.988664   14.951888   20.949207
  O     14.864379   15.310515   21.617827
  C     16.643900   15.890620   20.146380
  H     15.328354   16.393604   17.801062
  H     14.042620   15.268942   17.382466
  H     14.907445   16.111642   16.089464
  H     16.205591   14.070710   17.999108
  H     15.545071   13.639555   16.434587
  H     16.089947   18.137004   15.393588
  H     17.542434   19.102825   15.128942
  H     16.195424   19.760472   16.082404
  H     17.264531   20.145246   18.003518
  H     19.417578   17.596528   20.248257
  H     19.481440   16.098151   18.258122
  H     19.207328   13.934138   19.021601
  H     18.047489   12.268178   20.452156
  H     15.975791   12.919155   21.683123
  H     14.599710   14.559736   22.170913
  H     16.250438   16.900166   20.085756

 Total Charge           Charge          ....    0
 Multiplicity           Mult            ....    1
 Number of Electrons    NEL             ....  154
 Basis Dimension        Dim             ....  828

ORBITAL ENERGIES
----------------

  NO   OCC          E(Eh)            E(eV)
   0   2.0000     -91.890668     -2500.4722
   1   2.0000     -20.605156      -560.6948
   2   2.0000     -20.586541      -560.1883
   3   2.0000     -20.549653      -559.1845
   4   2.0000     -15.627987      -425.2592
   5   2.0000     -15.611702      -424.8160
   6   2.0000     -11.395018      -310.0742
   7   2.0000     -11.386063      -309.8305
   8   2.0000     -11.330297      -308.3130
   9   2.0000     -11.323471      -308.1273
  10   2.0000     -11.318344      -307.9878
  11   2.0000     -11.301010      -307.5161
  12   2.0000     -11.268595      -306.6341
  13   2.0000     -11.264194      -306.5143
  14   2.0000     -11.259168      -306.3775
  15   2.0000     -11.255270      -306.2715
  16   2.0000     -11.253302      -306.2179
  17   2.0000     -11.247905      -306.0711
  18   2.0000     -11.247497      -306.0600
  19   2.0000     -11.232613      -305.6550
  20   2.0000      -8.895738      -242.0653
  21   2.0000      -6.577316      -178.9779
  22   2.0000      -6.575305      -178.9232
  23   2.0000      -6.574720      -178.9072
  24   2.0000      -1.440495       -39.1979
  25   2.0000      -1.424935       -38.7745
  26   2.0000      -1.352054       -36.7912
  27   2.0000      -1.341050       -36.4918
  28   2.0000      -1.241280       -33.7769
  29   2.0000      -1.166247       -31.7352
  30   2.0000      -1.123215       -30.5642
  31   2.0000      -1.050298       -28.5801
  32   2.0000      -1.034187       -28.1417
  33   2.0000      -1.024608       -27.8810
  34   2.0000      -1.003032       -27.2939
  35   2.0000      -0.988784       -26.9062
  36   2.0000      -0.928329       -25.2611
  37   2.0000      -0.898596       -24.4520
  38   2.0000      -0.850992       -23.1567
  39   2.0000      -0.845403       -23.0046
  40   2.0000      -0.843466       -22.9519
  41   2.0000      -0.827124       -22.5072
  42   2.0000      -0.748482       -20.3672
  43   2.0000      -0.738891       -20.1062
  44   2.0000      -0.719360       -19.5748
  45   2.0000      -0.704050       -19.1582
  46   2.0000      -0.691955       -18.8290
  47   2.0000      -0.678014       -18.4497
  48   2.0000      -0.674322       -18.3492
  49   2.0000      -0.660528       -17.9739
  50   2.0000      -0.655871       -17.8472
  51   2.0000      -0.649707       -17.6794
  52   2.0000      -0.639358       -17.3978
  53   2.0000      -0.623686       -16.9714
  54   2.0000      -0.614557       -16.7230
  55   2.0000      -0.607547       -16.5322
  56   2.0000      -0.603466       -16.4211
  57   2.0000      -0.583929       -15.8895
  58   2.0000      -0.577314       -15.7095
  59   2.0000      -0.567521       -15.4430
  60   2.0000      -0.557661       -15.1747
  61   2.0000      -0.550189       -14.9714
  62   2.0000      -0.540897       -14.7186
  63   2.0000      -0.534209       -14.5366
  64   2.0000      -0.530379       -14.4323
  65   2.0000      -0.517325       -14.0771
  66   2.0000      -0.506530       -13.7834
  67   2.0000      -0.495817       -13.4919
  68   2.0000      -0.483679       -13.1616
  69   2.0000      -0.470375       -12.7996
  70   2.0000      -0.449918       -12.2429
  71   2.0000      -0.446097       -12.1389
  72   2.0000      -0.359141        -9.7727
  73   2.0000      -0.353254        -9.6125
  74   2.0000      -0.332861        -9.0576
  75   2.0000      -0.329243        -8.9592
  76   2.0000      -0.318562        -8.6685
  77   0.0000       0.077591         2.1114
  78   0.0000       0.098761         2.6874
  79   0.0000       0.119201         3.2436
  80   0.0000       0.125822         3.4238
  81   0.0000       0.130665         3.5556

MULLIKEN ATOMIC CHARGES
-----------------------
   0 C :   -0.347782
   1 C :    0.036625
   2 O :   -0.344968
   3 C :    0.412515
   4 O :   -0.368366
   5 C :   -0.242581
   6 C :    0.156162
   7 C :   -0.283050
   8 N :   -0.125402
   9 C :    0.200161
  10 S :   -0.437544
  11 N :   -0.197969
  12 C :    0.057106
  13 C :    0.018900
  14 C :   -0.166558
  15 C :   -0.134417
  16 C :   -0.274354
  17 C :    0.319702
  18 O :   -0.355663
  19 C :   -0.284314
  20 H :    0.113241
  21 H :    0.123377
  22 H :    0.111935
  23 H :    0.105265
  24 H :    0.126388
  25 H :    0.120447
  26 H :    0.146270
  27 H :    0.095727
  28 H :    0.197614
  29 H :    0.193767
  30 H :    0.155397
  31 H :    0.149918
  32 H :    0.164277
  33 H :    0.135129
  34 H :    0.242205
  35 H :    0.180836
Sum of atomic charges:   -0.0000000

LOEWDIN ATOMIC CHARGES
----------------------
   0 C :    0.103854
   1 C :   -0.010698
   2 O :    0.286322
   3 C :   -0.422620
   4 O :    0.130609
   5 C :   -0.090373
   6 C :   -0.077120
   7 C :    0.129903
   8 N :    0.405132
   9 C :   -0.457672
  10 S :   -0.034789
  11 N :    0.397000
  12 C :   -0.052741
  13 C :   -0.044134
  14 C :    0.016708
  15 C :    0.042390
  16 C :    0.000474
  17 C :   -0.191912
  18 O :    0.397616
  19 C :    0.034505
  20 H :   -0.037734
  21 H :   -0.020713
  22 H :   -0.029477
  23 H :   -0.033459
  24 H :   -0.022549
  25 H :   -0.011158
  26 H :   -0.002691
  27 H :   -0.021507
  28 H :   -0.057629
  29 H :   -0.064210
  30 H :   -0.007468
  31 H :   -0.027537
  32 H :   -0.018723
  33 H :   -0.033244
  34 H :   -0.152015
  35 H :   -0.022338

  Mayer bond orders larger than 0.100000
B(  0-C ,  1-C ) :   0.9600 B(  0-C , 20-H ) :   0.9678 B(  0-C , 21-H ) :   0.9759
B(  0-C , 22-H ) :   0.9754 B(  1-C ,  2-O ) :   0.9004 B(  1-C , 23-H ) :   0.9682
B(  1-C , 24-H ) :   0.9834 B(  2-O ,  3-C ) :   1.1721 B(  3-C ,  4-O ) :   2.1053
B(  3-C ,  5-C ) :   0.9391 B(  5-C ,  6-C ) :   1.6997 B(  5-C , 12-C ) :   0.9619
B(  6-C ,  7-C ) :   0.9552 B(  6-C ,  8-N ) :   1.1323 B(  7-C , 25-H ) :   0.9725
B(  7-C , 26-H ) :   0.9578 B(  7-C , 27-H ) :   0.9842 B(  8-N ,  9-C ) :   1.1919
B(  8-N , 28-H ) :   0.9500 B(  9-C , 10-S ) :   1.6158 B(  9-C , 11-N ) :   1.2858
B( 11-N , 12-C ) :   0.9965 B( 11-N , 29-H ) :   0.9513 B( 12-C , 13-C ) :   0.9337
B( 12-C , 30-H ) :   1.0086 B( 13-C , 14-C ) :   1.3617 B( 13-C , 19-C ) :   1.3576
B( 14-C , 15-C ) :   1.3967 B( 14-C , 31-H ) :   0.9719 B( 15-C , 16-C ) :   1.3635
B( 15-C , 32-H ) :   0.9702 B( 16-C , 17-C ) :   1.3269 B( 16-C , 33-H ) :   0.9833
B( 17-C , 18-O ) :   1.1141 B( 17-C , 19-C ) :   1.3669 B( 18-O , 34-H ) :   0.9786
B( 19-C , 35-H ) :   0.9529

MP2 TOTAL ENERGY:    -1274.323466193 Eh
FINAL SINGLE POINT ENERGY     -1274.323466193212

DIPOLE MOMENT
-------------
                                X             Y             Z
Electronic contribution:      9.50652       6.40325       5.61498
Nuclear contribution   :    -10.82908      -8.05230      -5.22350
                        -----------------------------------------
Total Dipole Moment    :     -1.32256      -1.64905       0.39149
                        -----------------------------------------
Magnitude (a.u.)       :      2.14984
Magnitude (Debye)      :      5.46445

Rotational constants in cm-1:     0.012112     0.009618     0.006670
Rotational constants in MHz :   363.118844   288.328588   199.958228

                             ****ORCA TERMINATED NORMALLY****
TOTAL RUN TIME: 0 days 1 hours 51 minutes 23 seconds 322 msec
