                         Program Version 4.2.0 -  RELEASE  -
|  1> ! ri-mp2 cc-pvtz cc-pvtz/c TightSCF  NoKeepInts
|  2>
|  3> %scf
|  4>   MaxCore 4096
|  5> end
|  6> *xyz  0  1
|  7>     C       14.8853157   14.0775564   16.4863766
|  8>     C       15.4816949   15.4788022   16.6957769
|  9>     O       16.6766383   15.5589966   15.8962635
| 10>     C       17.8773778   15.6811196   16.5329162
| 11>     O       18.6080902   14.7151395   16.6571270
| 12>     C       18.0059774   16.8968765   17.4005065
| 13>     C       17.5174681   18.1162460   17.0644240
| 14>     C       16.8184631   18.5049653   15.7784265
| 15>     N       17.7213592   19.2047920   17.9171194
| 16>     C       18.5140354   19.1833126   19.0349886
| 17>     S       18.7878127   20.5445455   19.9328714
| 18>     N       19.0658358   17.9726453   19.3734830
| 19>     C       18.7561494   16.6872659   18.7176087
| 20>     C       17.9539584   15.7799153   19.6468128
| 21>     C       18.3294394   14.4359408   19.8257629
| 22>     C       17.5808300   13.5870023   20.6578100
| 23>     C       16.4440573   14.0845253   21.3169800
| 24>     C       16.0633990   15.4210853   21.1382960
| 25>     O       14.9587636   15.9018884   21.7620665
| 26>     C       16.8100432   16.2637400   20.3088157
| 27>     H       15.5926910   13.3066627   16.8185864
| 28>     H       14.6603770   13.9056987   15.4263930
| 29>     H       13.9578246   13.9622585   17.0600882
| 30>     H       14.7572815   16.2344982   16.3673809
| 31>     H       15.6894285   15.6337897   17.7630183
| 32>     H       17.1785862   17.9094099   14.9300029
| 33>     H       16.9971713   19.5557649   15.5181228
| 34>     H       15.7350290   18.3598483   15.8582968
| 35>     H       17.3311545   20.1039779   17.6824778
| 36>     H       19.6268601   17.9802503   20.2159489
| 37>     H       19.7100197   16.1901131   18.4873868
| 38>     H       19.1966649   14.0422403   19.3000734
| 39>     H       17.8797753   12.5475360   20.7820748
| 40>     H       15.8614822   13.4308719   21.9577703
| 41>     H       14.6197229   15.1978733   22.3356258
| 42>     H       16.4962224   17.2948457   20.1863206
| 43> *
| 44>
| 45>                          ****END OF INPUT****

CARTESIAN COORDINATES (ANGSTROEM)
---------------------------------
  C     14.885316   14.077556   16.486377
  C     15.481695   15.478802   16.695777
  O     16.676638   15.558997   15.896263
  C     17.877378   15.681120   16.532916
  O     18.608090   14.715139   16.657127
  C     18.005977   16.896877   17.400506
  C     17.517468   18.116246   17.064424
  C     16.818463   18.504965   15.778426
  N     17.721359   19.204792   17.917119
  C     18.514035   19.183313   19.034989
  S     18.787813   20.544545   19.932871
  N     19.065836   17.972645   19.373483
  C     18.756149   16.687266   18.717609
  C     17.953958   15.779915   19.646813
  C     18.329439   14.435941   19.825763
  C     17.580830   13.587002   20.657810
  C     16.444057   14.084525   21.316980
  C     16.063399   15.421085   21.138296
  O     14.958764   15.901888   21.762066
  C     16.810043   16.263740   20.308816
  H     15.592691   13.306663   16.818586
  H     14.660377   13.905699   15.426393
  H     13.957825   13.962259   17.060088
  H     14.757281   16.234498   16.367381
  H     15.689428   15.633790   17.763018
  H     17.178586   17.909410   14.930003
  H     16.997171   19.555765   15.518123
  H     15.735029   18.359848   15.858297
  H     17.331155   20.103978   17.682478
  H     19.626860   17.980250   20.215949
  H     19.710020   16.190113   18.487387
  H     19.196665   14.042240   19.300073
  H     17.879775   12.547536   20.782075
  H     15.861482   13.430872   21.957770
  H     14.619723   15.197873   22.335626
  H     16.496222   17.294846   20.186321

 Total Charge           Charge          ....    0
 Multiplicity           Mult            ....    1
 Number of Electrons    NEL             ....  154
 Basis Dimension        Dim             ....  828

ORBITAL ENERGIES
----------------

  NO   OCC          E(Eh)            E(eV)
   0   2.0000     -91.891121     -2500.4845
   1   2.0000     -20.598427      -560.5117
   2   2.0000     -20.586911      -560.1983
   3   2.0000     -20.554830      -559.3254
   4   2.0000     -15.630618      -425.3307
   5   2.0000     -15.610635      -424.7870
   6   2.0000     -11.395163      -310.0781
   7   2.0000     -11.386833      -309.8515
   8   2.0000     -11.336460      -308.4808
   9   2.0000     -11.315043      -307.8980
  10   2.0000     -11.310932      -307.7861
  11   2.0000     -11.302866      -307.5666
  12   2.0000     -11.264615      -306.5258
  13   2.0000     -11.262326      -306.4635
  14   2.0000     -11.260828      -306.4227
  15   2.0000     -11.254845      -306.2599
  16   2.0000     -11.244428      -305.9764
  17   2.0000     -11.240652      -305.8737
  18   2.0000     -11.237181      -305.7792
  19   2.0000     -11.226227      -305.4812
  20   2.0000      -8.896191      -242.0777
  21   2.0000      -6.577767      -178.9901
  22   2.0000      -6.575757      -178.9354
  23   2.0000      -6.575170      -178.9195
  24   2.0000      -1.450463       -39.4691
  25   2.0000      -1.418258       -38.5928
  26   2.0000      -1.359283       -36.9880
  27   2.0000      -1.342095       -36.5203
  28   2.0000      -1.240327       -33.7510
  29   2.0000      -1.159290       -31.5459
  30   2.0000      -1.123915       -30.5833
  31   2.0000      -1.046921       -28.4882
  32   2.0000      -1.034431       -28.1483
  33   2.0000      -1.016849       -27.6699
  34   2.0000      -1.003145       -27.2970
  35   2.0000      -0.988180       -26.8897
  36   2.0000      -0.926354       -25.2074
  37   2.0000      -0.879727       -23.9386
  38   2.0000      -0.854406       -23.2496
  39   2.0000      -0.842643       -22.9295
  40   2.0000      -0.835232       -22.7278
  41   2.0000      -0.833844       -22.6900
  42   2.0000      -0.753739       -20.5103
  43   2.0000      -0.736681       -20.0461
  44   2.0000      -0.730652       -19.8821
  45   2.0000      -0.696595       -18.9553
  46   2.0000      -0.688040       -18.7225
  47   2.0000      -0.679049       -18.4779
  48   2.0000      -0.677057       -18.4236
  49   2.0000      -0.664126       -18.0718
  50   2.0000      -0.652654       -17.7596
  51   2.0000      -0.648964       -17.6592
  52   2.0000      -0.640920       -17.4403
  53   2.0000      -0.609010       -16.5720
  54   2.0000      -0.606724       -16.5098
  55   2.0000      -0.602363       -16.3911
  56   2.0000      -0.592059       -16.1107
  57   2.0000      -0.583296       -15.8723
  58   2.0000      -0.578759       -15.7488
  59   2.0000      -0.571205       -15.5433
  60   2.0000      -0.563958       -15.3461
  61   2.0000      -0.556494       -15.1430
  62   2.0000      -0.541913       -14.7462
  63   2.0000      -0.524526       -14.2731
  64   2.0000      -0.515524       -14.0281
  65   2.0000      -0.513873       -13.9832
  66   2.0000      -0.502251       -13.6669
  67   2.0000      -0.498230       -13.5575
  68   2.0000      -0.485780       -13.2187
  69   2.0000      -0.469836       -12.7849
  70   2.0000      -0.457626       -12.4526
  71   2.0000      -0.450785       -12.2665
  72   2.0000      -0.357766        -9.7353
  73   2.0000      -0.350497        -9.5375
  74   2.0000      -0.330406        -8.9908
  75   2.0000      -0.322437        -8.7740
  76   2.0000      -0.318923        -8.6783
  77   0.0000       0.072150         1.9633
  78   0.0000       0.104268         2.8373
  79   0.0000       0.118477         3.2239
  80   0.0000       0.130159         3.5418
  81   0.0000       0.135222         3.6796

MULLIKEN ATOMIC CHARGES
-----------------------
   0 C :   -0.253720
   1 C :    0.018675
   2 O :   -0.358269
   3 C :    0.457935
   4 O :   -0.385228
   5 C :   -0.237872
   6 C :    0.157759
   7 C :   -0.302819
   8 N :   -0.127695
   9 C :    0.197618
  10 S :   -0.436535
  11 N :   -0.204283
  12 C :    0.063758
  13 C :    0.032535
  14 C :   -0.175209
  15 C :   -0.133810
  16 C :   -0.276842
  17 C :    0.321924
  18 O :   -0.359138
  19 C :   -0.294103
  20 H :    0.108246
  21 H :    0.098054
  22 H :    0.087177
  23 H :    0.094069
  24 H :    0.107461
  25 H :    0.136114
  26 H :    0.116567
  27 H :    0.120725
  28 H :    0.197651
  29 H :    0.195413
  30 H :    0.159305
  31 H :    0.164673
  32 H :    0.162937
  33 H :    0.132001
  34 H :    0.241355
  35 H :    0.173571
Sum of atomic charges:   -0.0000000

LOEWDIN ATOMIC CHARGES
----------------------
   0 C :    0.109403
   1 C :   -0.019421
   2 O :    0.293107
   3 C :   -0.421615
   4 O :    0.130857
   5 C :   -0.093951
   6 C :   -0.078015
   7 C :    0.128113
   8 N :    0.404104
   9 C :   -0.458258
  10 S :   -0.034119
  11 N :    0.397089
  12 C :   -0.045744
  13 C :   -0.043502
  14 C :    0.021919
  15 C :    0.043826
  16 C :   -0.000962
  17 C :   -0.195106
  18 O :    0.394017
  19 C :    0.026108
  20 H :   -0.021393
  21 H :   -0.026146
  22 H :   -0.027867
  23 H :   -0.034484
  24 H :   -0.030926
  25 H :   -0.006251
  26 H :   -0.015981
  27 H :   -0.014960
  28 H :   -0.057850
  29 H :   -0.063671
  30 H :   -0.003295
  31 H :   -0.022813
  32 H :   -0.019233
  33 H :   -0.034979
  34 H :   -0.153262
  35 H :   -0.024736

  Mayer bond orders larger than 0.100000
B(  0-C ,  1-C ) :   0.9900 B(  0-C , 20-H ) :   0.9762 B(  0-C , 21-H ) :   0.9788
B(  0-C , 22-H ) :   0.9761 B(  1-C ,  2-O ) :   0.8851 B(  1-C , 23-H ) :   0.9787
B(  1-C , 24-H ) :   0.9613 B(  2-O ,  3-C ) :   1.1292 B(  3-C ,  4-O ) :   2.0658
B(  3-C ,  5-C ) :   0.9774 B(  5-C ,  6-C ) :   1.6634 B(  5-C , 12-C ) :   0.9582
B(  6-C ,  7-C ) :   0.9487 B(  6-C ,  8-N ) :   1.1363 B(  7-C , 25-H ) :   0.9694
B(  7-C , 26-H ) :   0.9838 B(  7-C , 27-H ) :   0.9658 B(  8-N ,  9-C ) :   1.1840
B(  8-N , 28-H ) :   0.9501 B(  9-C , 10-S ) :   1.6150 B(  9-C , 11-N ) :   1.2964
B( 11-N , 12-C ) :   0.9944 B( 11-N , 29-H ) :   0.9513 B( 12-C , 13-C ) :   0.9430
B( 12-C , 30-H ) :   0.9985 B( 13-C , 14-C ) :   1.3855 B( 13-C , 19-C ) :   1.3491
B( 14-C , 15-C ) :   1.3962 B( 14-C , 31-H ) :   0.9602 B( 15-C , 16-C ) :   1.3638
B( 15-C , 32-H ) :   0.9703 B( 16-C , 17-C ) :   1.3308 B( 16-C , 33-H ) :   0.9843
B( 17-C , 18-O ) :   1.1106 B( 17-C , 19-C ) :   1.3675 B( 18-O , 34-H ) :   0.9795
B( 19-C , 35-H ) :   0.9596

MP2 TOTAL ENERGY:    -1274.330218690 Eh
FINAL SINGLE POINT ENERGY     -1274.330218689981

DIPOLE MOMENT
-------------
                                X             Y             Z
Electronic contribution:     10.75866       9.31937       6.98397
Nuclear contribution   :    -12.20522     -10.28094      -7.35347
                        -----------------------------------------
Total Dipole Moment    :     -1.44656      -0.96157      -0.36950
                        -----------------------------------------
Magnitude (a.u.)       :      1.77586
Magnitude (Debye)      :      4.51388

Rotational constants in cm-1:     0.011807     0.009252     0.006635
Rotational constants in MHz :   353.958379   277.381340   198.913074

                             ****ORCA TERMINATED NORMALLY****
TOTAL RUN TIME: 0 days 1 hours 41 minutes 26 seconds 142 msec
