                         Program Version 4.2.0 -  RELEASE  -
|  1> ! ri-mp2 cc-pvtz cc-pvtz/c TightSCF  NoKeepInts
|  2>
|  3> %scf
|  4>   MaxCore 4096
|  5> end
|  6> *xyz  0  1
|  7>     C       15.5992990   13.6465588   15.4776522
|  8>     C       15.1357797   15.1101778   15.6393536
|  9>     O       16.1726510   16.0625699   15.9946975
| 10>     C       17.3084647   15.8167281   16.7230551
| 11>     O       17.8202925   14.7177523   16.8481648
| 12>     C       17.7298435   16.9746790   17.5847814
| 13>     C       17.3669462   18.2701571   17.3880406
| 14>     C       16.5028829   18.8434685   16.2830457
| 15>     N       17.8717714   19.2682285   18.2284665
| 16>     C       18.8461367   19.0806268   19.1726294
| 17>     S       19.4794623   20.3422622   20.0345504
| 18>     N       19.2688721   17.7903189   19.3650637
| 19>     C       18.6454521   16.6001362   18.7568889
| 20>     C       17.8858620   15.7982472   19.8108870
| 21>     C       18.1616180   14.4316154   20.0016897
| 22>     C       17.4634097   13.6874097   20.9673703
| 23>     C       16.4795366   14.3142797   21.7506982
| 24>     C       16.1987895   15.6742137   21.5613819
| 25>     O       15.2446717   16.2808875   22.3117369
| 26>     C       16.8950361   16.4121701   20.5990099
| 27>     H       16.4730809   13.5814851   14.8170854
| 28>     H       14.7975701   13.0414629   15.0378257
| 29>     H       15.8532561   13.2001632   16.4472962
| 30>     H       14.6650684   15.4406942   14.7046005
| 31>     H       14.3597609   15.1319639   16.4155175
| 32>     H       15.4539632   18.5538697   16.4221919
| 33>     H       16.8292599   18.4755473   15.3022784
| 34>     H       16.5402881   19.9388233   16.2416817
| 35>     H       17.5745427   20.2224971   18.1023975
| 36>     H       19.9659331   17.6734169   20.0891436
| 37>     H       19.4545614   15.9688855   18.3617515
| 38>     H       18.9097612   13.9403054   19.3842283
| 39>     H       17.6824243   12.6295056   21.1002203
| 40>     H       15.9366635   13.7428622   22.4961115
| 41>     H       14.9099181   15.6238940   22.9402670
| 42>     H       16.6641704   17.4641362   20.4722392
| 43> *
| 44>
| 45>                          ****END OF INPUT****

CARTESIAN COORDINATES (ANGSTROEM)
---------------------------------
  C     15.599299   13.646559   15.477652
  C     15.135780   15.110178   15.639354
  O     16.172651   16.062570   15.994697
  C     17.308465   15.816728   16.723055
  O     17.820293   14.717752   16.848165
  C     17.729844   16.974679   17.584781
  C     17.366946   18.270157   17.388041
  C     16.502883   18.843468   16.283046
  N     17.871771   19.268228   18.228466
  C     18.846137   19.080627   19.172629
  S     19.479462   20.342262   20.034550
  N     19.268872   17.790319   19.365064
  C     18.645452   16.600136   18.756889
  C     17.885862   15.798247   19.810887
  C     18.161618   14.431615   20.001690
  C     17.463410   13.687410   20.967370
  C     16.479537   14.314280   21.750698
  C     16.198790   15.674214   21.561382
  O     15.244672   16.280887   22.311737
  C     16.895036   16.412170   20.599010
  H     16.473081   13.581485   14.817085
  H     14.797570   13.041463   15.037826
  H     15.853256   13.200163   16.447296
  H     14.665068   15.440694   14.704600
  H     14.359761   15.131964   16.415517
  H     15.453963   18.553870   16.422192
  H     16.829260   18.475547   15.302278
  H     16.540288   19.938823   16.241682
  H     17.574543   20.222497   18.102397
  H     19.965933   17.673417   20.089144
  H     19.454561   15.968886   18.361752
  H     18.909761   13.940305   19.384228
  H     17.682424   12.629506   21.100220
  H     15.936663   13.742862   22.496111
  H     14.909918   15.623894   22.940267
  H     16.664170   17.464136   20.472239

 Total Charge           Charge          ....    0
 Multiplicity           Mult            ....    1
 Number of Electrons    NEL             ....  154
 Basis Dimension        Dim             ....  828

ORBITAL ENERGIES
----------------

  NO   OCC          E(Eh)            E(eV)
   0   2.0000     -91.887254     -2500.3793
   1   2.0000     -20.597903      -560.4974
   2   2.0000     -20.591860      -560.3330
   3   2.0000     -20.545743      -559.0781
   4   2.0000     -15.627100      -425.2350
   5   2.0000     -15.605988      -424.6605
   6   2.0000     -11.398848      -310.1784
   7   2.0000     -11.382073      -309.7219
   8   2.0000     -11.334354      -308.4235
   9   2.0000     -11.307700      -307.6982
  10   2.0000     -11.306852      -307.6751
  11   2.0000     -11.304871      -307.6212
  12   2.0000     -11.259224      -306.3791
  13   2.0000     -11.257856      -306.3418
  14   2.0000     -11.253473      -306.2226
  15   2.0000     -11.247943      -306.0721
  16   2.0000     -11.237508      -305.7881
  17   2.0000     -11.233472      -305.6783
  18   2.0000     -11.230562      -305.5991
  19   2.0000     -11.223667      -305.4115
  20   2.0000      -8.892326      -241.9725
  21   2.0000      -6.573907      -178.8851
  22   2.0000      -6.571898      -178.8304
  23   2.0000      -6.571315      -178.8146
  24   2.0000      -1.445279       -39.3280
  25   2.0000      -1.411597       -38.4115
  26   2.0000      -1.357144       -36.9298
  27   2.0000      -1.338311       -36.4173
  28   2.0000      -1.236084       -33.6356
  29   2.0000      -1.151941       -31.3459
  30   2.0000      -1.118183       -30.4273
  31   2.0000      -1.041736       -28.3471
  32   2.0000      -1.034100       -28.1393
  33   2.0000      -1.009502       -27.4700
  34   2.0000      -0.996498       -27.1161
  35   2.0000      -0.981765       -26.7152
  36   2.0000      -0.920970       -25.0609
  37   2.0000      -0.895504       -24.3679
  38   2.0000      -0.847360       -23.0578
  39   2.0000      -0.835654       -22.7393
  40   2.0000      -0.828032       -22.5319
  41   2.0000      -0.818231       -22.2652
  42   2.0000      -0.743335       -20.2272
  43   2.0000      -0.726093       -19.7580
  44   2.0000      -0.724360       -19.7108
  45   2.0000      -0.690386       -18.7864
  46   2.0000      -0.683756       -18.6059
  47   2.0000      -0.678042       -18.4505
  48   2.0000      -0.672297       -18.2941
  49   2.0000      -0.665527       -18.1099
  50   2.0000      -0.645576       -17.5670
  51   2.0000      -0.643214       -17.5027
  52   2.0000      -0.634229       -17.2583
  53   2.0000      -0.603091       -16.4110
  54   2.0000      -0.599466       -16.3123
  55   2.0000      -0.598966       -16.2987
  56   2.0000      -0.595380       -16.2011
  57   2.0000      -0.581953       -15.8358
  58   2.0000      -0.572432       -15.5767
  59   2.0000      -0.570999       -15.5377
  60   2.0000      -0.558826       -15.2064
  61   2.0000      -0.543436       -14.7876
  62   2.0000      -0.537037       -14.6135
  63   2.0000      -0.524590       -14.2748
  64   2.0000      -0.517095       -14.0709
  65   2.0000      -0.510223       -13.8839
  66   2.0000      -0.498834       -13.5740
  67   2.0000      -0.494539       -13.4571
  68   2.0000      -0.479193       -13.0395
  69   2.0000      -0.461463       -12.5570
  70   2.0000      -0.454854       -12.3772
  71   2.0000      -0.445810       -12.1311
  72   2.0000      -0.352964        -9.6046
  73   2.0000      -0.343948        -9.3593
  74   2.0000      -0.326473        -8.8838
  75   2.0000      -0.315264        -8.5788
  76   2.0000      -0.313631        -8.5343
  77   0.0000       0.076586         2.0840
  78   0.0000       0.112206         3.0533
  79   0.0000       0.121585         3.3085
  80   0.0000       0.135851         3.6967
  81   0.0000       0.139164         3.7868

MULLIKEN ATOMIC CHARGES
-----------------------
   0 C :   -0.284483
   1 C :    0.048525
   2 O :   -0.366892
   3 C :    0.438404
   4 O :   -0.422162
   5 C :   -0.149918
   6 C :    0.141673
   7 C :   -0.286467
   8 N :   -0.122248
   9 C :    0.201138
  10 S :   -0.440897
  11 N :   -0.198046
  12 C :    0.036072
  13 C :    0.055474
  14 C :   -0.165258
  15 C :   -0.134215
  16 C :   -0.279446
  17 C :    0.311467
  18 O :   -0.358947
  19 C :   -0.272311
  20 H :    0.106501
  21 H :    0.095052
  22 H :    0.114933
  23 H :    0.096129
  24 H :    0.088574
  25 H :    0.125419
  26 H :    0.126380
  27 H :    0.102801
  28 H :    0.196523
  29 H :    0.193660
  30 H :    0.154976
  31 H :    0.154863
  32 H :    0.159396
  33 H :    0.128161
  34 H :    0.240021
  35 H :    0.165149
Sum of atomic charges:   -0.0000000

LOEWDIN ATOMIC CHARGES
----------------------
   0 C :    0.102894
   1 C :   -0.009448
   2 O :    0.290629
   3 C :   -0.411681
   4 O :    0.117563
   5 C :   -0.090730
   6 C :   -0.067157
   7 C :    0.124370
   8 N :    0.404409
   9 C :   -0.459106
  10 S :   -0.037267
  11 N :    0.397770
  12 C :   -0.046412
  13 C :   -0.038895
  14 C :    0.021142
  15 C :    0.040182
  16 C :   -0.002638
  17 C :   -0.192752
  18 O :    0.393015
  19 C :    0.028550
  20 H :   -0.024267
  21 H :   -0.028546
  22 H :   -0.024981
  23 H :   -0.025710
  24 H :   -0.029786
  25 H :   -0.010174
  26 H :   -0.008441
  27 H :   -0.021146
  28 H :   -0.059364
  29 H :   -0.063810
  30 H :   -0.005419
  31 H :   -0.025260
  32 H :   -0.021302
  33 H :   -0.036454
  34 H :   -0.154926
  35 H :   -0.024854

  Mayer bond orders larger than 0.100000
B(  0-C ,  1-C ) :   0.9809 B(  0-C , 20-H ) :   0.9741 B(  0-C , 21-H ) :   0.9730
B(  0-C , 22-H ) :   0.9726 B(  1-C ,  2-O ) :   0.9019 B(  1-C , 23-H ) :   0.9801
B(  1-C , 24-H ) :   0.9766 B(  2-O ,  3-C ) :   1.1190 B(  3-C ,  4-O ) :   1.9905
B(  3-C ,  5-C ) :   1.0497 B(  5-C ,  6-C ) :   1.6581 B(  5-C , 12-C ) :   0.9632
B(  6-C ,  7-C ) :   0.9539 B(  6-C ,  8-N ) :   1.1423 B(  7-C , 25-H ) :   0.9642
B(  7-C , 26-H ) :   0.9666 B(  7-C , 27-H ) :   0.9915 B(  8-N ,  9-C ) :   1.1810
B(  8-N , 28-H ) :   0.9490 B(  9-C , 10-S ) :   1.6093 B(  9-C , 11-N ) :   1.3038
B( 11-N , 12-C ) :   0.9909 B( 11-N , 29-H ) :   0.9520 B( 12-C , 13-C ) :   0.9471
B( 12-C , 30-H ) :   0.9996 B( 13-C , 14-C ) :   1.3754 B( 13-C , 19-C ) :   1.3695
B( 14-C , 15-C ) :   1.3940 B( 14-C , 31-H ) :   0.9646 B( 15-C , 16-C ) :   1.3626
B( 15-C , 32-H ) :   0.9713 B( 16-C , 17-C ) :   1.3315 B( 16-C , 33-H ) :   0.9860
B( 17-C , 18-O ) :   1.1081 B( 17-C , 19-C ) :   1.3783 B( 18-O , 34-H ) :   0.9806
B( 19-C , 35-H ) :   0.9584

MP2 TOTAL ENERGY:    -1274.334004876 Eh
FINAL SINGLE POINT ENERGY     -1274.334004875806

DIPOLE MOMENT
-------------
                                X             Y             Z
Electronic contribution:      9.94589      10.55273      10.21697
Nuclear contribution   :    -11.60826     -11.76683     -11.19221
                        -----------------------------------------
Total Dipole Moment    :     -1.66237      -1.21410      -0.97524
                        -----------------------------------------
Magnitude (a.u.)       :      2.27785
Magnitude (Debye)      :      5.78985

Rotational constants in cm-1:     0.010840     0.008963     0.005952
Rotational constants in MHz :   324.987261   268.715991   178.445470

                             ****ORCA TERMINATED NORMALLY****
TOTAL RUN TIME: 0 days 2 hours 18 minutes 57 seconds 855 msec
