                         Program Version 5.0.0 -  RELEASE  -
|  1> ! ri-mp2 cc-pvtz cc-pvtz/c TightSCF NoKeepInts
|  2>
|  3> %scf
|  4>   MaxCore 4096
|  5> end
|  6> *xyz  0  1
|  7>     C       15.0864602   15.6144083   17.4918262
|  8>     C       15.5532110   15.3162444   16.0512188
|  9>     O       16.9626350   14.9976906   15.9415421
| 10>     C       18.0842464   15.5947169   16.4756039
| 11>     O       19.1273587   14.9671937   16.4715300
| 12>     C       17.9335031   16.7728312   17.3835629
| 13>     C       17.4080050   17.9498363   16.9669672
| 14>     C       16.8928771   18.2877458   15.5847591
| 15>     N       17.4060413   19.0544707   17.8217312
| 16>     C       18.0559598   19.1082651   19.0266516
| 17>     S       18.0846354   20.4881413   19.9372076
| 18>     N       18.6862570   17.9598867   19.4369941
| 19>     C       18.5972018   16.6506083   18.7594656
| 20>     C       17.8926280   15.6147217   19.6326980
| 21>     C       18.3228216   14.2749727   19.6153170
| 22>     C       17.6800491   13.3038528   20.4006636
| 23>     C       16.5955697   13.6733479   21.2137541
| 24>     C       16.1616898   15.0054064   21.2345855
| 25>     O       15.1074762   15.3634589   22.0098106
| 26>     C       16.8028504   15.9704641   20.4512629
| 27>     H       15.5141449   14.8850578   18.1903747
| 28>     H       13.9953022   15.5221723   17.5529839
| 29>     H       15.3354534   16.6244251   17.8273569
| 30>     H       14.9880758   14.4513667   15.6798239
| 31>     H       15.2955695   16.1585228   15.4002560
| 32>     H       17.1565773   17.5233622   14.8437913
| 33>     H       17.3296311   19.2285833   15.2256300
| 34>     H       15.8026255   18.4057210   15.5868223
| 35>     H       16.9686086   19.9139356   17.5286544
| 36>     H       19.1482888   18.0237915   20.3353656
| 37>     H       19.6266607   16.2977345   18.5976736
| 38>     H       19.1553057   13.9823215   18.9785032
| 39>     H       18.0218707   12.2705470   20.3727509
| 40>     H       16.0950613   12.9256136   21.8200350
| 41>     H       14.8315109   14.5778656   22.5056825
| 42>     H       16.4408370   16.9927158   20.4811436
| 43> *
| 44>
| 45>                          ****END OF INPUT****

CARTESIAN COORDINATES (ANGSTROEM)
---------------------------------
  C     15.086460   15.614408   17.491826
  C     15.553211   15.316244   16.051219
  O     16.962635   14.997691   15.941542
  C     18.084246   15.594717   16.475604
  O     19.127359   14.967194   16.471530
  C     17.933503   16.772831   17.383563
  C     17.408005   17.949836   16.966967
  C     16.892877   18.287746   15.584759
  N     17.406041   19.054471   17.821731
  C     18.055960   19.108265   19.026652
  S     18.084635   20.488141   19.937208
  N     18.686257   17.959887   19.436994
  C     18.597202   16.650608   18.759466
  C     17.892628   15.614722   19.632698
  C     18.322822   14.274973   19.615317
  C     17.680049   13.303853   20.400664
  C     16.595570   13.673348   21.213754
  C     16.161690   15.005406   21.234586
  O     15.107476   15.363459   22.009811
  C     16.802850   15.970464   20.451263
  H     15.514145   14.885058   18.190375
  H     13.995302   15.522172   17.552984
  H     15.335453   16.624425   17.827357
  H     14.988076   14.451367   15.679824
  H     15.295569   16.158523   15.400256
  H     17.156577   17.523362   14.843791
  H     17.329631   19.228583   15.225630
  H     15.802625   18.405721   15.586822
  H     16.968609   19.913936   17.528654
  H     19.148289   18.023792   20.335366
  H     19.626661   16.297735   18.597674
  H     19.155306   13.982321   18.978503
  H     18.021871   12.270547   20.372751
  H     16.095061   12.925614   21.820035
  H     14.831511   14.577866   22.505682
  H     16.440837   16.992716   20.481144

 Total Charge           Charge          ....    0
 Multiplicity           Mult            ....    1
 Number of Electrons    NEL             ....  154
 Basis Dimension        Dim             ....  828

ORBITAL ENERGIES
----------------

  NO   OCC          E(Eh)            E(eV)
   0   2.0000     -91.890743     -2500.4743
   1   2.0000     -20.598435      -560.5119
   2   2.0000     -20.597564      -560.4882
   3   2.0000     -20.547152      -559.1164
   4   2.0000     -15.628770      -425.2805
   5   2.0000     -15.611289      -424.8048
   6   2.0000     -11.400673      -310.2281
   7   2.0000     -11.387088      -309.8584
   8   2.0000     -11.331740      -308.3523
   9   2.0000     -11.314150      -307.8737
  10   2.0000     -11.313702      -307.8615
  11   2.0000     -11.311244      -307.7946
  12   2.0000     -11.271250      -306.7063
  13   2.0000     -11.266613      -306.5801
  14   2.0000     -11.261550      -306.4423
  15   2.0000     -11.254713      -306.2563
  16   2.0000     -11.243915      -305.9625
  17   2.0000     -11.239299      -305.8369
  18   2.0000     -11.236257      -305.7541
  19   2.0000     -11.231488      -305.6243
  20   2.0000      -8.895841      -242.0681
  21   2.0000      -6.577427      -178.9809
  22   2.0000      -6.575403      -178.9258
  23   2.0000      -6.574825      -178.9101
  24   2.0000      -1.443167       -39.2706
  25   2.0000      -1.417382       -38.5689
  26   2.0000      -1.355236       -36.8778
  27   2.0000      -1.341767       -36.5113
  28   2.0000      -1.240654       -33.7599
  29   2.0000      -1.159068       -31.5398
  30   2.0000      -1.125444       -30.6249
  31   2.0000      -1.047902       -28.5149
  32   2.0000      -1.039614       -28.2893
  33   2.0000      -1.017230       -27.6802
  34   2.0000      -1.005971       -27.3739
  35   2.0000      -0.990445       -26.9514
  36   2.0000      -0.928232       -25.2585
  37   2.0000      -0.899026       -24.4637
  38   2.0000      -0.855163       -23.2702
  39   2.0000      -0.840959       -22.8836
  40   2.0000      -0.834476       -22.7072
  41   2.0000      -0.828809       -22.5530
  42   2.0000      -0.745930       -20.2978
  43   2.0000      -0.738351       -20.0916
  44   2.0000      -0.730581       -19.8801
  45   2.0000      -0.695186       -18.9170
  46   2.0000      -0.687183       -18.6992
  47   2.0000      -0.678776       -18.4704
  48   2.0000      -0.674641       -18.3579
  49   2.0000      -0.662235       -18.0203
  50   2.0000      -0.653681       -17.7876
  51   2.0000      -0.652080       -17.7440
  52   2.0000      -0.640926       -17.4405
  53   2.0000      -0.616380       -16.7725
  54   2.0000      -0.609641       -16.5892
  55   2.0000      -0.605661       -16.4809
  56   2.0000      -0.602161       -16.3856
  57   2.0000      -0.590886       -16.0788
  58   2.0000      -0.578282       -15.7359
  59   2.0000      -0.572360       -15.5747
  60   2.0000      -0.565711       -15.3938
  61   2.0000      -0.556495       -15.1430
  62   2.0000      -0.542156       -14.7528
  63   2.0000      -0.529907       -14.4195
  64   2.0000      -0.520523       -14.1642
  65   2.0000      -0.513463       -13.9721
  66   2.0000      -0.501279       -13.6405
  67   2.0000      -0.500589       -13.6217
  68   2.0000      -0.483185       -13.1481
  69   2.0000      -0.465903       -12.6779
  70   2.0000      -0.454292       -12.3619
  71   2.0000      -0.449901       -12.2424
  72   2.0000      -0.356960        -9.7134
  73   2.0000      -0.348648        -9.4872
  74   2.0000      -0.330288        -8.9876
  75   2.0000      -0.323042        -8.7904
  76   2.0000      -0.318962        -8.6794
  77   0.0000       0.082658         2.2492
  78   0.0000       0.107614         2.9283
  79   0.0000       0.113461         3.0874
  80   0.0000       0.130493         3.5509
  81   0.0000       0.131022         3.5653

MULLIKEN ATOMIC CHARGES
-----------------------
   0 C :   -0.334465
   1 C :    0.029817
   2 O :   -0.326258
   3 C :    0.420022
   4 O :   -0.385873
   5 C :   -0.200711
   6 C :    0.141595
   7 C :   -0.336844
   8 N :   -0.136545
   9 C :    0.200959
  10 S :   -0.439530
  11 N :   -0.222380
  12 C :    0.079923
  13 C :    0.021114
  14 C :   -0.210566
  15 C :   -0.135370
  16 C :   -0.277335
  17 C :    0.316437
  18 O :   -0.358323
  19 C :   -0.269891
  20 H :    0.129274
  21 H :    0.117171
  22 H :    0.109223
  23 H :    0.134227
  24 H :    0.085514
  25 H :    0.130338
  26 H :    0.139552
  27 H :    0.122284
  28 H :    0.197067
  29 H :    0.201429
  30 H :    0.168052
  31 H :    0.176145
  32 H :    0.163803
  33 H :    0.132007
  34 H :    0.241084
  35 H :    0.177052
Sum of atomic charges:   -0.0000000

LOEWDIN ATOMIC CHARGES
----------------------
   0 C :    0.103961
   1 C :   -0.017206
   2 O :    0.295952
   3 C :   -0.415151
   4 O :    0.121197
   5 C :   -0.079579
   6 C :   -0.097456
   7 C :    0.124041
   8 N :    0.402626
   9 C :   -0.458159
  10 S :   -0.036771
  11 N :    0.398448
  12 C :   -0.042544
  13 C :   -0.042947
  14 C :    0.020138
  15 C :    0.043553
  16 C :   -0.001847
  17 C :   -0.194069
  18 O :    0.395300
  19 C :    0.028713
  20 H :   -0.019353
  21 H :   -0.023680
  22 H :   -0.036935
  23 H :   -0.016837
  24 H :   -0.039831
  25 H :   -0.007814
  26 H :   -0.009036
  27 H :   -0.017842
  28 H :   -0.057557
  29 H :   -0.063291
  30 H :   -0.001529
  31 H :   -0.021714
  32 H :   -0.018610
  33 H :   -0.035006
  34 H :   -0.153593
  35 H :   -0.025572

  Mayer bond orders larger than 0.100000
B(  0-C ,  1-C ) :   0.9545 B(  0-C , 20-H ) :   0.9677 B(  0-C , 21-H ) :   0.9771
B(  0-C , 22-H ) :   0.9731 B(  1-C ,  2-O ) :   0.9080 B(  1-C , 23-H ) :   0.9804
B(  1-C , 24-H ) :   0.9738 B(  2-O ,  3-C ) :   1.1809 B(  3-C ,  4-O ) :   2.0748
B(  3-C ,  5-C ) :   0.9257 B(  5-C ,  6-C ) :   1.6944 B(  5-C , 12-C ) :   0.9559
B(  6-C ,  7-C ) :   0.9447 B(  6-C ,  8-N ) :   1.1036 B(  7-C , 25-H ) :   0.9799
B(  7-C , 26-H ) :   0.9721 B(  7-C , 27-H ) :   0.9648 B(  8-N ,  9-C ) :   1.1934
B(  8-N , 28-H ) :   0.9521 B(  9-C , 10-S ) :   1.6108 B(  9-C , 11-N ) :   1.2889
B( 11-N , 12-C ) :   0.9882 B( 11-N , 29-H ) :   0.9485 B( 12-C , 13-C ) :   0.9477
B( 12-C , 30-H ) :   0.9950 B( 13-C , 14-C ) :   1.3909 B( 13-C , 19-C ) :   1.3420
B( 14-C , 15-C ) :   1.3999 B( 14-C , 31-H ) :   0.9577 B( 15-C , 16-C ) :   1.3592
B( 15-C , 32-H ) :   0.9703 B( 16-C , 17-C ) :   1.3300 B( 16-C , 33-H ) :   0.9849
B( 17-C , 18-O ) :   1.1106 B( 17-C , 19-C ) :   1.3709 B( 18-O , 34-H ) :   0.9797
B( 19-C , 35-H ) :   0.9570

MP2 TOTAL ENERGY:    -1274.326714788 Eh
FINAL SINGLE POINT ENERGY     -1274.326714788441

DIPOLE MOMENT
-------------
                                X             Y             Z
Electronic contribution:      9.35091       5.85309       6.36266
Nuclear contribution   :    -10.94923      -6.84304      -7.01852
                        -----------------------------------------
Total Dipole Moment    :     -1.59831      -0.98995      -0.65586
                        -----------------------------------------
Magnitude (a.u.)       :      1.99117
Magnitude (Debye)      :      5.06116

Rotational constants in cm-1:     0.011699     0.009642     0.006831
Rotational constants in MHz :   350.720188   289.057682   204.791720

                             ****ORCA TERMINATED NORMALLY****
TOTAL RUN TIME: 0 days 2 hours 18 minutes 18 seconds 883 msec
