                         Program Version 5.0.0 -  RELEASE  -
|  1> ! ri-mp2 cc-pvtz cc-pvtz/c TightSCF NoKeepInts
|  2>
|  3> %scf
|  4>   MaxCore 4096
|  5> end
|  6> *xyz  0  1
|  7>     C       15.1051214   14.2167731   16.9544554
|  8>     C       16.4417379   13.9794048   16.2165452
|  9>     O       17.3931046   15.0232157   16.5113504
| 10>     C       17.0671499   16.3419909   16.3548060
| 11>     O       16.2759637   16.7165657   15.5060059
| 12>     C       17.7063205   17.2296257   17.3866498
| 13>     C       17.5545815   18.5783188   17.3803344
| 14>     C       16.7572335   19.4062327   16.3953904
| 15>     N       18.2037725   19.3613929   18.3395151
| 16>     C       19.0986539   18.8887313   19.2619322
| 17>     S       19.8989623   19.8966132   20.3009531
| 18>     N       19.3013289   17.5323701   19.2788850
| 19>     C       18.5429427   16.5499306   18.4830588
| 20>     C       17.6830212   15.6935409   19.4081143
| 21>     C       17.9755033   14.3291498   19.5932404
| 22>     C       17.1827072   13.5364372   20.4401642
| 23>     C       16.0903696   14.1130376   21.1104644
| 24>     C       15.7997686   15.4726940   20.9329864
| 25>     O       14.7456380   16.0321810   21.5783034
| 26>     C       16.5900389   16.2588241   20.0888954
| 27>     H       15.2742636   14.3635007   18.0280678
| 28>     H       14.4464208   13.3488186   16.8318051
| 29>     H       14.5739433   15.0923304   16.5620421
| 30>     H       16.8610809   13.0123421   16.5219617
| 31>     H       16.2551929   13.9418583   15.1348648
| 32>     H       17.1089045   19.2318517   15.3705277
| 33>     H       16.8226279   20.4834432   16.5880376
| 34>     H       15.6962787   19.1270688   16.4285996
| 35>     H       18.0688361   20.3598200   18.3403319
| 36>     H       19.9392638   17.2102835   19.9952060
| 37>     H       19.2750227   15.8976951   17.9863923
| 38>     H       18.8166378   13.8799575   19.0720044
| 39>     H       17.4158949   12.4817015   20.5753467
| 40>     H       15.4754117   13.5051795   21.7659842
| 41>     H       14.3510573   15.3486638   22.1404439
| 42>     H       16.3522428   17.3104554   19.9703339
| 43> *
| 44>
| 45>                          ****END OF INPUT****

CARTESIAN COORDINATES (ANGSTROEM)
---------------------------------
  C     15.105121   14.216773   16.954455
  C     16.441738   13.979405   16.216545
  O     17.393105   15.023216   16.511350
  C     17.067150   16.341991   16.354806
  O     16.275964   16.716566   15.506006
  C     17.706321   17.229626   17.386650
  C     17.554581   18.578319   17.380334
  C     16.757234   19.406233   16.395390
  N     18.203772   19.361393   18.339515
  C     19.098654   18.888731   19.261932
  S     19.898962   19.896613   20.300953
  N     19.301329   17.532370   19.278885
  C     18.542943   16.549931   18.483059
  C     17.683021   15.693541   19.408114
  C     17.975503   14.329150   19.593240
  C     17.182707   13.536437   20.440164
  C     16.090370   14.113038   21.110464
  C     15.799769   15.472694   20.932986
  O     14.745638   16.032181   21.578303
  C     16.590039   16.258824   20.088895
  H     15.274264   14.363501   18.028068
  H     14.446421   13.348819   16.831805
  H     14.573943   15.092330   16.562042
  H     16.861081   13.012342   16.521962
  H     16.255193   13.941858   15.134865
  H     17.108905   19.231852   15.370528
  H     16.822628   20.483443   16.588038
  H     15.696279   19.127069   16.428600
  H     18.068836   20.359820   18.340332
  H     19.939264   17.210283   19.995206
  H     19.275023   15.897695   17.986392
  H     18.816638   13.879957   19.072004
  H     17.415895   12.481701   20.575347
  H     15.475412   13.505180   21.765984
  H     14.351057   15.348664   22.140444
  H     16.352243   17.310455   19.970334

 Total Charge           Charge          ....    0
 Multiplicity           Mult            ....    1
 Number of Electrons    NEL             ....  154
 Basis Dimension        Dim             ....  828

ORBITAL ENERGIES
----------------

  NO   OCC          E(Eh)            E(eV)
   0   2.0000     -91.889374     -2500.4370
   1   2.0000     -20.598423      -560.5116
   2   2.0000     -20.594955      -560.4172
   3   2.0000     -20.541802      -558.9708
   4   2.0000     -15.629622      -425.3036
   5   2.0000     -15.608746      -424.7356
   6   2.0000     -11.394556      -310.0616
   7   2.0000     -11.384481      -309.7875
   8   2.0000     -11.336434      -308.4800
   9   2.0000     -11.315949      -307.9226
  10   2.0000     -11.309555      -307.7486
  11   2.0000     -11.298119      -307.4374
  12   2.0000     -11.261391      -306.4380
  13   2.0000     -11.258970      -306.3722
  14   2.0000     -11.257423      -306.3301
  15   2.0000     -11.252395      -306.1932
  16   2.0000     -11.245245      -305.9987
  17   2.0000     -11.240318      -305.8646
  18   2.0000     -11.240031      -305.8568
  19   2.0000     -11.220820      -305.3340
  20   2.0000      -8.894430      -242.0297
  21   2.0000      -6.576003      -178.9421
  22   2.0000      -6.574000      -178.8876
  23   2.0000      -6.573411      -178.8716
  24   2.0000      -1.447837       -39.3976
  25   2.0000      -1.418138       -38.5895
  26   2.0000      -1.352668       -36.8080
  27   2.0000      -1.340566       -36.4787
  28   2.0000      -1.239084       -33.7172
  29   2.0000      -1.159509       -31.5519
  30   2.0000      -1.121011       -30.5043
  31   2.0000      -1.043913       -28.4063
  32   2.0000      -1.033041       -28.1105
  33   2.0000      -1.017153       -27.6781
  34   2.0000      -0.996115       -27.1057
  35   2.0000      -0.984911       -26.8008
  36   2.0000      -0.923463       -25.1287
  37   2.0000      -0.896009       -24.3817
  38   2.0000      -0.847631       -23.0652
  39   2.0000      -0.839533       -22.8449
  40   2.0000      -0.835905       -22.7461
  41   2.0000      -0.815981       -22.2040
  42   2.0000      -0.749696       -20.4003
  43   2.0000      -0.733649       -19.9636
  44   2.0000      -0.723145       -19.6778
  45   2.0000      -0.697488       -18.9796
  46   2.0000      -0.689547       -18.7635
  47   2.0000      -0.676389       -18.4055
  48   2.0000      -0.670692       -18.2505
  49   2.0000      -0.661975       -18.0132
  50   2.0000      -0.649689       -17.6789
  51   2.0000      -0.641458       -17.4550
  52   2.0000      -0.633892       -17.2491
  53   2.0000      -0.616302       -16.7704
  54   2.0000      -0.608734       -16.5645
  55   2.0000      -0.601663       -16.3721
  56   2.0000      -0.599747       -16.3200
  57   2.0000      -0.579030       -15.7562
  58   2.0000      -0.571101       -15.5404
  59   2.0000      -0.566876       -15.4255
  60   2.0000      -0.555052       -15.1037
  61   2.0000      -0.543736       -14.7958
  62   2.0000      -0.533748       -14.5240
  63   2.0000      -0.526863       -14.3367
  64   2.0000      -0.526147       -14.3172
  65   2.0000      -0.513850       -13.9826
  66   2.0000      -0.502386       -13.6706
  67   2.0000      -0.500898       -13.6301
  68   2.0000      -0.480534       -13.0760
  69   2.0000      -0.465216       -12.6592
  70   2.0000      -0.453613       -12.3434
  71   2.0000      -0.444597       -12.0981
  72   2.0000      -0.354907        -9.6575
  73   2.0000      -0.351342        -9.5605
  74   2.0000      -0.328896        -8.9497
  75   2.0000      -0.323753        -8.8098
  76   2.0000      -0.316705        -8.6180
  77   0.0000       0.074367         2.0236
  78   0.0000       0.104829         2.8525
  79   0.0000       0.124300         3.3824
  80   0.0000       0.131267         3.5720
  81   0.0000       0.137078         3.7301

MULLIKEN ATOMIC CHARGES
-----------------------
   0 C :   -0.324146
   1 C :    0.028400
   2 O :   -0.372971
   3 C :    0.474655
   4 O :   -0.432496
   5 C :   -0.233917
   6 C :    0.154833
   7 C :   -0.271811
   8 N :   -0.122042
   9 C :    0.211188
  10 S :   -0.439178
  11 N :   -0.205005
  12 C :    0.062433
  13 C :    0.038310
  14 C :   -0.179232
  15 C :   -0.134912
  16 C :   -0.274426
  17 C :    0.305633
  18 O :   -0.358562
  19 C :   -0.248198
  20 H :    0.111078
  21 H :    0.101689
  22 H :    0.121012
  23 H :    0.112938
  24 H :    0.118472
  25 H :    0.131956
  26 H :    0.095399
  27 H :    0.131631
  28 H :    0.197666
  29 H :    0.194553
  30 H :    0.151416
  31 H :    0.153829
  32 H :    0.161057
  33 H :    0.131431
  34 H :    0.240955
  35 H :    0.166364
Sum of atomic charges:   -0.0000000

LOEWDIN ATOMIC CHARGES
----------------------
   0 C :    0.105384
   1 C :   -0.015600
   2 O :    0.298582
   3 C :   -0.415329
   4 O :    0.100012
   5 C :   -0.095159
   6 C :   -0.058482
   7 C :    0.131764
   8 N :    0.406714
   9 C :   -0.456389
  10 S :   -0.034889
  11 N :    0.396588
  12 C :   -0.051841
  13 C :   -0.039702
  14 C :    0.014660
  15 C :    0.039071
  16 C :   -0.002248
  17 C :   -0.190849
  18 O :    0.396287
  19 C :    0.031300
  20 H :   -0.026617
  21 H :   -0.026642
  22 H :   -0.026674
  23 H :   -0.025096
  24 H :   -0.028211
  25 H :   -0.003563
  26 H :   -0.023348
  27 H :   -0.004821
  28 H :   -0.057480
  29 H :   -0.064619
  30 H :   -0.010089
  31 H :   -0.029483
  32 H :   -0.020970
  33 H :   -0.035219
  34 H :   -0.153476
  35 H :   -0.023565

  Mayer bond orders larger than 0.100000
B(  0-C ,  1-C ) :   0.9561 B(  0-C , 20-H ) :   0.9690 B(  0-C , 21-H ) :   0.9783
B(  0-C , 22-H ) :   0.9741 B(  1-C ,  2-O ) :   0.8881 B(  1-C , 23-H ) :   0.9833
B(  1-C , 24-H ) :   0.9853 B(  2-O ,  3-C ) :   1.1475 B(  3-C ,  4-O ) :   1.9781
B(  3-C ,  5-C ) :   1.0610 B(  5-C ,  6-C ) :   1.6536 B(  5-C , 12-C ) :   0.9706
B(  6-C ,  7-C ) :   0.9660 B(  6-C ,  8-N ) :   1.1637 B(  7-C , 25-H ) :   0.9601
B(  7-C , 26-H ) :   0.9902 B(  7-C , 27-H ) :   0.9606 B(  8-N ,  9-C ) :   1.1825
B(  8-N , 28-H ) :   0.9478 B(  9-C , 10-S ) :   1.6083 B(  9-C , 11-N ) :   1.3053
B( 11-N , 12-C ) :   0.9856 B( 11-N , 29-H ) :   0.9519 B( 12-C , 13-C ) :   0.9351
B( 12-C , 30-H ) :   1.0019 B( 13-C , 14-C ) :   1.3583 B( 13-C , 19-C ) :   1.3862
B( 14-C , 15-C ) :   1.3882 B( 14-C , 31-H ) :   0.9708 B( 15-C , 16-C ) :   1.3607
B( 15-C , 32-H ) :   0.9713 B( 16-C , 17-C ) :   1.3320 B( 16-C , 33-H ) :   0.9850
B( 17-C , 18-O ) :   1.1117 B( 17-C , 19-C ) :   1.3714 B( 18-O , 34-H ) :   0.9796
B( 19-C , 35-H ) :   0.9574

MP2 TOTAL ENERGY:    -1274.347749574 Eh
FINAL SINGLE POINT ENERGY     -1274.347749573750

DIPOLE MOMENT
-------------
                                X             Y             Z
Electronic contribution:      9.95132       9.75100       6.46237
Nuclear contribution   :    -10.93477     -11.46559      -6.70241
                        -----------------------------------------
Total Dipole Moment    :     -0.98346      -1.71459      -0.24004
                        -----------------------------------------
Magnitude (a.u.)       :      1.99114
Magnitude (Debye)      :      5.06107

Rotational constants in cm-1:     0.012504     0.008861     0.006429
Rotational constants in MHz :   374.852284   265.656106   192.744207

                             ****ORCA TERMINATED NORMALLY****
TOTAL RUN TIME: 0 days 2 hours 5 minutes 54 seconds 384 msec
