                         Program Version 5.0.0 -  RELEASE  -
|  1> ! ri-mp2 cc-pvtz cc-pvtz/c TightSCF NoKeepInts
|  2>
|  3> %scf
|  4>   MaxCore 4096
|  5> end
|  6> *xyz  0  1
|  7>     C       15.0817924   15.6380582   17.2716176
|  8>     C       15.6433499   15.0529630   15.9598873
|  9>     O       16.9813016   15.4595307   15.5651202
| 10>     C       18.0427288   15.7315597   16.3921077
| 11>     O       18.9335180   14.9087321   16.4998731
| 12>     C       17.8877898   16.8418149   17.3873308
| 13>     C       17.3078746   18.0244151   17.0638393
| 14>     C       16.7465660   18.4270533   15.7134573
| 15>     N       17.3130172   19.0766441   17.9834085
| 16>     C       18.0539403   19.0979074   19.1356920
| 17>     S       18.1178984   20.4363525   20.1045888
| 18>     N       18.7460832   17.9523932   19.4408533
| 19>     C       18.6035091   16.6636781   18.7340235
| 20>     C       17.9200271   15.6240064   19.6208852
| 21>     C       18.3560902   14.2860673   19.6013555
| 22>     C       17.7344162   13.3153290   20.4040459
| 23>     C       16.6657602   13.6832582   21.2383882
| 24>     C       16.2273556   15.0136973   21.2638892
| 25>     O       15.1897033   15.3707500   22.0616294
| 26>     C       16.8478122   15.9782350   20.4634787
| 27>     H       15.6915893   15.3327180   18.1253625
| 28>     H       14.0745399   15.2407328   17.4467571
| 29>     H       14.9944286   16.7272316   17.2501416
| 30>     H       15.6474658   13.9601726   16.0684474
| 31>     H       14.9508062   15.2842710   15.1403815
| 32>     H       15.7130910   18.0882076   15.5843742
| 33>     H       17.3415466   18.0011239   14.8956480
| 34>     H       16.7589384   19.5148920   15.5715965
| 35>     H       16.8258853   19.9320896   17.7679465
| 36>     H       19.2740110   17.9902501   20.3036104
| 37>     H       19.6184449   16.2966120   18.5212236
| 38>     H       19.1778417   13.9942654   18.9507795
| 39>     H       18.0811957   12.2837606   20.3742064
| 40>     H       16.1818794   12.9361063   21.8587240
| 41>     H       14.9308922   14.5874707   22.5701330
| 42>     H       16.4839099   16.9996502   20.4991965
| 43> *
| 44>
| 45>                          ****END OF INPUT****

CARTESIAN COORDINATES (ANGSTROEM)
---------------------------------
  C     15.081792   15.638058   17.271618
  C     15.643350   15.052963   15.959887
  O     16.981302   15.459531   15.565120
  C     18.042729   15.731560   16.392108
  O     18.933518   14.908732   16.499873
  C     17.887790   16.841815   17.387331
  C     17.307875   18.024415   17.063839
  C     16.746566   18.427053   15.713457
  N     17.313017   19.076644   17.983408
  C     18.053940   19.097907   19.135692
  S     18.117898   20.436353   20.104589
  N     18.746083   17.952393   19.440853
  C     18.603509   16.663678   18.734023
  C     17.920027   15.624006   19.620885
  C     18.356090   14.286067   19.601356
  C     17.734416   13.315329   20.404046
  C     16.665760   13.683258   21.238388
  C     16.227356   15.013697   21.263889
  O     15.189703   15.370750   22.061629
  C     16.847812   15.978235   20.463479
  H     15.691589   15.332718   18.125363
  H     14.074540   15.240733   17.446757
  H     14.994429   16.727232   17.250142
  H     15.647466   13.960173   16.068447
  H     14.950806   15.284271   15.140382
  H     15.713091   18.088208   15.584374
  H     17.341547   18.001124   14.895648
  H     16.758938   19.514892   15.571597
  H     16.825885   19.932090   17.767947
  H     19.274011   17.990250   20.303610
  H     19.618445   16.296612   18.521224
  H     19.177842   13.994265   18.950779
  H     18.081196   12.283761   20.374206
  H     16.181879   12.936106   21.858724
  H     14.930892   14.587471   22.570133
  H     16.483910   16.999650   20.499197

 Total Charge           Charge          ....    0
 Multiplicity           Mult            ....    1
 Number of Electrons    NEL             ....  154
 Basis Dimension        Dim             ....  828

ORBITAL ENERGIES
----------------

  NO   OCC          E(Eh)            E(eV)
   0   2.0000     -91.891293     -2500.4892
   1   2.0000     -20.596904      -560.4702
   2   2.0000     -20.585140      -560.1501
   3   2.0000     -20.551135      -559.2248
   4   2.0000     -15.630735      -425.3339
   5   2.0000     -15.610313      -424.7782
   6   2.0000     -11.396738      -310.1210
   7   2.0000     -11.386761      -309.8495
   8   2.0000     -11.335645      -308.4586
   9   2.0000     -11.313608      -307.8589
  10   2.0000     -11.311400      -307.7988
  11   2.0000     -11.310309      -307.7692
  12   2.0000     -11.264899      -306.5335
  13   2.0000     -11.262677      -306.4730
  14   2.0000     -11.260571      -306.4157
  15   2.0000     -11.253921      -306.2348
  16   2.0000     -11.243178      -305.9424
  17   2.0000     -11.238842      -305.8244
  18   2.0000     -11.235228      -305.7261
  19   2.0000     -11.233568      -305.6809
  20   2.0000      -8.896359      -242.0822
  21   2.0000      -6.577936      -178.9947
  22   2.0000      -6.575925      -178.9400
  23   2.0000      -6.575337      -178.9240
  24   2.0000      -1.442320       -39.2475
  25   2.0000      -1.416736       -38.5513
  26   2.0000      -1.352653       -36.8076
  27   2.0000      -1.342184       -36.5227
  28   2.0000      -1.240213       -33.7479
  29   2.0000      -1.157617       -31.5004
  30   2.0000      -1.123409       -30.5695
  31   2.0000      -1.045884       -28.4600
  32   2.0000      -1.038346       -28.2548
  33   2.0000      -1.015906       -27.6442
  34   2.0000      -1.003106       -27.2959
  35   2.0000      -0.989820       -26.9344
  36   2.0000      -0.926646       -25.2153
  37   2.0000      -0.898136       -24.4395
  38   2.0000      -0.852440       -23.1961
  39   2.0000      -0.840753       -22.8780
  40   2.0000      -0.833557       -22.6822
  41   2.0000      -0.823808       -22.4170
  42   2.0000      -0.746876       -20.3235
  43   2.0000      -0.732526       -19.9330
  44   2.0000      -0.728812       -19.8320
  45   2.0000      -0.694630       -18.9018
  46   2.0000      -0.687485       -18.7074
  47   2.0000      -0.674877       -18.3643
  48   2.0000      -0.674112       -18.3435
  49   2.0000      -0.662785       -18.0353
  50   2.0000      -0.652855       -17.7651
  51   2.0000      -0.650910       -17.7121
  52   2.0000      -0.642642       -17.4872
  53   2.0000      -0.616238       -16.7687
  54   2.0000      -0.604140       -16.4395
  55   2.0000      -0.602752       -16.4017
  56   2.0000      -0.601260       -16.3611
  57   2.0000      -0.587713       -15.9925
  58   2.0000      -0.575397       -15.6573
  59   2.0000      -0.567766       -15.4497
  60   2.0000      -0.563861       -15.3434
  61   2.0000      -0.554719       -15.0947
  62   2.0000      -0.545318       -14.8388
  63   2.0000      -0.530650       -14.4397
  64   2.0000      -0.521557       -14.1923
  65   2.0000      -0.513674       -13.9778
  66   2.0000      -0.500715       -13.6251
  67   2.0000      -0.486246       -13.2314
  68   2.0000      -0.484471       -13.1831
  69   2.0000      -0.468667       -12.7531
  70   2.0000      -0.457857       -12.4589
  71   2.0000      -0.447499       -12.1771
  72   2.0000      -0.356919        -9.7123
  73   2.0000      -0.347885        -9.4664
  74   2.0000      -0.330574        -8.9954
  75   2.0000      -0.322180        -8.7670
  76   2.0000      -0.318883        -8.6773
  77   0.0000       0.073127         1.9899
  78   0.0000       0.106825         2.9069
  79   0.0000       0.117162         3.1881
  80   0.0000       0.129185         3.5153
  81   0.0000       0.131874         3.5885

MULLIKEN ATOMIC CHARGES
-----------------------
   0 C :   -0.349264
   1 C :    0.041590
   2 O :   -0.372380
   3 C :    0.449902
   4 O :   -0.383296
   5 C :   -0.223477
   6 C :    0.149789
   7 C :   -0.296366
   8 N :   -0.133603
   9 C :    0.193576
  10 S :   -0.435782
  11 N :   -0.217171
  12 C :    0.082370
  13 C :    0.017399
  14 C :   -0.200645
  15 C :   -0.138845
  16 C :   -0.275316
  17 C :    0.316011
  18 O :   -0.357579
  19 C :   -0.266041
  20 H :    0.133097
  21 H :    0.126477
  22 H :    0.100820
  23 H :    0.113020
  24 H :    0.110495
  25 H :    0.116686
  26 H :    0.137959
  27 H :    0.114658
  28 H :    0.197957
  29 H :    0.199152
  30 H :    0.163335
  31 H :    0.174973
  32 H :    0.163328
  33 H :    0.131797
  34 H :    0.240783
  35 H :    0.174593
Sum of atomic charges:   -0.0000000

LOEWDIN ATOMIC CHARGES
----------------------
   0 C :    0.105408
   1 C :   -0.013794
   2 O :    0.276463
   3 C :   -0.416925
   4 O :    0.127126
   5 C :   -0.089608
   6 C :   -0.078035
   7 C :    0.128204
   8 N :    0.404961
   9 C :   -0.459049
  10 S :   -0.034337
  11 N :    0.397471
  12 C :   -0.043325
  13 C :   -0.043303
  14 C :    0.018955
  15 C :    0.042409
  16 C :   -0.001958
  17 C :   -0.194126
  18 O :    0.395133
  19 C :    0.027200
  20 H :   -0.026671
  21 H :   -0.019626
  22 H :   -0.035795
  23 H :   -0.023858
  24 H :   -0.024125
  25 H :   -0.016689
  26 H :   -0.005498
  27 H :   -0.016242
  28 H :   -0.058509
  29 H :   -0.063614
  30 H :   -0.002446
  31 H :   -0.022656
  32 H :   -0.019179
  33 H :   -0.035263
  34 H :   -0.153825
  35 H :   -0.024874

  Mayer bond orders larger than 0.100000
B(  0-C ,  1-C ) :   0.9634 B(  0-C , 20-H ) :   0.9621 B(  0-C , 21-H ) :   0.9776
B(  0-C , 22-H ) :   0.9723 B(  1-C ,  2-O ) :   0.8974 B(  1-C , 23-H ) :   0.9821
B(  1-C , 24-H ) :   0.9811 B(  2-O ,  3-C ) :   1.1152 B(  3-C ,  4-O ) :   2.0584
B(  3-C ,  5-C ) :   0.9801 B(  5-C ,  6-C ) :   1.6745 B(  5-C , 12-C ) :   0.9473
B(  6-C ,  7-C ) :   0.9479 B(  6-C ,  8-N ) :   1.1156 B(  7-C , 25-H ) :   0.9653
B(  7-C , 26-H ) :   0.9677 B(  7-C , 27-H ) :   0.9866 B(  8-N ,  9-C ) :   1.1859
B(  8-N , 28-H ) :   0.9495 B(  9-C , 10-S ) :   1.6138 B(  9-C , 11-N ) :   1.2931
B( 11-N , 12-C ) :   0.9813 B( 11-N , 29-H ) :   0.9500 B( 12-C , 13-C ) :   0.9519
B( 12-C , 30-H ) :   0.9957 B( 13-C , 14-C ) :   1.3916 B( 13-C , 19-C ) :   1.3449
B( 14-C , 15-C ) :   1.3993 B( 14-C , 31-H ) :   0.9571 B( 15-C , 16-C ) :   1.3609
B( 15-C , 32-H ) :   0.9705 B( 16-C , 17-C ) :   1.3307 B( 16-C , 33-H ) :   0.9846
B( 17-C , 18-O ) :   1.1109 B( 17-C , 19-C ) :   1.3703 B( 18-O , 34-H ) :   0.9798
B( 19-C , 35-H ) :   0.9592

MP2 TOTAL ENERGY:    -1274.322130044 Eh
FINAL SINGLE POINT ENERGY     -1274.322130044500

DIPOLE MOMENT
-------------
                                X             Y             Z
Electronic contribution:      9.41879       6.66701       6.57739
Nuclear contribution   :    -10.90199      -7.79153      -7.15314
                        -----------------------------------------
Total Dipole Moment    :     -1.48320      -1.12452      -0.57575
                        -----------------------------------------
Magnitude (a.u.)       :      1.94831
Magnitude (Debye)      :      4.95221

Rotational constants in cm-1:     0.011259     0.009871     0.006732
Rotational constants in MHz :   337.547100   295.933638   201.820754

                             ****ORCA TERMINATED NORMALLY****
TOTAL RUN TIME: 0 days 1 hours 56 minutes 2 seconds 397 msec
