                         Program Version 4.2.0 -  RELEASE  -
|  1> ! ri-mp2 cc-pvtz cc-pvtz/c TightSCF  NoKeepInts
|  2>
|  3> %scf
|  4>   MaxCore 4096
|  5> end
|  6> *xyz  0  1
|  7>     C       15.9042042   13.1361824   16.5112221
|  8>     C       15.7272733   14.6397750   16.7795709
|  9>     O       16.9349954   15.2986040   16.3591307
| 10>     C       16.8916329   16.6542378   16.2200725
| 11>     O       16.0739624   17.1664903   15.4762886
| 12>     C       17.5648219   17.3870132   17.3508385
| 13>     C       17.4617640   18.7322274   17.5093854
| 14>     C       16.6543003   19.6994158   16.6699294
| 15>     N       18.1936649   19.3772410   18.5113826
| 16>     C       19.1753483   18.7872997   19.2622285
| 17>     S       20.1096406   19.6513734   20.3186340
| 18>     N       19.3528518   17.4392926   19.0821970
| 19>     C       18.4504786   16.5686458   18.3074299
| 20>     C       17.6421821   15.7059322   19.2709258
| 21>     C       17.9269000   14.3338014   19.4033977
| 22>     C       17.1831244   13.5309670   20.2844129
| 23>     C       16.1507859   14.1057572   21.0450597
| 24>     C       15.8722728   15.4740429   20.9247589
| 25>     O       14.8772813   16.0325054   21.6585149
| 26>     C       16.6120705   16.2700404   20.0448862
| 27>     H       16.7487566   12.7372106   17.0859374
| 28>     H       16.0918420   12.9540244   15.4456535
| 29>     H       15.0009939   12.5856338   16.8006029
| 30>     H       14.8699322   15.0049944   16.1973986
| 31>     H       15.5246220   14.8211919   17.8422397
| 32>     H       15.5880193   19.4415512   16.7033536
| 33>     H       16.9684684   19.6544922   15.6192990
| 34>     H       16.7529301   20.7403645   16.9993966
| 35>     H       18.0825748   20.3693434   18.6478405
| 36>     H       20.0654594   17.0264191   19.6700942
| 37>     H       19.0766849   15.9058549   17.6934309
| 38>     H       18.7227661   13.8858994   18.8140595
| 39>     H       17.4088346   12.4698776   20.3771745
| 40>     H       15.5745753   13.4900108   21.7280496
| 41>     H       14.5256937   15.3460438   22.2454128
| 42>     H       16.3852910   17.3282432   19.9737904
| 43> *
| 44>
| 45>                          ****END OF INPUT****

CARTESIAN COORDINATES (ANGSTROEM)
---------------------------------
  C     15.904204   13.136182   16.511222
  C     15.727273   14.639775   16.779571
  O     16.934995   15.298604   16.359131
  C     16.891633   16.654238   16.220073
  O     16.073962   17.166490   15.476289
  C     17.564822   17.387013   17.350838
  C     17.461764   18.732227   17.509385
  C     16.654300   19.699416   16.669929
  N     18.193665   19.377241   18.511383
  C     19.175348   18.787300   19.262228
  S     20.109641   19.651373   20.318634
  N     19.352852   17.439293   19.082197
  C     18.450479   16.568646   18.307430
  C     17.642182   15.705932   19.270926
  C     17.926900   14.333801   19.403398
  C     17.183124   13.530967   20.284413
  C     16.150786   14.105757   21.045060
  C     15.872273   15.474043   20.924759
  O     14.877281   16.032505   21.658515
  C     16.612071   16.270040   20.044886
  H     16.748757   12.737211   17.085937
  H     16.091842   12.954024   15.445653
  H     15.000994   12.585634   16.800603
  H     14.869932   15.004994   16.197399
  H     15.524622   14.821192   17.842240
  H     15.588019   19.441551   16.703354
  H     16.968468   19.654492   15.619299
  H     16.752930   20.740364   16.999397
  H     18.082575   20.369343   18.647841
  H     20.065459   17.026419   19.670094
  H     19.076685   15.905855   17.693431
  H     18.722766   13.885899   18.814059
  H     17.408835   12.469878   20.377174
  H     15.574575   13.490011   21.728050
  H     14.525694   15.346044   22.245413
  H     16.385291   17.328243   19.973790

 Total Charge           Charge          ....    0
 Multiplicity           Mult            ....    1
 Number of Electrons    NEL             ....  154
 Basis Dimension        Dim             ....  828

ORBITAL ENERGIES
----------------

  NO   OCC          E(Eh)            E(eV)
   0   2.0000     -91.890673     -2500.4723
   1   2.0000     -20.601211      -560.5874
   2   2.0000     -20.584871      -560.1428
   3   2.0000     -20.546623      -559.1020
   4   2.0000     -15.631168      -425.3457
   5   2.0000     -15.609793      -424.7641
   6   2.0000     -11.392731      -310.0120
   7   2.0000     -11.385425      -309.8132
   8   2.0000     -11.337589      -308.5115
   9   2.0000     -11.319110      -308.0086
  10   2.0000     -11.311712      -307.8073
  11   2.0000     -11.292534      -307.2855
  12   2.0000     -11.263796      -306.5035
  13   2.0000     -11.260493      -306.4136
  14   2.0000     -11.259872      -306.3967
  15   2.0000     -11.253304      -306.2180
  16   2.0000     -11.248166      -306.0782
  17   2.0000     -11.242735      -305.9304
  18   2.0000     -11.242578      -305.9261
  19   2.0000     -11.225865      -305.4713
  20   2.0000      -8.895711      -242.0646
  21   2.0000      -6.577279      -178.9769
  22   2.0000      -6.575281      -178.9225
  23   2.0000      -6.574688      -178.9064
  24   2.0000      -1.449425       -39.4409
  25   2.0000      -1.420908       -38.6649
  26   2.0000      -1.352525       -36.8041
  27   2.0000      -1.342215       -36.5235
  28   2.0000      -1.240661       -33.7601
  29   2.0000      -1.162019       -31.6201
  30   2.0000      -1.121507       -30.5178
  31   2.0000      -1.045924       -28.4610
  32   2.0000      -1.034706       -28.1558
  33   2.0000      -1.020244       -27.7622
  34   2.0000      -0.997606       -27.1462
  35   2.0000      -0.985872       -26.8269
  36   2.0000      -0.925312       -25.1790
  37   2.0000      -0.879827       -23.9413
  38   2.0000      -0.849061       -23.1041
  39   2.0000      -0.841790       -22.9063
  40   2.0000      -0.838312       -22.8116
  41   2.0000      -0.826503       -22.4903
  42   2.0000      -0.761855       -20.7311
  43   2.0000      -0.736156       -20.0318
  44   2.0000      -0.724301       -19.7092
  45   2.0000      -0.700416       -19.0593
  46   2.0000      -0.690881       -18.7998
  47   2.0000      -0.678553       -18.4644
  48   2.0000      -0.673294       -18.3213
  49   2.0000      -0.656688       -17.8694
  50   2.0000      -0.648225       -17.6391
  51   2.0000      -0.644148       -17.5282
  52   2.0000      -0.630052       -17.1446
  53   2.0000      -0.621786       -16.9196
  54   2.0000      -0.611822       -16.6485
  55   2.0000      -0.603643       -16.4260
  56   2.0000      -0.601045       -16.3553
  57   2.0000      -0.581550       -15.8248
  58   2.0000      -0.572180       -15.5698
  59   2.0000      -0.565976       -15.4010
  60   2.0000      -0.555095       -15.1049
  61   2.0000      -0.540727       -14.7139
  62   2.0000      -0.532619       -14.4933
  63   2.0000      -0.529393       -14.4055
  64   2.0000      -0.519008       -14.1229
  65   2.0000      -0.516199       -14.0465
  66   2.0000      -0.506027       -13.7697
  67   2.0000      -0.500078       -13.6078
  68   2.0000      -0.486799       -13.2465
  69   2.0000      -0.464592       -12.6422
  70   2.0000      -0.456791       -12.4299
  71   2.0000      -0.444806       -12.1038
  72   2.0000      -0.357058        -9.7160
  73   2.0000      -0.354013        -9.6332
  74   2.0000      -0.330521        -8.9939
  75   2.0000      -0.326489        -8.8842
  76   2.0000      -0.317760        -8.6467
  77   0.0000       0.069057         1.8791
  78   0.0000       0.101718         2.7679
  79   0.0000       0.122726         3.3395
  80   0.0000       0.128187         3.4881
  81   0.0000       0.133337         3.6283

MULLIKEN ATOMIC CHARGES
-----------------------
   0 C :   -0.267204
   1 C :    0.008487
   2 O :   -0.382862
   3 C :    0.515073
   4 O :   -0.413650
   5 C :   -0.282807
   6 C :    0.158609
   7 C :   -0.269621
   8 N :   -0.123997
   9 C :    0.211993
  10 S :   -0.437185
  11 N :   -0.201707
  12 C :    0.052035
  13 C :    0.022386
  14 C :   -0.170468
  15 C :   -0.135092
  16 C :   -0.271227
  17 C :    0.304984
  18 O :   -0.356317
  19 C :   -0.243287
  20 H :    0.088637
  21 H :    0.105603
  22 H :    0.089011
  23 H :    0.123526
  24 H :    0.112106
  25 H :    0.130955
  26 H :    0.132834
  27 H :    0.094994
  28 H :    0.198361
  29 H :    0.193366
  30 H :    0.149696
  31 H :    0.154846
  32 H :    0.165117
  33 H :    0.133460
  34 H :    0.241621
  35 H :    0.167725
Sum of atomic charges:   -0.0000000

LOEWDIN ATOMIC CHARGES
----------------------
   0 C :    0.109030
   1 C :   -0.017857
   2 O :    0.291231
   3 C :   -0.417767
   4 O :    0.115297
   5 C :   -0.098543
   6 C :   -0.057726
   7 C :    0.131256
   8 N :    0.407043
   9 C :   -0.456698
  10 S :   -0.033138
  11 N :    0.396273
  12 C :   -0.053179
  13 C :   -0.038846
  14 C :    0.015275
  15 C :    0.042645
  16 C :   -0.001651
  17 C :   -0.190839
  18 O :    0.396667
  19 C :    0.030129
  20 H :   -0.032260
  21 H :   -0.025115
  22 H :   -0.025364
  23 H :   -0.029029
  24 H :   -0.033568
  25 H :   -0.004943
  26 H :   -0.003370
  27 H :   -0.023257
  28 H :   -0.057334
  29 H :   -0.065096
  30 H :   -0.007861
  31 H :   -0.029941
  32 H :   -0.020013
  33 H :   -0.034427
  34 H :   -0.152781
  35 H :   -0.024246

  Mayer bond orders larger than 0.100000
B(  0-C ,  1-C ) :   0.9791 B(  0-C , 20-H ) :   0.9779 B(  0-C , 21-H ) :   0.9784
B(  0-C , 22-H ) :   0.9762 B(  1-C ,  2-O ) :   0.8731 B(  1-C , 23-H ) :   0.9785
B(  1-C , 24-H ) :   0.9642 B(  2-O ,  3-C ) :   1.1103 B(  3-C ,  4-O ) :   2.0086
B(  3-C ,  5-C ) :   1.0680 B(  5-C ,  6-C ) :   1.6509 B(  5-C , 12-C ) :   0.9715
B(  6-C ,  7-C ) :   0.9683 B(  6-C ,  8-N ) :   1.1586 B(  7-C , 25-H ) :   0.9609
B(  7-C , 26-H ) :   0.9590 B(  7-C , 27-H ) :   0.9900 B(  8-N ,  9-C ) :   1.1802
B(  8-N , 28-H ) :   0.9478 B(  9-C , 10-S ) :   1.6107 B(  9-C , 11-N ) :   1.3046
B( 11-N , 12-C ) :   0.9745 B( 11-N , 29-H ) :   0.9533 B( 12-C , 13-C ) :   0.9441
B( 12-C , 30-H ) :   1.0014 B( 13-C , 14-C ) :   1.3558 B( 13-C , 19-C ) :   1.3754
B( 14-C , 15-C ) :   1.3848 B( 14-C , 31-H ) :   0.9718 B( 15-C , 16-C ) :   1.3642
B( 15-C , 32-H ) :   0.9690 B( 16-C , 17-C ) :   1.3283 B( 16-C , 33-H ) :   0.9839
B( 17-C , 18-O ) :   1.1147 B( 17-C , 19-C ) :   1.3772 B( 18-O , 34-H ) :   0.9790
B( 19-C , 35-H ) :   0.9572

MP2 TOTAL ENERGY:    -1274.334053004 Eh
FINAL SINGLE POINT ENERGY     -1274.334053003688

DIPOLE MOMENT
-------------
                                X             Y             Z
Electronic contribution:      9.00638      11.11029       5.99233
Nuclear contribution   :    -10.07733     -12.59036      -5.89952
                        -----------------------------------------
Total Dipole Moment    :     -1.07095      -1.48007       0.09282
                        -----------------------------------------
Magnitude (a.u.)       :      1.82925
Magnitude (Debye)      :      4.64958

Rotational constants in cm-1:     0.012498     0.008761     0.006408
Rotational constants in MHz :   374.690090   262.635351   192.093467

                             ****ORCA TERMINATED NORMALLY****
TOTAL RUN TIME: 0 days 1 hours 44 minutes 27 seconds 593 msec
