                         Program Version 4.2.0 -  RELEASE  -
|  1> ! ri-mp2 cc-pvtz cc-pvtz/c TightSCF  NoKeepInts
|  2>
|  3> %scf
|  4>   MaxCore 4096
|  5> end
|  6> *xyz  0  1
|  7>     C       15.4131490   14.2367552   17.4286255
|  8>     C       16.2591321   14.2942814   16.1476871
|  9>     O       17.5384187   14.9119669   16.4123279
| 10>     C       17.6960103   16.2236476   16.0663358
| 11>     O       17.3403418   16.6078854   14.9655825
| 12>     C       17.7734515   17.1331389   17.2611005
| 13>     C       17.3494239   18.4229269   17.2299138
| 14>     C       16.6036399   19.1217723   16.1134091
| 15>     N       17.6475947   19.2796878   18.2944360
| 16>     C       18.5623441   19.0011566   19.2760562
| 17>     S       19.0330897   20.1354137   20.3839156
| 18>     N       19.0792483   17.7297041   19.2816618
| 19>     C       18.5403596   16.6095286   18.4878304
| 20>     C       17.7230691   15.7083837   19.4070934
| 21>     C       18.1744333   14.4090452   19.7077197
| 22>     C       17.4595001   13.5913324   20.5994469
| 23>     C       16.2840927   14.0767591   21.1976481
| 24>     C       15.8362314   15.3727941   20.9074989
| 25>     O       14.7027153   15.8451083   21.4841851
| 26>     C       16.5524710   16.1861823   20.0239423
| 27>     H       15.9258081   13.6630621   18.2078270
| 28>     H       14.4524159   13.7475725   17.2283994
| 29>     H       15.2053084   15.2457065   17.8028559
| 30>     H       16.4296591   13.2672051   15.8003777
| 31>     H       15.7090087   14.8203843   15.3554310
| 32>     H       15.7444638   18.5224105   15.7869507
| 33>     H       17.2568688   19.2589349   15.2420594
| 34>     H       16.2227659   20.1073053   16.4056905
| 35>     H       17.2910047   20.2220284   18.2898591
| 36>     H       19.7322082   17.5436575   20.0319727
| 37>     H       19.3946683   16.0270222   18.1152365
| 38>     H       19.0838797   14.0307246   19.2485475
| 39>     H       17.8166170   12.5876594   20.8238743
| 40>     H       15.7276863   13.4485923   21.8855294
| 41>     H       14.3880767   15.1702699   22.1044036
| 42>     H       16.1978439   17.1919941   19.8285688
| 43> *
| 44>
| 45>                          ****END OF INPUT****

CARTESIAN COORDINATES (ANGSTROEM)
---------------------------------
  C     15.413149   14.236755   17.428625
  C     16.259132   14.294281   16.147687
  O     17.538419   14.911967   16.412328
  C     17.696010   16.223648   16.066336
  O     17.340342   16.607885   14.965583
  C     17.773452   17.133139   17.261100
  C     17.349424   18.422927   17.229914
  C     16.603640   19.121772   16.113409
  N     17.647595   19.279688   18.294436
  C     18.562344   19.001157   19.276056
  S     19.033090   20.135414   20.383916
  N     19.079248   17.729704   19.281662
  C     18.540360   16.609529   18.487830
  C     17.723069   15.708384   19.407093
  C     18.174433   14.409045   19.707720
  C     17.459500   13.591332   20.599447
  C     16.284093   14.076759   21.197648
  C     15.836231   15.372794   20.907499
  O     14.702715   15.845108   21.484185
  C     16.552471   16.186182   20.023942
  H     15.925808   13.663062   18.207827
  H     14.452416   13.747573   17.228399
  H     15.205308   15.245706   17.802856
  H     16.429659   13.267205   15.800378
  H     15.709009   14.820384   15.355431
  H     15.744464   18.522410   15.786951
  H     17.256869   19.258935   15.242059
  H     16.222766   20.107305   16.405690
  H     17.291005   20.222028   18.289859
  H     19.732208   17.543657   20.031973
  H     19.394668   16.027022   18.115237
  H     19.083880   14.030725   19.248548
  H     17.816617   12.587659   20.823874
  H     15.727686   13.448592   21.885529
  H     14.388077   15.170270   22.104404
  H     16.197844   17.191994   19.828569

 Total Charge           Charge          ....    0
 Multiplicity           Mult            ....    1
 Number of Electrons    NEL             ....  154
 Basis Dimension        Dim             ....  828

ORBITAL ENERGIES
----------------

  NO   OCC          E(Eh)            E(eV)
   0   2.0000     -91.890258     -2500.4610
   1   2.0000     -20.598660      -560.5180
   2   2.0000     -20.586233      -560.1799
   3   2.0000     -20.550580      -559.2097
   4   2.0000     -15.630266      -425.3212
   5   2.0000     -15.608844      -424.7383
   6   2.0000     -11.394720      -310.0661
   7   2.0000     -11.384736      -309.7944
   8   2.0000     -11.336089      -308.4707
   9   2.0000     -11.315622      -307.9137
  10   2.0000     -11.311934      -307.8134
  11   2.0000     -11.295248      -307.3593
  12   2.0000     -11.261130      -306.4309
  13   2.0000     -11.260673      -306.4185
  14   2.0000     -11.256890      -306.3156
  15   2.0000     -11.253793      -306.2313
  16   2.0000     -11.245095      -305.9946
  17   2.0000     -11.239646      -305.8463
  18   2.0000     -11.239428      -305.8404
  19   2.0000     -11.219656      -305.3024
  20   2.0000      -8.895273      -242.0527
  21   2.0000      -6.576837      -178.9648
  22   2.0000      -6.574845      -178.9106
  23   2.0000      -6.574249      -178.8944
  24   2.0000      -1.449979       -39.4559
  25   2.0000      -1.418341       -38.5950
  26   2.0000      -1.352693       -36.8086
  27   2.0000      -1.341522       -36.5047
  28   2.0000      -1.239782       -33.7362
  29   2.0000      -1.158707       -31.5300
  30   2.0000      -1.120774       -30.4978
  31   2.0000      -1.043840       -28.4043
  32   2.0000      -1.033068       -28.1112
  33   2.0000      -1.017024       -27.6746
  34   2.0000      -0.998384       -27.1674
  35   2.0000      -0.985386       -26.8137
  36   2.0000      -0.924341       -25.1526
  37   2.0000      -0.888099       -24.1664
  38   2.0000      -0.847622       -23.0650
  39   2.0000      -0.840905       -22.8822
  40   2.0000      -0.835625       -22.7385
  41   2.0000      -0.817347       -22.2411
  42   2.0000      -0.758093       -20.6288
  43   2.0000      -0.733587       -19.9619
  44   2.0000      -0.722648       -19.6643
  45   2.0000      -0.698053       -18.9950
  46   2.0000      -0.690096       -18.7785
  47   2.0000      -0.679754       -18.4970
  48   2.0000      -0.669981       -18.2311
  49   2.0000      -0.666486       -18.1360
  50   2.0000      -0.649220       -17.6662
  51   2.0000      -0.646284       -17.5863
  52   2.0000      -0.637304       -17.3419
  53   2.0000      -0.609090       -16.5742
  54   2.0000      -0.602680       -16.3997
  55   2.0000      -0.600282       -16.3345
  56   2.0000      -0.587998       -16.0002
  57   2.0000      -0.578993       -15.7552
  58   2.0000      -0.573859       -15.6155
  59   2.0000      -0.568257       -15.4630
  60   2.0000      -0.564674       -15.3656
  61   2.0000      -0.548544       -14.9266
  62   2.0000      -0.539065       -14.6687
  63   2.0000      -0.526581       -14.3290
  64   2.0000      -0.518367       -14.1055
  65   2.0000      -0.514134       -13.9903
  66   2.0000      -0.503105       -13.6902
  67   2.0000      -0.501719       -13.6525
  68   2.0000      -0.478240       -13.0136
  69   2.0000      -0.462935       -12.5971
  70   2.0000      -0.451726       -12.2921
  71   2.0000      -0.446802       -12.1581
  72   2.0000      -0.357585        -9.7304
  73   2.0000      -0.349906        -9.5214
  74   2.0000      -0.329439        -8.9645
  75   2.0000      -0.323878        -8.8132
  76   2.0000      -0.316934        -8.6242
  77   0.0000       0.069069         1.8795
  78   0.0000       0.103826         2.8252
  79   0.0000       0.118961         3.2371
  80   0.0000       0.130532         3.5520
  81   0.0000       0.133686         3.6378

MULLIKEN ATOMIC CHARGES
-----------------------
   0 C :   -0.312687
   1 C :    0.043307
   2 O :   -0.377630
   3 C :    0.471483
   4 O :   -0.407918
   5 C :   -0.225789
   6 C :    0.149788
   7 C :   -0.272122
   8 N :   -0.125323
   9 C :    0.205313
  10 S :   -0.435062
  11 N :   -0.192841
  12 C :    0.025253
  13 C :    0.093286
  14 C :   -0.179491
  15 C :   -0.138530
  16 C :   -0.277140
  17 C :    0.327242
  18 O :   -0.359432
  19 C :   -0.295244
  20 H :    0.109826
  21 H :    0.114306
  22 H :    0.101633
  23 H :    0.103632
  24 H :    0.107808
  25 H :    0.124093
  26 H :    0.137703
  27 H :    0.094259
  28 H :    0.198334
  29 H :    0.191381
  30 H :    0.147420
  31 H :    0.145866
  32 H :    0.163102
  33 H :    0.131836
  34 H :    0.241449
  35 H :    0.170887
Sum of atomic charges:   -0.0000000

LOEWDIN ATOMIC CHARGES
----------------------
   0 C :    0.104001
   1 C :   -0.012859
   2 O :    0.284759
   3 C :   -0.417243
   4 O :    0.120665
   5 C :   -0.096699
   6 C :   -0.062902
   7 C :    0.129433
   8 N :    0.406375
   9 C :   -0.457350
  10 S :   -0.032256
  11 N :    0.396667
  12 C :   -0.052702
  13 C :   -0.036672
  14 C :    0.013640
  15 C :    0.040225
  16 C :   -0.001550
  17 C :   -0.189415
  18 O :    0.396176
  19 C :    0.034604
  20 H :   -0.025458
  21 H :   -0.026396
  22 H :   -0.031375
  23 H :   -0.026054
  24 H :   -0.029065
  25 H :   -0.007243
  26 H :   -0.003437
  27 H :   -0.023011
  28 H :   -0.057917
  29 H :   -0.065380
  30 H :   -0.006697
  31 H :   -0.029793
  32 H :   -0.020817
  33 H :   -0.035197
  34 H :   -0.153292
  35 H :   -0.025766

  Mayer bond orders larger than 0.100000
B(  0-C ,  1-C ) :   0.9687 B(  0-C , 20-H ) :   0.9718 B(  0-C , 21-H ) :   0.9772
B(  0-C , 22-H ) :   0.9732 B(  1-C ,  2-O ) :   0.8822 B(  1-C , 23-H ) :   0.9878
B(  1-C , 24-H ) :   0.9752 B(  2-O ,  3-C ) :   1.1117 B(  3-C ,  4-O ) :   2.0066
B(  3-C ,  5-C ) :   1.0505 B(  5-C ,  6-C ) :   1.6609 B(  5-C , 12-C ) :   0.9765
B(  6-C ,  7-C ) :   0.9692 B(  6-C ,  8-N ) :   1.1422 B(  7-C , 25-H ) :   0.9674
B(  7-C , 26-H ) :   0.9568 B(  7-C , 27-H ) :   0.9876 B(  8-N ,  9-C ) :   1.1789
B(  8-N , 28-H ) :   0.9489 B(  9-C , 10-S ) :   1.6169 B(  9-C , 11-N ) :   1.2988
B( 11-N , 12-C ) :   0.9835 B( 11-N , 29-H ) :   0.9542 B( 12-C , 13-C ) :   0.9414
B( 12-C , 30-H ) :   1.0061 B( 13-C , 14-C ) :   1.3579 B( 13-C , 19-C ) :   1.3563
B( 14-C , 15-C ) :   1.3874 B( 14-C , 31-H ) :   0.9735 B( 15-C , 16-C ) :   1.3630
B( 15-C , 32-H ) :   0.9709 B( 16-C , 17-C ) :   1.3300 B( 16-C , 33-H ) :   0.9846
B( 17-C , 18-O ) :   1.1113 B( 17-C , 19-C ) :   1.3680 B( 18-O , 34-H ) :   0.9795
B( 19-C , 35-H ) :   0.9580

MP2 TOTAL ENERGY:    -1274.327273814 Eh
FINAL SINGLE POINT ENERGY     -1274.327273814468

DIPOLE MOMENT
-------------
                                X             Y             Z
Electronic contribution:      9.33038       9.62275       5.30985
Nuclear contribution   :    -10.39609     -11.26212      -5.37470
                        -----------------------------------------
Total Dipole Moment    :     -1.06571      -1.63937      -0.06485
                        -----------------------------------------
Magnitude (a.u.)       :      1.95639
Magnitude (Debye)      :      4.97276

Rotational constants in cm-1:     0.011775     0.009735     0.006545
Rotational constants in MHz :   353.000495   291.838491   196.204061

                             ****ORCA TERMINATED NORMALLY****
TOTAL RUN TIME: 0 days 1 hours 52 minutes 39 seconds 575 msec
