                         Program Version 4.2.0 -  RELEASE  -
|  1> ! ri-mp2 cc-pvtz cc-pvtz/c TightSCF  NoKeepInts
|  2>
|  3> %scf
|  4>   MaxCore 4096
|  5> end
|  6> *xyz  0  1
|  7>     C       14.5734824   14.3479711   15.7213317
|  8>     C       15.6070162   14.7808245   16.7741083
|  9>     O       16.5955325   15.5806131   16.1034894
| 10>     C       17.8388791   15.6317276   16.6581056
| 11>     O       18.4460944   14.6070513   16.9194638
| 12>     C       18.0289640   16.8760563   17.4702034
| 13>     C       17.5519491   18.0917426   17.1042223
| 14>     C       16.8017241   18.4381029   15.8351562
| 15>     N       17.8040585   19.2079022   17.9074121
| 16>     C       18.6220137   19.2106842   19.0070305
| 17>     S       18.9516407   20.5989771   19.8431790
| 18>     N       19.1530432   18.0010825   19.3801839
| 19>     C       18.7997702   16.6998004   18.7810250
| 20>     C       17.9924931   15.8570640   19.7647691
| 21>     C       18.4175438   14.5612640   20.1107897
| 22>     C       17.6668947   13.7748853   21.0007101
| 23>     C       16.4789741   14.2871934   21.5493887
| 24>     C       16.0497204   15.5756537   21.2039130
| 25>     O       14.8974844   16.0694787   21.7228761
| 26>     C       16.7986516   16.3557795   20.3174976
| 27>     H       15.0550048   13.7644932   14.9264937
| 28>     H       14.0928841   15.2231148   15.2669823
| 29>     H       13.7948542   13.7262262   16.1796404
| 30>     H       15.1298915   15.3546624   17.5796025
| 31>     H       16.0612611   13.8808069   17.2119903
| 32>     H       17.2280441   17.9138710   14.9705973
| 33>     H       16.8364771   19.5105289   15.6076238
| 34>     H       15.7474498   18.1455185   15.9165977
| 35>     H       17.4245320   20.1050209   17.6495113
| 36>     H       19.7286726   18.0273528   20.2120937
| 37>     H       19.7354459   16.1687557   18.5533219
| 38>     H       19.3254079   14.1549873   19.6712617
| 39>     H       18.0041641   12.7717029   21.2556412
| 40>     H       15.8951421   13.6819770   22.2349708
| 41>     H       14.5620392   15.4176529   22.3568261
| 42>     H       16.4497995   17.3514741   20.0659897
| 43> *
| 44>
| 45>                          ****END OF INPUT****

CARTESIAN COORDINATES (ANGSTROEM)
---------------------------------
  C     14.573482   14.347971   15.721332
  C     15.607016   14.780824   16.774108
  O     16.595533   15.580613   16.103489
  C     17.838879   15.631728   16.658106
  O     18.446094   14.607051   16.919464
  C     18.028964   16.876056   17.470203
  C     17.551949   18.091743   17.104222
  C     16.801724   18.438103   15.835156
  N     17.804059   19.207902   17.907412
  C     18.622014   19.210684   19.007030
  S     18.951641   20.598977   19.843179
  N     19.153043   18.001082   19.380184
  C     18.799770   16.699800   18.781025
  C     17.992493   15.857064   19.764769
  C     18.417544   14.561264   20.110790
  C     17.666895   13.774885   21.000710
  C     16.478974   14.287193   21.549389
  C     16.049720   15.575654   21.203913
  O     14.897484   16.069479   21.722876
  C     16.798652   16.355780   20.317498
  H     15.055005   13.764493   14.926494
  H     14.092884   15.223115   15.266982
  H     13.794854   13.726226   16.179640
  H     15.129891   15.354662   17.579603
  H     16.061261   13.880807   17.211990
  H     17.228044   17.913871   14.970597
  H     16.836477   19.510529   15.607624
  H     15.747450   18.145518   15.916598
  H     17.424532   20.105021   17.649511
  H     19.728673   18.027353   20.212094
  H     19.735446   16.168756   18.553322
  H     19.325408   14.154987   19.671262
  H     18.004164   12.771703   21.255641
  H     15.895142   13.681977   22.234971
  H     14.562039   15.417653   22.356826
  H     16.449800   17.351474   20.065990

 Total Charge           Charge          ....    0
 Multiplicity           Mult            ....    1
 Number of Electrons    NEL             ....  154
 Basis Dimension        Dim             ....  828

ORBITAL ENERGIES
----------------

  NO   OCC          E(Eh)            E(eV)
   0   2.0000     -91.888927     -2500.4248
   1   2.0000     -20.596238      -560.4521
   2   2.0000     -20.584871      -560.1428
   3   2.0000     -20.555784      -559.3513
   4   2.0000     -15.628539      -425.2742
   5   2.0000     -15.608457      -424.7277
   6   2.0000     -11.394255      -310.0534
   7   2.0000     -11.384467      -309.7871
   8   2.0000     -11.333232      -308.3929
   9   2.0000     -11.312289      -307.8230
  10   2.0000     -11.308738      -307.7264
  11   2.0000     -11.297806      -307.4289
  12   2.0000     -11.260636      -306.4175
  13   2.0000     -11.259449      -306.3852
  14   2.0000     -11.257762      -306.3393
  15   2.0000     -11.252382      -306.1929
  16   2.0000     -11.242013      -305.9107
  17   2.0000     -11.237896      -305.7987
  18   2.0000     -11.235167      -305.7244
  19   2.0000     -11.229889      -305.5808
  20   2.0000      -8.894006      -242.0182
  21   2.0000      -6.575584      -178.9307
  22   2.0000      -6.573574      -178.8760
  23   2.0000      -6.572990      -178.8602
  24   2.0000      -1.453296       -39.5462
  25   2.0000      -1.416011       -38.5316
  26   2.0000      -1.357179       -36.9307
  27   2.0000      -1.339643       -36.4535
  28   2.0000      -1.237947       -33.6862
  29   2.0000      -1.156414       -31.4676
  30   2.0000      -1.121478       -30.5170
  31   2.0000      -1.044967       -28.4350
  32   2.0000      -1.034953       -28.1625
  33   2.0000      -1.013872       -27.5889
  34   2.0000      -0.999392       -27.1948
  35   2.0000      -0.984830       -26.7986
  36   2.0000      -0.923454       -25.1285
  37   2.0000      -0.880528       -23.9604
  38   2.0000      -0.848673       -23.0936
  39   2.0000      -0.838902       -22.8277
  40   2.0000      -0.832454       -22.6522
  41   2.0000      -0.826806       -22.4985
  42   2.0000      -0.757319       -20.6077
  43   2.0000      -0.735856       -20.0237
  44   2.0000      -0.728494       -19.8233
  45   2.0000      -0.694144       -18.8886
  46   2.0000      -0.686455       -18.6794
  47   2.0000      -0.681268       -18.5383
  48   2.0000      -0.674579       -18.3562
  49   2.0000      -0.657721       -17.8975
  50   2.0000      -0.648606       -17.6495
  51   2.0000      -0.641147       -17.4465
  52   2.0000      -0.628136       -17.0925
  53   2.0000      -0.623827       -16.9752
  54   2.0000      -0.604725       -16.4554
  55   2.0000      -0.603162       -16.4129
  56   2.0000      -0.599648       -16.3172
  57   2.0000      -0.578778       -15.7493
  58   2.0000      -0.576250       -15.6806
  59   2.0000      -0.563757       -15.3406
  60   2.0000      -0.558931       -15.2093
  61   2.0000      -0.548923       -14.9370
  62   2.0000      -0.534123       -14.5342
  63   2.0000      -0.521690       -14.1959
  64   2.0000      -0.519743       -14.1429
  65   2.0000      -0.512141       -13.9361
  66   2.0000      -0.502835       -13.6828
  67   2.0000      -0.497655       -13.5419
  68   2.0000      -0.482729       -13.1357
  69   2.0000      -0.465078       -12.6554
  70   2.0000      -0.459939       -12.5156
  71   2.0000      -0.451416       -12.2836
  72   2.0000      -0.354358        -9.6426
  73   2.0000      -0.348066        -9.4713
  74   2.0000      -0.328259        -8.9324
  75   2.0000      -0.319433        -8.6922
  76   2.0000      -0.315854        -8.5948
  77   0.0000       0.070711         1.9241
  78   0.0000       0.104311         2.8384
  79   0.0000       0.118202         3.2164
  80   0.0000       0.132006         3.5921
  81   0.0000       0.135188         3.6787

MULLIKEN ATOMIC CHARGES
-----------------------
   0 C :   -0.257946
   1 C :    0.033988
   2 O :   -0.374239
   3 C :    0.465417
   4 O :   -0.398231
   5 C :   -0.209499
   6 C :    0.140224
   7 C :   -0.281245
   8 N :   -0.124910
   9 C :    0.203495
  10 S :   -0.439653
  11 N :   -0.201384
  12 C :    0.055009
  13 C :    0.050963
  14 C :   -0.162200
  15 C :   -0.133330
  16 C :   -0.280035
  17 C :    0.316499
  18 O :   -0.359731
  19 C :   -0.291655
  20 H :    0.102445
  21 H :    0.089978
  22 H :    0.088831
  23 H :    0.094306
  24 H :    0.113757
  25 H :    0.124282
  26 H :    0.105309
  27 H :    0.124436
  28 H :    0.197182
  29 H :    0.194309
  30 H :    0.155001
  31 H :    0.156532
  32 H :    0.161088
  33 H :    0.130536
  34 H :    0.241085
  35 H :    0.169387
Sum of atomic charges:   -0.0000000

LOEWDIN ATOMIC CHARGES
----------------------
   0 C :    0.108664
   1 C :   -0.016535
   2 O :    0.291492
   3 C :   -0.417017
   4 O :    0.129092
   5 C :   -0.094253
   6 C :   -0.075194
   7 C :    0.126177
   8 N :    0.404044
   9 C :   -0.457314
  10 S :   -0.036264
  11 N :    0.397004
  12 C :   -0.045465
  13 C :   -0.040450
  14 C :    0.021753
  15 C :    0.041812
  16 C :   -0.002020
  17 C :   -0.194316
  18 O :    0.393270
  19 C :    0.028379
  20 H :   -0.023516
  21 H :   -0.030199
  22 H :   -0.025349
  23 H :   -0.034409
  24 H :   -0.025221
  25 H :   -0.007780
  26 H :   -0.019360
  27 H :   -0.010273
  28 H :   -0.058705
  29 H :   -0.064092
  30 H :   -0.004675
  31 H :   -0.024615
  32 H :   -0.020310
  33 H :   -0.035633
  34 H :   -0.153900
  35 H :   -0.024821

  Mayer bond orders larger than 0.100000
B(  0-C ,  1-C ) :   0.9798 B(  0-C , 20-H ) :   0.9781 B(  0-C , 21-H ) :   0.9797
B(  0-C , 22-H ) :   0.9762 B(  1-C ,  2-O ) :   0.8843 B(  1-C , 23-H ) :   0.9705
B(  1-C , 24-H ) :   0.9732 B(  2-O ,  3-C ) :   1.0954 B(  3-C ,  4-O ) :   2.0331
B(  3-C ,  5-C ) :   1.0203 B(  5-C ,  6-C ) :   1.6681 B(  5-C , 12-C ) :   0.9645
B(  6-C ,  7-C ) :   0.9519 B(  6-C ,  8-N ) :   1.1392 B(  7-C , 25-H ) :   0.9709
B(  7-C , 26-H ) :   0.9875 B(  7-C , 27-H ) :   0.9635 B(  8-N ,  9-C ) :   1.1843
B(  8-N , 28-H ) :   0.9498 B(  9-C , 10-S ) :   1.6109 B(  9-C , 11-N ) :   1.2997
B( 11-N , 12-C ) :   0.9931 B( 11-N , 29-H ) :   0.9517 B( 12-C , 13-C ) :   0.9444
B( 12-C , 30-H ) :   0.9985 B( 13-C , 14-C ) :   1.3775 B( 13-C , 19-C ) :   1.3625
B( 14-C , 15-C ) :   1.3938 B( 14-C , 31-H ) :   0.9638 B( 15-C , 16-C ) :   1.3642
B( 15-C , 32-H ) :   0.9707 B( 16-C , 17-C ) :   1.3312 B( 16-C , 33-H ) :   0.9849
B( 17-C , 18-O ) :   1.1087 B( 17-C , 19-C ) :   1.3717 B( 18-O , 34-H ) :   0.9798
B( 19-C , 35-H ) :   0.9585

MP2 TOTAL ENERGY:    -1274.324876992 Eh
FINAL SINGLE POINT ENERGY     -1274.324876992229

DIPOLE MOMENT
-------------
                                X             Y             Z
Electronic contribution:     11.31292       9.77874       8.36488
Nuclear contribution   :    -12.66721     -11.04527      -8.88988
                        -----------------------------------------
Total Dipole Moment    :     -1.35429      -1.26654      -0.52500
                        -----------------------------------------
Magnitude (a.u.)       :      1.92713
Magnitude (Debye)      :      4.89839

Rotational constants in cm-1:     0.011347     0.009093     0.006441
Rotational constants in MHz :   340.167531   272.595756   193.088731

                             ****ORCA TERMINATED NORMALLY****
TOTAL RUN TIME: 0 days 1 hours 43 minutes 29 seconds 748 msec
