                         Program Version 4.2.0 -  RELEASE  -
|  1> ! ri-mp2 cc-pvtz cc-pvtz/c TightSCF  NoKeepInts
|  2>
|  3> %scf
|  4>   MaxCore 4096
|  5> end
|  6> *xyz  0  1
|  7>     C       15.5304359   13.6633773   15.9860194
|  8>     C       15.1903239   15.1683414   15.9454828
|  9>     O       16.3427480   16.0464843   15.8993144
| 10>     C       17.4947312   15.8594635   16.6155850
| 11>     O       18.0485456   14.7799550   16.7334474
| 12>     C       17.8314328   17.0161950   17.5119891
| 13>     C       17.4381910   18.2999270   17.3039469
| 14>     C       16.6314948   18.8510417   16.1459792
| 15>     N       17.8501277   19.3041650   18.1861308
| 16>     C       18.7551938   19.1345533   19.2003549
| 17>     S       19.2759984   20.4034637   20.1245572
| 18>     N       19.2063305   17.8561965   19.4098556
| 19>     C       18.6816065   16.6542689   18.7348378
| 20>     C       17.8850910   15.7948824   19.7134362
| 21>     C       18.2030910   14.4356510   19.8904826
| 22>     C       17.4668047   13.6374755   20.7818736
| 23>     C       16.4016728   14.2023023   21.5037050
| 24>     C       16.0787801   15.5545840   21.3273674
| 25>     O       15.0457762   16.1011016   22.0169274
| 26>     C       16.8129662   16.3463078   20.4387608
| 27>     H       16.2535846   13.4040763   15.2024282
| 28>     H       14.6260643   13.0646557   15.8249182
| 29>     H       15.9469251   13.3760861   16.9598171
| 30>     H       14.5616404   15.3696087   15.0686430
| 31>     H       14.5947009   15.4080667   16.8360806
| 32>     H       15.5764878   18.5650159   16.2375106
| 33>     H       17.0052808   18.4632566   15.1899716
| 34>     H       16.6750340   19.9452711   16.0846234
| 35>     H       17.5315703   20.2499699   18.0483023
| 36>     H       19.8501101   17.7527202   20.1836737
| 37>     H       19.5430252   16.0681939   18.3829174
| 38>     H       19.0146471   13.9919010   19.3186896
| 39>     H       17.7198124   12.5859145   20.9047520
| 40>     H       15.8293158   13.5889647   22.1915897
| 41>     H       14.6995892   15.4173483   22.6098498
| 42>     H       16.5478700   17.3912127   20.3201795
| 43> *
| 44>
| 45>                          ****END OF INPUT****

CARTESIAN COORDINATES (ANGSTROEM)
---------------------------------
  C     15.530436   13.663377   15.986019
  C     15.190324   15.168341   15.945483
  O     16.342748   16.046484   15.899314
  C     17.494731   15.859463   16.615585
  O     18.048546   14.779955   16.733447
  C     17.831433   17.016195   17.511989
  C     17.438191   18.299927   17.303947
  C     16.631495   18.851042   16.145979
  N     17.850128   19.304165   18.186131
  C     18.755194   19.134553   19.200355
  S     19.275998   20.403464   20.124557
  N     19.206330   17.856196   19.409856
  C     18.681606   16.654269   18.734838
  C     17.885091   15.794882   19.713436
  C     18.203091   14.435651   19.890483
  C     17.466805   13.637476   20.781874
  C     16.401673   14.202302   21.503705
  C     16.078780   15.554584   21.327367
  O     15.045776   16.101102   22.016927
  C     16.812966   16.346308   20.438761
  H     16.253585   13.404076   15.202428
  H     14.626064   13.064656   15.824918
  H     15.946925   13.376086   16.959817
  H     14.561640   15.369609   15.068643
  H     14.594701   15.408067   16.836081
  H     15.576488   18.565016   16.237511
  H     17.005281   18.463257   15.189972
  H     16.675034   19.945271   16.084623
  H     17.531570   20.249970   18.048302
  H     19.850110   17.752720   20.183674
  H     19.543025   16.068194   18.382917
  H     19.014647   13.991901   19.318690
  H     17.719812   12.585914   20.904752
  H     15.829316   13.588965   22.191590
  H     14.699589   15.417348   22.609850
  H     16.547870   17.391213   20.320179

 Total Charge           Charge          ....    0
 Multiplicity           Mult            ....    1
 Number of Electrons    NEL             ....  154
 Basis Dimension        Dim             ....  828

ORBITAL ENERGIES
----------------

  NO   OCC          E(Eh)            E(eV)
   0   2.0000     -91.888046     -2500.4009
   1   2.0000     -20.593822      -560.3864
   2   2.0000     -20.591456      -560.3220
   3   2.0000     -20.549591      -559.1828
   4   2.0000     -15.627875      -425.2561
   5   2.0000     -15.607016      -424.6885
   6   2.0000     -11.397618      -310.1450
   7   2.0000     -11.383091      -309.7496
   8   2.0000     -11.334581      -308.4296
   9   2.0000     -11.309855      -307.7568
  10   2.0000     -11.306291      -307.6598
  11   2.0000     -11.306176      -307.6567
  12   2.0000     -11.259169      -306.3776
  13   2.0000     -11.258665      -306.3638
  14   2.0000     -11.255504      -306.2778
  15   2.0000     -11.250049      -306.1294
  16   2.0000     -11.239615      -305.8455
  17   2.0000     -11.235607      -305.7364
  18   2.0000     -11.232644      -305.6558
  19   2.0000     -11.222421      -305.3776
  20   2.0000      -8.893119      -241.9941
  21   2.0000      -6.574698      -178.9066
  22   2.0000      -6.572689      -178.8520
  23   2.0000      -6.572105      -178.8361
  24   2.0000      -1.445845       -39.3435
  25   2.0000      -1.413576       -38.4654
  26   2.0000      -1.357102       -36.9286
  27   2.0000      -1.339018       -36.4365
  28   2.0000      -1.236965       -33.6595
  29   2.0000      -1.153986       -31.4016
  30   2.0000      -1.119418       -30.4609
  31   2.0000      -1.042543       -28.3690
  32   2.0000      -1.033167       -28.1139
  33   2.0000      -1.011540       -27.5254
  34   2.0000      -0.997714       -27.1492
  35   2.0000      -0.982935       -26.7470
  36   2.0000      -0.922124       -25.0923
  37   2.0000      -0.892931       -24.2979
  38   2.0000      -0.848332       -23.0843
  39   2.0000      -0.837175       -22.7807
  40   2.0000      -0.830100       -22.5882
  41   2.0000      -0.820858       -22.3367
  42   2.0000      -0.744157       -20.2495
  43   2.0000      -0.727028       -19.7834
  44   2.0000      -0.725877       -19.7521
  45   2.0000      -0.692063       -18.8320
  46   2.0000      -0.684433       -18.6244
  47   2.0000      -0.679306       -18.4849
  48   2.0000      -0.672595       -18.3023
  49   2.0000      -0.666147       -18.1268
  50   2.0000      -0.646504       -17.5923
  51   2.0000      -0.644342       -17.5334
  52   2.0000      -0.635234       -17.2856
  53   2.0000      -0.606197       -16.4955
  54   2.0000      -0.602022       -16.3819
  55   2.0000      -0.600624       -16.3438
  56   2.0000      -0.597342       -16.2545
  57   2.0000      -0.576370       -15.6838
  58   2.0000      -0.573554       -15.6072
  59   2.0000      -0.571630       -15.5549
  60   2.0000      -0.559115       -15.2143
  61   2.0000      -0.545859       -14.8536
  62   2.0000      -0.536522       -14.5995
  63   2.0000      -0.524641       -14.2762
  64   2.0000      -0.518445       -14.1076
  65   2.0000      -0.510894       -13.9021
  66   2.0000      -0.498833       -13.5739
  67   2.0000      -0.494437       -13.4543
  68   2.0000      -0.479794       -13.0559
  69   2.0000      -0.463038       -12.5999
  70   2.0000      -0.455868       -12.4048
  71   2.0000      -0.446307       -12.1446
  72   2.0000      -0.353594        -9.6218
  73   2.0000      -0.345887        -9.4121
  74   2.0000      -0.327302        -8.9064
  75   2.0000      -0.317037        -8.6270
  76   2.0000      -0.314923        -8.5695
  77   0.0000       0.074293         2.0216
  78   0.0000       0.108326         2.9477
  79   0.0000       0.121019         3.2931
  80   0.0000       0.134209         3.6520
  81   0.0000       0.138738         3.7753

MULLIKEN ATOMIC CHARGES
-----------------------
   0 C :   -0.281094
   1 C :    0.045436
   2 O :   -0.377894
   3 C :    0.450369
   4 O :   -0.410057
   5 C :   -0.172796
   6 C :    0.144827
   7 C :   -0.284219
   8 N :   -0.123680
   9 C :    0.201589
  10 S :   -0.440212
  11 N :   -0.200292
  12 C :    0.046455
  13 C :    0.052054
  14 C :   -0.169000
  15 C :   -0.134243
  16 C :   -0.279990
  17 C :    0.311970
  18 O :   -0.358695
  19 C :   -0.276000
  20 H :    0.108122
  21 H :    0.093853
  22 H :    0.112911
  23 H :    0.100020
  24 H :    0.085780
  25 H :    0.123195
  26 H :    0.127917
  27 H :    0.103497
  28 H :    0.196918
  29 H :    0.194158
  30 H :    0.155124
  31 H :    0.156938
  32 H :    0.160817
  33 H :    0.129302
  34 H :    0.240410
  35 H :    0.166511
Sum of atomic charges:   -0.0000000

LOEWDIN ATOMIC CHARGES
----------------------
   0 C :    0.104253
   1 C :   -0.012700
   2 O :    0.286448
   3 C :   -0.411546
   4 O :    0.124554
   5 C :   -0.092851
   6 C :   -0.068909
   7 C :    0.124949
   8 N :    0.404426
   9 C :   -0.458588
  10 S :   -0.036727
  11 N :    0.397512
  12 C :   -0.046291
  13 C :   -0.039823
  14 C :    0.021138
  15 C :    0.040263
  16 C :   -0.002488
  17 C :   -0.193218
  18 O :    0.393141
  19 C :    0.028016
  20 H :   -0.023308
  21 H :   -0.028691
  22 H :   -0.025599
  23 H :   -0.024183
  24 H :   -0.031952
  25 H :   -0.010453
  26 H :   -0.007558
  27 H :   -0.020632
  28 H :   -0.059049
  29 H :   -0.063893
  30 H :   -0.005207
  31 H :   -0.024909
  32 H :   -0.020878
  33 H :   -0.036107
  34 H :   -0.154558
  35 H :   -0.024581

  Mayer bond orders larger than 0.100000
B(  0-C ,  1-C ) :   0.9821 B(  0-C , 20-H ) :   0.9737 B(  0-C , 21-H ) :   0.9731
B(  0-C , 22-H ) :   0.9717 B(  1-C ,  2-O ) :   0.9041 B(  1-C , 23-H ) :   0.9800
B(  1-C , 24-H ) :   0.9743 B(  2-O ,  3-C ) :   1.0887 B(  3-C ,  4-O ) :   2.0110
B(  3-C ,  5-C ) :   1.0391 B(  5-C ,  6-C ) :   1.6632 B(  5-C , 12-C ) :   0.9632
B(  6-C ,  7-C ) :   0.9525 B(  6-C ,  8-N ) :   1.1413 B(  7-C , 25-H ) :   0.9649
B(  7-C , 26-H ) :   0.9671 B(  7-C , 27-H ) :   0.9903 B(  8-N ,  9-C ) :   1.1825
B(  8-N , 28-H ) :   0.9491 B(  9-C , 10-S ) :   1.6098 B(  9-C , 11-N ) :   1.3025
B( 11-N , 12-C ) :   0.9904 B( 11-N , 29-H ) :   0.9517 B( 12-C , 13-C ) :   0.9450
B( 12-C , 30-H ) :   0.9992 B( 13-C , 14-C ) :   1.3759 B( 13-C , 19-C ) :   1.3683
B( 14-C , 15-C ) :   1.3936 B( 14-C , 31-H ) :   0.9638 B( 15-C , 16-C ) :   1.3626
B( 15-C , 32-H ) :   0.9707 B( 16-C , 17-C ) :   1.3314 B( 16-C , 33-H ) :   0.9856
B( 17-C , 18-O ) :   1.1087 B( 17-C , 19-C ) :   1.3763 B( 18-O , 34-H ) :   0.9802
B( 19-C , 35-H ) :   0.9582

MP2 TOTAL ENERGY:    -1274.330571665 Eh
FINAL SINGLE POINT ENERGY     -1274.330571664950

DIPOLE MOMENT
-------------
                                X             Y             Z
Electronic contribution:      9.96677      10.59354       8.82995
Nuclear contribution   :    -11.56458     -11.79699      -9.64387
                        -----------------------------------------
Total Dipole Moment    :     -1.59780      -1.20344      -0.81392
                        -----------------------------------------
Magnitude (a.u.)       :      2.15956
Magnitude (Debye)      :      5.48918

Rotational constants in cm-1:     0.011336     0.009061     0.006190
Rotational constants in MHz :   339.848824   271.649516   185.558738

                             ****ORCA TERMINATED NORMALLY****
TOTAL RUN TIME: 0 days 1 hours 36 minutes 31 seconds 546 msec
