                         Program Version 4.2.0 -  RELEASE  -
|  1> ! ri-mp2 cc-pvtz cc-pvtz/c TightSCF  NoKeepInts
|  2>
|  3> %scf
|  4>   MaxCore 4096
|  5> end
|  6> *xyz  0  1
|  7>     C       14.8313368   14.6619415   16.9604328
|  8>     C       15.7288169   14.7679352   15.7135656
|  9>     O       16.5119105   15.9687966   15.8369383
| 10>     C       17.7124442   15.9178325   16.4855035
| 11>     O       18.3590636   14.8864297   16.5707082
| 12>     C       17.9001397   17.0508701   17.4495159
| 13>     C       17.3767249   18.2923460   17.2839278
| 14>     C       16.5573293   18.8023365   16.1166169
| 15>     N       17.6429165   19.2897450   18.2273381
| 16>     C       18.5179235   19.1639899   19.2742490
| 17>     S       18.8609920   20.4314899   20.2799222
| 18>     N       19.0951064   17.9308901   19.4455056
| 19>     C       18.7347375   16.7165531   18.6893714
| 20>     C       17.9915117   15.7280490   19.5840915
| 21>     C       18.4543030   14.4069371   19.7262119
| 22>     C       17.7624381   13.4883945   20.5333438
| 23>     C       16.5958915   13.8929092   21.2042859
| 24>     C       16.1292735   15.2066890   21.0623283
| 25>     O       14.9976920   15.5977389   21.7008332
| 26>     C       16.8201476   16.1186590   20.2585107
| 27>     H       15.4400556   14.5384388   17.8657031
| 28>     H       14.1628912   13.7962919   16.8802998
| 29>     H       14.2163461   15.5628601   17.0765462
| 30>     H       16.3567492   13.8732563   15.6021400
| 31>     H       15.0894606   14.8447437   14.8248737
| 32>     H       15.5294062   18.4225307   16.1714161
| 33>     H       16.9871219   18.4724281   15.1626025
| 34>     H       16.5076209   19.8974783   16.0836633
| 35>     H       17.2285736   20.2017322   18.1193295
| 36>     H       19.7121307   17.8566343   20.2440519
| 37>     H       19.6678204   16.2439995   18.3499056
| 38>     H       19.3447572   14.0859510   19.1911273
| 39>     H       18.1277878   12.4675459   20.6296417
| 40>     H       16.0570488   13.1858503   21.8261242
| 41>     H       14.6966280   14.8511329   22.2401200
| 42>     H       16.4419024   17.1305930   20.1632542
| 43> *
| 44>
| 45>                          ****END OF INPUT****

CARTESIAN COORDINATES (ANGSTROEM)
---------------------------------
  C     14.831337   14.661941   16.960433
  C     15.728817   14.767935   15.713566
  O     16.511910   15.968797   15.836938
  C     17.712444   15.917832   16.485504
  O     18.359064   14.886430   16.570708
  C     17.900140   17.050870   17.449516
  C     17.376725   18.292346   17.283928
  C     16.557329   18.802336   16.116617
  N     17.642916   19.289745   18.227338
  C     18.517923   19.163990   19.274249
  S     18.860992   20.431490   20.279922
  N     19.095106   17.930890   19.445506
  C     18.734738   16.716553   18.689371
  C     17.991512   15.728049   19.584091
  C     18.454303   14.406937   19.726212
  C     17.762438   13.488395   20.533344
  C     16.595892   13.892909   21.204286
  C     16.129274   15.206689   21.062328
  O     14.997692   15.597739   21.700833
  C     16.820148   16.118659   20.258511
  H     15.440056   14.538439   17.865703
  H     14.162891   13.796292   16.880300
  H     14.216346   15.562860   17.076546
  H     16.356749   13.873256   15.602140
  H     15.089461   14.844744   14.824874
  H     15.529406   18.422531   16.171416
  H     16.987122   18.472428   15.162603
  H     16.507621   19.897478   16.083663
  H     17.228574   20.201732   18.119329
  H     19.712131   17.856634   20.244052
  H     19.667820   16.244000   18.349906
  H     19.344757   14.085951   19.191127
  H     18.127788   12.467546   20.629642
  H     16.057049   13.185850   21.826124
  H     14.696628   14.851133   22.240120
  H     16.441902   17.130593   20.163254

 Total Charge           Charge          ....    0
 Multiplicity           Mult            ....    1
 Number of Electrons    NEL             ....  154
 Basis Dimension        Dim             ....  828

ORBITAL ENERGIES
----------------

  NO   OCC          E(Eh)            E(eV)
   0   2.0000     -91.888161     -2500.4040
   1   2.0000     -20.596744      -560.4659
   2   2.0000     -20.594216      -560.3971
   3   2.0000     -20.549614      -559.1834
   4   2.0000     -15.627809      -425.2543
   5   2.0000     -15.607491      -424.7014
   6   2.0000     -11.395922      -310.0988
   7   2.0000     -11.383481      -309.7603
   8   2.0000     -11.333674      -308.4049
   9   2.0000     -11.310319      -307.7694
  10   2.0000     -11.307390      -307.6897
  11   2.0000     -11.297327      -307.4159
  12   2.0000     -11.259691      -306.3918
  13   2.0000     -11.259026      -306.3737
  14   2.0000     -11.255967      -306.2904
  15   2.0000     -11.250678      -306.1465
  16   2.0000     -11.240306      -305.8643
  17   2.0000     -11.236000      -305.7471
  18   2.0000     -11.233428      -305.6771
  19   2.0000     -11.226115      -305.4781
  20   2.0000      -8.893235      -241.9972
  21   2.0000      -6.574814      -178.9098
  22   2.0000      -6.572805      -178.8551
  23   2.0000      -6.572221      -178.8392
  24   2.0000      -1.453373       -39.5483
  25   2.0000      -1.414004       -38.4770
  26   2.0000      -1.357352       -36.9354
  27   2.0000      -1.338998       -36.4360
  28   2.0000      -1.237152       -33.6646
  29   2.0000      -1.154856       -31.4252
  30   2.0000      -1.120621       -30.4936
  31   2.0000      -1.043524       -28.3957
  32   2.0000      -1.033501       -28.1230
  33   2.0000      -1.012111       -27.5410
  34   2.0000      -0.998430       -27.1687
  35   2.0000      -0.984008       -26.7762
  36   2.0000      -0.922511       -25.1028
  37   2.0000      -0.891503       -24.2590
  38   2.0000      -0.847286       -23.0558
  39   2.0000      -0.836627       -22.7658
  40   2.0000      -0.830630       -22.6026
  41   2.0000      -0.814900       -22.1746
  42   2.0000      -0.755648       -20.5622
  43   2.0000      -0.736385       -20.0381
  44   2.0000      -0.726766       -19.7763
  45   2.0000      -0.692815       -18.8525
  46   2.0000      -0.685629       -18.6569
  47   2.0000      -0.678621       -18.4662
  48   2.0000      -0.673264       -18.3204
  49   2.0000      -0.660116       -17.9627
  50   2.0000      -0.650734       -17.7074
  51   2.0000      -0.645134       -17.5550
  52   2.0000      -0.634278       -17.2596
  53   2.0000      -0.605569       -16.4784
  54   2.0000      -0.601678       -16.3725
  55   2.0000      -0.598585       -16.2883
  56   2.0000      -0.597891       -16.2694
  57   2.0000      -0.580809       -15.8046
  58   2.0000      -0.575323       -15.6553
  59   2.0000      -0.562493       -15.3062
  60   2.0000      -0.556693       -15.1484
  61   2.0000      -0.553865       -15.0714
  62   2.0000      -0.537770       -14.6335
  63   2.0000      -0.527426       -14.3520
  64   2.0000      -0.519564       -14.1381
  65   2.0000      -0.510571       -13.8933
  66   2.0000      -0.498192       -13.5565
  67   2.0000      -0.494610       -13.4590
  68   2.0000      -0.481890       -13.1129
  69   2.0000      -0.464120       -12.6294
  70   2.0000      -0.459946       -12.5158
  71   2.0000      -0.450596       -12.2613
  72   2.0000      -0.353774        -9.6267
  73   2.0000      -0.346493        -9.4286
  74   2.0000      -0.327438        -8.9101
  75   2.0000      -0.317714        -8.6454
  76   2.0000      -0.315088        -8.5740
  77   0.0000       0.075144         2.0448
  78   0.0000       0.109135         2.9697
  79   0.0000       0.119291         3.2461
  80   0.0000       0.133397         3.6299
  81   0.0000       0.143113         3.8943

MULLIKEN ATOMIC CHARGES
-----------------------
   0 C :   -0.289205
   1 C :    0.025169
   2 O :   -0.359156
   3 C :    0.434605
   4 O :   -0.416476
   5 C :   -0.164545
   6 C :    0.137265
   7 C :   -0.284245
   8 N :   -0.124409
   9 C :    0.203751
  10 S :   -0.440142
  11 N :   -0.200311
  12 C :    0.052013
  13 C :    0.038871
  14 C :   -0.156485
  15 C :   -0.136046
  16 C :   -0.278074
  17 C :    0.312537
  18 O :   -0.360573
  19 C :   -0.274868
  20 H :    0.117928
  21 H :    0.098307
  22 H :    0.091876
  23 H :    0.116344
  24 H :    0.103554
  25 H :    0.126584
  26 H :    0.124741
  27 H :    0.102357
  28 H :    0.196982
  29 H :    0.194054
  30 H :    0.154470
  31 H :    0.155950
  32 H :    0.160170
  33 H :    0.129987
  34 H :    0.240467
  35 H :    0.166550
Sum of atomic charges:   -0.0000000

LOEWDIN ATOMIC CHARGES
----------------------
   0 C :    0.105212
   1 C :   -0.017388
   2 O :    0.301922
   3 C :   -0.413809
   4 O :    0.111594
   5 C :   -0.091738
   6 C :   -0.071434
   7 C :    0.125710
   8 N :    0.404250
   9 C :   -0.457702
  10 S :   -0.036647
  11 N :    0.397456
  12 C :   -0.045497
  13 C :   -0.040937
  14 C :    0.021522
  15 C :    0.040910
  16 C :   -0.002601
  17 C :   -0.193799
  18 O :    0.393897
  19 C :    0.029309
  20 H :   -0.022806
  21 H :   -0.026322
  22 H :   -0.029183
  23 H :   -0.027412
  24 H :   -0.027460
  25 H :   -0.010424
  26 H :   -0.008252
  27 H :   -0.020239
  28 H :   -0.058965
  29 H :   -0.063984
  30 H :   -0.004815
  31 H :   -0.024781
  32 H :   -0.020671
  33 H :   -0.035903
  34 H :   -0.154449
  35 H :   -0.024565

  Mayer bond orders larger than 0.100000
B(  0-C ,  1-C ) :   0.9653 B(  0-C , 20-H ) :   0.9703 B(  0-C , 21-H ) :   0.9770
B(  0-C , 22-H ) :   0.9782 B(  1-C ,  2-O ) :   0.8896 B(  1-C , 23-H ) :   0.9749
B(  1-C , 24-H ) :   0.9846 B(  2-O ,  3-C ) :   1.1299 B(  3-C ,  4-O ) :   2.0000
B(  3-C ,  5-C ) :   1.0301 B(  5-C ,  6-C ) :   1.6625 B(  5-C , 12-C ) :   0.9645
B(  6-C ,  7-C ) :   0.9536 B(  6-C ,  8-N ) :   1.1405 B(  7-C , 25-H ) :   0.9629
B(  7-C , 26-H ) :   0.9690 B(  7-C , 27-H ) :   0.9892 B(  8-N ,  9-C ) :   1.1831
B(  8-N , 28-H ) :   0.9495 B(  9-C , 10-S ) :   1.6101 B(  9-C , 11-N ) :   1.3012
B( 11-N , 12-C ) :   0.9930 B( 11-N , 29-H ) :   0.9518 B( 12-C , 13-C ) :   0.9431
B( 12-C , 30-H ) :   0.9990 B( 13-C , 14-C ) :   1.3781 B( 13-C , 19-C ) :   1.3700
B( 14-C , 15-C ) :   1.3940 B( 14-C , 31-H ) :   0.9637 B( 15-C , 16-C ) :   1.3626
B( 15-C , 32-H ) :   0.9714 B( 16-C , 17-C ) :   1.3308 B( 16-C , 33-H ) :   0.9853
B( 17-C , 18-O ) :   1.1085 B( 17-C , 19-C ) :   1.3751 B( 18-O , 34-H ) :   0.9802
B( 19-C , 35-H ) :   0.9587

MP2 TOTAL ENERGY:    -1274.340684663 Eh
FINAL SINGLE POINT ENERGY     -1274.340684663268

DIPOLE MOMENT
-------------
                                X             Y             Z
Electronic contribution:     10.43294       9.22023       7.18998
Nuclear contribution   :    -11.79153     -10.55517      -8.10837
                        -----------------------------------------
Total Dipole Moment    :     -1.35859      -1.33494      -0.91838
                        -----------------------------------------
Magnitude (a.u.)       :      2.11453
Magnitude (Debye)      :      5.37472

Rotational constants in cm-1:     0.011684     0.009258     0.006564
Rotational constants in MHz :   350.283127   277.561064   196.779843

                             ****ORCA TERMINATED NORMALLY****
TOTAL RUN TIME: 0 days 1 hours 43 minutes 57 seconds 707 msec
