                         Program Version 4.2.0 -  RELEASE  -
|  1> ! ri-mp2 cc-pvtz cc-pvtz/c TightSCF  NoKeepInts
|  2>
|  3> %scf
|  4>   MaxCore 4096
|  5> end
|  6> *xyz  0  1
|  7>     C       15.2590921   14.6992441   17.1776462
|  8>     C       16.4064324   14.0914393   16.3433106
|  9>     O       17.6332412   14.8489542   16.4511260
| 10>     C       17.6348656   16.1675583   16.0977075
| 11>     O       17.1306582   16.5100249   15.0423558
| 12>     C       17.7804841   17.0874822   17.2803177
| 13>     C       17.3827803   18.3858326   17.2529133
| 14>     C       16.6309389   19.0972902   16.1483821
| 15>     N       17.7258926   19.2418115   18.3047219
| 16>     C       18.6522352   18.9470577   19.2706436
| 17>     S       19.1696181   20.0753994   20.3635073
| 18>     N       19.1337637   17.6618747   19.2786975
| 19>     C       18.5567005   16.5523668   18.4963724
| 20>     C       17.7193150   15.6693272   19.4170791
| 21>     C       18.0386177   14.3074906   19.5779862
| 22>     C       17.2895970   13.4936783   20.4445760
| 23>     C       16.2159501   14.0465339   21.1632045
| 24>     C       15.8992347   15.4035099   21.0125927
| 25>     O       14.8618053   15.9397457   21.7029783
| 26>     C       16.6442822   16.2102958   20.1468153
| 27>     H       15.4615022   14.6064742   18.2478802
| 28>     H       14.3250947   14.1616737   16.9748742
| 29>     H       15.0918674   15.7558232   16.9363082
| 30>     H       16.5850277   13.0599640   16.6728635
| 31>     H       16.0985346   14.0538378   15.2894515
| 32>     H       17.2466000   19.1596218   15.2419012
| 33>     H       16.3333021   20.1166307   16.4205719
| 34>     H       15.7179498   18.5477510   15.8863897
| 35>     H       17.3907829   20.1920071   18.3020571
| 36>     H       19.7949058   17.4632522   20.0185942
| 37>     H       19.3931719   15.9495231   18.1156530
| 38>     H       18.8681951   13.8763755   19.0236613
| 39>     H       17.5438330   12.4413157   20.5591508
| 40>     H       15.6355790   13.4223781   21.8347946
| 41>     H       14.5098266   15.2494181   22.2848063
| 42>     H       16.3853224   17.2590367   20.0521082
| 43> *
| 44>
| 45>                          ****END OF INPUT****

CARTESIAN COORDINATES (ANGSTROEM)
---------------------------------
  C     15.259092   14.699244   17.177646
  C     16.406432   14.091439   16.343311
  O     17.633241   14.848954   16.451126
  C     17.634866   16.167558   16.097707
  O     17.130658   16.510025   15.042356
  C     17.780484   17.087482   17.280318
  C     17.382780   18.385833   17.252913
  C     16.630939   19.097290   16.148382
  N     17.725893   19.241811   18.304722
  C     18.652235   18.947058   19.270644
  S     19.169618   20.075399   20.363507
  N     19.133764   17.661875   19.278697
  C     18.556701   16.552367   18.496372
  C     17.719315   15.669327   19.417079
  C     18.038618   14.307491   19.577986
  C     17.289597   13.493678   20.444576
  C     16.215950   14.046534   21.163204
  C     15.899235   15.403510   21.012593
  O     14.861805   15.939746   21.702978
  C     16.644282   16.210296   20.146815
  H     15.461502   14.606474   18.247880
  H     14.325095   14.161674   16.974874
  H     15.091867   15.755823   16.936308
  H     16.585028   13.059964   16.672863
  H     16.098535   14.053838   15.289452
  H     17.246600   19.159622   15.241901
  H     16.333302   20.116631   16.420572
  H     15.717950   18.547751   15.886390
  H     17.390783   20.192007   18.302057
  H     19.794906   17.463252   20.018594
  H     19.393172   15.949523   18.115653
  H     18.868195   13.876375   19.023661
  H     17.543833   12.441316   20.559151
  H     15.635579   13.422378   21.834795
  H     14.509827   15.249418   22.284806
  H     16.385322   17.259037   20.052108

 Total Charge           Charge          ....    0
 Multiplicity           Mult            ....    1
 Number of Electrons    NEL             ....  154
 Basis Dimension        Dim             ....  828

ORBITAL ENERGIES
----------------

  NO   OCC          E(Eh)            E(eV)
   0   2.0000     -91.890853     -2500.4772
   1   2.0000     -20.598464      -560.5127
   2   2.0000     -20.584478      -560.1321
   3   2.0000     -20.548767      -559.1604
   4   2.0000     -15.630965      -425.3402
   5   2.0000     -15.609177      -424.7473
   6   2.0000     -11.394392      -310.0572
   7   2.0000     -11.385230      -309.8079
   8   2.0000     -11.337010      -308.4957
   9   2.0000     -11.315872      -307.9205
  10   2.0000     -11.311581      -307.8038
  11   2.0000     -11.298211      -307.4399
  12   2.0000     -11.261394      -306.4381
  13   2.0000     -11.260538      -306.4148
  14   2.0000     -11.257518      -306.3326
  15   2.0000     -11.253801      -306.2315
  16   2.0000     -11.245660      -306.0100
  17   2.0000     -11.240127      -305.8594
  18   2.0000     -11.239798      -305.8505
  19   2.0000     -11.222618      -305.3830
  20   2.0000      -8.895863      -242.0687
  21   2.0000      -6.577427      -178.9809
  22   2.0000      -6.575435      -178.9267
  23   2.0000      -6.574837      -178.9104
  24   2.0000      -1.448673       -39.4204
  25   2.0000      -1.418226       -38.5919
  26   2.0000      -1.351297       -36.7707
  27   2.0000      -1.341935       -36.5159
  28   2.0000      -1.239933       -33.7403
  29   2.0000      -1.159061       -31.5397
  30   2.0000      -1.120879       -30.5007
  31   2.0000      -1.044036       -28.4097
  32   2.0000      -1.031575       -28.0706
  33   2.0000      -1.017281       -27.6816
  34   2.0000      -0.998481       -27.1701
  35   2.0000      -0.986158       -26.8347
  36   2.0000      -0.924353       -25.1529
  37   2.0000      -0.894793       -24.3486
  38   2.0000      -0.848035       -23.0762
  39   2.0000      -0.841303       -22.8930
  40   2.0000      -0.836051       -22.7501
  41   2.0000      -0.816094       -22.2070
  42   2.0000      -0.750518       -20.4226
  43   2.0000      -0.733903       -19.9705
  44   2.0000      -0.722955       -19.6726
  45   2.0000      -0.697841       -18.9892
  46   2.0000      -0.691052       -18.8045
  47   2.0000      -0.676509       -18.4087
  48   2.0000      -0.668245       -18.1839
  49   2.0000      -0.666341       -18.1321
  50   2.0000      -0.649874       -17.6840
  51   2.0000      -0.644764       -17.5449
  52   2.0000      -0.637236       -17.3401
  53   2.0000      -0.613962       -16.7067
  54   2.0000      -0.608593       -16.5607
  55   2.0000      -0.601024       -16.3547
  56   2.0000      -0.600206       -16.3324
  57   2.0000      -0.579428       -15.7670
  58   2.0000      -0.571917       -15.5627
  59   2.0000      -0.564851       -15.3704
  60   2.0000      -0.552210       -15.0264
  61   2.0000      -0.544030       -14.8038
  62   2.0000      -0.539885       -14.6910
  63   2.0000      -0.528668       -14.3858
  64   2.0000      -0.526457       -14.3256
  65   2.0000      -0.515346       -14.0233
  66   2.0000      -0.503305       -13.6956
  67   2.0000      -0.501715       -13.6524
  68   2.0000      -0.475231       -12.9317
  69   2.0000      -0.465047       -12.6546
  70   2.0000      -0.452629       -12.3167
  71   2.0000      -0.444388       -12.0924
  72   2.0000      -0.357539        -9.7291
  73   2.0000      -0.350593        -9.5401
  74   2.0000      -0.329956        -8.9786
  75   2.0000      -0.324467        -8.8292
  76   2.0000      -0.317505        -8.6398
  77   0.0000       0.067560         1.8384
  78   0.0000       0.105370         2.8673
  79   0.0000       0.121150         3.2967
  80   0.0000       0.129779         3.5315
  81   0.0000       0.133956         3.6451

MULLIKEN ATOMIC CHARGES
-----------------------
   0 C :   -0.323417
   1 C :    0.035736
   2 O :   -0.387852
   3 C :    0.468826
   4 O :   -0.411300
   5 C :   -0.216359
   6 C :    0.155409
   7 C :   -0.271741
   8 N :   -0.123260
   9 C :    0.196477
  10 S :   -0.432970
  11 N :   -0.192039
  12 C :    0.027816
  13 C :    0.046099
  14 C :   -0.180205
  15 C :   -0.135884
  16 C :   -0.272280
  17 C :    0.298473
  18 O :   -0.358858
  19 C :   -0.243194
  20 H :    0.114120
  21 H :    0.115127
  22 H :    0.103042
  23 H :    0.113537
  24 H :    0.119321
  25 H :    0.136034
  26 H :    0.094694
  27 H :    0.126960
  28 H :    0.198360
  29 H :    0.190516
  30 H :    0.150411
  31 H :    0.156630
  32 H :    0.161749
  33 H :    0.132061
  34 H :    0.240849
  35 H :    0.167111
Sum of atomic charges:   -0.0000000

LOEWDIN ATOMIC CHARGES
----------------------
   0 C :    0.108216
   1 C :   -0.013953
   2 O :    0.282247
   3 C :   -0.419359
   4 O :    0.117215
   5 C :   -0.096903
   6 C :   -0.059348
   7 C :    0.130448
   8 N :    0.406830
   9 C :   -0.459005
  10 S :   -0.031424
  11 N :    0.396634
  12 C :   -0.052365
  13 C :   -0.039301
  14 C :    0.015799
  15 C :    0.038698
  16 C :   -0.002632
  17 C :   -0.192253
  18 O :    0.396567
  19 C :    0.032654
  20 H :   -0.028496
  21 H :   -0.024122
  22 H :   -0.029218
  23 H :   -0.023164
  24 H :   -0.028641
  25 H :   -0.003187
  26 H :   -0.023070
  27 H :   -0.007354
  28 H :   -0.057830
  29 H :   -0.065106
  30 H :   -0.006342
  31 H :   -0.028532
  32 H :   -0.020678
  33 H :   -0.035066
  34 H :   -0.153495
  35 H :   -0.024463

  Mayer bond orders larger than 0.100000
B(  0-C ,  1-C ) :   0.9570 B(  0-C , 20-H ) :   0.9704 B(  0-C , 21-H ) :   0.9783
B(  0-C , 22-H ) :   0.9729 B(  1-C ,  2-O ) :   0.8825 B(  1-C , 23-H ) :   0.9823
B(  1-C , 24-H ) :   0.9846 B(  2-O ,  3-C ) :   1.1034 B(  3-C ,  4-O ) :   2.0024
B(  3-C ,  5-C ) :   1.0639 B(  5-C ,  6-C ) :   1.6539 B(  5-C , 12-C ) :   0.9703
B(  6-C ,  7-C ) :   0.9710 B(  6-C ,  8-N ) :   1.1425 B(  7-C , 25-H ) :   0.9570
B(  7-C , 26-H ) :   0.9885 B(  7-C , 27-H ) :   0.9651 B(  8-N ,  9-C ) :   1.1778
B(  8-N , 28-H ) :   0.9486 B(  9-C , 10-S ) :   1.6207 B(  9-C , 11-N ) :   1.2981
B( 11-N , 12-C ) :   0.9875 B( 11-N , 29-H ) :   0.9540 B( 12-C , 13-C ) :   0.9367
B( 12-C , 30-H ) :   1.0051 B( 13-C , 14-C ) :   1.3667 B( 13-C , 19-C ) :   1.3735
B( 14-C , 15-C ) :   1.3864 B( 14-C , 31-H ) :   0.9676 B( 15-C , 16-C ) :   1.3620
B( 15-C , 32-H ) :   0.9713 B( 16-C , 17-C ) :   1.3307 B( 16-C , 33-H ) :   0.9847
B( 17-C , 18-O ) :   1.1136 B( 17-C , 19-C ) :   1.3795 B( 18-O , 34-H ) :   0.9796
B( 19-C , 35-H ) :   0.9565

MP2 TOTAL ENERGY:    -1274.329809941 Eh
FINAL SINGLE POINT ENERGY     -1274.329809940996

DIPOLE MOMENT
-------------
                                X             Y             Z
Electronic contribution:      9.80560       8.83191       5.81035
Nuclear contribution   :    -10.85815     -10.48289      -5.86341
                        -----------------------------------------
Total Dipole Moment    :     -1.05255      -1.65098      -0.05306
                        -----------------------------------------
Magnitude (a.u.)       :      1.95867
Magnitude (Debye)      :      4.97856

Rotational constants in cm-1:     0.011823     0.009814     0.006589
Rotational constants in MHz :   354.455271   294.229459   197.526536

                             ****ORCA TERMINATED NORMALLY****
TOTAL RUN TIME: 0 days 1 hours 48 minutes 44 seconds 754 msec
