                         Program Version 4.2.0 -  RELEASE  -
|  1> ! ri-mp2 cc-pvtz cc-pvtz/c TightSCF  NoKeepInts
|  2>
|  3> %scf
|  4>   MaxCore 4096
|  5> end
|  6> *xyz  0  1
|  7>     C       15.1395701   15.5672539   17.3406855
|  8>     C       15.5926140   15.2163604   15.9075613
|  9>     O       17.0110874   15.3405720   15.6143261
| 10>     C       18.0540465   15.6536058   16.4529549
| 11>     O       19.0058984   14.8981009   16.5267981
| 12>     C       17.9079920   16.8082958   17.3988899
| 13>     C       17.3322260   17.9846855   17.0450398
| 14>     C       16.7411939   18.3548343   15.6997751
| 15>     N       17.3383887   19.0596372   17.9378884
| 16>     C       18.0592788   19.1016823   19.1019942
| 17>     S       18.1104556   20.4591416   20.0448003
| 18>     N       18.7392147   17.9595220   19.4434360
| 19>     C       18.6166836   16.6611873   18.7512221
| 20>     C       17.9268858   15.6278843   19.6388054
| 21>     C       18.3889757   14.2989536   19.6619727
| 22>     C       17.7569714   13.3327998   20.4621542
| 23>     C       16.6511065   13.6964914   21.2487265
| 24>     C       16.1854470   15.0178369   21.2288282
| 25>     O       15.1109802   15.3699706   21.9785660
| 26>     C       16.8162069   15.9778085   20.4310601
| 27>     H       15.7316483   15.0152820   18.0786258
| 28>     H       14.0951588   15.2618357   17.4785155
| 29>     H       15.1830620   16.6379636   17.5563653
| 30>     H       15.3102013   14.1720179   15.7200224
| 31>     H       15.0239037   15.8248004   15.1929702
| 32>     H       15.6630830   18.1608523   15.6712567
| 33>     H       17.2117404   17.7949359   14.8821882
| 34>     H       16.8942512   19.4170739   15.4709435
| 35>     H       16.8589968   19.9127176   17.6968910
| 36>     H       19.2510791   18.0119596   20.3150751
| 37>     H       19.6368282   16.3002105   18.5530918
| 38>     H       19.2375296   14.0104589   19.0449559
| 39>     H       18.1236172   12.3076758   20.4661977
| 40>     H       16.1589185   12.9525617   21.8664046
| 41>     H       14.8497089   14.5926664   22.4950070
| 42>     H       16.4320501   16.9923637   20.4300046
| 43> *
| 44>
| 45>                          ****END OF INPUT****

CARTESIAN COORDINATES (ANGSTROEM)
---------------------------------
  C     15.139570   15.567254   17.340685
  C     15.592614   15.216360   15.907561
  O     17.011087   15.340572   15.614326
  C     18.054046   15.653606   16.452955
  O     19.005898   14.898101   16.526798
  C     17.907992   16.808296   17.398890
  C     17.332226   17.984686   17.045040
  C     16.741194   18.354834   15.699775
  N     17.338389   19.059637   17.937888
  C     18.059279   19.101682   19.101994
  S     18.110456   20.459142   20.044800
  N     18.739215   17.959522   19.443436
  C     18.616684   16.661187   18.751222
  C     17.926886   15.627884   19.638805
  C     18.388976   14.298954   19.661973
  C     17.756971   13.332800   20.462154
  C     16.651107   13.696491   21.248727
  C     16.185447   15.017837   21.228828
  O     15.110980   15.369971   21.978566
  C     16.816207   15.977809   20.431060
  H     15.731648   15.015282   18.078626
  H     14.095159   15.261836   17.478515
  H     15.183062   16.637964   17.556365
  H     15.310201   14.172018   15.720022
  H     15.023904   15.824800   15.192970
  H     15.663083   18.160852   15.671257
  H     17.211740   17.794936   14.882188
  H     16.894251   19.417074   15.470943
  H     16.858997   19.912718   17.696891
  H     19.251079   18.011960   20.315075
  H     19.636828   16.300210   18.553092
  H     19.237530   14.010459   19.044956
  H     18.123617   12.307676   20.466198
  H     16.158918   12.952562   21.866405
  H     14.849709   14.592666   22.495007
  H     16.432050   16.992364   20.430005

 Total Charge           Charge          ....    0
 Multiplicity           Mult            ....    1
 Number of Electrons    NEL             ....  154
 Basis Dimension        Dim             ....  828

ORBITAL ENERGIES
----------------

  NO   OCC          E(Eh)            E(eV)
   0   2.0000     -91.891126     -2500.4847
   1   2.0000     -20.597301      -560.4810
   2   2.0000     -20.591306      -560.3179
   3   2.0000     -20.548087      -559.1419
   4   2.0000     -15.630467      -425.3266
   5   2.0000     -15.610409      -424.7808
   6   2.0000     -11.398350      -310.1649
   7   2.0000     -11.386763      -309.8496
   8   2.0000     -11.335473      -308.4539
   9   2.0000     -11.313847      -307.8654
  10   2.0000     -11.312523      -307.8294
  11   2.0000     -11.310971      -307.7872
  12   2.0000     -11.266584      -306.5793
  13   2.0000     -11.264179      -306.5139
  14   2.0000     -11.260396      -306.4110
  15   2.0000     -11.254225      -306.2430
  16   2.0000     -11.243580      -305.9534
  17   2.0000     -11.238997      -305.8287
  18   2.0000     -11.235849      -305.7430
  19   2.0000     -11.235683      -305.7385
  20   2.0000      -8.896201      -242.0779
  21   2.0000      -6.577781      -178.9905
  22   2.0000      -6.575766      -178.9357
  23   2.0000      -6.575182      -178.9198
  24   2.0000      -1.441518       -39.2257
  25   2.0000      -1.417120       -38.5618
  26   2.0000      -1.353674       -36.8354
  27   2.0000      -1.342340       -36.5269
  28   2.0000      -1.240436       -33.7540
  29   2.0000      -1.158223       -31.5169
  30   2.0000      -1.123813       -30.5805
  31   2.0000      -1.046318       -28.4717
  32   2.0000      -1.040394       -28.3106
  33   2.0000      -1.016331       -27.6558
  34   2.0000      -1.004467       -27.3329
  35   2.0000      -0.989850       -26.9352
  36   2.0000      -0.927324       -25.2338
  37   2.0000      -0.900812       -24.5123
  38   2.0000      -0.853541       -23.2260
  39   2.0000      -0.840892       -22.8818
  40   2.0000      -0.834007       -22.6945
  41   2.0000      -0.825191       -22.4546
  42   2.0000      -0.745280       -20.2801
  43   2.0000      -0.732134       -19.9224
  44   2.0000      -0.729775       -19.8582
  45   2.0000      -0.694688       -18.9034
  46   2.0000      -0.687052       -18.6956
  47   2.0000      -0.678468       -18.4621
  48   2.0000      -0.674225       -18.3466
  49   2.0000      -0.662495       -18.0274
  50   2.0000      -0.655534       -17.8380
  51   2.0000      -0.651842       -17.7375
  52   2.0000      -0.642759       -17.4904
  53   2.0000      -0.618692       -16.8355
  54   2.0000      -0.606099       -16.4928
  55   2.0000      -0.604630       -16.4528
  56   2.0000      -0.601753       -16.3745
  57   2.0000      -0.587819       -15.9954
  58   2.0000      -0.575875       -15.6704
  59   2.0000      -0.566686       -15.4203
  60   2.0000      -0.564537       -15.3618
  61   2.0000      -0.554643       -15.0926
  62   2.0000      -0.544944       -14.8287
  63   2.0000      -0.532395       -14.4872
  64   2.0000      -0.522352       -14.2139
  65   2.0000      -0.513667       -13.9776
  66   2.0000      -0.500816       -13.6279
  67   2.0000      -0.489790       -13.3279
  68   2.0000      -0.484094       -13.1729
  69   2.0000      -0.471110       -12.8195
  70   2.0000      -0.457268       -12.4429
  71   2.0000      -0.447297       -12.1716
  72   2.0000      -0.356664        -9.7053
  73   2.0000      -0.348456        -9.4820
  74   2.0000      -0.330469        -8.9925
  75   2.0000      -0.322459        -8.7746
  76   2.0000      -0.318923        -8.6783
  77   0.0000       0.075943         2.0665
  78   0.0000       0.107661         2.9296
  79   0.0000       0.116146         3.1605
  80   0.0000       0.131206         3.5703
  81   0.0000       0.131395         3.5754

MULLIKEN ATOMIC CHARGES
-----------------------
   0 C :   -0.348492
   1 C :    0.042356
   2 O :   -0.354524
   3 C :    0.445684
   4 O :   -0.384941
   5 C :   -0.212447
   6 C :    0.138929
   7 C :   -0.322459
   8 N :   -0.133738
   9 C :    0.194845
  10 S :   -0.437039
  11 N :   -0.213942
  12 C :    0.072130
  13 C :    0.019334
  14 C :   -0.198835
  15 C :   -0.136296
  16 C :   -0.277421
  17 C :    0.315952
  18 O :   -0.358014
  19 C :   -0.266810
  20 H :    0.131182
  21 H :    0.125864
  22 H :    0.107033
  23 H :    0.124627
  24 H :    0.095557
  25 H :    0.116954
  26 H :    0.143525
  27 H :    0.125034
  28 H :    0.197995
  29 H :    0.198687
  30 H :    0.164403
  31 H :    0.174211
  32 H :    0.163396
  33 H :    0.131805
  34 H :    0.240999
  35 H :    0.174453
Sum of atomic charges:   -0.0000000

LOEWDIN ATOMIC CHARGES
----------------------
   0 C :    0.105032
   1 C :   -0.014443
   2 O :    0.284079
   3 C :   -0.417612
   4 O :    0.122515
   5 C :   -0.087286
   6 C :   -0.083238
   7 C :    0.128164
   8 N :    0.404206
   9 C :   -0.459257
  10 S :   -0.034994
  11 N :    0.397949
  12 C :   -0.043971
  13 C :   -0.043885
  14 C :    0.019260
  15 C :    0.042569
  16 C :   -0.001961
  17 C :   -0.194325
  18 O :    0.394937
  19 C :    0.028491
  20 H :   -0.022013
  21 H :   -0.019891
  22 H :   -0.035622
  23 H :   -0.020726
  24 H :   -0.031794
  25 H :   -0.017678
  26 H :   -0.005949
  27 H :   -0.013619
  28 H :   -0.057946
  29 H :   -0.063358
  30 H :   -0.002417
  31 H :   -0.022163
  32 H :   -0.019037
  33 H :   -0.035169
  34 H :   -0.153746
  35 H :   -0.025102

  Mayer bond orders larger than 0.100000
B(  0-C ,  1-C ) :   0.9631 B(  0-C , 20-H ) :   0.9643 B(  0-C , 21-H ) :   0.9766
B(  0-C , 22-H ) :   0.9714 B(  1-C ,  2-O ) :   0.8968 B(  1-C , 23-H ) :   0.9803
B(  1-C , 24-H ) :   0.9785 B(  2-O ,  3-C ) :   1.1472 B(  3-C ,  4-O ) :   2.0680
B(  3-C ,  5-C ) :   0.9562 B(  5-C ,  6-C ) :   1.6844 B(  5-C , 12-C ) :   0.9551
B(  6-C ,  7-C ) :   0.9460 B(  6-C ,  8-N ) :   1.1134 B(  7-C , 25-H ) :   0.9638
B(  7-C , 26-H ) :   0.9701 B(  7-C , 27-H ) :   0.9837 B(  8-N ,  9-C ) :   1.1864
B(  8-N , 28-H ) :   0.9502 B(  9-C , 10-S ) :   1.6134 B(  9-C , 11-N ) :   1.2933
B( 11-N , 12-C ) :   0.9867 B( 11-N , 29-H ) :   0.9502 B( 12-C , 13-C ) :   0.9467
B( 12-C , 30-H ) :   0.9966 B( 13-C , 14-C ) :   1.3915 B( 13-C , 19-C ) :   1.3473
B( 14-C , 15-C ) :   1.3972 B( 14-C , 31-H ) :   0.9576 B( 15-C , 16-C ) :   1.3614
B( 15-C , 32-H ) :   0.9705 B( 16-C , 17-C ) :   1.3296 B( 16-C , 33-H ) :   0.9848
B( 17-C , 18-O ) :   1.1113 B( 17-C , 19-C ) :   1.3713 B( 18-O , 34-H ) :   0.9798
B( 19-C , 35-H ) :   0.9579

MP2 TOTAL ENERGY:    -1274.327137061 Eh
FINAL SINGLE POINT ENERGY     -1274.327137061030

DIPOLE MOMENT
-------------
                                X             Y             Z
Electronic contribution:      9.44149       6.41776       6.53862
Nuclear contribution   :    -11.02774      -7.49538      -7.09932
                        -----------------------------------------
Total Dipole Moment    :     -1.58626      -1.07761      -0.56071
                        -----------------------------------------
Magnitude (a.u.)       :      1.99796
Magnitude (Debye)      :      5.07842

Rotational constants in cm-1:     0.011333     0.009807     0.006791
Rotational constants in MHz :   339.759134   293.998831   203.596439

                             ****ORCA TERMINATED NORMALLY****
TOTAL RUN TIME: 0 days 1 hours 50 minutes 2 seconds 887 msec
