                         Program Version 5.0.0 -  RELEASE  -
|  1> ! ri-mp2 cc-pvtz cc-pvtz/c TightSCF NoKeepInts
|  2>
|  3> %scf
|  4>   MaxCore 4096
|  5> end
|  6> *xyz  0  1
|  7>     C       14.7412255   15.1024837   17.4636509
|  8>     C       15.6956349   15.1507026   16.2590239
|  9>     O       17.0206105   14.8917140   16.7425838
| 10>     C       18.0485912   15.7444845   16.4665670
| 11>     O       19.1366199   15.2578286   16.2227924
| 12>     C       17.9930254   16.9198633   17.3809268
| 13>     C       17.4675824   18.1035936   16.9954497
| 14>     C       16.8770099   18.4370799   15.6429327
| 15>     N       17.4988925   19.1953159   17.8659927
| 16>     C       18.1395535   19.2067682   19.0778762
| 17>     S       18.1863857   20.5644694   20.0209053
| 18>     N       18.7377882   18.0344952   19.4712749
| 19>     C       18.6498348   16.7471552   18.7522647
| 20>     C       17.9378049   15.6898734   19.5911478
| 21>     C       18.4336278   14.3736846   19.6316848
| 22>     C       17.7786208   13.3838451   20.3830602
| 23>     C       16.6153976   13.7111665   21.1000776
| 24>     C       16.1158239   15.0197466   21.0591098
| 25>     O       14.9849188   15.3356636   21.7389673
| 26>     C       16.7710238   16.0040137   20.3125614
| 27>     H       14.8627788   14.1620451   18.0164436
| 28>     H       13.6977640   15.1761290   17.1345848
| 29>     H       14.9421788   15.9332088   18.1504784
| 30>     H       15.4153577   14.3726861   15.5368380
| 31>     H       15.6189397   16.1211251   15.7592036
| 32>     H       17.1786909   17.7183041   14.8713168
| 33>     H       17.2170499   19.4222749   15.2984310
| 34>     H       15.7811641   18.4583010   15.6864605
| 35>     H       17.0759536   20.0682455   17.5924920
| 36>     H       19.1839350   18.0663339   20.3791505
| 37>     H       19.6778904   16.3974835   18.5769642
| 38>     H       19.3209402   14.1131056   19.0589270
| 39>     H       18.1688521   12.3678002   20.3989437
| 40>     H       16.1038075   12.9483316   21.6773319
| 41>     H       14.7091500   14.5440396   22.2250960
| 42>     H       16.3625755   17.0086383   20.2924885
| 43> *
| 44>
| 45>                          ****END OF INPUT****

CARTESIAN COORDINATES (ANGSTROEM)
---------------------------------
  C     14.741226   15.102484   17.463651
  C     15.695635   15.150703   16.259024
  O     17.020611   14.891714   16.742584
  C     18.048591   15.744484   16.466567
  O     19.136620   15.257829   16.222792
  C     17.993025   16.919863   17.380927
  C     17.467582   18.103594   16.995450
  C     16.877010   18.437080   15.642933
  N     17.498893   19.195316   17.865993
  C     18.139554   19.206768   19.077876
  S     18.186386   20.564469   20.020905
  N     18.737788   18.034495   19.471275
  C     18.649835   16.747155   18.752265
  C     17.937805   15.689873   19.591148
  C     18.433628   14.373685   19.631685
  C     17.778621   13.383845   20.383060
  C     16.615398   13.711166   21.100078
  C     16.115824   15.019747   21.059110
  O     14.984919   15.335664   21.738967
  C     16.771024   16.004014   20.312561
  H     14.862779   14.162045   18.016444
  H     13.697764   15.176129   17.134585
  H     14.942179   15.933209   18.150478
  H     15.415358   14.372686   15.536838
  H     15.618940   16.121125   15.759204
  H     17.178691   17.718304   14.871317
  H     17.217050   19.422275   15.298431
  H     15.781164   18.458301   15.686461
  H     17.075954   20.068245   17.592492
  H     19.183935   18.066334   20.379150
  H     19.677890   16.397483   18.576964
  H     19.320940   14.113106   19.058927
  H     18.168852   12.367800   20.398944
  H     16.103807   12.948332   21.677332
  H     14.709150   14.544040   22.225096
  H     16.362575   17.008638   20.292489

 Total Charge           Charge          ....    0
 Multiplicity           Mult            ....    1
 Number of Electrons    NEL             ....  154
 Basis Dimension        Dim             ....  828

ORBITAL ENERGIES
----------------

  NO   OCC          E(Eh)            E(eV)
   0   2.0000     -91.886085     -2500.3475
   1   2.0000     -20.596311      -560.4541
   2   2.0000     -20.595504      -560.4322
   3   2.0000     -20.565497      -559.6156
   4   2.0000     -15.620865      -425.0653
   5   2.0000     -15.609026      -424.7432
   6   2.0000     -11.395738      -310.0938
   7   2.0000     -11.382934      -309.7454
   8   2.0000     -11.319905      -308.0303
   9   2.0000     -11.315168      -307.9014
  10   2.0000     -11.312164      -307.8196
  11   2.0000     -11.306350      -307.6614
  12   2.0000     -11.269618      -306.6619
  13   2.0000     -11.264837      -306.5318
  14   2.0000     -11.259499      -306.3865
  15   2.0000     -11.252698      -306.2015
  16   2.0000     -11.241859      -305.9065
  17   2.0000     -11.237310      -305.7827
  18   2.0000     -11.235361      -305.7297
  19   2.0000     -11.229421      -305.5681
  20   2.0000      -8.891238      -241.9429
  21   2.0000      -6.572841      -178.8561
  22   2.0000      -6.570802      -178.8006
  23   2.0000      -6.570241      -178.7853
  24   2.0000      -1.459308       -39.7098
  25   2.0000      -1.416029       -38.5321
  26   2.0000      -1.366036       -37.1717
  27   2.0000      -1.335753       -36.3477
  28   2.0000      -1.236375       -33.6435
  29   2.0000      -1.156770       -31.4773
  30   2.0000      -1.122511       -30.5451
  31   2.0000      -1.046129       -28.4666
  32   2.0000      -1.040366       -28.3098
  33   2.0000      -1.014647       -27.6100
  34   2.0000      -1.002566       -27.2812
  35   2.0000      -0.985991       -26.8302
  36   2.0000      -0.925142       -25.1744
  37   2.0000      -0.887587       -24.1525
  38   2.0000      -0.850730       -23.1495
  39   2.0000      -0.837643       -22.7934
  40   2.0000      -0.833010       -22.6673
  41   2.0000      -0.831856       -22.6360
  42   2.0000      -0.760496       -20.6942
  43   2.0000      -0.735246       -20.0071
  44   2.0000      -0.728823       -19.8323
  45   2.0000      -0.695201       -18.9174
  46   2.0000      -0.690677       -18.7943
  47   2.0000      -0.683197       -18.5907
  48   2.0000      -0.676410       -18.4060
  49   2.0000      -0.664838       -18.0912
  50   2.0000      -0.650333       -17.6965
  51   2.0000      -0.638296       -17.3689
  52   2.0000      -0.633993       -17.2518
  53   2.0000      -0.621184       -16.9033
  54   2.0000      -0.609566       -16.5871
  55   2.0000      -0.604558       -16.4509
  56   2.0000      -0.600114       -16.3299
  57   2.0000      -0.588676       -16.0187
  58   2.0000      -0.575985       -15.6733
  59   2.0000      -0.571280       -15.5453
  60   2.0000      -0.563432       -15.3318
  61   2.0000      -0.554138       -15.0789
  62   2.0000      -0.540364       -14.7040
  63   2.0000      -0.524665       -14.2769
  64   2.0000      -0.518647       -14.1131
  65   2.0000      -0.511035       -13.9060
  66   2.0000      -0.499228       -13.5847
  67   2.0000      -0.499101       -13.5812
  68   2.0000      -0.489645       -13.3239
  69   2.0000      -0.466053       -12.6820
  70   2.0000      -0.459611       -12.5067
  71   2.0000      -0.453201       -12.3322
  72   2.0000      -0.353481        -9.6187
  73   2.0000      -0.346266        -9.4224
  74   2.0000      -0.326048        -8.8722
  75   2.0000      -0.319677        -8.6988
  76   2.0000      -0.314247        -8.5511
  77   0.0000       0.089335         2.4309
  78   0.0000       0.099091         2.6964
  79   0.0000       0.109652         2.9838
  80   0.0000       0.125392         3.4121
  81   0.0000       0.130483         3.5506

MULLIKEN ATOMIC CHARGES
-----------------------
   0 C :   -0.282728
   1 C :    0.004872
   2 O :   -0.311960
   3 C :    0.372528
   4 O :   -0.350080
   5 C :   -0.121981
   6 C :    0.122276
   7 C :   -0.335634
   8 N :   -0.135152
   9 C :    0.208076
  10 S :   -0.447653
  11 N :   -0.215590
  12 C :    0.038395
  13 C :    0.069304
  14 C :   -0.189756
  15 C :   -0.132070
  16 C :   -0.279517
  17 C :    0.331105
  18 O :   -0.361476
  19 C :   -0.306425
  20 H :    0.111756
  21 H :    0.101378
  22 H :    0.104932
  23 H :    0.122214
  24 H :    0.076206
  25 H :    0.117698
  26 H :    0.132542
  27 H :    0.124015
  28 H :    0.193966
  29 H :    0.198983
  30 H :    0.167251
  31 H :    0.157617
  32 H :    0.161221
  33 H :    0.131192
  34 H :    0.240954
  35 H :    0.181540
Sum of atomic charges:   -0.0000000

LOEWDIN ATOMIC CHARGES
----------------------
   0 C :    0.107631
   1 C :   -0.029576
   2 O :    0.326465
   3 C :   -0.426917
   4 O :    0.152368
   5 C :   -0.076064
   6 C :   -0.117061
   7 C :    0.119095
   8 N :    0.398660
   9 C :   -0.455758
  10 S :   -0.043496
  11 N :    0.397892
  12 C :   -0.040203
  13 C :   -0.040006
  14 C :    0.023770
  15 C :    0.044233
  16 C :   -0.001813
  17 C :   -0.192117
  18 O :    0.394553
  19 C :    0.029874
  20 H :   -0.021003
  21 H :   -0.027848
  22 H :   -0.028714
  23 H :   -0.026857
  24 H :   -0.038593
  25 H :   -0.012885
  26 H :   -0.011232
  27 H :   -0.018047
  28 H :   -0.060518
  29 H :   -0.063685
  30 H :   -0.003060
  31 H :   -0.024398
  32 H :   -0.019777
  33 H :   -0.035685
  34 H :   -0.153905
  35 H :   -0.025322

  Mayer bond orders larger than 0.100000
B(  0-C ,  1-C ) :   0.9750 B(  0-C , 20-H ) :   0.9738 B(  0-C , 21-H ) :   0.9784
B(  0-C , 22-H ) :   0.9731 B(  1-C ,  2-O ) :   0.9202 B(  1-C , 23-H ) :   0.9835
B(  1-C , 24-H ) :   0.9729 B(  2-O ,  3-C ) :   1.0783 B(  3-C ,  4-O ) :   2.1063
B(  3-C ,  5-C ) :   0.9314 B(  5-C ,  6-C ) :   1.7305 B(  5-C , 12-C ) :   0.9691
B(  6-C ,  7-C ) :   0.9330 B(  6-C ,  8-N ) :   1.0996 B(  7-C , 25-H ) :   0.9836
B(  7-C , 26-H ) :   0.9750 B(  7-C , 27-H ) :   0.9681 B(  8-N ,  9-C ) :   1.2035
B(  8-N , 28-H ) :   0.9544 B(  9-C , 10-S ) :   1.6033 B(  9-C , 11-N ) :   1.2847
B( 11-N , 12-C ) :   0.9934 B( 11-N , 29-H ) :   0.9475 B( 12-C , 13-C ) :   0.9473
B( 12-C , 30-H ) :   0.9990 B( 13-C , 14-C ) :   1.3795 B( 13-C , 19-C ) :   1.3392
B( 14-C , 15-C ) :   1.4002 B( 14-C , 31-H ) :   0.9666 B( 15-C , 16-C ) :   1.3605
B( 15-C , 32-H ) :   0.9707 B( 16-C , 17-C ) :   1.3319 B( 16-C , 33-H ) :   0.9849
B( 17-C , 18-O ) :   1.1046 B( 17-C , 19-C ) :   1.3569 B( 18-O , 34-H ) :   0.9802
B( 19-C , 35-H ) :   0.9555

MP2 TOTAL ENERGY:    -1274.307262459 Eh
FINAL SINGLE POINT ENERGY     -1274.307262459199

DIPOLE MOMENT
-------------
                                X             Y             Z
Electronic contribution:     10.11942       7.00642       6.60602
Nuclear contribution   :    -11.64494      -8.33701      -7.57712
                        -----------------------------------------
Total Dipole Moment    :     -1.52552      -1.33059      -0.97110
                        -----------------------------------------
Magnitude (a.u.)       :      2.24515
Magnitude (Debye)      :      5.70673

Rotational constants in cm-1:     0.012288     0.009245     0.006913
Rotational constants in MHz :   368.375812   277.164777   207.236383

                             ****ORCA TERMINATED NORMALLY****
TOTAL RUN TIME: 0 days 1 hours 37 minutes 24 seconds 881 msec
