                         Program Version 4.2.0 -  RELEASE  -
|  1> ! ri-mp2 cc-pvtz cc-pvtz/c TightSCF  NoKeepInts
|  2>
|  3> %scf
|  4>   MaxCore 4096
|  5> end
|  6> *xyz  0  1
|  7>     C       14.9010397   14.1396981   16.2471296
|  8>     C       16.4286863   13.9305221   16.1415487
|  9>     O       17.2058952   15.0490668   16.6322269
| 10>     C       16.8285394   16.3646631   16.5546459
| 11>     O       16.0291726   16.7803962   15.7343116
| 12>     C       17.6214275   17.2390980   17.4873018
| 13>     C       17.5365905   18.5938435   17.4682332
| 14>     C       16.6847683   19.4476105   16.5532373
| 15>     N       18.3116189   19.3579519   18.3457731
| 16>     C       19.2450145   18.8541026   19.2114324
| 17>     S       20.1728551   19.8358196   20.1660819
| 18>     N       19.3724190   17.4892488   19.2481645
| 19>     C       18.5219510   16.5338756   18.5150759
| 20>     C       17.7087504   15.7016444   19.5024794
| 21>     C       17.9609412   14.3250529   19.6530624
| 22>     C       17.2079857   13.5548037   20.5552530
| 23>     C       16.1963069   14.1661668   21.3153273
| 24>     C       15.9457685   15.5377051   21.1712884
| 25>     O       14.9702076   16.1309741   21.9042550
| 26>     C       16.6966326   16.3015957   20.2725568
| 27>     H       14.6278310   14.5442032   17.2299326
| 28>     H       14.3803599   13.1832288   16.1189563
| 29>     H       14.5302985   14.8176696   15.4689070
| 30>     H       16.7114826   13.0326030   16.7057616
| 31>     H       16.6800941   13.7512547   15.0880440
| 32>     H       16.9346814   19.2543930   15.5022122
| 33>     H       16.8082368   20.5223977   16.7301819
| 34>     H       15.6213383   19.2102697   16.6851353
| 35>     H       18.2319829   20.3621854   18.3329885
| 36>     H       20.0404844   17.1459066   19.9261055
| 37>     H       19.1930695   15.8612310   17.9627322
| 38>     H       18.7391923   13.8492528   19.0624799
| 39>     H       17.4092271   12.4904765   20.6635253
| 40>     H       15.6122446   13.5757444   22.0135861
| 41>     H       14.5883750   15.4545483   22.4834403
| 42>     H       16.4915306   17.3627957   20.1806262
| 43> *
| 44>
| 45>                          ****END OF INPUT****

CARTESIAN COORDINATES (ANGSTROEM)
---------------------------------
  C     14.901040   14.139698   16.247130
  C     16.428686   13.930522   16.141549
  O     17.205895   15.049067   16.632227
  C     16.828539   16.364663   16.554646
  O     16.029173   16.780396   15.734312
  C     17.621427   17.239098   17.487302
  C     17.536590   18.593843   17.468233
  C     16.684768   19.447610   16.553237
  N     18.311619   19.357952   18.345773
  C     19.245014   18.854103   19.211432
  S     20.172855   19.835820   20.166082
  N     19.372419   17.489249   19.248164
  C     18.521951   16.533876   18.515076
  C     17.708750   15.701644   19.502479
  C     17.960941   14.325053   19.653062
  C     17.207986   13.554804   20.555253
  C     16.196307   14.166167   21.315327
  C     15.945768   15.537705   21.171288
  O     14.970208   16.130974   21.904255
  C     16.696633   16.301596   20.272557
  H     14.627831   14.544203   17.229933
  H     14.380360   13.183229   16.118956
  H     14.530298   14.817670   15.468907
  H     16.711483   13.032603   16.705762
  H     16.680094   13.751255   15.088044
  H     16.934681   19.254393   15.502212
  H     16.808237   20.522398   16.730182
  H     15.621338   19.210270   16.685135
  H     18.231983   20.362185   18.332988
  H     20.040484   17.145907   19.926105
  H     19.193070   15.861231   17.962732
  H     18.739192   13.849253   19.062480
  H     17.409227   12.490476   20.663525
  H     15.612245   13.575744   22.013586
  H     14.588375   15.454548   22.483440
  H     16.491531   17.362796   20.180626

 Total Charge           Charge          ....    0
 Multiplicity           Mult            ....    1
 Number of Electrons    NEL             ....  154
 Basis Dimension        Dim             ....  828

ORBITAL ENERGIES
----------------

  NO   OCC          E(Eh)            E(eV)
   0   2.0000     -91.888157     -2500.4039
   1   2.0000     -20.597569      -560.4884
   2   2.0000     -20.596939      -560.4712
   3   2.0000     -20.540782      -558.9431
   4   2.0000     -15.628154      -425.2637
   5   2.0000     -15.607540      -424.7028
   6   2.0000     -11.396075      -310.1030
   7   2.0000     -11.383283      -309.7549
   8   2.0000     -11.335035      -308.4420
   9   2.0000     -11.314148      -307.8736
  10   2.0000     -11.307788      -307.7006
  11   2.0000     -11.301684      -307.5345
  12   2.0000     -11.259844      -306.3959
  13   2.0000     -11.258122      -306.3491
  14   2.0000     -11.255626      -306.2811
  15   2.0000     -11.251347      -306.1647
  16   2.0000     -11.243441      -305.9496
  17   2.0000     -11.238746      -305.8218
  18   2.0000     -11.238539      -305.8162
  19   2.0000     -11.223155      -305.3976
  20   2.0000      -8.893230      -241.9971
  21   2.0000      -6.574807      -178.9096
  22   2.0000      -6.572800      -178.8550
  23   2.0000      -6.572216      -178.8391
  24   2.0000      -1.445145       -39.3244
  25   2.0000      -1.416606       -38.5478
  26   2.0000      -1.353395       -36.8277
  27   2.0000      -1.339215       -36.4419
  28   2.0000      -1.237774       -33.6815
  29   2.0000      -1.157788       -31.5050
  30   2.0000      -1.119580       -30.4653
  31   2.0000      -1.042485       -28.3674
  32   2.0000      -1.035429       -28.1755
  33   2.0000      -1.015366       -27.6295
  34   2.0000      -0.994976       -27.0747
  35   2.0000      -0.983431       -26.7605
  36   2.0000      -0.922007       -25.0891
  37   2.0000      -0.898083       -24.4381
  38   2.0000      -0.846658       -23.0387
  39   2.0000      -0.837845       -22.7989
  40   2.0000      -0.834340       -22.7035
  41   2.0000      -0.817228       -22.2379
  42   2.0000      -0.746147       -20.3037
  43   2.0000      -0.731503       -19.9052
  44   2.0000      -0.720737       -19.6122
  45   2.0000      -0.695810       -18.9340
  46   2.0000      -0.687769       -18.7152
  47   2.0000      -0.676466       -18.4076
  48   2.0000      -0.670851       -18.2548
  49   2.0000      -0.657701       -17.8970
  50   2.0000      -0.651154       -17.7188
  51   2.0000      -0.641905       -17.4671
  52   2.0000      -0.634925       -17.2772
  53   2.0000      -0.613255       -16.6875
  54   2.0000      -0.606829       -16.5126
  55   2.0000      -0.600169       -16.3314
  56   2.0000      -0.598487       -16.2857
  57   2.0000      -0.577495       -15.7144
  58   2.0000      -0.570465       -15.5231
  59   2.0000      -0.569362       -15.4931
  60   2.0000      -0.559427       -15.2228
  61   2.0000      -0.541123       -14.7247
  62   2.0000      -0.535370       -14.5682
  63   2.0000      -0.525301       -14.2942
  64   2.0000      -0.520302       -14.1581
  65   2.0000      -0.513253       -13.9663
  66   2.0000      -0.502052       -13.6615
  67   2.0000      -0.499316       -13.5871
  68   2.0000      -0.485458       -13.2100
  69   2.0000      -0.463264       -12.6061
  70   2.0000      -0.454087       -12.3563
  71   2.0000      -0.441837       -12.0230
  72   2.0000      -0.353218        -9.6115
  73   2.0000      -0.349566        -9.5122
  74   2.0000      -0.327689        -8.9169
  75   2.0000      -0.321682        -8.7534
  76   2.0000      -0.315502        -8.5852
  77   0.0000       0.077064         2.0970
  78   0.0000       0.105652         2.8749
  79   0.0000       0.125032         3.4023
  80   0.0000       0.132765         3.6127
  81   0.0000       0.137633         3.7452

MULLIKEN ATOMIC CHARGES
-----------------------
   0 C :   -0.309445
   1 C :    0.044438
   2 O :   -0.362066
   3 C :    0.467455
   4 O :   -0.431702
   5 C :   -0.224701
   6 C :    0.152722
   7 C :   -0.272886
   8 N :   -0.120106
   9 C :    0.212078
  10 S :   -0.441517
  11 N :   -0.206005
  12 C :    0.064298
  13 C :    0.060750
  14 C :   -0.189537
  15 C :   -0.130097
  16 C :   -0.279222
  17 C :    0.317194
  18 O :   -0.356451
  19 C :   -0.271949
  20 H :    0.102419
  21 H :    0.095708
  22 H :    0.126711
  23 H :    0.101750
  24 H :    0.102489
  25 H :    0.131647
  26 H :    0.094877
  27 H :    0.130587
  28 H :    0.196848
  29 H :    0.195113
  30 H :    0.150024
  31 H :    0.151682
  32 H :    0.160514
  33 H :    0.130151
  34 H :    0.240749
  35 H :    0.165479
Sum of atomic charges:   -0.0000000

LOEWDIN ATOMIC CHARGES
----------------------
   0 C :    0.104508
   1 C :   -0.010578
   2 O :    0.298541
   3 C :   -0.413731
   4 O :    0.102898
   5 C :   -0.093878
   6 C :   -0.059475
   7 C :    0.131098
   8 N :    0.406396
   9 C :   -0.456416
  10 S :   -0.036669
  11 N :    0.396468
  12 C :   -0.052442
  13 C :   -0.038897
  14 C :    0.014722
  15 C :    0.038632
  16 C :   -0.001816
  17 C :   -0.190030
  18 O :    0.395316
  19 C :    0.030982
  20 H :   -0.026457
  21 H :   -0.027635
  22 H :   -0.025372
  23 H :   -0.026432
  24 H :   -0.028638
  25 H :   -0.003954
  26 H :   -0.023615
  27 H :   -0.004977
  28 H :   -0.057731
  29 H :   -0.064643
  30 H :   -0.011695
  31 H :   -0.030074
  32 H :   -0.021467
  33 H :   -0.035539
  34 H :   -0.153858
  35 H :   -0.023541

  Mayer bond orders larger than 0.100000
B(  0-C ,  1-C ) :   0.9627 B(  0-C , 20-H ) :   0.9750 B(  0-C , 21-H ) :   0.9764
B(  0-C , 22-H ) :   0.9721 B(  1-C ,  2-O ) :   0.8997 B(  1-C , 23-H ) :   0.9819
B(  1-C , 24-H ) :   0.9835 B(  2-O ,  3-C ) :   1.1609 B(  3-C ,  4-O ) :   1.9732
B(  3-C ,  5-C ) :   1.0513 B(  5-C ,  6-C ) :   1.6542 B(  5-C , 12-C ) :   0.9709
B(  6-C ,  7-C ) :   0.9670 B(  6-C ,  8-N ) :   1.1641 B(  7-C , 25-H ) :   0.9602
B(  7-C , 26-H ) :   0.9904 B(  7-C , 27-H ) :   0.9609 B(  8-N ,  9-C ) :   1.1844
B(  8-N , 28-H ) :   0.9479 B(  9-C , 10-S ) :   1.6055 B(  9-C , 11-N ) :   1.3060
B( 11-N , 12-C ) :   0.9881 B( 11-N , 29-H ) :   0.9513 B( 12-C , 13-C ) :   0.9345
B( 12-C , 30-H ) :   1.0026 B( 13-C , 14-C ) :   1.3555 B( 13-C , 19-C ) :   1.3815
B( 14-C , 15-C ) :   1.3904 B( 14-C , 31-H ) :   0.9709 B( 15-C , 16-C ) :   1.3638
B( 15-C , 32-H ) :   0.9706 B( 16-C , 17-C ) :   1.3317 B( 16-C , 33-H ) :   0.9849
B( 17-C , 18-O ) :   1.1101 B( 17-C , 19-C ) :   1.3701 B( 18-O , 34-H ) :   0.9798
B( 19-C , 35-H ) :   0.9586

MP2 TOTAL ENERGY:    -1274.343179061 Eh
FINAL SINGLE POINT ENERGY     -1274.343179060920

DIPOLE MOMENT
-------------
                                X             Y             Z
Electronic contribution:     10.34353       9.91407       8.05695
Nuclear contribution   :    -11.40219     -11.69843      -8.42632
                        -----------------------------------------
Total Dipole Moment    :     -1.05866      -1.78436      -0.36936
                        -----------------------------------------
Magnitude (a.u.)       :      2.10740
Magnitude (Debye)      :      5.35658

Rotational constants in cm-1:     0.011945     0.008669     0.006202
Rotational constants in MHz :   358.088116   259.903735   185.925416

                             ****ORCA TERMINATED NORMALLY****
TOTAL RUN TIME: 0 days 2 hours 36 minutes 58 seconds 360 msec
