                         Program Version 4.2.0 -  RELEASE  -
|  1> ! ri-mp2 cc-pvtz cc-pvtz/c TightSCF  NoKeepInts
|  2>
|  3> %scf
|  4>   MaxCore 4096
|  5> end
|  6> *xyz  0  1
|  7>     C       15.3057965   14.6921081   17.4200897
|  8>     C       16.2239843   14.3853166   16.2256196
|  9>     O       17.5764008   14.8314666   16.4709714
| 10>     C       17.8988481   16.1088906   16.1150217
| 11>     O       17.7030161   16.4701647   14.9677680
| 12>     C       17.8367018   17.0609338   17.2755156
| 13>     C       17.3433399   18.3206487   17.1672420
| 14>     C       16.6267497   18.9284110   15.9808292
| 15>     N       17.5235240   19.2307249   18.2133999
| 16>     C       18.3862991   19.0407061   19.2610798
| 17>     S       18.7120971   20.2362411   20.3562854
| 18>     N       18.9713659   17.8020115   19.3510609
| 19>     C       18.5598069   16.6251994   18.5613609
| 20>     C       17.7611026   15.6759289   19.4499178
| 21>     C       18.1750695   14.3396863   19.6101622
| 22>     C       17.4761443   13.4705517   20.4650049
| 23>     C       16.3554793   13.9411263   21.1704041
| 24>     C       15.9424289   15.2717422   21.0180860
| 25>     O       14.8588839   15.7283216   21.6947213
| 26>     C       16.6401223   16.1346420   20.1670455
| 27>     H       15.6271730   14.1344972   18.3057534
| 28>     H       14.2762685   14.3901451   17.1935329
| 29>     H       15.2983870   15.7633276   17.6523823
| 30>     H       16.2338302   13.2988640   16.0703452
| 31>     H       15.8201283   14.8419368   15.3114623
| 32>     H       15.8592200   18.2439318   15.5985341
| 33>     H       17.3329713   19.1175767   15.1620765
| 34>     H       16.1296491   19.8750288   16.2228580
| 35>     H       17.1156393   20.1498373   18.1493782
| 36>     H       19.5823682   17.6809827   20.1487276
| 37>     H       19.4769621   16.1022321   18.2559763
| 38>     H       19.0411223   13.9712885   19.0665454
| 39>     H       17.8041799   12.4387174   20.5789335
| 40>     H       15.8126556   13.2736060   21.8315812
| 41>     H       14.5504355   15.0120099   22.2698375
| 42>     H       16.3088482   17.1631960   20.0744895
| 43> *
| 44>
| 45>                          ****END OF INPUT****

CARTESIAN COORDINATES (ANGSTROEM)
---------------------------------
  C     15.305796   14.692108   17.420090
  C     16.223984   14.385317   16.225620
  O     17.576401   14.831467   16.470971
  C     17.898848   16.108891   16.115022
  O     17.703016   16.470165   14.967768
  C     17.836702   17.060934   17.275516
  C     17.343340   18.320649   17.167242
  C     16.626750   18.928411   15.980829
  N     17.523524   19.230725   18.213400
  C     18.386299   19.040706   19.261080
  S     18.712097   20.236241   20.356285
  N     18.971366   17.802011   19.351061
  C     18.559807   16.625199   18.561361
  C     17.761103   15.675929   19.449918
  C     18.175069   14.339686   19.610162
  C     17.476144   13.470552   20.465005
  C     16.355479   13.941126   21.170404
  C     15.942429   15.271742   21.018086
  O     14.858884   15.728322   21.694721
  C     16.640122   16.134642   20.167045
  H     15.627173   14.134497   18.305753
  H     14.276268   14.390145   17.193533
  H     15.298387   15.763328   17.652382
  H     16.233830   13.298864   16.070345
  H     15.820128   14.841937   15.311462
  H     15.859220   18.243932   15.598534
  H     17.332971   19.117577   15.162076
  H     16.129649   19.875029   16.222858
  H     17.115639   20.149837   18.149378
  H     19.582368   17.680983   20.148728
  H     19.476962   16.102232   18.255976
  H     19.041122   13.971288   19.066545
  H     17.804180   12.438717   20.578934
  H     15.812656   13.273606   21.831581
  H     14.550436   15.012010   22.269838
  H     16.308848   17.163196   20.074489

 Total Charge           Charge          ....    0
 Multiplicity           Mult            ....    1
 Number of Electrons    NEL             ....  154
 Basis Dimension        Dim             ....  828

ORBITAL ENERGIES
----------------

  NO   OCC          E(Eh)            E(eV)
   0   2.0000     -91.890524     -2500.4683
   1   2.0000     -20.597931      -560.4982
   2   2.0000     -20.582234      -560.0711
   3   2.0000     -20.555654      -559.3478
   4   2.0000     -15.629795      -425.3083
   5   2.0000     -15.609393      -424.7532
   6   2.0000     -11.395139      -310.0775
   7   2.0000     -11.385108      -309.8045
   8   2.0000     -11.334825      -308.4363
   9   2.0000     -11.314998      -307.8967
  10   2.0000     -11.313238      -307.8489
  11   2.0000     -11.297661      -307.4250
  12   2.0000     -11.261093      -306.4299
  13   2.0000     -11.260981      -306.4269
  14   2.0000     -11.256481      -306.3044
  15   2.0000     -11.254728      -306.2567
  16   2.0000     -11.245048      -305.9933
  17   2.0000     -11.239496      -305.8422
  18   2.0000     -11.239424      -305.8403
  19   2.0000     -11.221216      -305.3448
  20   2.0000      -8.895548      -242.0602
  21   2.0000      -6.577115      -178.9724
  22   2.0000      -6.575119      -178.9181
  23   2.0000      -6.574525      -178.9019
  24   2.0000      -1.451224       -39.4898
  25   2.0000      -1.417695       -38.5774
  26   2.0000      -1.353339       -36.8262
  27   2.0000      -1.341314       -36.4990
  28   2.0000      -1.239779       -33.7361
  29   2.0000      -1.158440       -31.5227
  30   2.0000      -1.121058       -30.5055
  31   2.0000      -1.044010       -28.4090
  32   2.0000      -1.032813       -28.1043
  33   2.0000      -1.016601       -27.6631
  34   2.0000      -0.999491       -27.1975
  35   2.0000      -0.986193       -26.8357
  36   2.0000      -0.924710       -25.1626
  37   2.0000      -0.889593       -24.2071
  38   2.0000      -0.847746       -23.0683
  39   2.0000      -0.841053       -22.8862
  40   2.0000      -0.835616       -22.7383
  41   2.0000      -0.818680       -22.2774
  42   2.0000      -0.756164       -20.5763
  43   2.0000      -0.733491       -19.9593
  44   2.0000      -0.724580       -19.7168
  45   2.0000      -0.697516       -18.9804
  46   2.0000      -0.690469       -18.7886
  47   2.0000      -0.680034       -18.5047
  48   2.0000      -0.670263       -18.2388
  49   2.0000      -0.666769       -18.1437
  50   2.0000      -0.649938       -17.6857
  51   2.0000      -0.646823       -17.6009
  52   2.0000      -0.636750       -17.3269
  53   2.0000      -0.608334       -16.5536
  54   2.0000      -0.603506       -16.4222
  55   2.0000      -0.600621       -16.3437
  56   2.0000      -0.592253       -16.1160
  57   2.0000      -0.579056       -15.7569
  58   2.0000      -0.574542       -15.6341
  59   2.0000      -0.568438       -15.4680
  60   2.0000      -0.564388       -15.3578
  61   2.0000      -0.550435       -14.9781
  62   2.0000      -0.540137       -14.6979
  63   2.0000      -0.525728       -14.3058
  64   2.0000      -0.516254       -14.0480
  65   2.0000      -0.514551       -14.0016
  66   2.0000      -0.504649       -13.7322
  67   2.0000      -0.502568       -13.6756
  68   2.0000      -0.475822       -12.9478
  69   2.0000      -0.464062       -12.6278
  70   2.0000      -0.453550       -12.3417
  71   2.0000      -0.447032       -12.1644
  72   2.0000      -0.357341        -9.7238
  73   2.0000      -0.348937        -9.4951
  74   2.0000      -0.329613        -8.9692
  75   2.0000      -0.323653        -8.8070
  76   2.0000      -0.317380        -8.6363
  77   0.0000       0.068164         1.8548
  78   0.0000       0.104572         2.8456
  79   0.0000       0.116873         3.1803
  80   0.0000       0.129886         3.5344
  81   0.0000       0.131457         3.5771

MULLIKEN ATOMIC CHARGES
-----------------------
   0 C :   -0.315125
   1 C :    0.039890
   2 O :   -0.378176
   3 C :    0.470208
   4 O :   -0.396943
   5 C :   -0.232969
   6 C :    0.161047
   7 C :   -0.275956
   8 N :   -0.122824
   9 C :    0.193499
  10 S :   -0.433405
  11 N :   -0.190870
  12 C :    0.025364
  13 C :    0.073741
  14 C :   -0.178673
  15 C :   -0.134618
  16 C :   -0.280378
  17 C :    0.314115
  18 O :   -0.358530
  19 C :   -0.270626
  20 H :    0.111435
  21 H :    0.117339
  22 H :    0.098402
  23 H :    0.108958
  24 H :    0.108391
  25 H :    0.121325
  26 H :    0.140580
  27 H :    0.095011
  28 H :    0.198164
  29 H :    0.190764
  30 H :    0.148322
  31 H :    0.147278
  32 H :    0.161652
  33 H :    0.131827
  34 H :    0.240906
  35 H :    0.170871
Sum of atomic charges:    0.0000000

LOEWDIN ATOMIC CHARGES
----------------------
   0 C :    0.104066
   1 C :   -0.013673
   2 O :    0.281773
   3 C :   -0.417326
   4 O :    0.131812
   5 C :   -0.094764
   6 C :   -0.067593
   7 C :    0.128719
   8 N :    0.406081
   9 C :   -0.458860
  10 S :   -0.032222
  11 N :    0.396743
  12 C :   -0.052225
  13 C :   -0.038719
  14 C :    0.015771
  15 C :    0.038870
  16 C :   -0.002668
  17 C :   -0.191634
  18 O :    0.396408
  19 C :    0.034848
  20 H :   -0.024534
  21 H :   -0.026000
  22 H :   -0.033581
  23 H :   -0.023213
  24 H :   -0.029801
  25 H :   -0.008668
  26 H :   -0.003647
  27 H :   -0.022537
  28 H :   -0.058072
  29 H :   -0.065018
  30 H :   -0.007146
  31 H :   -0.029163
  32 H :   -0.020651
  33 H :   -0.035212
  34 H :   -0.153589
  35 H :   -0.024576

  Mayer bond orders larger than 0.100000
B(  0-C ,  1-C ) :   0.9649 B(  0-C , 20-H ) :   0.9731 B(  0-C , 21-H ) :   0.9772
B(  0-C , 22-H ) :   0.9710 B(  1-C ,  2-O ) :   0.8816 B(  1-C , 23-H ) :   0.9864
B(  1-C , 24-H ) :   0.9781 B(  2-O ,  3-C ) :   1.1088 B(  3-C ,  4-O ) :   2.0220
B(  3-C ,  5-C ) :   1.0296 B(  5-C ,  6-C ) :   1.6686 B(  5-C , 12-C ) :   0.9704
B(  6-C ,  7-C ) :   0.9654 B(  6-C ,  8-N ) :   1.1325 B(  7-C , 25-H ) :   0.9692
B(  7-C , 26-H ) :   0.9576 B(  7-C , 27-H ) :   0.9867 B(  8-N ,  9-C ) :   1.1812
B(  8-N , 28-H ) :   0.9491 B(  9-C , 10-S ) :   1.6201 B(  9-C , 11-N ) :   1.2943
B( 11-N , 12-C ) :   0.9939 B( 11-N , 29-H ) :   0.9536 B( 12-C , 13-C ) :   0.9383
B( 12-C , 30-H ) :   1.0088 B( 13-C , 14-C ) :   1.3653 B( 13-C , 19-C ) :   1.3576
B( 14-C , 15-C ) :   1.3919 B( 14-C , 31-H ) :   0.9706 B( 15-C , 16-C ) :   1.3597
B( 15-C , 32-H ) :   0.9713 B( 16-C , 17-C ) :   1.3318 B( 16-C , 33-H ) :   0.9849
B( 17-C , 18-O ) :   1.1124 B( 17-C , 19-C ) :   1.3721 B( 18-O , 34-H ) :   0.9797
B( 19-C , 35-H ) :   0.9574

MP2 TOTAL ENERGY:    -1274.319017640 Eh
FINAL SINGLE POINT ENERGY     -1274.319017640111

DIPOLE MOMENT
-------------
                                X             Y             Z
Electronic contribution:      9.52987       8.74616       5.66175
Nuclear contribution   :    -10.60317     -10.40106      -5.79477
                        -----------------------------------------
Total Dipole Moment    :     -1.07330      -1.65491      -0.13303
                        -----------------------------------------
Magnitude (a.u.)       :      1.97696
Magnitude (Debye)      :      5.02504

Rotational constants in cm-1:     0.011715     0.009967     0.006576
Rotational constants in MHz :   351.215646   298.817476   197.154553

                             ****ORCA TERMINATED NORMALLY****
TOTAL RUN TIME: 0 days 1 hours 57 minutes 40 seconds 897 msec
