                         Program Version 4.2.0 -  RELEASE  -
|  1> ! ri-mp2 cc-pvtz cc-pvtz/c TightSCF  NoKeepInts
|  2>
|  3> %scf
|  4>   MaxCore 4096
|  5> end
|  6> *xyz  0  1
|  7>     C       14.9805667   14.3708789   16.8312218
|  8>     C       16.4325552   13.9395173   16.5217025
|  9>     O       17.3843204   15.0317542   16.5105446
| 10>     C       17.0354302   16.3475257   16.3709483
| 11>     O       16.2397188   16.7245128   15.5283821
| 12>     C       17.7046806   17.2398217   17.3799671
| 13>     C       17.5580203   18.5891627   17.3679760
| 14>     C       16.7457466   19.4145158   16.3930563
| 15>     N       18.2221819   19.3756632   18.3138178
| 16>     C       19.1117867   18.9037542   19.2413930
| 17>     S       19.9157037   19.9135289   20.2758017
| 18>     N       19.3055235   17.5464635   19.2690147
| 19>     C       18.5567537   16.5625262   18.4664839
| 20>     C       17.7176597   15.6821339   19.3881025
| 21>     C       18.0872426   14.3447184   19.6245234
| 22>     C       17.3104497   13.5255386   20.4609459
| 23>     C       16.1568923   14.0488471   21.0694439
| 24>     C       15.7911881   15.3829026   20.8435797
| 25>     O       14.6784072   15.8913166   21.4298567
| 26>     C       16.5661340   16.1957234   20.0107278
| 27>     H       14.9370814   14.9910521   17.7351930
| 28>     H       14.3544947   13.4869180   17.0013435
| 29>     H       14.5386176   14.9279170   15.9960754
| 30>     H       16.7545727   13.1972018   17.2631553
| 31>     H       16.4432193   13.4483454   15.5400481
| 32>     H       17.0771100   19.2316795   15.3628651
| 33>     H       16.8198259   20.4926822   16.5769764
| 34>     H       15.6843280   19.1406087   16.4479239
| 35>     H       18.0937138   20.3749260   18.3075822
| 36>     H       19.9388486   17.2258957   19.9900746
| 37>     H       19.2951371   15.9269672   17.9575463
| 38>     H       18.9766093   13.9367903   19.1514776
| 39>     H       17.6035214   12.4918399   20.6366789
| 40>     H       15.5537756   13.4204355   21.7166106
| 41>     H       14.3060006   15.2007183   21.9985567
| 42>     H       16.2691820   17.2272167   19.8544028
| 43> *
| 44>
| 45>                          ****END OF INPUT****

CARTESIAN COORDINATES (ANGSTROEM)
---------------------------------
  C     14.980567   14.370879   16.831222
  C     16.432555   13.939517   16.521702
  O     17.384320   15.031754   16.510545
  C     17.035430   16.347526   16.370948
  O     16.239719   16.724513   15.528382
  C     17.704681   17.239822   17.379967
  C     17.558020   18.589163   17.367976
  C     16.745747   19.414516   16.393056
  N     18.222182   19.375663   18.313818
  C     19.111787   18.903754   19.241393
  S     19.915704   19.913529   20.275802
  N     19.305523   17.546464   19.269015
  C     18.556754   16.562526   18.466484
  C     17.717660   15.682134   19.388102
  C     18.087243   14.344718   19.624523
  C     17.310450   13.525539   20.460946
  C     16.156892   14.048847   21.069444
  C     15.791188   15.382903   20.843580
  O     14.678407   15.891317   21.429857
  C     16.566134   16.195723   20.010728
  H     14.937081   14.991052   17.735193
  H     14.354495   13.486918   17.001344
  H     14.538618   14.927917   15.996075
  H     16.754573   13.197202   17.263155
  H     16.443219   13.448345   15.540048
  H     17.077110   19.231679   15.362865
  H     16.819826   20.492682   16.576976
  H     15.684328   19.140609   16.447924
  H     18.093714   20.374926   18.307582
  H     19.938849   17.225896   19.990075
  H     19.295137   15.926967   17.957546
  H     18.976609   13.936790   19.151478
  H     17.603521   12.491840   20.636679
  H     15.553776   13.420435   21.716611
  H     14.306001   15.200718   21.998557
  H     16.269182   17.227217   19.854403

 Total Charge           Charge          ....    0
 Multiplicity           Mult            ....    1
 Number of Electrons    NEL             ....  154
 Basis Dimension        Dim             ....  828

ORBITAL ENERGIES
----------------

  NO   OCC          E(Eh)            E(eV)
   0   2.0000     -91.889248     -2500.4336
   1   2.0000     -20.600049      -560.5558
   2   2.0000     -20.589639      -560.2726
   3   2.0000     -20.541953      -558.9750
   4   2.0000     -15.629368      -425.2967
   5   2.0000     -15.608767      -424.7362
   6   2.0000     -11.394221      -310.0525
   7   2.0000     -11.384414      -309.7856
   8   2.0000     -11.336097      -308.4709
   9   2.0000     -11.317440      -307.9632
  10   2.0000     -11.309576      -307.7492
  11   2.0000     -11.299261      -307.4685
  12   2.0000     -11.262999      -306.4818
  13   2.0000     -11.259220      -306.3789
  14   2.0000     -11.258193      -306.3510
  15   2.0000     -11.252239      -306.1890
  16   2.0000     -11.246689      -306.0380
  17   2.0000     -11.241652      -305.9009
  18   2.0000     -11.241437      -305.8951
  19   2.0000     -11.222845      -305.3891
  20   2.0000      -8.894312      -242.0265
  21   2.0000      -6.575886      -178.9390
  22   2.0000      -6.573881      -178.8844
  23   2.0000      -6.573295      -178.8684
  24   2.0000      -1.443044       -39.2672
  25   2.0000      -1.419733       -38.6329
  26   2.0000      -1.351199       -36.7680
  27   2.0000      -1.340424       -36.4748
  28   2.0000      -1.239142       -33.7188
  29   2.0000      -1.160804       -31.5871
  30   2.0000      -1.120820       -30.4991
  31   2.0000      -1.044739       -28.4288
  32   2.0000      -1.032708       -28.1014
  33   2.0000      -1.018815       -27.7234
  34   2.0000      -0.996592       -27.1186
  35   2.0000      -0.984995       -26.8031
  36   2.0000      -0.923842       -25.1390
  37   2.0000      -0.896986       -24.4082
  38   2.0000      -0.848050       -23.0766
  39   2.0000      -0.840624       -22.8745
  40   2.0000      -0.837321       -22.7847
  41   2.0000      -0.817784       -22.2530
  42   2.0000      -0.744529       -20.2597
  43   2.0000      -0.733509       -19.9598
  44   2.0000      -0.720959       -19.6183
  45   2.0000      -0.698779       -19.0148
  46   2.0000      -0.689267       -18.7559
  47   2.0000      -0.673947       -18.3390
  48   2.0000      -0.671543       -18.2736
  49   2.0000      -0.659356       -17.9420
  50   2.0000      -0.652580       -17.7576
  51   2.0000      -0.642522       -17.4839
  52   2.0000      -0.636592       -17.3225
  53   2.0000      -0.619844       -16.8668
  54   2.0000      -0.610387       -16.6095
  55   2.0000      -0.602944       -16.4069
  56   2.0000      -0.600217       -16.3327
  57   2.0000      -0.580075       -15.7846
  58   2.0000      -0.571288       -15.5455
  59   2.0000      -0.566895       -15.4260
  60   2.0000      -0.552136       -15.0244
  61   2.0000      -0.541973       -14.7478
  62   2.0000      -0.534605       -14.5474
  63   2.0000      -0.527742       -14.3606
  64   2.0000      -0.521890       -14.2014
  65   2.0000      -0.514376       -13.9969
  66   2.0000      -0.502459       -13.6726
  67   2.0000      -0.497222       -13.5301
  68   2.0000      -0.487380       -13.2623
  69   2.0000      -0.463925       -12.6240
  70   2.0000      -0.454219       -12.3599
  71   2.0000      -0.441814       -12.0224
  72   2.0000      -0.354487        -9.6461
  73   2.0000      -0.352328        -9.5873
  74   2.0000      -0.329159        -8.9569
  75   2.0000      -0.324940        -8.8421
  76   2.0000      -0.316842        -8.6217
  77   0.0000       0.074507         2.0274
  78   0.0000       0.101744         2.7686
  79   0.0000       0.123261         3.3541
  80   0.0000       0.130990         3.5644
  81   0.0000       0.135640         3.6910

MULLIKEN ATOMIC CHARGES
-----------------------
   0 C :   -0.320984
   1 C :    0.037291
   2 O :   -0.380746
   3 C :    0.473374
   4 O :   -0.422037
   5 C :   -0.250936
   6 C :    0.162242
   7 C :   -0.271493
   8 N :   -0.122292
   9 C :    0.213771
  10 S :   -0.440560
  11 N :   -0.208547
  12 C :    0.075661
  13 C :    0.065817
  14 C :   -0.208054
  15 C :   -0.122600
  16 C :   -0.278107
  17 C :    0.325616
  18 O :   -0.359366
  19 C :   -0.288785
  20 H :    0.105639
  21 H :    0.100604
  22 H :    0.127753
  23 H :    0.105999
  24 H :    0.116510
  25 H :    0.132404
  26 H :    0.095316
  27 H :    0.130906
  28 H :    0.197288
  29 H :    0.195397
  30 H :    0.150324
  31 H :    0.155056
  32 H :    0.164745
  33 H :    0.132476
  34 H :    0.241322
  35 H :    0.168999
Sum of atomic charges:   -0.0000000

LOEWDIN ATOMIC CHARGES
----------------------
   0 C :    0.105163
   1 C :   -0.010978
   2 O :    0.291837
   3 C :   -0.417395
   4 O :    0.106657
   5 C :   -0.096846
   6 C :   -0.058876
   7 C :    0.131632
   8 N :    0.406769
   9 C :   -0.455714
  10 S :   -0.035660
  11 N :    0.396225
  12 C :   -0.052042
  13 C :   -0.038178
  14 C :    0.015987
  15 C :    0.039860
  16 C :   -0.001883
  17 C :   -0.190059
  18 O :    0.396274
  19 C :    0.031134
  20 H :   -0.028590
  21 H :   -0.025613
  22 H :   -0.025469
  23 H :   -0.028830
  24 H :   -0.028676
  25 H :   -0.003464
  26 H :   -0.023423
  27 H :   -0.004961
  28 H :   -0.057506
  29 H :   -0.064826
  30 H :   -0.010435
  31 H :   -0.029368
  32 H :   -0.020696
  33 H :   -0.034985
  34 H :   -0.153107
  35 H :   -0.023958

  Mayer bond orders larger than 0.100000
B(  0-C ,  1-C ) :   0.9600 B(  0-C , 20-H ) :   0.9714 B(  0-C , 21-H ) :   0.9765
B(  0-C , 22-H ) :   0.9725 B(  1-C ,  2-O ) :   0.8868 B(  1-C , 23-H ) :   0.9767
B(  1-C , 24-H ) :   0.9856 B(  2-O ,  3-C ) :   1.1355 B(  3-C ,  4-O ) :   1.9946
B(  3-C ,  5-C ) :   1.0502 B(  5-C ,  6-C ) :   1.6491 B(  5-C , 12-C ) :   0.9697
B(  6-C ,  7-C ) :   0.9656 B(  6-C ,  8-N ) :   1.1634 B(  7-C , 25-H ) :   0.9601
B(  7-C , 26-H ) :   0.9903 B(  7-C , 27-H ) :   0.9605 B(  8-N ,  9-C ) :   1.1839
B(  8-N , 28-H ) :   0.9478 B(  9-C , 10-S ) :   1.6053 B(  9-C , 11-N ) :   1.3072
B( 11-N , 12-C ) :   0.9810 B( 11-N , 29-H ) :   0.9515 B( 12-C , 13-C ) :   0.9385
B( 12-C , 30-H ) :   1.0014 B( 13-C , 14-C ) :   1.3464 B( 13-C , 19-C ) :   1.3737
B( 14-C , 15-C ) :   1.3837 B( 14-C , 31-H ) :   0.9727 B( 15-C , 16-C ) :   1.3645
B( 15-C , 32-H ) :   0.9694 B( 16-C , 17-C ) :   1.3305 B( 16-C , 33-H ) :   0.9840
B( 17-C , 18-O ) :   1.1078 B( 17-C , 19-C ) :   1.3641 B( 18-O , 34-H ) :   0.9794
B( 19-C , 35-H ) :   0.9596

MP2 TOTAL ENERGY:    -1274.340495873 Eh
FINAL SINGLE POINT ENERGY     -1274.340495872528

DIPOLE MOMENT
-------------
                                X             Y             Z
Electronic contribution:     10.05781       9.54494       6.21727
Nuclear contribution   :    -11.06427     -11.27275      -6.31037
                        -----------------------------------------
Total Dipole Moment    :     -1.00646      -1.72781      -0.09310
                        -----------------------------------------
Magnitude (a.u.)       :      2.00174
Magnitude (Debye)      :      5.08802

Rotational constants in cm-1:     0.012743     0.008763     0.006470
Rotational constants in MHz :   382.022674   262.704075   193.969205

                             ****ORCA TERMINATED NORMALLY****
TOTAL RUN TIME: 0 days 1 hours 50 minutes 57 seconds 127 msec
