                         Program Version 4.2.0 -  RELEASE  -
|  1> ! ri-mp2 cc-pvtz cc-pvtz/c TightSCF  NoKeepInts
|  2>
|  3> %scf
|  4>   MaxCore 4096
|  5> end
|  6> *xyz  0  1
|  7>     C       16.0164605   12.9583643   16.2096599
|  8>     C       15.6878499   14.4106522   15.8249434
|  9>     O       16.4163697   15.2630608   16.7223487
| 10>     C       16.0826506   16.5856905   16.8094445
| 11>     O       15.1297120   17.0539983   16.2093086
| 12>     C       17.1232625   17.3952290   17.5330026
| 13>     C       17.0774548   18.7500678   17.6008058
| 14>     C       16.0293938   19.6633777   17.0017439
| 15>     N       18.0913155   19.4540481   18.2575224
| 16>     C       19.2220817   18.8907439   18.7857413
| 17>     S       20.4176767   19.8062321   19.4700570
| 18>     N       19.3141251   17.5240281   18.7182733
| 19>     C       18.2519969   16.6225937   18.2350357
| 20>     C       17.7243092   15.7758740   19.3897141
| 21>     C       17.8938672   14.3785292   19.3865684
| 22>     C       17.4059526   13.5965181   20.4469743
| 23>     C       16.7456068   14.2166330   21.5213808
| 24>     C       16.5780345   15.6082133   21.5294725
| 25>     O       15.9409363   16.2098389   22.5654415
| 26>     C       17.0642804   16.3837874   20.4724662
| 27>     H       17.0896653   12.7615124   16.0970894
| 28>     H       15.4685630   12.2571800   15.5685119
| 29>     H       15.7352027   12.7630828   17.2522895
| 30>     H       15.9715660   14.6132183   14.7837555
| 31>     H       14.6063834   14.5729720   15.9327026
| 32>     H       15.9917243   19.5444650   15.9114291
| 33>     H       16.2121147   20.7233589   17.2134948
| 34>     H       15.0340728   19.4155945   17.3923791
| 35>     H       18.0412251   20.4585868   18.3160938
| 36>     H       20.1408703   17.1346090   19.1526964
| 37>     H       18.7097741   15.9525724   17.4938484
| 38>     H       18.3972747   13.8958890   18.5532578
| 39>     H       17.5386969   12.5162191   20.4333208
| 40>     H       16.3666763   13.6170535   22.3424152
| 41>     H       15.6998138   15.5184308   23.1999111
| 42>     H       16.9300400   17.4597753   20.5008998
| 43> *
| 44>
| 45>                          ****END OF INPUT****

CARTESIAN COORDINATES (ANGSTROEM)
---------------------------------
  C     16.016461   12.958364   16.209660
  C     15.687850   14.410652   15.824943
  O     16.416370   15.263061   16.722349
  C     16.082651   16.585690   16.809445
  O     15.129712   17.053998   16.209309
  C     17.123262   17.395229   17.533003
  C     17.077455   18.750068   17.600806
  C     16.029394   19.663378   17.001744
  N     18.091316   19.454048   18.257522
  C     19.222082   18.890744   18.785741
  S     20.417677   19.806232   19.470057
  N     19.314125   17.524028   18.718273
  C     18.251997   16.622594   18.235036
  C     17.724309   15.775874   19.389714
  C     17.893867   14.378529   19.386568
  C     17.405953   13.596518   20.446974
  C     16.745607   14.216633   21.521381
  C     16.578035   15.608213   21.529473
  O     15.940936   16.209839   22.565441
  C     17.064280   16.383787   20.472466
  H     17.089665   12.761512   16.097089
  H     15.468563   12.257180   15.568512
  H     15.735203   12.763083   17.252289
  H     15.971566   14.613218   14.783755
  H     14.606383   14.572972   15.932703
  H     15.991724   19.544465   15.911429
  H     16.212115   20.723359   17.213495
  H     15.034073   19.415595   17.392379
  H     18.041225   20.458587   18.316094
  H     20.140870   17.134609   19.152696
  H     18.709774   15.952572   17.493848
  H     18.397275   13.895889   18.553258
  H     17.538697   12.516219   20.433321
  H     16.366676   13.617054   22.342415
  H     15.699814   15.518431   23.199911
  H     16.930040   17.459775   20.500900

 Total Charge           Charge          ....    0
 Multiplicity           Mult            ....    1
 Number of Electrons    NEL             ....  154
 Basis Dimension        Dim             ....  828

ORBITAL ENERGIES
----------------

  NO   OCC          E(Eh)            E(eV)
   0   2.0000     -91.888479     -2500.4126
   1   2.0000     -20.602821      -560.6313
   2   2.0000     -20.595135      -560.4221
   3   2.0000     -20.541985      -558.9758
   4   2.0000     -15.628554      -425.2746
   5   2.0000     -15.607836      -424.7108
   6   2.0000     -11.394572      -310.0621
   7   2.0000     -11.383572      -309.7627
   8   2.0000     -11.335474      -308.4539
   9   2.0000     -11.312148      -307.8192
  10   2.0000     -11.308183      -307.7113
  11   2.0000     -11.297145      -307.4109
  12   2.0000     -11.258811      -306.3678
  13   2.0000     -11.258159      -306.3501
  14   2.0000     -11.253547      -306.2246
  15   2.0000     -11.251602      -306.1716
  16   2.0000     -11.241928      -305.9084
  17   2.0000     -11.237493      -305.7877
  18   2.0000     -11.236982      -305.7738
  19   2.0000     -11.231988      -305.6379
  20   2.0000      -8.893545      -242.0057
  21   2.0000      -6.575121      -178.9182
  22   2.0000      -6.573116      -178.8636
  23   2.0000      -6.572530      -178.8476
  24   2.0000      -1.453246       -39.5448
  25   2.0000      -1.414816       -38.4991
  26   2.0000      -1.355110       -36.8744
  27   2.0000      -1.339546       -36.4509
  28   2.0000      -1.237985       -33.6873
  29   2.0000      -1.156505       -31.4701
  30   2.0000      -1.119901       -30.4741
  31   2.0000      -1.043717       -28.4010
  32   2.0000      -1.039947       -28.2984
  33   2.0000      -1.013778       -27.5863
  34   2.0000      -0.995338       -27.0845
  35   2.0000      -0.984057       -26.7776
  36   2.0000      -0.921785       -25.0831
  37   2.0000      -0.889254       -24.1978
  38   2.0000      -0.846199       -23.0262
  39   2.0000      -0.836386       -22.7592
  40   2.0000      -0.832739       -22.6600
  41   2.0000      -0.817610       -22.2483
  42   2.0000      -0.765782       -20.8380
  43   2.0000      -0.730933       -19.8897
  44   2.0000      -0.720654       -19.6100
  45   2.0000      -0.694965       -18.9110
  46   2.0000      -0.688020       -18.7220
  47   2.0000      -0.679421       -18.4880
  48   2.0000      -0.675039       -18.3687
  49   2.0000      -0.665770       -18.1165
  50   2.0000      -0.645621       -17.5682
  51   2.0000      -0.644644       -17.5417
  52   2.0000      -0.635175       -17.2840
  53   2.0000      -0.605328       -16.4718
  54   2.0000      -0.600060       -16.3285
  55   2.0000      -0.597777       -16.2664
  56   2.0000      -0.591003       -16.0820
  57   2.0000      -0.578112       -15.7312
  58   2.0000      -0.570250       -15.5173
  59   2.0000      -0.569337       -15.4925
  60   2.0000      -0.562235       -15.2992
  61   2.0000      -0.551710       -15.0128
  62   2.0000      -0.538909       -14.6645
  63   2.0000      -0.523824       -14.2540
  64   2.0000      -0.522180       -14.2092
  65   2.0000      -0.512866       -13.9558
  66   2.0000      -0.504622       -13.7315
  67   2.0000      -0.498546       -13.5661
  68   2.0000      -0.484715       -13.1898
  69   2.0000      -0.463098       -12.6015
  70   2.0000      -0.460529       -12.5316
  71   2.0000      -0.448186       -12.1958
  72   2.0000      -0.353793        -9.6272
  73   2.0000      -0.348403        -9.4805
  74   2.0000      -0.327786        -8.9195
  75   2.0000      -0.319810        -8.7025
  76   2.0000      -0.315415        -8.5829
  77   0.0000       0.076437         2.0800
  78   0.0000       0.107248         2.9184
  79   0.0000       0.124497         3.3877
  80   0.0000       0.132929         3.6172
  81   0.0000       0.136544         3.7155

MULLIKEN ATOMIC CHARGES
-----------------------
   0 C :   -0.286459
   1 C :    0.044736
   2 O :   -0.339084
   3 C :    0.459400
   4 O :   -0.432475
   5 C :   -0.214073
   6 C :    0.148887
   7 C :   -0.273297
   8 N :   -0.120491
   9 C :    0.209641
  10 S :   -0.440275
  11 N :   -0.203163
  12 C :    0.042957
  13 C :    0.059888
  14 C :   -0.171521
  15 C :   -0.135526
  16 C :   -0.278085
  17 C :    0.315177
  18 O :   -0.356966
  19 C :   -0.266854
  20 H :    0.092223
  21 H :    0.105116
  22 H :    0.104844
  23 H :    0.089357
  24 H :    0.101760
  25 H :    0.131375
  26 H :    0.094722
  27 H :    0.131447
  28 H :    0.197342
  29 H :    0.194481
  30 H :    0.149330
  31 H :    0.150782
  32 H :    0.160033
  33 H :    0.129416
  34 H :    0.240443
  35 H :    0.164912
Sum of atomic charges:   -0.0000000

LOEWDIN ATOMIC CHARGES
----------------------
   0 C :    0.105990
   1 C :   -0.016827
   2 O :    0.310186
   3 C :   -0.411830
   4 O :    0.096039
   5 C :   -0.094456
   6 C :   -0.059288
   7 C :    0.131436
   8 N :    0.406394
   9 C :   -0.456981
  10 S :   -0.035945
  11 N :    0.396656
  12 C :   -0.053301
  13 C :   -0.039984
  14 C :    0.016363
  15 C :    0.039030
  16 C :   -0.000818
  17 C :   -0.189784
  18 O :    0.394900
  19 C :    0.031823
  20 H :   -0.030547
  21 H :   -0.023989
  22 H :   -0.024984
  23 H :   -0.030549
  24 H :   -0.026988
  25 H :   -0.004057
  26 H :   -0.023495
  27 H :   -0.004521
  28 H :   -0.057646
  29 H :   -0.064453
  30 H :   -0.012521
  31 H :   -0.030711
  32 H :   -0.021803
  33 H :   -0.035605
  34 H :   -0.154137
  35 H :   -0.023598

  Mayer bond orders larger than 0.100000
B(  0-C ,  1-C ) :   0.9718 B(  0-C , 20-H ) :   0.9782 B(  0-C , 21-H ) :   0.9795
B(  0-C , 22-H ) :   0.9736 B(  1-C ,  2-O ) :   0.9066 B(  1-C , 23-H ) :   0.9786
B(  1-C , 24-H ) :   0.9772 B(  2-O ,  3-C ) :   1.1763 B(  3-C ,  4-O ) :   1.9709
B(  3-C ,  5-C ) :   1.0608 B(  5-C ,  6-C ) :   1.6556 B(  5-C , 12-C ) :   0.9718
B(  6-C ,  7-C ) :   0.9678 B(  6-C ,  8-N ) :   1.1623 B(  7-C , 25-H ) :   0.9592
B(  7-C , 26-H ) :   0.9902 B(  7-C , 27-H ) :   0.9617 B(  8-N ,  9-C ) :   1.1833
B(  8-N , 28-H ) :   0.9478 B(  9-C , 10-S ) :   1.6079 B(  9-C , 11-N ) :   1.3045
B( 11-N , 12-C ) :   0.9890 B( 11-N , 29-H ) :   0.9514 B( 12-C , 13-C ) :   0.9373
B( 12-C , 30-H ) :   1.0043 B( 13-C , 14-C ) :   1.3612 B( 13-C , 19-C ) :   1.3808
B( 14-C , 15-C ) :   1.3928 B( 14-C , 31-H ) :   0.9698 B( 15-C , 16-C ) :   1.3641
B( 15-C , 32-H ) :   0.9706 B( 16-C , 17-C ) :   1.3310 B( 16-C , 33-H ) :   0.9852
B( 17-C , 18-O ) :   1.1091 B( 17-C , 19-C ) :   1.3739 B( 18-O , 34-H ) :   0.9801
B( 19-C , 35-H ) :   0.9582

MP2 TOTAL ENERGY:    -1274.350585422 Eh
FINAL SINGLE POINT ENERGY     -1274.350585422128

DIPOLE MOMENT
-------------
                                X             Y             Z
Electronic contribution:      8.44760      11.90571       7.51604
Nuclear contribution   :     -9.49263     -13.61305      -7.87758
                        -----------------------------------------
Total Dipole Moment    :     -1.04503      -1.70734      -0.36155
                        -----------------------------------------
Magnitude (a.u.)       :      2.03416
Magnitude (Debye)      :      5.17043

Rotational constants in cm-1:     0.011277     0.008572     0.006099
Rotational constants in MHz :   338.077245   256.987071   182.857177

                             ****ORCA TERMINATED NORMALLY****
TOTAL RUN TIME: 0 days 1 hours 37 minutes 49 seconds 723 msec
