                         Program Version 4.2.0 -  RELEASE  -
|  1> ! ri-mp2 cc-pvtz cc-pvtz/c TightSCF  NoKeepInts
|  2>
|  3> %scf
|  4>   MaxCore 4096
|  5> end
|  6> *xyz  0  1
|  7>     C       14.4121112   14.9604734   16.5400435
|  8>     C       15.7104351   14.6923617   15.7597748
|  9>     O       16.5216105   15.8764570   15.8657911
| 10>     C       17.7057435   15.8252460   16.5425390
| 11>     O       18.3499409   14.7940766   16.6449871
| 12>     C       17.9054818   16.9833839   17.4752846
| 13>     C       17.3668142   18.2174833   17.2984668
| 14>     C       16.5075139   18.6991451   16.1476839
| 15>     N       17.6523647   19.2372304   18.2120190
| 16>     C       18.5608208   19.1429544   19.2331915
| 17>     S       18.9235699   20.4358913   20.1987880
| 18>     N       19.1548085   17.9193646   19.4128838
| 19>     C       18.7807583   16.6852765   18.6968247
| 20>     C       18.0780471   15.7128851   19.6403565
| 21>     C       18.5756347   14.4093017   19.8216791
| 22>     C       17.9251064   13.5072991   20.6802697
| 23>     C       16.7652977   13.9108202   21.3634622
| 24>     C       16.2639613   15.2069085   21.1822063
| 25>     O       15.1393731   15.5969434   21.8337027
| 26>     C       16.9139307   16.1026323   20.3275702
| 27>     H       14.6305195   15.1416300   17.6004125
| 28>     H       13.7381473   14.0978609   16.4724001
| 29>     H       13.8903274   15.8373681   16.1374220
| 30>     H       16.2115186   13.8028038   16.1655054
| 31>     H       15.4730288   14.5005147   14.7055079
| 32>     H       16.9242424   18.3749667   15.1859127
| 33>     H       16.4276313   19.7923172   16.1095150
| 34>     H       15.4913432   18.2933570   16.2281515
| 35>     H       17.2268082   20.1431490   18.0969218
| 36>     H       19.7970771   17.8682198   20.1931323
| 37>     H       19.7068822   16.2125853   18.3389876
| 38>     H       19.4614299   14.0886625   19.2788262
| 39>     H       18.3169671   12.4997172   20.8070632
| 40>     H       16.2583745   13.2164176   22.0251028
| 41>     H       14.8683593   14.8643698   22.4071007
| 42>     H       16.5110190   17.1019261   20.2045136
| 43> *
| 44>
| 45>                          ****END OF INPUT****

CARTESIAN COORDINATES (ANGSTROEM)
---------------------------------
  C     14.412111   14.960473   16.540043
  C     15.710435   14.692362   15.759775
  O     16.521611   15.876457   15.865791
  C     17.705743   15.825246   16.542539
  O     18.349941   14.794077   16.644987
  C     17.905482   16.983384   17.475285
  C     17.366814   18.217483   17.298467
  C     16.507514   18.699145   16.147684
  N     17.652365   19.237230   18.212019
  C     18.560821   19.142954   19.233191
  S     18.923570   20.435891   20.198788
  N     19.154809   17.919365   19.412884
  C     18.780758   16.685277   18.696825
  C     18.078047   15.712885   19.640356
  C     18.575635   14.409302   19.821679
  C     17.925106   13.507299   20.680270
  C     16.765298   13.910820   21.363462
  C     16.263961   15.206908   21.182206
  O     15.139373   15.596943   21.833703
  C     16.913931   16.102632   20.327570
  H     14.630519   15.141630   17.600413
  H     13.738147   14.097861   16.472400
  H     13.890327   15.837368   16.137422
  H     16.211519   13.802804   16.165505
  H     15.473029   14.500515   14.705508
  H     16.924242   18.374967   15.185913
  H     16.427631   19.792317   16.109515
  H     15.491343   18.293357   16.228151
  H     17.226808   20.143149   18.096922
  H     19.797077   17.868220   20.193132
  H     19.706882   16.212585   18.338988
  H     19.461430   14.088662   19.278826
  H     18.316967   12.499717   20.807063
  H     16.258374   13.216418   22.025103
  H     14.868359   14.864370   22.407101
  H     16.511019   17.101926   20.204514

 Total Charge           Charge          ....    0
 Multiplicity           Mult            ....    1
 Number of Electrons    NEL             ....  154
 Basis Dimension        Dim             ....  828

ORBITAL ENERGIES
----------------

  NO   OCC          E(Eh)            E(eV)
   0   2.0000     -91.888149     -2500.4037
   1   2.0000     -20.597484      -560.4860
   2   2.0000     -20.593940      -560.3896
   3   2.0000     -20.548627      -559.1566
   4   2.0000     -15.628048      -425.2608
   5   2.0000     -15.607299      -424.6962
   6   2.0000     -11.395775      -310.0948
   7   2.0000     -11.383348      -309.7566
   8   2.0000     -11.334500      -308.4274
   9   2.0000     -11.309868      -307.7572
  10   2.0000     -11.306861      -307.6753
  11   2.0000     -11.298287      -307.4420
  12   2.0000     -11.260029      -306.4010
  13   2.0000     -11.259112      -306.3760
  14   2.0000     -11.255440      -306.2761
  15   2.0000     -11.249965      -306.1271
  16   2.0000     -11.239555      -305.8438
  17   2.0000     -11.235570      -305.7354
  18   2.0000     -11.232746      -305.6586
  19   2.0000     -11.230569      -305.5993
  20   2.0000      -8.893219      -241.9968
  21   2.0000      -6.574797      -178.9093
  22   2.0000      -6.572789      -178.8547
  23   2.0000      -6.572205      -178.8388
  24   2.0000      -1.453237       -39.5446
  25   2.0000      -1.413696       -38.4686
  26   2.0000      -1.357346       -36.9353
  27   2.0000      -1.339176       -36.4408
  28   2.0000      -1.237193       -33.6657
  29   2.0000      -1.154189       -31.4071
  30   2.0000      -1.120311       -30.4852
  31   2.0000      -1.043949       -28.4073
  32   2.0000      -1.036185       -28.1960
  33   2.0000      -1.011542       -27.5255
  34   2.0000      -0.998467       -27.1697
  35   2.0000      -0.983965       -26.7750
  36   2.0000      -0.922136       -25.0926
  37   2.0000      -0.889951       -24.2168
  38   2.0000      -0.847258       -23.0551
  39   2.0000      -0.836282       -22.7564
  40   2.0000      -0.830043       -22.5866
  41   2.0000      -0.816771       -22.2255
  42   2.0000      -0.759590       -20.6695
  43   2.0000      -0.736389       -20.0382
  44   2.0000      -0.726379       -19.7658
  45   2.0000      -0.692556       -18.8454
  46   2.0000      -0.685123       -18.6431
  47   2.0000      -0.678337       -18.4585
  48   2.0000      -0.675513       -18.3817
  49   2.0000      -0.660929       -17.9848
  50   2.0000      -0.650256       -17.6944
  51   2.0000      -0.644689       -17.5429
  52   2.0000      -0.635145       -17.2832
  53   2.0000      -0.603304       -16.4167
  54   2.0000      -0.601529       -16.3684
  55   2.0000      -0.597436       -16.2571
  56   2.0000      -0.591136       -16.0856
  57   2.0000      -0.583328       -15.8732
  58   2.0000      -0.575066       -15.6483
  59   2.0000      -0.564515       -15.3612
  60   2.0000      -0.560362       -15.2482
  61   2.0000      -0.557001       -15.1568
  62   2.0000      -0.539852       -14.6901
  63   2.0000      -0.522810       -14.2264
  64   2.0000      -0.519276       -14.1302
  65   2.0000      -0.510822       -13.9002
  66   2.0000      -0.499661       -13.5965
  67   2.0000      -0.496640       -13.5143
  68   2.0000      -0.482014       -13.1163
  69   2.0000      -0.463328       -12.6078
  70   2.0000      -0.457977       -12.4622
  71   2.0000      -0.454380       -12.3643
  72   2.0000      -0.353856        -9.6289
  73   2.0000      -0.345948        -9.4137
  74   2.0000      -0.327393        -8.9088
  75   2.0000      -0.317049        -8.6273
  76   2.0000      -0.314964        -8.5706
  77   0.0000       0.075084         2.0431
  78   0.0000       0.109023         2.9667
  79   0.0000       0.119751         3.2586
  80   0.0000       0.133921         3.6442
  81   0.0000       0.141481         3.8499

MULLIKEN ATOMIC CHARGES
-----------------------
   0 C :   -0.278596
   1 C :    0.027402
   2 O :   -0.354382
   3 C :    0.446723
   4 O :   -0.418199
   5 C :   -0.179998
   6 C :    0.140727
   7 C :   -0.284929
   8 N :   -0.124302
   9 C :    0.204285
  10 S :   -0.440249
  11 N :   -0.199104
  12 C :    0.046854
  13 C :    0.053971
  14 C :   -0.160296
  15 C :   -0.132848
  16 C :   -0.280493
  17 C :    0.314866
  18 O :   -0.360270
  19 C :   -0.283024
  20 H :    0.107898
  21 H :    0.099728
  22 H :    0.088547
  23 H :    0.114122
  24 H :    0.100570
  25 H :    0.125728
  26 H :    0.103674
  27 H :    0.126201
  28 H :    0.196955
  29 H :    0.194076
  30 H :    0.153935
  31 H :    0.153756
  32 H :    0.159891
  33 H :    0.129281
  34 H :    0.240581
  35 H :    0.166920
Sum of atomic charges:    0.0000000

LOEWDIN ATOMIC CHARGES
----------------------
   0 C :    0.103590
   1 C :   -0.012919
   2 O :    0.303893
   3 C :   -0.414868
   4 O :    0.110853
   5 C :   -0.092348
   6 C :   -0.070266
   7 C :    0.125351
   8 N :    0.404386
   9 C :   -0.457904
  10 S :   -0.036601
  11 N :    0.397494
  12 C :   -0.045973
  13 C :   -0.039488
  14 C :    0.022034
  15 C :    0.041361
  16 C :   -0.002334
  17 C :   -0.193567
  18 O :    0.393138
  19 C :    0.028322
  20 H :   -0.024659
  21 H :   -0.025003
  22 H :   -0.030924
  23 H :   -0.025900
  24 H :   -0.029326
  25 H :   -0.008098
  26 H :   -0.020389
  27 H :   -0.010650
  28 H :   -0.058989
  29 H :   -0.063893
  30 H :   -0.004908
  31 H :   -0.025084
  32 H :   -0.020865
  33 H :   -0.036103
  34 H :   -0.154492
  35 H :   -0.024870

  Mayer bond orders larger than 0.100000
B(  0-C ,  1-C ) :   0.9696 B(  0-C , 20-H ) :   0.9738 B(  0-C , 21-H ) :   0.9775
B(  0-C , 22-H ) :   0.9796 B(  1-C ,  2-O ) :   0.8891 B(  1-C , 23-H ) :   0.9718
B(  1-C , 24-H ) :   0.9842 B(  2-O ,  3-C ) :   1.1395 B(  3-C ,  4-O ) :   2.0013
B(  3-C ,  5-C ) :   1.0331 B(  5-C ,  6-C ) :   1.6606 B(  5-C , 12-C ) :   0.9647
B(  6-C ,  7-C ) :   0.9545 B(  6-C ,  8-N ) :   1.1436 B(  7-C , 25-H ) :   0.9683
B(  7-C , 26-H ) :   0.9893 B(  7-C , 27-H ) :   0.9637 B(  8-N ,  9-C ) :   1.1822
B(  8-N , 28-H ) :   0.9493 B(  9-C , 10-S ) :   1.6096 B(  9-C , 11-N ) :   1.3025
B( 11-N , 12-C ) :   0.9926 B( 11-N , 29-H ) :   0.9518 B( 12-C , 13-C ) :   0.9459
B( 12-C , 30-H ) :   0.9988 B( 13-C , 14-C ) :   1.3760 B( 13-C , 19-C ) :   1.3663
B( 14-C , 15-C ) :   1.3938 B( 14-C , 31-H ) :   0.9647 B( 15-C , 16-C ) :   1.3633
B( 15-C , 32-H ) :   0.9712 B( 16-C , 17-C ) :   1.3321 B( 16-C , 33-H ) :   0.9854
B( 17-C , 18-O ) :   1.1071 B( 17-C , 19-C ) :   1.3754 B( 18-O , 34-H ) :   0.9802
B( 19-C , 35-H ) :   0.9584

MP2 TOTAL ENERGY:    -1274.339871349 Eh
FINAL SINGLE POINT ENERGY     -1274.339871349158

DIPOLE MOMENT
-------------
                                X             Y             Z
Electronic contribution:     11.44818       8.57223       7.89501
Nuclear contribution   :    -12.84321      -9.91004      -8.77605
                        -----------------------------------------
Total Dipole Moment    :     -1.39503      -1.33782      -0.88104
                        -----------------------------------------
Magnitude (a.u.)       :      2.12417
Magnitude (Debye)      :      5.39921

Rotational constants in cm-1:     0.011086     0.009234     0.006475
Rotational constants in MHz :   332.350876   276.830444   194.114106

                             ****ORCA TERMINATED NORMALLY****
TOTAL RUN TIME: 0 days 1 hours 38 minutes 26 seconds 46 msec
