                         Program Version 4.2.0 -  RELEASE  -
|  1> ! ri-mp2 cc-pvtz cc-pvtz/c TightSCF  NoKeepInts
|  2>
|  3> %scf
|  4>   MaxCore 4096
|  5> end
|  6> *xyz  0  1
|  7>     C       15.0805239   15.4232187   17.2162582
|  8>     C       15.7388038   14.9196521   15.9169766
|  9>     O       16.8972344   15.6867132   15.5175184
| 10>     C       17.9871125   15.8137461   16.3334876
| 11>     O       18.7163752   14.8524911   16.5004589
| 12>     C       17.8877821   16.8979615   17.3683171
| 13>     C       17.2819678   18.0898577   17.1336964
| 14>     C       16.6246481   18.5511876   15.8477333
| 15>     N       17.3445337   19.1019603   18.0963570
| 16>     C       18.1705039   19.0842013   19.1895561
| 17>     S       18.3174182   20.3908180   20.1924038
| 18>     N       18.8717364   17.9244215   19.4064938
| 19>     C       18.6430421   16.6576271   18.6839062
| 20>     C       17.9324801   15.6444641   19.5802029
| 21>     C       18.3490129   14.3002614   19.5956487
| 22>     C       17.7007374   13.3559063   20.4087940
| 23>     C       16.6251137   13.7570885   21.2185486
| 24>     C       16.2061609   15.0940294   21.2090438
| 25>     O       15.1619117   15.4831151   21.9829025
| 26>     C       16.8530018   16.0319600   20.3980914
| 27>     H       15.7145877   15.2075064   18.0801296
| 28>     H       14.1287049   14.9030488   17.3785470
| 29>     H       14.8707882   16.4969571   17.1817419
| 30>     H       16.0270693   13.8676064   16.0472392
| 31>     H       14.9982331   14.9585221   15.1078566
| 32>     H       15.6261184   18.1162099   15.7295436
| 33>     H       17.2218749   18.2560566   14.9757578
| 34>     H       16.5183344   19.6419885   15.8014272
| 35>     H       16.8450799   19.9643716   17.9476692
| 36>     H       19.4588246   17.9288282   20.2308749
| 37>     H       19.6298712   16.2434923   18.4302076
| 38>     H       19.1739874   13.9826862   18.9617053
| 39>     H       18.0317406   12.3188158   20.4053096
| 40>     H       16.1205270   13.0304854   21.8466899
| 41>     H       14.8853072   14.7152350   22.5052383
| 42>     H       16.5058504   17.0595091   20.4076667
| 43> *
| 44>
| 45>                          ****END OF INPUT****

CARTESIAN COORDINATES (ANGSTROEM)
---------------------------------
  C     15.080524   15.423219   17.216258
  C     15.738804   14.919652   15.916977
  O     16.897234   15.686713   15.517518
  C     17.987112   15.813746   16.333488
  O     18.716375   14.852491   16.500459
  C     17.887782   16.897962   17.368317
  C     17.281968   18.089858   17.133696
  C     16.624648   18.551188   15.847733
  N     17.344534   19.101960   18.096357
  C     18.170504   19.084201   19.189556
  S     18.317418   20.390818   20.192404
  N     18.871736   17.924422   19.406494
  C     18.643042   16.657627   18.683906
  C     17.932480   15.644464   19.580203
  C     18.349013   14.300261   19.595649
  C     17.700737   13.355906   20.408794
  C     16.625114   13.757089   21.218549
  C     16.206161   15.094029   21.209044
  O     15.161912   15.483115   21.982903
  C     16.853002   16.031960   20.398091
  H     15.714588   15.207506   18.080130
  H     14.128705   14.903049   17.378547
  H     14.870788   16.496957   17.181742
  H     16.027069   13.867606   16.047239
  H     14.998233   14.958522   15.107857
  H     15.626118   18.116210   15.729544
  H     17.221875   18.256057   14.975758
  H     16.518334   19.641988   15.801427
  H     16.845080   19.964372   17.947669
  H     19.458825   17.928828   20.230875
  H     19.629871   16.243492   18.430208
  H     19.173987   13.982686   18.961705
  H     18.031741   12.318816   20.405310
  H     16.120527   13.030485   21.846690
  H     14.885307   14.715235   22.505238
  H     16.505850   17.059509   20.407667

 Total Charge           Charge          ....    0
 Multiplicity           Mult            ....    1
 Number of Electrons    NEL             ....  154
 Basis Dimension        Dim             ....  828

ORBITAL ENERGIES
----------------

  NO   OCC          E(Eh)            E(eV)
   0   2.0000     -91.891016     -2500.4817
   1   2.0000     -20.595682      -560.4370
   2   2.0000     -20.580946      -560.0360
   3   2.0000     -20.554290      -559.3107
   4   2.0000     -15.631080      -425.3433
   5   2.0000     -15.609442      -424.7545
   6   2.0000     -11.395298      -310.0818
   7   2.0000     -11.386006      -309.8290
   8   2.0000     -11.336922      -308.4933
   9   2.0000     -11.312223      -307.8212
  10   2.0000     -11.310141      -307.7646
  11   2.0000     -11.304760      -307.6182
  12   2.0000     -11.262459      -306.4671
  13   2.0000     -11.262411      -306.4658
  14   2.0000     -11.258851      -306.3689
  15   2.0000     -11.252595      -306.1987
  16   2.0000     -11.242066      -305.9122
  17   2.0000     -11.237645      -305.7919
  18   2.0000     -11.234223      -305.6987
  19   2.0000     -11.228606      -305.5459
  20   2.0000      -8.896066      -242.0743
  21   2.0000      -6.577640      -178.9867
  22   2.0000      -6.575634      -178.9321
  23   2.0000      -6.575043      -178.9160
  24   2.0000      -1.447579       -39.3906
  25   2.0000      -1.415522       -38.5183
  26   2.0000      -1.353539       -36.8317
  27   2.0000      -1.342109       -36.5206
  28   2.0000      -1.239683       -33.7335
  29   2.0000      -1.156228       -31.4626
  30   2.0000      -1.122075       -30.5332
  31   2.0000      -1.044604       -28.4251
  32   2.0000      -1.033974       -28.1359
  33   2.0000      -1.014393       -27.6030
  34   2.0000      -1.001541       -27.2533
  35   2.0000      -0.988371       -26.8949
  36   2.0000      -0.925235       -25.1769
  37   2.0000      -0.894069       -24.3288
  38   2.0000      -0.850635       -23.1470
  39   2.0000      -0.839993       -22.8574
  40   2.0000      -0.832368       -22.6499
  41   2.0000      -0.820193       -22.3186
  42   2.0000      -0.749931       -20.4067
  43   2.0000      -0.733527       -19.9603
  44   2.0000      -0.728277       -19.8174
  45   2.0000      -0.694248       -18.8915
  46   2.0000      -0.687536       -18.7088
  47   2.0000      -0.675240       -18.3742
  48   2.0000      -0.673153       -18.3174
  49   2.0000      -0.661865       -18.0103
  50   2.0000      -0.653235       -17.7754
  51   2.0000      -0.647344       -17.6151
  52   2.0000      -0.640132       -17.4189
  53   2.0000      -0.613267       -16.6879
  54   2.0000      -0.603230       -16.4147
  55   2.0000      -0.601437       -16.3659
  56   2.0000      -0.599529       -16.3140
  57   2.0000      -0.584786       -15.9128
  58   2.0000      -0.575012       -15.6469
  59   2.0000      -0.563692       -15.3388
  60   2.0000      -0.562319       -15.3015
  61   2.0000      -0.551022       -14.9941
  62   2.0000      -0.546737       -14.8775
  63   2.0000      -0.526392       -14.3239
  64   2.0000      -0.520388       -14.1605
  65   2.0000      -0.513276       -13.9670
  66   2.0000      -0.500032       -13.6066
  67   2.0000      -0.490300       -13.3417
  68   2.0000      -0.481927       -13.1139
  69   2.0000      -0.465228       -12.6595
  70   2.0000      -0.454990       -12.3809
  71   2.0000      -0.451442       -12.2844
  72   2.0000      -0.357108        -9.7174
  73   2.0000      -0.346970        -9.4415
  74   2.0000      -0.330151        -8.9839
  75   2.0000      -0.320835        -8.7304
  76   2.0000      -0.318002        -8.6533
  77   0.0000       0.068529         1.8648
  78   0.0000       0.106605         2.9009
  79   0.0000       0.119226         3.2443
  80   0.0000       0.132116         3.5951
  81   0.0000       0.132769         3.6128

MULLIKEN ATOMIC CHARGES
-----------------------
   0 C :   -0.341423
   1 C :    0.044869
   2 O :   -0.384469
   3 C :    0.470133
   4 O :   -0.393804
   5 C :   -0.216136
   6 C :    0.149173
   7 C :   -0.283058
   8 N :   -0.127190
   9 C :    0.186591
  10 S :   -0.434116
  11 N :   -0.206082
  12 C :    0.061241
  13 C :    0.023161
  14 C :   -0.184659
  15 C :   -0.141059
  16 C :   -0.274158
  17 C :    0.312050
  18 O :   -0.358285
  19 C :   -0.259758
  20 H :    0.129026
  21 H :    0.121430
  22 H :    0.098202
  23 H :    0.108163
  24 H :    0.112051
  25 H :    0.118877
  26 H :    0.132196
  27 H :    0.108316
  28 H :    0.197618
  29 H :    0.195717
  30 H :    0.160571
  31 H :    0.168953
  32 H :    0.162242
  33 H :    0.131387
  34 H :    0.240559
  35 H :    0.171672
Sum of atomic charges:   -0.0000000

LOEWDIN ATOMIC CHARGES
----------------------
   0 C :    0.105820
   1 C :   -0.016031
   2 O :    0.276722
   3 C :   -0.416393
   4 O :    0.128928
   5 C :   -0.092124
   6 C :   -0.070688
   7 C :    0.126878
   8 N :    0.405954
   9 C :   -0.460142
  10 S :   -0.033452
  11 N :    0.397155
  12 C :   -0.044184
  13 C :   -0.042459
  14 C :    0.019328
  15 C :    0.041473
  16 C :   -0.002085
  17 C :   -0.194135
  18 O :    0.394937
  19 C :    0.028297
  20 H :   -0.027240
  21 H :   -0.022004
  22 H :   -0.033697
  23 H :   -0.025765
  24 H :   -0.022423
  25 H :   -0.015254
  26 H :   -0.005988
  27 H :   -0.018599
  28 H :   -0.058608
  29 H :   -0.063826
  30 H :   -0.002658
  31 H :   -0.023508
  32 H :   -0.019741
  33 H :   -0.035450
  34 H :   -0.154098
  35 H :   -0.024939

  Mayer bond orders larger than 0.100000
B(  0-C ,  1-C ) :   0.9614 B(  0-C , 20-H ) :   0.9637 B(  0-C , 21-H ) :   0.9791
B(  0-C , 22-H ) :   0.9738 B(  1-C ,  2-O ) :   0.8944 B(  1-C , 23-H ) :   0.9827
B(  1-C , 24-H ) :   0.9829 B(  2-O ,  3-C ) :   1.0889 B(  3-C ,  4-O ) :   2.0296
B(  3-C ,  5-C ) :   1.0209 B(  5-C ,  6-C ) :   1.6622 B(  5-C , 12-C ) :   0.9539
B(  6-C ,  7-C ) :   0.9518 B(  6-C ,  8-N ) :   1.1288 B(  7-C , 25-H ) :   0.9643
B(  7-C , 26-H ) :   0.9671 B(  7-C , 27-H ) :   0.9889 B(  8-N ,  9-C ) :   1.1804
B(  8-N , 28-H ) :   0.9493 B(  9-C , 10-S ) :   1.6168 B(  9-C , 11-N ) :   1.2967
B( 11-N , 12-C ) :   0.9809 B( 11-N , 29-H ) :   0.9515 B( 12-C , 13-C ) :   0.9504
B( 12-C , 30-H ) :   0.9973 B( 13-C , 14-C ) :   1.3903 B( 13-C , 19-C ) :   1.3506
B( 14-C , 15-C ) :   1.3975 B( 14-C , 31-H ) :   0.9586 B( 15-C , 16-C ) :   1.3621
B( 15-C , 32-H ) :   0.9708 B( 16-C , 17-C ) :   1.3304 B( 16-C , 33-H ) :   0.9847
B( 17-C , 18-O ) :   1.1115 B( 17-C , 19-C ) :   1.3741 B( 18-O , 34-H ) :   0.9800
B( 19-C , 35-H ) :   0.9592

MP2 TOTAL ENERGY:    -1274.322810243 Eh
FINAL SINGLE POINT ENERGY     -1274.322810243218

DIPOLE MOMENT
-------------
                                X             Y             Z
Electronic contribution:      9.68800       7.34880       6.42343
Nuclear contribution   :    -11.05048      -8.51624      -7.06588
                        -----------------------------------------
Total Dipole Moment    :     -1.36247      -1.16744      -0.64245
                        -----------------------------------------
Magnitude (a.u.)       :      1.90578
Magnitude (Debye)      :      4.84410

Rotational constants in cm-1:     0.011238     0.010003     0.006754
Rotational constants in MHz :   336.898017   299.878822   202.482358

                             ****ORCA TERMINATED NORMALLY****
TOTAL RUN TIME: 0 days 1 hours 53 minutes 59 seconds 774 msec
