                         Program Version 5.0.0 -  RELEASE  -
|  1> ! ri-mp2 cc-pvtz cc-pvtz/c TightSCF NoKeepInts
|  2>
|  3> %scf
|  4>   MaxCore 4096
|  5> end
|  6> *xyz  0  1
|  7>     C       15.1340217   14.4667328   17.0151144
|  8>     C       16.4558435   13.9637821   16.3908093
|  9>     O       17.5135481   14.9475912   16.4548429
| 10>     C       17.2719722   16.2711162   16.2167752
| 11>     O       16.5640049   16.6297479   15.2915531
| 12>     C       17.7447410   17.1673140   17.3293866
| 13>     C       17.5124820   18.5049609   17.3335395
| 14>     C       16.7371344   19.3057142   16.3093031
| 15>     N       18.0574161   19.3069589   18.3412751
| 16>     C       18.9701661   18.8809157   19.2693705
| 17>     S       19.6830543   19.9217244   20.3389954
| 18>     N       19.2686734   17.5420500   19.2615766
| 19>     C       18.5556427   16.5245229   18.4674695
| 20>     C       17.6879139   15.6746805   19.3909267
| 21>     C       17.9584934   14.3038109   19.5615442
| 22>     C       17.1629204   13.5180849   20.4123085
| 23>     C       16.0915259   14.1086838   21.1037951
| 24>     C       15.8246870   15.4753228   20.9438819
| 25>     O       14.7907563   16.0483896   21.6095196
| 26>     C       16.6166898   16.2541883   20.0946099
| 27>     H       15.2917831   14.8247244   18.0379937
| 28>     H       14.4038032   13.6497971   17.0563040
| 29>     H       14.6874016   15.2758742   16.4246673
| 30>     H       16.7813177   13.0511621   16.9061910
| 31>     H       16.2680371   13.7053880   15.3402035
| 32>     H       17.1941878   19.2076433   15.3163302
| 33>     H       16.6884735   20.3747195   16.5472370
| 34>     H       15.7062929   18.9369292   16.2323682
| 35>     H       17.8544046   20.2937239   18.3556389
| 36>     H       19.9218235   17.2514603   19.9776869
| 37>     H       19.3153393   15.8747726   18.0105818
| 38>     H       18.7850176   13.8441988   19.0260122
| 39>     H       17.3789125   12.4582060   20.5355943
| 40>     H       15.4748940   13.5063612   21.7628925
| 41>     H       14.3968610   15.3696587   22.1779681
| 42>     H       16.3967633   17.3110888   19.9897334
| 43> *
| 44>
| 45>                          ****END OF INPUT****

CARTESIAN COORDINATES (ANGSTROEM)
---------------------------------
  C     15.134022   14.466733   17.015114
  C     16.455844   13.963782   16.390809
  O     17.513548   14.947591   16.454843
  C     17.271972   16.271116   16.216775
  O     16.564005   16.629748   15.291553
  C     17.744741   17.167314   17.329387
  C     17.512482   18.504961   17.333539
  C     16.737134   19.305714   16.309303
  N     18.057416   19.306959   18.341275
  C     18.970166   18.880916   19.269371
  S     19.683054   19.921724   20.338995
  N     19.268673   17.542050   19.261577
  C     18.555643   16.524523   18.467469
  C     17.687914   15.674680   19.390927
  C     17.958493   14.303811   19.561544
  C     17.162920   13.518085   20.412308
  C     16.091526   14.108684   21.103795
  C     15.824687   15.475323   20.943882
  O     14.790756   16.048390   21.609520
  C     16.616690   16.254188   20.094610
  H     15.291783   14.824724   18.037994
  H     14.403803   13.649797   17.056304
  H     14.687402   15.275874   16.424667
  H     16.781318   13.051162   16.906191
  H     16.268037   13.705388   15.340203
  H     17.194188   19.207643   15.316330
  H     16.688474   20.374720   16.547237
  H     15.706293   18.936929   16.232368
  H     17.854405   20.293724   18.355639
  H     19.921823   17.251460   19.977687
  H     19.315339   15.874773   18.010582
  H     18.785018   13.844199   19.026012
  H     17.378912   12.458206   20.535594
  H     15.474894   13.506361   21.762892
  H     14.396861   15.369659   22.177968
  H     16.396763   17.311089   19.989733

 Total Charge           Charge          ....    0
 Multiplicity           Mult            ....    1
 Number of Electrons    NEL             ....  154
 Basis Dimension        Dim             ....  828

ORBITAL ENERGIES
----------------

  NO   OCC          E(Eh)            E(eV)
   0   2.0000     -91.890181     -2500.4590
   1   2.0000     -20.599147      -560.5313
   2   2.0000     -20.589024      -560.2558
   3   2.0000     -20.543393      -559.0141
   4   2.0000     -15.630531      -425.3284
   5   2.0000     -15.609098      -424.7451
   6   2.0000     -11.394274      -310.0540
   7   2.0000     -11.384956      -309.8004
   8   2.0000     -11.337041      -308.4966
   9   2.0000     -11.316711      -307.9434
  10   2.0000     -11.310384      -307.7712
  11   2.0000     -11.299087      -307.4638
  12   2.0000     -11.262041      -306.4557
  13   2.0000     -11.259440      -306.3849
  14   2.0000     -11.258427      -306.3574
  15   2.0000     -11.252820      -306.2048
  16   2.0000     -11.246194      -306.0245
  17   2.0000     -11.241002      -305.8832
  18   2.0000     -11.240855      -305.8792
  19   2.0000     -11.221562      -305.3542
  20   2.0000      -8.895218      -242.0512
  21   2.0000      -6.576787      -178.9635
  22   2.0000      -6.574789      -178.9091
  23   2.0000      -6.574196      -178.8930
  24   2.0000      -1.446150       -39.3517
  25   2.0000      -1.418885       -38.6098
  26   2.0000      -1.351395       -36.7733
  27   2.0000      -1.341421       -36.5019
  28   2.0000      -1.239694       -33.7338
  29   2.0000      -1.160089       -31.5676
  30   2.0000      -1.121105       -30.5068
  31   2.0000      -1.044437       -28.4206
  32   2.0000      -1.032069       -28.0840
  33   2.0000      -1.018132       -27.7048
  34   2.0000      -0.997057       -27.1313
  35   2.0000      -0.985706       -26.8224
  36   2.0000      -0.924105       -25.1462
  37   2.0000      -0.896551       -24.3964
  38   2.0000      -0.848089       -23.0777
  39   2.0000      -0.841016       -22.8852
  40   2.0000      -0.836867       -22.7723
  41   2.0000      -0.816620       -22.2214
  42   2.0000      -0.747301       -20.3351
  43   2.0000      -0.734008       -19.9734
  44   2.0000      -0.722568       -19.6621
  45   2.0000      -0.698341       -19.0028
  46   2.0000      -0.690784       -18.7972
  47   2.0000      -0.674789       -18.3619
  48   2.0000      -0.669953       -18.2304
  49   2.0000      -0.662675       -18.0323
  50   2.0000      -0.650560       -17.7026
  51   2.0000      -0.642553       -17.4847
  52   2.0000      -0.635242       -17.2858
  53   2.0000      -0.620839       -16.8939
  54   2.0000      -0.609432       -16.5835
  55   2.0000      -0.602361       -16.3911
  56   2.0000      -0.600123       -16.3302
  57   2.0000      -0.579843       -15.7783
  58   2.0000      -0.571322       -15.5465
  59   2.0000      -0.565992       -15.4014
  60   2.0000      -0.550494       -14.9797
  61   2.0000      -0.544511       -14.8169
  62   2.0000      -0.533694       -14.5225
  63   2.0000      -0.528233       -14.3740
  64   2.0000      -0.526891       -14.3374
  65   2.0000      -0.514834       -14.0093
  66   2.0000      -0.502875       -13.6839
  67   2.0000      -0.500614       -13.6224
  68   2.0000      -0.480344       -13.0708
  69   2.0000      -0.464679       -12.6445
  70   2.0000      -0.453811       -12.3488
  71   2.0000      -0.443622       -12.0716
  72   2.0000      -0.355962        -9.6862
  73   2.0000      -0.351806        -9.5731
  74   2.0000      -0.329587        -8.9685
  75   2.0000      -0.324895        -8.8408
  76   2.0000      -0.317170        -8.6306
  77   0.0000       0.071400         1.9429
  78   0.0000       0.104111         2.8330
  79   0.0000       0.123505         3.3607
  80   0.0000       0.130229         3.5437
  81   0.0000       0.136066         3.7026

MULLIKEN ATOMIC CHARGES
-----------------------
   0 C :   -0.331219
   1 C :    0.032645
   2 O :   -0.388028
   3 C :    0.493124
   4 O :   -0.427727
   5 C :   -0.233681
   6 C :    0.150321
   7 C :   -0.271575
   8 N :   -0.122918
   9 C :    0.206062
  10 S :   -0.436395
  11 N :   -0.199507
  12 C :    0.045579
  13 C :    0.034417
  14 C :   -0.172820
  15 C :   -0.137412
  16 C :   -0.269309
  17 C :    0.303830
  18 O :   -0.359216
  19 C :   -0.252467
  20 H :    0.112060
  21 H :    0.104422
  22 H :    0.122351
  23 H :    0.111791
  24 H :    0.121303
  25 H :    0.133324
  26 H :    0.095177
  27 H :    0.130866
  28 H :    0.198370
  29 H :    0.192899
  30 H :    0.152779
  31 H :    0.158205
  32 H :    0.162484
  33 H :    0.132396
  34 H :    0.240905
  35 H :    0.166962
Sum of atomic charges:   -0.0000000

LOEWDIN ATOMIC CHARGES
----------------------
   0 C :    0.106488
   1 C :   -0.013809
   2 O :    0.289693
   3 C :   -0.417618
   4 O :    0.105893
   5 C :   -0.096367
   6 C :   -0.057522
   7 C :    0.131606
   8 N :    0.406765
   9 C :   -0.457691
  10 S :   -0.033173
  11 N :    0.396738
  12 C :   -0.052220
  13 C :   -0.040133
  14 C :    0.016400
  15 C :    0.039509
  16 C :   -0.001559
  17 C :   -0.191312
  18 O :    0.396523
  19 C :    0.031167
  20 H :   -0.028736
  21 H :   -0.024933
  22 H :   -0.027095
  23 H :   -0.026070
  24 H :   -0.028392
  25 H :   -0.003240
  26 H :   -0.023332
  27 H :   -0.005181
  28 H :   -0.057486
  29 H :   -0.064755
  30 H :   -0.008320
  31 H :   -0.028896
  32 H :   -0.020819
  33 H :   -0.034983
  34 H :   -0.153329
  35 H :   -0.023811

  Mayer bond orders larger than 0.100000
B(  0-C ,  1-C ) :   0.9553 B(  0-C , 20-H ) :   0.9685 B(  0-C , 21-H ) :   0.9780
B(  0-C , 22-H ) :   0.9734 B(  1-C ,  2-O ) :   0.8835 B(  1-C , 23-H ) :   0.9810
B(  1-C , 24-H ) :   0.9864 B(  2-O ,  3-C ) :   1.1230 B(  3-C ,  4-O ) :   1.9870
B(  3-C ,  5-C ) :   1.0652 B(  5-C ,  6-C ) :   1.6531 B(  5-C , 12-C ) :   0.9697
B(  6-C ,  7-C ) :   0.9677 B(  6-C ,  8-N ) :   1.1576 B(  7-C , 25-H ) :   0.9588
B(  7-C , 26-H ) :   0.9899 B(  7-C , 27-H ) :   0.9619 B(  8-N ,  9-C ) :   1.1799
B(  8-N , 28-H ) :   0.9480 B(  9-C , 10-S ) :   1.6138 B(  9-C , 11-N ) :   1.3024
B( 11-N , 12-C ) :   0.9858 B( 11-N , 29-H ) :   0.9531 B( 12-C , 13-C ) :   0.9359
B( 12-C , 30-H ) :   1.0024 B( 13-C , 14-C ) :   1.3618 B( 13-C , 19-C ) :   1.3805
B( 14-C , 15-C ) :   1.3829 B( 14-C , 31-H ) :   0.9693 B( 15-C , 16-C ) :   1.3648
B( 15-C , 32-H ) :   0.9706 B( 16-C , 17-C ) :   1.3314 B( 16-C , 33-H ) :   0.9842
B( 17-C , 18-O ) :   1.1124 B( 17-C , 19-C ) :   1.3740 B( 18-O , 34-H ) :   0.9796
B( 19-C , 35-H ) :   0.9581

MP2 TOTAL ENERGY:    -1274.340948633 Eh
FINAL SINGLE POINT ENERGY     -1274.340948633367

DIPOLE MOMENT
-------------
                                X             Y             Z
Electronic contribution:     10.01876       9.27471       6.03655
Nuclear contribution   :    -11.05724     -10.94752      -6.11583
                        -----------------------------------------
Total Dipole Moment    :     -1.03848      -1.67281      -0.07929
                        -----------------------------------------
Magnitude (a.u.)       :      1.97054
Magnitude (Debye)      :      5.00872

Rotational constants in cm-1:     0.012295     0.009228     0.006532
Rotational constants in MHz :   368.587748   276.648915   195.831915

                             ****ORCA TERMINATED NORMALLY****
TOTAL RUN TIME: 0 days 2 hours 25 minutes 26 seconds 259 msec
