                         Program Version 4.2.0 -  RELEASE  -
|  1> ! ri-mp2 cc-pvtz cc-pvtz/c TightSCF  NoKeepInts
|  2>
|  3> %scf
|  4>   MaxCore 4096
|  5> end
|  6> *xyz  0  1
|  7>     C       14.9636457   16.0523962   17.2691610
|  8>     C       15.5090126   15.0483321   16.2339456
|  9>     O       16.9341944   15.0344875   15.9332073
| 10>     C       18.0428589   15.6269254   16.4996552
| 11>     O       19.1087250   15.0421419   16.4384811
| 12>     C       17.8948430   16.7979665   17.4111576
| 13>     C       17.4088940   17.9836798   16.9748489
| 14>     C       16.9422253   18.3189881   15.5726693
| 15>     N       17.4202489   19.0955308   17.8195484
| 16>     C       18.0107628   19.1302552   19.0555007
| 17>     S       18.0262211   20.5062691   19.9723605
| 18>     N       18.5960651   17.9677100   19.4926194
| 19>     C       18.5537147   16.6695824   18.7893078
| 20>     C       17.8997754   15.5827019   19.6422724
| 21>     C       18.3600716   14.2553127   19.5571788
| 22>     C       17.7698143   13.2384898   20.3256792
| 23>     C       16.7084964   13.5488549   21.1920602
| 24>     C       16.2465364   14.8683208   21.2834249
| 25>     O       15.2164698   15.1705648   22.1129782
| 26>     C       16.8362457   15.8790445   20.5173992
| 27>     H       15.5162307   16.0090669   18.2101496
| 28>     H       13.9238919   15.7952021   17.5059917
| 29>     H       14.9474149   17.0757329   16.8865899
| 30>     H       15.2546591   14.0459293   16.6029788
| 31>     H       14.9549798   15.1764879   15.2950740
| 32>     H       16.7560379   17.4282742   14.9626398
| 33>     H       17.7037508   18.9116230   15.0498112
| 34>     H       16.0139897   18.9032109   15.5875401
| 35>     H       17.0248482   19.9675480   17.5049013
| 36>     H       19.0159506   18.0205450   20.4121709
| 37>     H       19.5961548   16.3610871   18.6196868
| 38>     H       19.1777131   14.0080326   18.8830311
| 39>     H       18.1353624   12.2160928   20.2450850
| 40>     H       16.2488252   12.7659918   21.7862658
| 41>     H       14.9756262   14.3591960   22.5851301
| 42>     H       16.4527436   16.8904252   20.6034980
| 43> *
| 44>
| 45>                          ****END OF INPUT****

CARTESIAN COORDINATES (ANGSTROEM)
---------------------------------
  C     14.963646   16.052396   17.269161
  C     15.509013   15.048332   16.233946
  O     16.934194   15.034487   15.933207
  C     18.042859   15.626925   16.499655
  O     19.108725   15.042142   16.438481
  C     17.894843   16.797967   17.411158
  C     17.408894   17.983680   16.974849
  C     16.942225   18.318988   15.572669
  N     17.420249   19.095531   17.819548
  C     18.010763   19.130255   19.055501
  S     18.026221   20.506269   19.972360
  N     18.596065   17.967710   19.492619
  C     18.553715   16.669582   18.789308
  C     17.899775   15.582702   19.642272
  C     18.360072   14.255313   19.557179
  C     17.769814   13.238490   20.325679
  C     16.708496   13.548855   21.192060
  C     16.246536   14.868321   21.283425
  O     15.216470   15.170565   22.112978
  C     16.836246   15.879044   20.517399
  H     15.516231   16.009067   18.210150
  H     13.923892   15.795202   17.505992
  H     14.947415   17.075733   16.886590
  H     15.254659   14.045929   16.602979
  H     14.954980   15.176488   15.295074
  H     16.756038   17.428274   14.962640
  H     17.703751   18.911623   15.049811
  H     16.013990   18.903211   15.587540
  H     17.024848   19.967548   17.504901
  H     19.015951   18.020545   20.412171
  H     19.596155   16.361087   18.619687
  H     19.177713   14.008033   18.883031
  H     18.135362   12.216093   20.245085
  H     16.248825   12.765992   21.786266
  H     14.975626   14.359196   22.585130
  H     16.452744   16.890425   20.603498

 Total Charge           Charge          ....    0
 Multiplicity           Mult            ....    1
 Number of Electrons    NEL             ....  154
 Basis Dimension        Dim             ....  828

ORBITAL ENERGIES
----------------

  NO   OCC          E(Eh)            E(eV)
   0   2.0000     -91.890187     -2500.4591
   1   2.0000     -20.598995      -560.5272
   2   2.0000     -20.595756      -560.4390
   3   2.0000     -20.546674      -559.1034
   4   2.0000     -15.627384      -425.2427
   5   2.0000     -15.611296      -424.8049
   6   2.0000     -11.400460      -310.2223
   7   2.0000     -11.386748      -309.8492
   8   2.0000     -11.329764      -308.2986
   9   2.0000     -11.315973      -307.9233
  10   2.0000     -11.314181      -307.8745
  11   2.0000     -11.313380      -307.8527
  12   2.0000     -11.267474      -306.6036
  13   2.0000     -11.264162      -306.5134
  14   2.0000     -11.263461      -306.4944
  15   2.0000     -11.256067      -306.2932
  16   2.0000     -11.244949      -305.9906
  17   2.0000     -11.241300      -305.8913
  18   2.0000     -11.237451      -305.7866
  19   2.0000     -11.236869      -305.7707
  20   2.0000      -8.895293      -242.0532
  21   2.0000      -6.576880      -178.9660
  22   2.0000      -6.574856      -178.9109
  23   2.0000      -6.574279      -178.8952
  24   2.0000      -1.440307       -39.1927
  25   2.0000      -1.418792       -38.6073
  26   2.0000      -1.352751       -36.8102
  27   2.0000      -1.340361       -36.4731
  28   2.0000      -1.239936       -33.7404
  29   2.0000      -1.160004       -31.5653
  30   2.0000      -1.124734       -30.6056
  31   2.0000      -1.047790       -28.5118
  32   2.0000      -1.042550       -28.3692
  33   2.0000      -1.018506       -27.7150
  34   2.0000      -1.004967       -27.3465
  35   2.0000      -0.990297       -26.9473
  36   2.0000      -0.927809       -25.2470
  37   2.0000      -0.902607       -24.5612
  38   2.0000      -0.853265       -23.2185
  39   2.0000      -0.840785       -22.8789
  40   2.0000      -0.835481       -22.7346
  41   2.0000      -0.828204       -22.5366
  42   2.0000      -0.746051       -20.3011
  43   2.0000      -0.732935       -19.9442
  44   2.0000      -0.730155       -19.8685
  45   2.0000      -0.696129       -18.9426
  46   2.0000      -0.686130       -18.6705
  47   2.0000      -0.676935       -18.4203
  48   2.0000      -0.674835       -18.3632
  49   2.0000      -0.662267       -18.0212
  50   2.0000      -0.657263       -17.8850
  51   2.0000      -0.652643       -17.7593
  52   2.0000      -0.639635       -17.4054
  53   2.0000      -0.613385       -16.6911
  54   2.0000      -0.606299       -16.4982
  55   2.0000      -0.603427       -16.4201
  56   2.0000      -0.601519       -16.3682
  57   2.0000      -0.596012       -16.2183
  58   2.0000      -0.578657       -15.7461
  59   2.0000      -0.575767       -15.6674
  60   2.0000      -0.565907       -15.3991
  61   2.0000      -0.558090       -15.1864
  62   2.0000      -0.543913       -14.8006
  63   2.0000      -0.531557       -14.4644
  64   2.0000      -0.520805       -14.1718
  65   2.0000      -0.514107       -13.9896
  66   2.0000      -0.501886       -13.6570
  67   2.0000      -0.494991       -13.4694
  68   2.0000      -0.484433       -13.1821
  69   2.0000      -0.467184       -12.7127
  70   2.0000      -0.454641       -12.3714
  71   2.0000      -0.448232       -12.1970
  72   2.0000      -0.355517        -9.6741
  73   2.0000      -0.349457        -9.5092
  74   2.0000      -0.329798        -8.9743
  75   2.0000      -0.323800        -8.8110
  76   2.0000      -0.318940        -8.6788
  77   0.0000       0.086341         2.3495
  78   0.0000       0.106246         2.8911
  79   0.0000       0.114609         3.1187
  80   0.0000       0.126522         3.4428
  81   0.0000       0.130428         3.5491

MULLIKEN ATOMIC CHARGES
-----------------------
   0 C :   -0.346074
   1 C :    0.045753
   2 O :   -0.342456
   3 C :    0.416882
   4 O :   -0.384487
   5 C :   -0.229424
   6 C :    0.162202
   7 C :   -0.319281
   8 N :   -0.140174
   9 C :    0.207199
  10 S :   -0.441622
  11 N :   -0.232615
  12 C :    0.110975
  13 C :    0.015634
  14 C :   -0.224029
  15 C :   -0.134221
  16 C :   -0.275293
  17 C :    0.327235
  18 O :   -0.356808
  19 C :   -0.287349
  20 H :    0.132014
  21 H :    0.128836
  22 H :    0.095743
  23 H :    0.116886
  24 H :    0.105902
  25 H :    0.125028
  26 H :    0.149840
  27 H :    0.108622
  28 H :    0.196414
  29 H :    0.203917
  30 H :    0.166260
  31 H :    0.178953
  32 H :    0.164830
  33 H :    0.131936
  34 H :    0.241124
  35 H :    0.181648
Sum of atomic charges:   -0.0000000

LOEWDIN ATOMIC CHARGES
----------------------
   0 C :    0.105793
   1 C :   -0.013039
   2 O :    0.287037
   3 C :   -0.415750
   4 O :    0.121477
   5 C :   -0.082923
   6 C :   -0.096269
   7 C :    0.124337
   8 N :    0.403545
   9 C :   -0.456001
  10 S :   -0.037776
  11 N :    0.398112
  12 C :   -0.042823
  13 C :   -0.043149
  14 C :    0.020459
  15 C :    0.044478
  16 C :   -0.001179
  17 C :   -0.193370
  18 O :    0.395260
  19 C :    0.024788
  20 H :   -0.029459
  21 H :   -0.018496
  22 H :   -0.033733
  23 H :   -0.021218
  24 H :   -0.025468
  25 H :   -0.010474
  26 H :   -0.007280
  27 H :   -0.018970
  28 H :   -0.057838
  29 H :   -0.063871
  30 H :   -0.002720
  31 H :   -0.021560
  32 H :   -0.018347
  33 H :   -0.034967
  34 H :   -0.153283
  35 H :   -0.025321

  Mayer bond orders larger than 0.100000
B(  0-C ,  1-C ) :   0.9614 B(  0-C , 20-H ) :   0.9644 B(  0-C , 21-H ) :   0.9776
B(  0-C , 22-H ) :   0.9734 B(  1-C ,  2-O ) :   0.9053 B(  1-C , 23-H ) :   0.9786
B(  1-C , 24-H ) :   0.9793 B(  2-O ,  3-C ) :   1.1693 B(  3-C ,  4-O ) :   2.0775
B(  3-C ,  5-C ) :   0.9438 B(  5-C ,  6-C ) :   1.6817 B(  5-C , 12-C ) :   0.9400
B(  6-C ,  7-C ) :   0.9456 B(  6-C ,  8-N ) :   1.1145 B(  7-C , 25-H ) :   0.9784
B(  7-C , 26-H ) :   0.9641 B(  7-C , 27-H ) :   0.9716 B(  8-N ,  9-C ) :   1.1984
B(  8-N , 28-H ) :   0.9509 B(  9-C , 10-S ) :   1.6068 B(  9-C , 11-N ) :   1.2888
B( 11-N , 12-C ) :   0.9873 B( 11-N , 29-H ) :   0.9465 B( 12-C , 13-C ) :   0.9561
B( 12-C , 30-H ) :   0.9944 B( 13-C , 14-C ) :   1.3911 B( 13-C , 19-C ) :   1.3368
B( 14-C , 15-C ) :   1.4029 B( 14-C , 31-H ) :   0.9566 B( 15-C , 16-C ) :   1.3580
B( 15-C , 32-H ) :   0.9696 B( 16-C , 17-C ) :   1.3330 B( 16-C , 33-H ) :   0.9846
B( 17-C , 18-O ) :   1.1084 B( 17-C , 19-C ) :   1.3645 B( 18-O , 34-H ) :   0.9795
B( 19-C , 35-H ) :   0.9580

MP2 TOTAL ENERGY:    -1274.321648066 Eh
FINAL SINGLE POINT ENERGY     -1274.321648065649

DIPOLE MOMENT
-------------
                                X             Y             Z
Electronic contribution:      9.32090       5.46497       6.80417
Nuclear contribution   :    -10.90275      -6.62488      -7.35296
                        -----------------------------------------
Total Dipole Moment    :     -1.58185      -1.15991      -0.54879
                        -----------------------------------------
Magnitude (a.u.)       :      2.03686
Magnitude (Debye)      :      5.17729

Rotational constants in cm-1:     0.011687     0.009425     0.006709
Rotational constants in MHz :   350.356431   282.555422   201.143322

                             ****ORCA TERMINATED NORMALLY****
TOTAL RUN TIME: 0 days 1 hours 47 minutes 59 seconds 655 msec
