                         Program Version 4.2.0 -  RELEASE  -
|  1> ! ri-mp2 cc-pvtz cc-pvtz/c TightSCF  NoKeepInts
|  2>
|  3> %scf
|  4>   MaxCore 4096
|  5> end
|  6> *xyz  0  1
|  7>     C       15.0789059   15.1329890   17.5386385
|  8>     C       15.5267936   15.4993614   16.1131278
|  9>     O       16.8959595   15.0944102   15.8976680
| 10>     C       18.0362162   15.6203898   16.4604479
| 11>     O       19.0543237   14.9533088   16.4613702
| 12>     C       17.9106166   16.8105711   17.3593667
| 13>     C       17.4458750   18.0094394   16.9312556
| 14>     C       17.0291255   18.3879456   15.5248802
| 15>     N       17.4710993   19.1136192   17.7860136
| 16>     C       18.0949798   19.1427286   19.0050846
| 17>     S       18.1586066   20.5210934   19.9160920
| 18>     N       18.6743239   17.9723823   19.4267769
| 19>     C       18.5561830   16.6677988   18.7449955
| 20>     C       17.8404899   15.6390993   19.6205352
| 21>     C       18.2200387   14.2848625   19.5624351
| 22>     C       17.5714764   13.3210442   20.3518782
| 23>     C       16.5335779   13.7121063   21.2137864
| 24>     C       16.1538397   15.0588891   21.2809255
| 25>     O       15.1466682   15.4392120   22.1064106
| 26>     C       16.8014295   16.0168970   20.4941230
| 27>     H       15.3760805   15.9101844   18.2484404
| 28>     H       15.5113458   14.1756050   17.8575233
| 29>     H       13.9866428   15.0467607   17.5858594
| 30>     H       14.9003109   14.9368590   15.4086161
| 31>     H       15.3504659   16.5589581   15.9190429
| 32>     H       17.1691858   17.5687265   14.8092344
| 33>     H       17.6362047   19.2253671   15.1570085
| 34>     H       15.9779968   18.6993812   15.4887776
| 35>     H       17.0783054   19.9907463   17.4820850
| 36>     H       19.1218360   18.0197645   20.3335642
| 37>     H       19.5796090   16.2961604   18.5864988
| 38>     H       19.0193744   13.9745608   18.8926436
| 39>     H       17.8739433   12.2769497   20.2905096
| 40>     H       16.0286457   12.9702971   21.8236810
| 41>     H       14.8566633   14.6526441   22.5926432
| 42>     H       16.4798609   17.0508870   20.5620606
| 43> *
| 44>
| 45>                          ****END OF INPUT****

CARTESIAN COORDINATES (ANGSTROEM)
---------------------------------
  C     15.078906   15.132989   17.538639
  C     15.526794   15.499361   16.113128
  O     16.895960   15.094410   15.897668
  C     18.036216   15.620390   16.460448
  O     19.054324   14.953309   16.461370
  C     17.910617   16.810571   17.359367
  C     17.445875   18.009439   16.931256
  C     17.029125   18.387946   15.524880
  N     17.471099   19.113619   17.786014
  C     18.094980   19.142729   19.005085
  S     18.158607   20.521093   19.916092
  N     18.674324   17.972382   19.426777
  C     18.556183   16.667799   18.744996
  C     17.840490   15.639099   19.620535
  C     18.220039   14.284862   19.562435
  C     17.571476   13.321044   20.351878
  C     16.533578   13.712106   21.213786
  C     16.153840   15.058889   21.280925
  O     15.146668   15.439212   22.106411
  C     16.801430   16.016897   20.494123
  H     15.376080   15.910184   18.248440
  H     15.511346   14.175605   17.857523
  H     13.986643   15.046761   17.585859
  H     14.900311   14.936859   15.408616
  H     15.350466   16.558958   15.919043
  H     17.169186   17.568726   14.809234
  H     17.636205   19.225367   15.157008
  H     15.977997   18.699381   15.488778
  H     17.078305   19.990746   17.482085
  H     19.121836   18.019765   20.333564
  H     19.579609   16.296160   18.586499
  H     19.019374   13.974561   18.892644
  H     17.873943   12.276950   20.290510
  H     16.028646   12.970297   21.823681
  H     14.856663   14.652644   22.592643
  H     16.479861   17.050887   20.562061

 Total Charge           Charge          ....    0
 Multiplicity           Mult            ....    1
 Number of Electrons    NEL             ....  154
 Basis Dimension        Dim             ....  828

ORBITAL ENERGIES
----------------

  NO   OCC          E(Eh)            E(eV)
   0   2.0000     -91.890954     -2500.4800
   1   2.0000     -20.600882      -560.5785
   2   2.0000     -20.597619      -560.4897
   3   2.0000     -20.549302      -559.1749
   4   2.0000     -15.628563      -425.2748
   5   2.0000     -15.611635      -424.8142
   6   2.0000     -11.401024      -310.2376
   7   2.0000     -11.387317      -309.8646
   8   2.0000     -11.334026      -308.4145
   9   2.0000     -11.314846      -307.8926
  10   2.0000     -11.314366      -307.8796
  11   2.0000     -11.307118      -307.6823
  12   2.0000     -11.271429      -306.7112
  13   2.0000     -11.269135      -306.6488
  14   2.0000     -11.262400      -306.4655
  15   2.0000     -11.254650      -306.2546
  16   2.0000     -11.243772      -305.9586
  17   2.0000     -11.239480      -305.8418
  18   2.0000     -11.235829      -305.7425
  19   2.0000     -11.226251      -305.4818
  20   2.0000      -8.896055      -242.0740
  21   2.0000      -6.577643      -178.9868
  22   2.0000      -6.575616      -178.9316
  23   2.0000      -6.575039      -178.9159
  24   2.0000      -1.446619       -39.3645
  25   2.0000      -1.417422       -38.5700
  26   2.0000      -1.358889       -36.9772
  27   2.0000      -1.342159       -36.5220
  28   2.0000      -1.241146       -33.7733
  29   2.0000      -1.158915       -31.5357
  30   2.0000      -1.125656       -30.6306
  31   2.0000      -1.047883       -28.5143
  32   2.0000      -1.038127       -28.2489
  33   2.0000      -1.017601       -27.6903
  34   2.0000      -1.005995       -27.3745
  35   2.0000      -0.990382       -26.9497
  36   2.0000      -0.928145       -25.2561
  37   2.0000      -0.894352       -24.3365
  38   2.0000      -0.855855       -23.2890
  39   2.0000      -0.841252       -22.8916
  40   2.0000      -0.834323       -22.7031
  41   2.0000      -0.831125       -22.6161
  42   2.0000      -0.748972       -20.3806
  43   2.0000      -0.741149       -20.1677
  44   2.0000      -0.730423       -19.8758
  45   2.0000      -0.695488       -18.9252
  46   2.0000      -0.687842       -18.7171
  47   2.0000      -0.680482       -18.5169
  48   2.0000      -0.675630       -18.3848
  49   2.0000      -0.662674       -18.0323
  50   2.0000      -0.653348       -17.7785
  51   2.0000      -0.646125       -17.5820
  52   2.0000      -0.639129       -17.3916
  53   2.0000      -0.622218       -16.9314
  54   2.0000      -0.611181       -16.6311
  55   2.0000      -0.605933       -16.4883
  56   2.0000      -0.601555       -16.3691
  57   2.0000      -0.589823       -16.0499
  58   2.0000      -0.577570       -15.7165
  59   2.0000      -0.568637       -15.4734
  60   2.0000      -0.566100       -15.4044
  61   2.0000      -0.553569       -15.0634
  62   2.0000      -0.538192       -14.6450
  63   2.0000      -0.535677       -14.5765
  64   2.0000      -0.518923       -14.1206
  65   2.0000      -0.512775       -13.9533
  66   2.0000      -0.502872       -13.6839
  67   2.0000      -0.501368       -13.6429
  68   2.0000      -0.482544       -13.1307
  69   2.0000      -0.467974       -12.7342
  70   2.0000      -0.455404       -12.3922
  71   2.0000      -0.449996       -12.2450
  72   2.0000      -0.359267        -9.7761
  73   2.0000      -0.348381        -9.4799
  74   2.0000      -0.330541        -8.9945
  75   2.0000      -0.323108        -8.7922
  76   2.0000      -0.319663        -8.6985
  77   0.0000       0.082894         2.2557
  78   0.0000       0.106997         2.9115
  79   0.0000       0.112720         3.0673
  80   0.0000       0.129102         3.5131
  81   0.0000       0.131122         3.5680

MULLIKEN ATOMIC CHARGES
-----------------------
   0 C :   -0.317391
   1 C :    0.019355
   2 O :   -0.320964
   3 C :    0.423065
   4 O :   -0.386152
   5 C :   -0.238516
   6 C :    0.162472
   7 C :   -0.327466
   8 N :   -0.138598
   9 C :    0.203857
  10 S :   -0.440127
  11 N :   -0.229696
  12 C :    0.099840
  13 C :    0.020038
  14 C :   -0.220493
  15 C :   -0.138756
  16 C :   -0.274544
  17 C :    0.324768
  18 O :   -0.357210
  19 C :   -0.274842
  20 H :    0.106033
  21 H :    0.124012
  22 H :    0.110523
  23 H :    0.127004
  24 H :    0.088081
  25 H :    0.128021
  26 H :    0.143003
  27 H :    0.119592
  28 H :    0.196048
  29 H :    0.203611
  30 H :    0.167468
  31 H :    0.178878
  32 H :    0.165140
  33 H :    0.131866
  34 H :    0.240978
  35 H :    0.181102
Sum of atomic charges:    0.0000000

LOEWDIN ATOMIC CHARGES
----------------------
   0 C :    0.106029
   1 C :   -0.022326
   2 O :    0.302359
   3 C :   -0.414063
   4 O :    0.121862
   5 C :   -0.078814
   6 C :   -0.098416
   7 C :    0.121191
   8 N :    0.402430
   9 C :   -0.458304
  10 S :   -0.036923
  11 N :    0.398182
  12 C :   -0.041917
  13 C :   -0.041602
  14 C :    0.020156
  15 C :    0.043420
  16 C :   -0.001391
  17 C :   -0.192378
  18 O :    0.395553
  19 C :    0.027054
  20 H :   -0.034797
  21 H :   -0.018901
  22 H :   -0.025934
  23 H :   -0.020008
  24 H :   -0.039576
  25 H :   -0.008229
  26 H :   -0.008118
  27 H :   -0.018697
  28 H :   -0.057250
  29 H :   -0.063213
  30 H :   -0.001852
  31 H :   -0.022392
  32 H :   -0.018701
  33 H :   -0.035050
  34 H :   -0.153461
  35 H :   -0.025922

  Mayer bond orders larger than 0.100000
B(  0-C ,  1-C ) :   0.9566 B(  0-C , 20-H ) :   0.9724 B(  0-C , 21-H ) :   0.9688
B(  0-C , 22-H ) :   0.9780 B(  1-C ,  2-O ) :   0.9027 B(  1-C , 23-H ) :   0.9849
B(  1-C , 24-H ) :   0.9719 B(  2-O ,  3-C ) :   1.1812 B(  3-C ,  4-O ) :   2.0777
B(  3-C ,  5-C ) :   0.9296 B(  5-C ,  6-C ) :   1.6877 B(  5-C , 12-C ) :   0.9422
B(  6-C ,  7-C ) :   0.9416 B(  6-C ,  8-N ) :   1.1125 B(  7-C , 25-H ) :   0.9802
B(  7-C , 26-H ) :   0.9675 B(  7-C , 27-H ) :   0.9673 B(  8-N ,  9-C ) :   1.1963
B(  8-N , 28-H ) :   0.9525 B(  9-C , 10-S ) :   1.6084 B(  9-C , 11-N ) :   1.2899
B( 11-N , 12-C ) :   0.9853 B( 11-N , 29-H ) :   0.9472 B( 12-C , 13-C ) :   0.9566
B( 12-C , 30-H ) :   0.9938 B( 13-C , 14-C ) :   1.3875 B( 13-C , 19-C ) :   1.3357
B( 14-C , 15-C ) :   1.4029 B( 14-C , 31-H ) :   0.9569 B( 15-C , 16-C ) :   1.3571
B( 15-C , 32-H ) :   0.9696 B( 16-C , 17-C ) :   1.3319 B( 16-C , 33-H ) :   0.9848
B( 17-C , 18-O ) :   1.1094 B( 17-C , 19-C ) :   1.3635 B( 18-O , 34-H ) :   0.9796
B( 19-C , 35-H ) :   0.9578

MP2 TOTAL ENERGY:    -1274.331145968 Eh
FINAL SINGLE POINT ENERGY     -1274.331145967680

DIPOLE MOMENT
-------------
                                X             Y             Z
Electronic contribution:      9.12392       6.63147       6.18036
Nuclear contribution   :    -10.65126      -7.56172      -6.83230
                        -----------------------------------------
Total Dipole Moment    :     -1.52734      -0.93025      -0.65194
                        -----------------------------------------
Magnitude (a.u.)       :      1.90346
Magnitude (Debye)      :      4.83822

Rotational constants in cm-1:     0.011792     0.009556     0.006684
Rotational constants in MHz :   353.526479   286.478404   200.385486

                             ****ORCA TERMINATED NORMALLY****
TOTAL RUN TIME: 0 days 1 hours 46 minutes 29 seconds 267 msec
