                         Program Version 4.2.0 -  RELEASE  -
|  1> ! ri-mp2 cc-pvtz cc-pvtz/c TightSCF  NoKeepInts
|  2>
|  3> %scf
|  4>   MaxCore 4096
|  5> end
|  6> *xyz  0  1
|  7>     C       14.8089115   14.6174829   17.3873585
|  8>     C       15.7069946   15.2899209   16.3365466
|  9>     O       17.0627763   14.9163557   16.6283261
| 10>     C       18.1079021   15.7798793   16.4575711
| 11>     O       19.2059490   15.2997799   16.2484222
| 12>     C       18.0166016   16.9450878   17.3822744
| 13>     C       17.5214349   18.1358002   16.9776195
| 14>     C       16.9809048   18.4748645   15.6047137
| 15>     N       17.5428166   19.2295744   17.8454678
| 16>     C       18.1611675   19.2386749   19.0690531
| 17>     S       18.2113644   20.6008729   20.0052408
| 18>     N       18.7363830   18.0603324   19.4790835
| 19>     C       18.6338343   16.7679706   18.7703974
| 20>     C       17.8771323   15.7327828   19.5983375
| 21>     C       18.3019062   14.3913679   19.5990882
| 22>     C       17.6159384   13.4219611   20.3492954
| 23>     C       16.4946751   13.7958476   21.1089196
| 24>     C       16.0654928   15.1297465   21.1089277
| 25>     O       14.9745476   15.4909405   21.8300726
| 26>     C       16.7476030   16.0926081   20.3579298
| 27>     H       14.9522616   13.5296518   17.3788087
| 28>     H       13.7517373   14.8275010   17.1854577
| 29>     H       15.0447723   14.9861085   18.3917924
| 30>     H       15.4328701   14.9590252   15.3262715
| 31>     H       15.5568124   16.3719851   16.4035263
| 32>     H       17.1687911   17.6810301   14.8718476
| 33>     H       17.4591230   19.3818960   15.2126843
| 34>     H       15.8992400   18.6543658   15.6399387
| 35>     H       17.1411085   20.1078819   17.5571932
| 36>     H       19.1706822   18.0923159   20.3927535
| 37>     H       19.6572811   16.3917596   18.6245813
| 38>     H       19.1599957   14.0965861   18.9986028
| 39>     H       17.9520120   12.3866599   20.3343339
| 40>     H       15.9608932   13.0495903   21.6878599
| 41>     H       14.6742390   14.7068016   22.3139041
| 42>     H       16.3908444   17.1169903   20.3697986
| 43> *
| 44>
| 45>                          ****END OF INPUT****

CARTESIAN COORDINATES (ANGSTROEM)
---------------------------------
  C     14.808912   14.617483   17.387359
  C     15.706995   15.289921   16.336547
  O     17.062776   14.916356   16.628326
  C     18.107902   15.779879   16.457571
  O     19.205949   15.299780   16.248422
  C     18.016602   16.945088   17.382274
  C     17.521435   18.135800   16.977619
  C     16.980905   18.474864   15.604714
  N     17.542817   19.229574   17.845468
  C     18.161168   19.238675   19.069053
  S     18.211364   20.600873   20.005241
  N     18.736383   18.060332   19.479084
  C     18.633834   16.767971   18.770397
  C     17.877132   15.732783   19.598337
  C     18.301906   14.391368   19.599088
  C     17.615938   13.421961   20.349295
  C     16.494675   13.795848   21.108920
  C     16.065493   15.129746   21.108928
  O     14.974548   15.490941   21.830073
  C     16.747603   16.092608   20.357930
  H     14.952262   13.529652   17.378809
  H     13.751737   14.827501   17.185458
  H     15.044772   14.986108   18.391792
  H     15.432870   14.959025   15.326272
  H     15.556812   16.371985   16.403526
  H     17.168791   17.681030   14.871848
  H     17.459123   19.381896   15.212684
  H     15.899240   18.654366   15.639939
  H     17.141108   20.107882   17.557193
  H     19.170682   18.092316   20.392754
  H     19.657281   16.391760   18.624581
  H     19.159996   14.096586   18.998603
  H     17.952012   12.386660   20.334334
  H     15.960893   13.049590   21.687860
  H     14.674239   14.706802   22.313904
  H     16.390844   17.116990   20.369799

 Total Charge           Charge          ....    0
 Multiplicity           Mult            ....    1
 Number of Electrons    NEL             ....  154
 Basis Dimension        Dim             ....  828

ORBITAL ENERGIES
----------------

  NO   OCC          E(Eh)            E(eV)
   0   2.0000     -91.887170     -2500.3770
   1   2.0000     -20.600458      -560.5669
   2   2.0000     -20.597426      -560.4845
   3   2.0000     -20.561015      -559.4937
   4   2.0000     -15.622135      -425.0999
   5   2.0000     -15.609946      -424.7682
   6   2.0000     -11.396200      -310.1064
   7   2.0000     -11.384072      -309.7764
   8   2.0000     -11.321780      -308.0813
   9   2.0000     -11.315933      -307.9222
  10   2.0000     -11.313784      -307.8637
  11   2.0000     -11.305056      -307.6262
  12   2.0000     -11.270163      -306.6767
  13   2.0000     -11.265419      -306.5476
  14   2.0000     -11.261537      -306.4420
  15   2.0000     -11.254318      -306.2456
  16   2.0000     -11.243209      -305.9433
  17   2.0000     -11.239174      -305.8335
  18   2.0000     -11.236769      -305.7680
  19   2.0000     -11.228529      -305.5438
  20   2.0000      -8.892312      -241.9721
  21   2.0000      -6.573911      -178.8852
  22   2.0000      -6.571875      -178.8298
  23   2.0000      -6.571311      -178.8145
  24   2.0000      -1.457650       -39.6647
  25   2.0000      -1.417238       -38.5650
  26   2.0000      -1.364688       -37.1350
  27   2.0000      -1.336874       -36.3782
  28   2.0000      -1.237378       -33.6708
  29   2.0000      -1.158286       -31.5186
  30   2.0000      -1.123631       -30.5756
  31   2.0000      -1.047113       -28.4934
  32   2.0000      -1.040068       -28.3017
  33   2.0000      -1.016405       -27.6578
  34   2.0000      -1.003426       -27.3046
  35   2.0000      -0.987007       -26.8578
  36   2.0000      -0.926169       -25.2023
  37   2.0000      -0.884257       -24.0619
  38   2.0000      -0.852291       -23.1920
  39   2.0000      -0.839343       -22.8397
  40   2.0000      -0.834442       -22.7063
  41   2.0000      -0.833925       -22.6922
  42   2.0000      -0.759943       -20.6791
  43   2.0000      -0.736327       -20.0365
  44   2.0000      -0.729683       -19.8557
  45   2.0000      -0.696070       -18.9410
  46   2.0000      -0.690956       -18.8019
  47   2.0000      -0.683855       -18.6087
  48   2.0000      -0.676433       -18.4067
  49   2.0000      -0.663037       -18.0422
  50   2.0000      -0.652286       -17.7496
  51   2.0000      -0.639830       -17.4106
  52   2.0000      -0.634697       -17.2710
  53   2.0000      -0.623026       -16.9534
  54   2.0000      -0.610828       -16.6215
  55   2.0000      -0.605067       -16.4647
  56   2.0000      -0.601407       -16.3651
  57   2.0000      -0.588512       -16.0142
  58   2.0000      -0.575807       -15.6685
  59   2.0000      -0.566160       -15.4060
  60   2.0000      -0.562267       -15.3001
  61   2.0000      -0.555192       -15.1075
  62   2.0000      -0.537311       -14.6210
  63   2.0000      -0.530309       -14.4304
  64   2.0000      -0.519051       -14.1241
  65   2.0000      -0.512271       -13.9396
  66   2.0000      -0.500667       -13.6238
  67   2.0000      -0.500172       -13.6104
  68   2.0000      -0.489893       -13.3307
  69   2.0000      -0.466300       -12.6887
  70   2.0000      -0.459157       -12.4943
  71   2.0000      -0.453132       -12.3304
  72   2.0000      -0.355191        -9.6652
  73   2.0000      -0.348648        -9.4872
  74   2.0000      -0.327079        -8.9003
  75   2.0000      -0.321307        -8.7432
  76   2.0000      -0.315586        -8.5875
  77   0.0000       0.092407         2.5145
  78   0.0000       0.098371         2.6768
  79   0.0000       0.109106         2.9689
  80   0.0000       0.126619         3.4455
  81   0.0000       0.129738         3.5304

MULLIKEN ATOMIC CHARGES
-----------------------
   0 C :   -0.273833
   1 C :    0.015875
   2 O :   -0.307538
   3 C :    0.377727
   4 O :   -0.358937
   5 C :   -0.129152
   6 C :    0.114933
   7 C :   -0.324173
   8 N :   -0.135326
   9 C :    0.207308
  10 S :   -0.445873
  11 N :   -0.220365
  12 C :    0.043752
  13 C :    0.042112
  14 C :   -0.188552
  15 C :   -0.140307
  16 C :   -0.264377
  17 C :    0.305426
  18 O :   -0.362728
  19 C :   -0.268709
  20 H :    0.103652
  21 H :    0.092807
  22 H :    0.115542
  23 H :    0.112069
  24 H :    0.077748
  25 H :    0.116937
  26 H :    0.135974
  27 H :    0.121876
  28 H :    0.193843
  29 H :    0.200252
  30 H :    0.168797
  31 H :    0.161138
  32 H :    0.162474
  33 H :    0.131848
  34 H :    0.240618
  35 H :    0.177162
Sum of atomic charges:   -0.0000000

LOEWDIN ATOMIC CHARGES
----------------------
   0 C :    0.111733
   1 C :   -0.029356
   2 O :    0.326118
   3 C :   -0.425515
   4 O :    0.144418
   5 C :   -0.077221
   6 C :   -0.117175
   7 C :    0.120193
   8 N :    0.399360
   9 C :   -0.455636
  10 S :   -0.042048
  11 N :    0.397935
  12 C :   -0.040579
  13 C :   -0.040493
  14 C :    0.024448
  15 C :    0.045347
  16 C :   -0.001405
  17 C :   -0.194364
  18 O :    0.395109
  19 C :    0.025911
  20 H :   -0.024391
  21 H :   -0.027180
  22 H :   -0.024458
  23 H :   -0.031468
  24 H :   -0.037923
  25 H :   -0.012067
  26 H :   -0.010227
  27 H :   -0.017707
  28 H :   -0.059618
  29 H :   -0.063809
  30 H :   -0.002229
  31 H :   -0.023119
  32 H :   -0.019188
  33 H :   -0.035392
  34 H :   -0.153487
  35 H :   -0.024518

  Mayer bond orders larger than 0.100000
B(  0-C ,  1-C ) :   0.9812 B(  0-C , 20-H ) :   0.9796 B(  0-C , 21-H ) :   0.9771
B(  0-C , 22-H ) :   0.9715 B(  1-C ,  2-O ) :   0.9305 B(  1-C , 23-H ) :   0.9799
B(  1-C , 24-H ) :   0.9630 B(  2-O ,  3-C ) :   1.0974 B(  3-C ,  4-O ) :   2.1022
B(  3-C ,  5-C ) :   0.9281 B(  5-C ,  6-C ) :   1.7190 B(  5-C , 12-C ) :   0.9676
B(  6-C ,  7-C ) :   0.9424 B(  6-C ,  8-N ) :   1.1031 B(  7-C , 25-H ) :   0.9828
B(  7-C , 26-H ) :   0.9714 B(  7-C , 27-H ) :   0.9672 B(  8-N ,  9-C ) :   1.2033
B(  8-N , 28-H ) :   0.9544 B(  9-C , 10-S ) :   1.6044 B(  9-C , 11-N ) :   1.2845
B( 11-N , 12-C ) :   0.9893 B( 11-N , 29-H ) :   0.9473 B( 12-C , 13-C ) :   0.9456
B( 12-C , 30-H ) :   0.9986 B( 13-C , 14-C ) :   1.3818 B( 13-C , 19-C ) :   1.3512
B( 14-C , 15-C ) :   1.3986 B( 14-C , 31-H ) :   0.9652 B( 15-C , 16-C ) :   1.3588
B( 15-C , 32-H ) :   0.9704 B( 16-C , 17-C ) :   1.3354 B( 16-C , 33-H ) :   0.9847
B( 17-C , 18-O ) :   1.1032 B( 17-C , 19-C ) :   1.3618 B( 18-O , 34-H ) :   0.9800
B( 19-C , 35-H ) :   0.9576

MP2 TOTAL ENERGY:    -1274.315485694 Eh
FINAL SINGLE POINT ENERGY     -1274.315485693721

DIPOLE MOMENT
-------------
                                X             Y             Z
Electronic contribution:     10.04638       7.97271       6.64365
Nuclear contribution   :    -11.61112      -9.23274      -7.50830
                        -----------------------------------------
Total Dipole Moment    :     -1.56474      -1.26003      -0.86465
                        -----------------------------------------
Magnitude (a.u.)       :      2.18717
Magnitude (Debye)      :      5.55934

Rotational constants in cm-1:     0.012255     0.009232     0.006767
Rotational constants in MHz :   367.384007   276.778422   202.859335

                             ****ORCA TERMINATED NORMALLY****
TOTAL RUN TIME: 0 days 1 hours 54 minutes 28 seconds 402 msec
