                         Program Version 5.0.0 -  RELEASE  -
|  1> ! ri-mp2 cc-pvtz cc-pvtz/c TightSCF NoKeepInts
|  2>
|  3> %scf
|  4>   MaxCore 4096
|  5> end
|  6> *xyz  0  1
|  7>     C       14.5376825   14.4427145   16.5039435
|  8>     C       15.5893551   15.5056714   16.8593325
|  9>     O       16.8298983   15.0895705   16.2570159
| 10>     C       18.0526134   15.6030031   16.6106122
| 11>     O       19.0407979   14.8939676   16.5670871
| 12>     C       18.0390808   16.8538429   17.4289354
| 13>     C       17.5309760   18.0232311   16.9741576
| 14>     C       16.9501450   18.2979078   15.6030413
| 15>     N       17.6113495   19.1705751   17.7662213
| 16>     C       18.2789721   19.2480924   18.9609898
| 17>     S       18.3822439   20.6648744   19.8069747
| 18>     N       18.8560879   18.0900097   19.4218354
| 19>     C       18.7235369   16.7608374   18.7921781
| 20>     C       17.9788135   15.7838543   19.6973761
| 21>     C       18.4167719   14.4513373   19.8062846
| 22>     C       17.7236843   13.5324859   20.6115490
| 23>     C       16.5793901   13.9474702   21.3133894
| 24>     C       16.1356182   15.2719006   21.2033306
| 25>     O       15.0226373   15.6726131   21.8674042
| 26>     C       16.8269833   16.1847528   20.4004238
| 27>     H       14.8439637   13.4582207   16.8799643
| 28>     H       14.4096443   14.3722623   15.4165795
| 29>     H       13.5679615   14.6940079   16.9504487
| 30>     H       15.2634980   16.4828038   16.4880337
| 31>     H       15.6872621   15.5519642   17.9516543
| 32>     H       16.9985633   17.4235927   14.9424645
| 33>     H       17.5067175   19.1001496   15.1016152
| 34>     H       15.9006834   18.6097670   15.6705358
| 35>     H       17.2124338   20.0358955   17.4369554
| 36>     H       19.3268659   18.1734484   20.3141738
| 37>     H       19.7379690   16.3672975   18.6290221
| 38>     H       19.2912773   14.1218302   19.2486945
| 39>     H       18.0712868   12.5031059   20.6825055
| 40>     H       16.0395260   13.2394700   21.9335795
| 41>     H       14.7218107   14.9259170   22.4073906
| 42>     H       16.4608988   17.2035550   20.3283004
| 43> *
| 44>
| 45>                          ****END OF INPUT****

CARTESIAN COORDINATES (ANGSTROEM)
---------------------------------
  C     14.537683   14.442714   16.503943
  C     15.589355   15.505671   16.859333
  O     16.829898   15.089571   16.257016
  C     18.052613   15.603003   16.610612
  O     19.040798   14.893968   16.567087
  C     18.039081   16.853843   17.428935
  C     17.530976   18.023231   16.974158
  C     16.950145   18.297908   15.603041
  N     17.611349   19.170575   17.766221
  C     18.278972   19.248092   18.960990
  S     18.382244   20.664874   19.806975
  N     18.856088   18.090010   19.421835
  C     18.723537   16.760837   18.792178
  C     17.978814   15.783854   19.697376
  C     18.416772   14.451337   19.806285
  C     17.723684   13.532486   20.611549
  C     16.579390   13.947470   21.313389
  C     16.135618   15.271901   21.203331
  O     15.022637   15.672613   21.867404
  C     16.826983   16.184753   20.400424
  H     14.843964   13.458221   16.879964
  H     14.409644   14.372262   15.416579
  H     13.567961   14.694008   16.950449
  H     15.263498   16.482804   16.488034
  H     15.687262   15.551964   17.951654
  H     16.998563   17.423593   14.942464
  H     17.506718   19.100150   15.101615
  H     15.900683   18.609767   15.670536
  H     17.212434   20.035895   17.436955
  H     19.326866   18.173448   20.314174
  H     19.737969   16.367297   18.629022
  H     19.291277   14.121830   19.248694
  H     18.071287   12.503106   20.682506
  H     16.039526   13.239470   21.933579
  H     14.721811   14.925917   22.407391
  H     16.460899   17.203555   20.328300

 Total Charge           Charge          ....    0
 Multiplicity           Mult            ....    1
 Number of Electrons    NEL             ....  154
 Basis Dimension        Dim             ....  828

ORBITAL ENERGIES
----------------

  NO   OCC          E(Eh)            E(eV)
   0   2.0000     -91.890581     -2500.4698
   1   2.0000     -20.600020      -560.5550
   2   2.0000     -20.599819      -560.5496
   3   2.0000     -20.550457      -559.2064
   4   2.0000     -15.627887      -425.2564
   5   2.0000     -15.611831      -424.8195
   6   2.0000     -11.397485      -310.1413
   7   2.0000     -11.387256      -309.8630
   8   2.0000     -11.331511      -308.3461
   9   2.0000     -11.317015      -307.9516
  10   2.0000     -11.314660      -307.8876
  11   2.0000     -11.302723      -307.5627
  12   2.0000     -11.269453      -306.6574
  13   2.0000     -11.265190      -306.5414
  14   2.0000     -11.263791      -306.5033
  15   2.0000     -11.257022      -306.3191
  16   2.0000     -11.246247      -306.0259
  17   2.0000     -11.242333      -305.9194
  18   2.0000     -11.239205      -305.8343
  19   2.0000     -11.232313      -305.6468
  20   2.0000      -8.895690      -242.0640
  21   2.0000      -6.577276      -178.9768
  22   2.0000      -6.575252      -178.9217
  23   2.0000      -6.574675      -178.9060
  24   2.0000      -1.448461       -39.4146
  25   2.0000      -1.419845       -38.6359
  26   2.0000      -1.360029       -37.0083
  27   2.0000      -1.341049       -36.4918
  28   2.0000      -1.240542       -33.7569
  29   2.0000      -1.161570       -31.6079
  30   2.0000      -1.125848       -30.6359
  31   2.0000      -1.049227       -28.5509
  32   2.0000      -1.039754       -28.2931
  33   2.0000      -1.019223       -27.7345
  34   2.0000      -1.005587       -27.3634
  35   2.0000      -0.989696       -26.9310
  36   2.0000      -0.928195       -25.2575
  37   2.0000      -0.879653       -23.9366
  38   2.0000      -0.856364       -23.3029
  39   2.0000      -0.842693       -22.9308
  40   2.0000      -0.837513       -22.7899
  41   2.0000      -0.836626       -22.7658
  42   2.0000      -0.756881       -20.5958
  43   2.0000      -0.740209       -20.1421
  44   2.0000      -0.732032       -19.9196
  45   2.0000      -0.697721       -18.9860
  46   2.0000      -0.688547       -18.7363
  47   2.0000      -0.681893       -18.5553
  48   2.0000      -0.677396       -18.4329
  49   2.0000      -0.663283       -18.0488
  50   2.0000      -0.656534       -17.8652
  51   2.0000      -0.650996       -17.7145
  52   2.0000      -0.640366       -17.4252
  53   2.0000      -0.612054       -16.6548
  54   2.0000      -0.607974       -16.5438
  55   2.0000      -0.603890       -16.4327
  56   2.0000      -0.595172       -16.1955
  57   2.0000      -0.585245       -15.9253
  58   2.0000      -0.578151       -15.7323
  59   2.0000      -0.570142       -15.5143
  60   2.0000      -0.563834       -15.3427
  61   2.0000      -0.558088       -15.1864
  62   2.0000      -0.551166       -14.9980
  63   2.0000      -0.526664       -14.3313
  64   2.0000      -0.519302       -14.1309
  65   2.0000      -0.515995       -14.0409
  66   2.0000      -0.503548       -13.7022
  67   2.0000      -0.502601       -13.6765
  68   2.0000      -0.489696       -13.3253
  69   2.0000      -0.470074       -12.7914
  70   2.0000      -0.455555       -12.3963
  71   2.0000      -0.450945       -12.2708
  72   2.0000      -0.357968        -9.7408
  73   2.0000      -0.351895        -9.5756
  74   2.0000      -0.330194        -8.9850
  75   2.0000      -0.324876        -8.8403
  76   2.0000      -0.319256        -8.6874
  77   0.0000       0.083076         2.2606
  78   0.0000       0.104438         2.8419
  79   0.0000       0.114052         3.1035
  80   0.0000       0.128848         3.5061
  81   0.0000       0.131444         3.5768

MULLIKEN ATOMIC CHARGES
-----------------------
   0 C :   -0.260968
   1 C :    0.020008
   2 O :   -0.310027
   3 C :    0.401338
   4 O :   -0.381991
   5 C :   -0.197300
   6 C :    0.146257
   7 C :   -0.327777
   8 N :   -0.138474
   9 C :    0.202345
  10 S :   -0.439812
  11 N :   -0.215826
  12 C :    0.077089
  13 C :    0.022308
  14 C :   -0.197400
  15 C :   -0.132311
  16 C :   -0.274884
  17 C :    0.325293
  18 O :   -0.358229
  19 C :   -0.289252
  20 H :    0.107634
  21 H :    0.100329
  22 H :    0.089231
  23 H :    0.083095
  24 H :    0.113349
  25 H :    0.129218
  26 H :    0.141305
  27 H :    0.118724
  28 H :    0.196228
  29 H :    0.198979
  30 H :    0.164905
  31 H :    0.170814
  32 H :    0.164237
  33 H :    0.132644
  34 H :    0.241527
  35 H :    0.177393
Sum of atomic charges:   -0.0000000

LOEWDIN ATOMIC CHARGES
----------------------
   0 C :    0.112260
   1 C :   -0.024704
   2 O :    0.303989
   3 C :   -0.415264
   4 O :    0.123867
   5 C :   -0.082770
   6 C :   -0.098095
   7 C :    0.123129
   8 N :    0.402110
   9 C :   -0.456501
  10 S :   -0.036819
  11 N :    0.397242
  12 C :   -0.044148
  13 C :   -0.044522
  14 C :    0.021890
  15 C :    0.045586
  16 C :   -0.000169
  17 C :   -0.194501
  18 O :    0.394837
  19 C :    0.026059
  20 H :   -0.022116
  21 H :   -0.026603
  22 H :   -0.025038
  23 H :   -0.038543
  24 H :   -0.030600
  25 H :   -0.008046
  26 H :   -0.009408
  27 H :   -0.018291
  28 H :   -0.057263
  29 H :   -0.063602
  30 H :   -0.002278
  31 H :   -0.021562
  32 H :   -0.018289
  33 H :   -0.034557
  34 H :   -0.152887
  35 H :   -0.024394

  Mayer bond orders larger than 0.100000
B(  0-C ,  1-C ) :   0.9860 B(  0-C , 20-H ) :   0.9786 B(  0-C , 21-H ) :   0.9793
B(  0-C , 22-H ) :   0.9769 B(  1-C ,  2-O ) :   0.9076 B(  1-C , 23-H ) :   0.9700
B(  1-C , 24-H ) :   0.9626 B(  2-O ,  3-C ) :   1.1905 B(  3-C ,  4-O ) :   2.0928
B(  3-C ,  5-C ) :   0.9258 B(  5-C ,  6-C ) :   1.6762 B(  5-C , 12-C ) :   0.9561
B(  6-C ,  7-C ) :   0.9440 B(  6-C ,  8-N ) :   1.1218 B(  7-C , 25-H ) :   0.9794
B(  7-C , 26-H ) :   0.9676 B(  7-C , 27-H ) :   0.9671 B(  8-N ,  9-C ) :   1.1942
B(  8-N , 28-H ) :   0.9523 B(  9-C , 10-S ) :   1.6118 B(  9-C , 11-N ) :   1.2889
B( 11-N , 12-C ) :   0.9950 B( 11-N , 29-H ) :   0.9490 B( 12-C , 13-C ) :   0.9425
B( 12-C , 30-H ) :   0.9973 B( 13-C , 14-C ) :   1.3884 B( 13-C , 19-C ) :   1.3445
B( 14-C , 15-C ) :   1.3970 B( 14-C , 31-H ) :   0.9596 B( 15-C , 16-C ) :   1.3637
B( 15-C , 32-H ) :   0.9698 B( 16-C , 17-C ) :   1.3299 B( 16-C , 33-H ) :   0.9843
B( 17-C , 18-O ) :   1.1094 B( 17-C , 19-C ) :   1.3631 B( 18-O , 34-H ) :   0.9792
B( 19-C , 35-H ) :   0.9591

MP2 TOTAL ENERGY:    -1274.335249102 Eh
FINAL SINGLE POINT ENERGY     -1274.335249102058

DIPOLE MOMENT
-------------
                                X             Y             Z
Electronic contribution:     10.73676       8.39228       7.37691
Nuclear contribution   :    -12.24379      -9.40366      -7.74435
                        -----------------------------------------
Total Dipole Moment    :     -1.50703      -1.01138      -0.36744
                        -----------------------------------------
Magnitude (a.u.)       :      1.85176
Magnitude (Debye)      :      4.70681

Rotational constants in cm-1:     0.011651     0.009133     0.006703
Rotational constants in MHz :   349.301279   273.801031   200.956746

                             ****ORCA TERMINATED NORMALLY****
TOTAL RUN TIME: 0 days 2 hours 5 minutes 40 seconds 652 msec
