                         Program Version 4.2.0 -  RELEASE  -
|  1> ! ri-mp2 cc-pvtz cc-pvtz/c TightSCF  NoKeepInts
|  2>
|  3> %scf
|  4>   MaxCore 4096
|  5> end
|  6> *xyz  0  1
|  7>     C       14.6460803   16.0411900   16.5492511
|  8>     C       15.5699516   14.9929034   17.1960205
|  9>     O       16.8098609   14.8593643   16.4680063
| 10>     C       17.8455292   15.7602043   16.4236496
| 11>     O       18.8985136   15.4415538   15.9052728
| 12>     C       17.8133302   16.8795523   17.4059663
| 13>     C       17.3734864   18.1062875   17.0470344
| 14>     C       16.8220381   18.5118507   15.6966701
| 15>     N       17.4899375   19.1778056   17.9342412
| 16>     C       18.1317371   19.1210586   19.1437593
| 17>     S       18.2525090   20.4448427   20.1271693
| 18>     N       18.6724808   17.9098391   19.4998333
| 19>     C       18.5561989   16.6563606   18.7269313
| 20>     C       17.9548446   15.5298379   19.5620234
| 21>     C       18.3956233   14.2075161   19.3683447
| 22>     C       17.8449736   13.1515989   20.1130614
| 23>     C       16.8447273   13.4182441   21.0629833
| 24>     C       16.4014991   14.7327759   21.2598150
| 25>     O       15.4276107   14.9920580   22.1676991
| 26>     C       16.9489087   15.7826111   20.5150761
| 27>     H       14.8628949   17.0462277   16.9220488
| 28>     H       13.6011845   15.8239908   16.8030768
| 29>     H       14.7365373   16.0281400   15.4558381
| 30>     H       15.7349606   15.2323261   18.2504906
| 31>     H       15.0586381   14.0220774   17.1631232
| 32>     H       16.6612495   17.6540072   15.0328554
| 33>     H       17.5225082   19.1834278   15.1838406
| 34>     H       15.8635811   19.0358315   15.7966573
| 35>     H       17.1267653   20.0824421   17.6777552
| 36>     H       19.1318997   17.8969402   20.4018613
| 37>     H       19.5783837   16.3468916   18.4621438
| 38>     H       19.1615685   13.9956560   18.6247163
| 39>     H       18.1928012   12.1327428   19.9496171
| 40>     H       16.4164379   12.6048590   21.6396810
| 41>     H       15.2178432   14.1592247   22.6171712
| 42>     H       16.5799053   16.7897598   20.6803147
| 43> *
| 44>
| 45>                          ****END OF INPUT****

CARTESIAN COORDINATES (ANGSTROEM)
---------------------------------
  C     14.646080   16.041190   16.549251
  C     15.569952   14.992903   17.196020
  O     16.809861   14.859364   16.468006
  C     17.845529   15.760204   16.423650
  O     18.898514   15.441554   15.905273
  C     17.813330   16.879552   17.405966
  C     17.373486   18.106288   17.047034
  C     16.822038   18.511851   15.696670
  N     17.489937   19.177806   17.934241
  C     18.131737   19.121059   19.143759
  S     18.252509   20.444843   20.127169
  N     18.672481   17.909839   19.499833
  C     18.556199   16.656361   18.726931
  C     17.954845   15.529838   19.562023
  C     18.395623   14.207516   19.368345
  C     17.844974   13.151599   20.113061
  C     16.844727   13.418244   21.062983
  C     16.401499   14.732776   21.259815
  O     15.427611   14.992058   22.167699
  C     16.948909   15.782611   20.515076
  H     14.862895   17.046228   16.922049
  H     13.601185   15.823991   16.803077
  H     14.736537   16.028140   15.455838
  H     15.734961   15.232326   18.250491
  H     15.058638   14.022077   17.163123
  H     16.661250   17.654007   15.032855
  H     17.522508   19.183428   15.183841
  H     15.863581   19.035831   15.796657
  H     17.126765   20.082442   17.677755
  H     19.131900   17.896940   20.401861
  H     19.578384   16.346892   18.462144
  H     19.161569   13.995656   18.624716
  H     18.192801   12.132743   19.949617
  H     16.416438   12.604859   21.639681
  H     15.217843   14.159225   22.617171
  H     16.579905   16.789760   20.680315

 Total Charge           Charge          ....    0
 Multiplicity           Mult            ....    1
 Number of Electrons    NEL             ....  154
 Basis Dimension        Dim             ....  828

ORBITAL ENERGIES
----------------

  NO   OCC          E(Eh)            E(eV)
   0   2.0000     -91.889197     -2500.4322
   1   2.0000     -20.602553      -560.6240
   2   2.0000     -20.599758      -560.5479
   3   2.0000     -20.552430      -559.2600
   4   2.0000     -15.624100      -425.1534
   5   2.0000     -15.612323      -424.8329
   6   2.0000     -11.398837      -310.1781
   7   2.0000     -11.386216      -309.8347
   8   2.0000     -11.324759      -308.1624
   9   2.0000     -11.320347      -308.0423
  10   2.0000     -11.319164      -308.0101
  11   2.0000     -11.302426      -307.5546
  12   2.0000     -11.268131      -306.6214
  13   2.0000     -11.265857      -306.5595
  14   2.0000     -11.264252      -306.5159
  15   2.0000     -11.260986      -306.4270
  16   2.0000     -11.249387      -306.1114
  17   2.0000     -11.245057      -305.9935
  18   2.0000     -11.243109      -305.9406
  19   2.0000     -11.235886      -305.7440
  20   2.0000      -8.894326      -242.0269
  21   2.0000      -6.575921      -178.9399
  22   2.0000      -6.573887      -178.8846
  23   2.0000      -6.573319      -178.8691
  24   2.0000      -1.447211       -39.3806
  25   2.0000      -1.422371       -38.7047
  26   2.0000      -1.359733       -37.0002
  27   2.0000      -1.338911       -36.4336
  28   2.0000      -1.239853       -33.7381
  29   2.0000      -1.164203       -31.6796
  30   2.0000      -1.125772       -30.6338
  31   2.0000      -1.050636       -28.5893
  32   2.0000      -1.039983       -28.2994
  33   2.0000      -1.022367       -27.8200
  34   2.0000      -1.005200       -27.3529
  35   2.0000      -0.989945       -26.9378
  36   2.0000      -0.928741       -25.2723
  37   2.0000      -0.897359       -24.4184
  38   2.0000      -0.852605       -23.2006
  39   2.0000      -0.842726       -22.9317
  40   2.0000      -0.839322       -22.8391
  41   2.0000      -0.834763       -22.7151
  42   2.0000      -0.753713       -20.5096
  43   2.0000      -0.735820       -20.0227
  44   2.0000      -0.728351       -19.8194
  45   2.0000      -0.700038       -19.0490
  46   2.0000      -0.691569       -18.8185
  47   2.0000      -0.680074       -18.5058
  48   2.0000      -0.677524       -18.4364
  49   2.0000      -0.666109       -18.1258
  50   2.0000      -0.654991       -17.8232
  51   2.0000      -0.641137       -17.4462
  52   2.0000      -0.638998       -17.3880
  53   2.0000      -0.622954       -16.9514
  54   2.0000      -0.611674       -16.6445
  55   2.0000      -0.608881       -16.5685
  56   2.0000      -0.605668       -16.4811
  57   2.0000      -0.587095       -15.9757
  58   2.0000      -0.579754       -15.7759
  59   2.0000      -0.574018       -15.6198
  60   2.0000      -0.567593       -15.4450
  61   2.0000      -0.556680       -15.1480
  62   2.0000      -0.540668       -14.7123
  63   2.0000      -0.537353       -14.6221
  64   2.0000      -0.524528       -14.2731
  65   2.0000      -0.515786       -14.0353
  66   2.0000      -0.504507       -13.7283
  67   2.0000      -0.501861       -13.6563
  68   2.0000      -0.488783       -13.3005
  69   2.0000      -0.468305       -12.7432
  70   2.0000      -0.452437       -12.3114
  71   2.0000      -0.451163       -12.2768
  72   2.0000      -0.356437        -9.6991
  73   2.0000      -0.353554        -9.6207
  74   2.0000      -0.329281        -8.9602
  75   2.0000      -0.327835        -8.9209
  76   2.0000      -0.318493        -8.6666
  77   0.0000       0.094084         2.5602
  78   0.0000       0.103304         2.8110
  79   0.0000       0.117062         3.1854
  80   0.0000       0.127554         3.4709
  81   0.0000       0.127722         3.4755

MULLIKEN ATOMIC CHARGES
-----------------------
   0 C :   -0.329701
   1 C :    0.041920
   2 O :   -0.319662
   3 C :    0.387242
   4 O :   -0.375662
   5 C :   -0.161591
   6 C :    0.114961
   7 C :   -0.322522
   8 N :   -0.139748
   9 C :    0.213703
  10 S :   -0.444771
  11 N :   -0.232778
  12 C :    0.086967
  13 C :   -0.000059
  14 C :   -0.198394
  15 C :   -0.137077
  16 C :   -0.271233
  17 C :    0.311827
  18 O :   -0.355543
  19 C :   -0.258650
  20 H :    0.099630
  21 H :    0.117783
  22 H :    0.109377
  23 H :    0.104329
  24 H :    0.122859
  25 H :    0.117853
  26 H :    0.148871
  27 H :    0.116126
  28 H :    0.195837
  29 H :    0.204701
  30 H :    0.165268
  31 H :    0.165482
  32 H :    0.165477
  33 H :    0.134215
  34 H :    0.241666
  35 H :    0.181296
Sum of atomic charges:    0.0000000

LOEWDIN ATOMIC CHARGES
----------------------
   0 C :    0.103078
   1 C :   -0.017098
   2 O :    0.305667
   3 C :   -0.419596
   4 O :    0.126698
   5 C :   -0.078916
   6 C :   -0.108649
   7 C :    0.124487
   8 N :    0.401302
   9 C :   -0.454859
  10 S :   -0.039995
  11 N :    0.397560
  12 C :   -0.043693
  13 C :   -0.044397
  14 C :    0.022012
  15 C :    0.046716
  16 C :    0.000098
  17 C :   -0.193530
  18 O :    0.396443
  19 C :    0.024719
  20 H :   -0.033473
  21 H :   -0.022388
  22 H :   -0.026550
  23 H :   -0.035114
  24 H :   -0.019327
  25 H :   -0.010542
  26 H :   -0.008257
  27 H :   -0.017494
  28 H :   -0.058055
  29 H :   -0.064197
  30 H :   -0.003037
  31 H :   -0.021595
  32 H :   -0.017470
  33 H :   -0.034000
  34 H :   -0.152404
  35 H :   -0.024149

  Mayer bond orders larger than 0.100000
B(  0-C ,  1-C ) :   0.9540 B(  0-C , 20-H ) :   0.9772 B(  0-C , 21-H ) :   0.9795
B(  0-C , 22-H ) :   0.9748 B(  1-C ,  2-O ) :   0.8990 B(  1-C , 23-H ) :   0.9607
B(  1-C , 24-H ) :   0.9856 B(  2-O ,  3-C ) :   1.1747 B(  3-C ,  4-O ) :   2.1056
B(  3-C ,  5-C ) :   0.8906 B(  5-C ,  6-C ) :   1.7270 B(  5-C , 12-C ) :   0.9510
B(  6-C ,  7-C ) :   0.9525 B(  6-C ,  8-N ) :   1.1006 B(  7-C , 25-H ) :   0.9808
B(  7-C , 26-H ) :   0.9652 B(  7-C , 27-H ) :   0.9689 B(  8-N ,  9-C ) :   1.2068
B(  8-N , 28-H ) :   0.9523 B(  9-C , 10-S ) :   1.6040 B(  9-C , 11-N ) :   1.2844
B( 11-N , 12-C ) :   0.9875 B( 11-N , 29-H ) :   0.9446 B( 12-C , 13-C ) :   0.9565
B( 12-C , 30-H ) :   0.9962 B( 13-C , 14-C ) :   1.3894 B( 13-C , 19-C ) :   1.3374
B( 14-C , 15-C ) :   1.3992 B( 14-C , 31-H ) :   0.9649 B( 15-C , 16-C ) :   1.3600
B( 15-C , 32-H ) :   0.9690 B( 16-C , 17-C ) :   1.3308 B( 16-C , 33-H ) :   0.9839
B( 17-C , 18-O ) :   1.1103 B( 17-C , 19-C ) :   1.3651 B( 18-O , 34-H ) :   0.9788
B( 19-C , 35-H ) :   0.9580

MP2 TOTAL ENERGY:    -1274.327161148 Eh
FINAL SINGLE POINT ENERGY     -1274.327161147780

DIPOLE MOMENT
-------------
                                X             Y             Z
Electronic contribution:      9.96719       5.07542       7.45419
Nuclear contribution   :    -11.51092      -6.42028      -7.65900
                        -----------------------------------------
Total Dipole Moment    :     -1.54374      -1.34486      -0.20482
                        -----------------------------------------
Magnitude (a.u.)       :      2.05760
Magnitude (Debye)      :      5.23001

Rotational constants in cm-1:     0.011979     0.009234     0.006662
Rotational constants in MHz :   359.132216   276.836254   199.727289

                             ****ORCA TERMINATED NORMALLY****
TOTAL RUN TIME: 0 days 1 hours 51 minutes 32 seconds 405 msec
