                         Program Version 5.0.0 -  RELEASE  -
|  1> ! ri-mp2 cc-pvtz cc-pvtz/c TightSCF NoKeepInts
|  2>
|  3> %scf
|  4>   MaxCore 4096
|  5> end
|  6> *xyz  0  1
|  7>     C       15.5994681   13.6465181   15.4776088
|  8>     C       15.1359217   15.1101321   15.6392772
|  9>     O       16.1727637   16.0625410   15.9946611
| 10>     C       17.3085475   15.8167204   16.7230726
| 11>     O       17.8203846   14.7177525   16.8482141
| 12>     C       17.7298711   16.9746837   17.5848092
| 13>     C       17.3669649   18.2701553   17.3880417
| 14>     C       16.5029445   18.8434463   16.2830028
| 15>     N       17.8717375   19.2682401   18.2284832
| 16>     C       18.8460613   19.0806591   19.1726932
| 17>     S       19.4793291   20.3423097   20.0346343
| 18>     N       19.2688056   17.7903585   19.3651569
| 19>     C       18.6454311   16.6001625   18.7569615
| 20>     C       17.8858042   15.7982696   19.8109302
| 21>     C       18.1615737   14.4316440   20.0017572
| 22>     C       17.4633319   13.6874348   20.9674109
| 23>     C       16.4794114   14.3142951   21.7506870
| 24>     C       16.1986510   15.6742229   21.5613462
| 25>     O       15.2444877   16.2808873   22.3116510
| 26>     C       16.8949310   16.4121828   20.5990011
| 27>     H       16.4732811   13.5814509   14.8170826
| 28>     H       14.7977674   13.0414080   15.0377502
| 29>     H       15.8533866   13.2001337   16.4472679
| 30>     H       14.6652488   15.4406348   14.7044998
| 31>     H       14.3598669   15.1319140   16.4154054
| 32>     H       15.4540223   18.5538348   16.4221035
| 33>     H       16.8293711   18.4755215   15.3022533
| 34>     H       16.5403372   19.9388012   16.2416316
| 35>     H       17.5745016   20.2225037   18.1023932
| 36>     H       19.9658342   17.6734716   20.0892704
| 37>     H       19.4545679   15.9689209   18.3618657
| 38>     H       18.9097541   13.9403411   19.3843353
| 39>     H       17.6823575   12.6295354   21.1002800
| 40>     H       15.9365124   13.7428748   22.4960793
| 41>     H       14.9097151   15.6238935   22.9401707
| 42>     H       16.6640542   17.4641442   20.4722108
| 43> *
| 44>
| 45>                          ****END OF INPUT****

CARTESIAN COORDINATES (ANGSTROEM)
---------------------------------
  C     15.599468   13.646518   15.477609
  C     15.135922   15.110132   15.639277
  O     16.172764   16.062541   15.994661
  C     17.308547   15.816720   16.723073
  O     17.820385   14.717752   16.848214
  C     17.729871   16.974684   17.584809
  C     17.366965   18.270155   17.388042
  C     16.502945   18.843446   16.283003
  N     17.871737   19.268240   18.228483
  C     18.846061   19.080659   19.172693
  S     19.479329   20.342310   20.034634
  N     19.268806   17.790358   19.365157
  C     18.645431   16.600162   18.756961
  C     17.885804   15.798270   19.810930
  C     18.161574   14.431644   20.001757
  C     17.463332   13.687435   20.967411
  C     16.479411   14.314295   21.750687
  C     16.198651   15.674223   21.561346
  O     15.244488   16.280887   22.311651
  C     16.894931   16.412183   20.599001
  H     16.473281   13.581451   14.817083
  H     14.797767   13.041408   15.037750
  H     15.853387   13.200134   16.447268
  H     14.665249   15.440635   14.704500
  H     14.359867   15.131914   16.415405
  H     15.454022   18.553835   16.422103
  H     16.829371   18.475521   15.302253
  H     16.540337   19.938801   16.241632
  H     17.574502   20.222504   18.102393
  H     19.965834   17.673472   20.089270
  H     19.454568   15.968921   18.361866
  H     18.909754   13.940341   19.384335
  H     17.682357   12.629535   21.100280
  H     15.936512   13.742875   22.496079
  H     14.909715   15.623893   22.940171
  H     16.664054   17.464144   20.472211

 Total Charge           Charge          ....    0
 Multiplicity           Mult            ....    1
 Number of Electrons    NEL             ....  154
 Basis Dimension        Dim             ....  828

ORBITAL ENERGIES
----------------

  NO   OCC          E(Eh)            E(eV)
   0   2.0000     -91.887254     -2500.3793
   1   2.0000     -20.597903      -560.4974
   2   2.0000     -20.591860      -560.3330
   3   2.0000     -20.545743      -559.0781
   4   2.0000     -15.627100      -425.2350
   5   2.0000     -15.605987      -424.6605
   6   2.0000     -11.398848      -310.1784
   7   2.0000     -11.382073      -309.7219
   8   2.0000     -11.334354      -308.4235
   9   2.0000     -11.307700      -307.6982
  10   2.0000     -11.306852      -307.6751
  11   2.0000     -11.304871      -307.6212
  12   2.0000     -11.259224      -306.3791
  13   2.0000     -11.257856      -306.3418
  14   2.0000     -11.253473      -306.2226
  15   2.0000     -11.247943      -306.0721
  16   2.0000     -11.237508      -305.7881
  17   2.0000     -11.233472      -305.6783
  18   2.0000     -11.230562      -305.5991
  19   2.0000     -11.223667      -305.4115
  20   2.0000      -8.892326      -241.9725
  21   2.0000      -6.573907      -178.8851
  22   2.0000      -6.571898      -178.8304
  23   2.0000      -6.571315      -178.8146
  24   2.0000      -1.445279       -39.3280
  25   2.0000      -1.411597       -38.4115
  26   2.0000      -1.357144       -36.9298
  27   2.0000      -1.338311       -36.4173
  28   2.0000      -1.236084       -33.6356
  29   2.0000      -1.151941       -31.3459
  30   2.0000      -1.118183       -30.4273
  31   2.0000      -1.041736       -28.3471
  32   2.0000      -1.034100       -28.1393
  33   2.0000      -1.009502       -27.4700
  34   2.0000      -0.996498       -27.1161
  35   2.0000      -0.981765       -26.7152
  36   2.0000      -0.920970       -25.0609
  37   2.0000      -0.895504       -24.3679
  38   2.0000      -0.847360       -23.0578
  39   2.0000      -0.835654       -22.7393
  40   2.0000      -0.828032       -22.5319
  41   2.0000      -0.818231       -22.2652
  42   2.0000      -0.743335       -20.2272
  43   2.0000      -0.726092       -19.7580
  44   2.0000      -0.724360       -19.7108
  45   2.0000      -0.690386       -18.7864
  46   2.0000      -0.683756       -18.6059
  47   2.0000      -0.678042       -18.4505
  48   2.0000      -0.672297       -18.2941
  49   2.0000      -0.665527       -18.1099
  50   2.0000      -0.645576       -17.5670
  51   2.0000      -0.643214       -17.5027
  52   2.0000      -0.634229       -17.2583
  53   2.0000      -0.603091       -16.4110
  54   2.0000      -0.599466       -16.3123
  55   2.0000      -0.598966       -16.2987
  56   2.0000      -0.595380       -16.2011
  57   2.0000      -0.581953       -15.8358
  58   2.0000      -0.572432       -15.5767
  59   2.0000      -0.570999       -15.5377
  60   2.0000      -0.558826       -15.2064
  61   2.0000      -0.543436       -14.7876
  62   2.0000      -0.537037       -14.6135
  63   2.0000      -0.524590       -14.2748
  64   2.0000      -0.517095       -14.0709
  65   2.0000      -0.510223       -13.8839
  66   2.0000      -0.498834       -13.5740
  67   2.0000      -0.494539       -13.4571
  68   2.0000      -0.479193       -13.0395
  69   2.0000      -0.461463       -12.5570
  70   2.0000      -0.454854       -12.3772
  71   2.0000      -0.445810       -12.1311
  72   2.0000      -0.352964        -9.6046
  73   2.0000      -0.343948        -9.3593
  74   2.0000      -0.326474        -8.8838
  75   2.0000      -0.315264        -8.5788
  76   2.0000      -0.313631        -8.5343
  77   0.0000       0.076586         2.0840
  78   0.0000       0.112206         3.0533
  79   0.0000       0.121585         3.3085
  80   0.0000       0.135851         3.6967
  81   0.0000       0.139164         3.7868

MULLIKEN ATOMIC CHARGES
-----------------------
   0 C :   -0.284483
   1 C :    0.048526
   2 O :   -0.366892
   3 C :    0.438404
   4 O :   -0.422162
   5 C :   -0.149919
   6 C :    0.141673
   7 C :   -0.286468
   8 N :   -0.122247
   9 C :    0.201137
  10 S :   -0.440897
  11 N :   -0.198046
  12 C :    0.036072
  13 C :    0.055474
  14 C :   -0.165258
  15 C :   -0.134215
  16 C :   -0.279446
  17 C :    0.311466
  18 O :   -0.358947
  19 C :   -0.272309
  20 H :    0.106501
  21 H :    0.095052
  22 H :    0.114933
  23 H :    0.096129
  24 H :    0.088574
  25 H :    0.125419
  26 H :    0.126380
  27 H :    0.102801
  28 H :    0.196523
  29 H :    0.193660
  30 H :    0.154976
  31 H :    0.154863
  32 H :    0.159396
  33 H :    0.128161
  34 H :    0.240021
  35 H :    0.165149
Sum of atomic charges:   -0.0000000

LOEWDIN ATOMIC CHARGES
----------------------
   0 C :    0.102894
   1 C :   -0.009448
   2 O :    0.290629
   3 C :   -0.411681
   4 O :    0.117563
   5 C :   -0.090730
   6 C :   -0.067157
   7 C :    0.124370
   8 N :    0.404409
   9 C :   -0.459106
  10 S :   -0.037267
  11 N :    0.397770
  12 C :   -0.046412
  13 C :   -0.038895
  14 C :    0.021142
  15 C :    0.040182
  16 C :   -0.002638
  17 C :   -0.192752
  18 O :    0.393015
  19 C :    0.028550
  20 H :   -0.024267
  21 H :   -0.028546
  22 H :   -0.024981
  23 H :   -0.025710
  24 H :   -0.029786
  25 H :   -0.010174
  26 H :   -0.008441
  27 H :   -0.021146
  28 H :   -0.059364
  29 H :   -0.063810
  30 H :   -0.005419
  31 H :   -0.025260
  32 H :   -0.021302
  33 H :   -0.036454
  34 H :   -0.154926
  35 H :   -0.024854

  Mayer bond orders larger than 0.100000
B(  0-C ,  1-C ) :   0.9809 B(  0-C , 20-H ) :   0.9741 B(  0-C , 21-H ) :   0.9730
B(  0-C , 22-H ) :   0.9726 B(  1-C ,  2-O ) :   0.9019 B(  1-C , 23-H ) :   0.9801
B(  1-C , 24-H ) :   0.9766 B(  2-O ,  3-C ) :   1.1190 B(  3-C ,  4-O ) :   1.9905
B(  3-C ,  5-C ) :   1.0497 B(  5-C ,  6-C ) :   1.6581 B(  5-C , 12-C ) :   0.9632
B(  6-C ,  7-C ) :   0.9539 B(  6-C ,  8-N ) :   1.1423 B(  7-C , 25-H ) :   0.9642
B(  7-C , 26-H ) :   0.9666 B(  7-C , 27-H ) :   0.9915 B(  8-N ,  9-C ) :   1.1810
B(  8-N , 28-H ) :   0.9490 B(  9-C , 10-S ) :   1.6093 B(  9-C , 11-N ) :   1.3038
B( 11-N , 12-C ) :   0.9909 B( 11-N , 29-H ) :   0.9520 B( 12-C , 13-C ) :   0.9471
B( 12-C , 30-H ) :   0.9996 B( 13-C , 14-C ) :   1.3754 B( 13-C , 19-C ) :   1.3695
B( 14-C , 15-C ) :   1.3940 B( 14-C , 31-H ) :   0.9646 B( 15-C , 16-C ) :   1.3626
B( 15-C , 32-H ) :   0.9713 B( 16-C , 17-C ) :   1.3315 B( 16-C , 33-H ) :   0.9860
B( 17-C , 18-O ) :   1.1081 B( 17-C , 19-C ) :   1.3783 B( 18-O , 34-H ) :   0.9806
B( 19-C , 35-H ) :   0.9584

MP2 TOTAL ENERGY:    -1274.334004940 Eh
FINAL SINGLE POINT ENERGY     -1274.334004940240

DIPOLE MOMENT
-------------
                                X             Y             Z
Electronic contribution:      9.94527      10.55294      10.21735
Nuclear contribution   :    -11.60758     -11.76707     -11.19265
                        -----------------------------------------
Total Dipole Moment    :     -1.66231      -1.21413      -0.97531
                        -----------------------------------------
Magnitude (a.u.)       :      2.27785
Magnitude (Debye)      :      5.78984

Rotational constants in cm-1:     0.010840     0.008963     0.005952
Rotational constants in MHz :   324.987265   268.715994   178.445503

                             ****ORCA TERMINATED NORMALLY****
TOTAL RUN TIME: 0 days 1 hours 51 minutes 5 seconds 752 msec
