                         Program Version 4.2.0 -  RELEASE  -
|  1> ! ri-mp2 cc-pvtz cc-pvtz/c TightSCF  NoKeepInts
|  2>
|  3> %scf
|  4>   MaxCore 4096
|  5> end
|  6> *xyz  0  1
|  7>     C       15.0750290   14.2816342   16.7991168
|  8>     C       15.6186838   14.9079592   15.4957168
|  9>     O       16.4349609   16.0550563   15.8042947
| 10>     C       17.5677596   15.9086616   16.5527876
| 11>     O       18.1663388   14.8475609   16.6262344
| 12>     C       17.8418723   17.0534637   17.4832864
| 13>     C       17.3766606   18.3188011   17.3178225
| 14>     C       16.5377841   18.8602507   16.1786386
| 15>     N       17.7271898   19.3128594   18.2372291
| 16>     C       18.6260192   19.1552311   19.2590138
| 17>     S       19.0648842   20.4159334   20.2355928
| 18>     N       19.1429562   17.8961889   19.4307072
| 19>     C       18.7008237   16.6938654   18.6997910
| 20>     C       17.9461018   15.7478780   19.6301591
| 21>     C       18.3605190   14.4113468   19.7779554
| 22>     C       17.6580333   13.5323055   20.6191451
| 23>     C       16.5298060   13.9924521   21.3191181
| 24>     C       16.1114879   15.3218688   21.1718466
| 25>     O       15.0175401   15.7670549   21.8399201
| 26>     C       16.8127785   16.1944467   20.3339729
| 27>     H       15.8792977   13.8393425   17.4006773
| 28>     H       14.3569103   13.4857820   16.5681045
| 29>     H       14.5635455   15.0364659   17.4092268
| 30>     H       16.2036742   14.1622613   14.9402138
| 31>     H       14.7775652   15.2206332   14.8639189
| 32>     H       15.5077697   18.4884076   16.2464451
| 33>     H       16.9466088   18.5472420   15.2097982
| 34>     H       16.4949629   19.9561119   16.1690786
| 35>     H       17.3582817   20.2440843   18.1290137
| 36>     H       19.7788291   17.7995524   20.2118866
| 37>     H       19.5995864   16.1761848   18.3344655
| 38>     H       19.2206655   14.0476548   19.2211000
| 39>     H       17.9853401   12.4990318   20.7194639
| 40>     H       15.9828743   13.3162021   21.9675608
| 41>     H       14.7009847   15.0386045   22.3948918
| 42>     H       16.4728749   17.2196202   20.2358054
| 43> *
| 44>
| 45>                          ****END OF INPUT****

CARTESIAN COORDINATES (ANGSTROEM)
---------------------------------
  C     15.075029   14.281634   16.799117
  C     15.618684   14.907959   15.495717
  O     16.434961   16.055056   15.804295
  C     17.567760   15.908662   16.552788
  O     18.166339   14.847561   16.626234
  C     17.841872   17.053464   17.483286
  C     17.376661   18.318801   17.317822
  C     16.537784   18.860251   16.178639
  N     17.727190   19.312859   18.237229
  C     18.626019   19.155231   19.259014
  S     19.064884   20.415933   20.235593
  N     19.142956   17.896189   19.430707
  C     18.700824   16.693865   18.699791
  C     17.946102   15.747878   19.630159
  C     18.360519   14.411347   19.777955
  C     17.658033   13.532305   20.619145
  C     16.529806   13.992452   21.319118
  C     16.111488   15.321869   21.171847
  O     15.017540   15.767055   21.839920
  C     16.812779   16.194447   20.333973
  H     15.879298   13.839342   17.400677
  H     14.356910   13.485782   16.568105
  H     14.563546   15.036466   17.409227
  H     16.203674   14.162261   14.940214
  H     14.777565   15.220633   14.863919
  H     15.507770   18.488408   16.246445
  H     16.946609   18.547242   15.209798
  H     16.494963   19.956112   16.169079
  H     17.358282   20.244084   18.129014
  H     19.778829   17.799552   20.211887
  H     19.599586   16.176185   18.334466
  H     19.220665   14.047655   19.221100
  H     17.985340   12.499032   20.719464
  H     15.982874   13.316202   21.967561
  H     14.700985   15.038604   22.394892
  H     16.472875   17.219620   20.235805

 Total Charge           Charge          ....    0
 Multiplicity           Mult            ....    1
 Number of Electrons    NEL             ....  154
 Basis Dimension        Dim             ....  828

ORBITAL ENERGIES
----------------

  NO   OCC          E(Eh)            E(eV)
   0   2.0000     -91.888241     -2500.4062
   1   2.0000     -20.598353      -560.5097
   2   2.0000     -20.593477      -560.3770
   3   2.0000     -20.547119      -559.1155
   4   2.0000     -15.628242      -425.2661
   5   2.0000     -15.607325      -424.6969
   6   2.0000     -11.395862      -310.0972
   7   2.0000     -11.383400      -309.7581
   8   2.0000     -11.335363      -308.4509
   9   2.0000     -11.309457      -307.7460
  10   2.0000     -11.306555      -307.6670
  11   2.0000     -11.300545      -307.5034
  12   2.0000     -11.260051      -306.4016
  13   2.0000     -11.258729      -306.3656
  14   2.0000     -11.255059      -306.2657
  15   2.0000     -11.249669      -306.1191
  16   2.0000     -11.239313      -305.8373
  17   2.0000     -11.235233      -305.7262
  18   2.0000     -11.232393      -305.6490
  19   2.0000     -11.224538      -305.4352
  20   2.0000      -8.893307      -241.9992
  21   2.0000      -6.574885      -178.9117
  22   2.0000      -6.572877      -178.8571
  23   2.0000      -6.572293      -178.8412
  24   2.0000      -1.452172       -39.5156
  25   2.0000      -1.413233       -38.4560
  26   2.0000      -1.356350       -36.9082
  27   2.0000      -1.339285       -36.4438
  28   2.0000      -1.237247       -33.6672
  29   2.0000      -1.154005       -31.4021
  30   2.0000      -1.120244       -30.4834
  31   2.0000      -1.042583       -28.3701
  32   2.0000      -1.032345       -28.0915
  33   2.0000      -1.011237       -27.5172
  34   2.0000      -0.998074       -27.1590
  35   2.0000      -0.983598       -26.7650
  36   2.0000      -0.922265       -25.0961
  37   2.0000      -0.894589       -24.3430
  38   2.0000      -0.847759       -23.0687
  39   2.0000      -0.836195       -22.7540
  40   2.0000      -0.829755       -22.5788
  41   2.0000      -0.815359       -22.1870
  42   2.0000      -0.750086       -20.4109
  43   2.0000      -0.735536       -20.0149
  44   2.0000      -0.726100       -19.7582
  45   2.0000      -0.691929       -18.8284
  46   2.0000      -0.685621       -18.6567
  47   2.0000      -0.678264       -18.4565
  48   2.0000      -0.671897       -18.2833
  49   2.0000      -0.656263       -17.8578
  50   2.0000      -0.653282       -17.7767
  51   2.0000      -0.644898       -17.5486
  52   2.0000      -0.632618       -17.2144
  53   2.0000      -0.613689       -16.6993
  54   2.0000      -0.601448       -16.3662
  55   2.0000      -0.601050       -16.3554
  56   2.0000      -0.596914       -16.2429
  57   2.0000      -0.579109       -15.7583
  58   2.0000      -0.574962       -15.6455
  59   2.0000      -0.563633       -15.3372
  60   2.0000      -0.555752       -15.1228
  61   2.0000      -0.546789       -14.8789
  62   2.0000      -0.535074       -14.5601
  63   2.0000      -0.529583       -14.4107
  64   2.0000      -0.518394       -14.1062
  65   2.0000      -0.509649       -13.8683
  66   2.0000      -0.498240       -13.5578
  67   2.0000      -0.494492       -13.4558
  68   2.0000      -0.481653       -13.1065
  69   2.0000      -0.463940       -12.6245
  70   2.0000      -0.459381       -12.5004
  71   2.0000      -0.450563       -12.2604
  72   2.0000      -0.353973        -9.6321
  73   2.0000      -0.345729        -9.4078
  74   2.0000      -0.327455        -8.9105
  75   2.0000      -0.316732        -8.6187
  76   2.0000      -0.315017        -8.5720
  77   0.0000       0.075347         2.0503
  78   0.0000       0.109996         2.9931
  79   0.0000       0.120533         3.2799
  80   0.0000       0.134204         3.6519
  81   0.0000       0.142895         3.8884

MULLIKEN ATOMIC CHARGES
-----------------------
   0 C :   -0.309627
   1 C :    0.037845
   2 O :   -0.360949
   3 C :    0.438866
   4 O :   -0.424718
   5 C :   -0.168673
   6 C :    0.143549
   7 C :   -0.282755
   8 N :   -0.123223
   9 C :    0.204278
  10 S :   -0.439826
  11 N :   -0.200727
  12 C :    0.049279
  13 C :    0.050783
  14 C :   -0.165816
  15 C :   -0.133796
  16 C :   -0.280285
  17 C :    0.314124
  18 O :   -0.359246
  19 C :   -0.275058
  20 H :    0.128070
  21 H :    0.098703
  22 H :    0.096269
  23 H :    0.106054
  24 H :    0.107290
  25 H :    0.126058
  26 H :    0.126414
  27 H :    0.101699
  28 H :    0.196941
  29 H :    0.194306
  30 H :    0.153446
  31 H :    0.154722
  32 H :    0.160443
  33 H :    0.129260
  34 H :    0.240371
  35 H :    0.165931
Sum of atomic charges:    0.0000000

LOEWDIN ATOMIC CHARGES
----------------------
   0 C :    0.106203
   1 C :   -0.016608
   2 O :    0.299383
   3 C :   -0.414399
   4 O :    0.108071
   5 C :   -0.091424
   6 C :   -0.068138
   7 C :    0.125557
   8 N :    0.404595
   9 C :   -0.457934
  10 S :   -0.036298
  11 N :    0.397688
  12 C :   -0.045956
  13 C :   -0.039846
  14 C :    0.021696
  15 C :    0.040421
  16 C :   -0.002222
  17 C :   -0.192731
  18 O :    0.393341
  19 C :    0.029237
  20 H :   -0.023160
  21 H :   -0.026590
  22 H :   -0.029077
  23 H :   -0.028326
  24 H :   -0.025396
  25 H :   -0.009985
  26 H :   -0.007980
  27 H :   -0.020777
  28 H :   -0.058988
  29 H :   -0.063772
  30 H :   -0.005143
  31 H :   -0.025139
  32 H :   -0.020948
  33 H :   -0.036068
  34 H :   -0.154594
  35 H :   -0.024693

  Mayer bond orders larger than 0.100000
B(  0-C ,  1-C ) :   0.9603 B(  0-C , 20-H ) :   0.9698 B(  0-C , 21-H ) :   0.9765
B(  0-C , 22-H ) :   0.9755 B(  1-C ,  2-O ) :   0.8960 B(  1-C , 23-H ) :   0.9810
B(  1-C , 24-H ) :   0.9841 B(  2-O ,  3-C ) :   1.1313 B(  3-C ,  4-O ) :   1.9938
B(  3-C ,  5-C ) :   1.0440 B(  5-C ,  6-C ) :   1.6516 B(  5-C , 12-C ) :   0.9658
B(  6-C ,  7-C ) :   0.9543 B(  6-C ,  8-N ) :   1.1464 B(  7-C , 25-H ) :   0.9632
B(  7-C , 26-H ) :   0.9671 B(  7-C , 27-H ) :   0.9903 B(  8-N ,  9-C ) :   1.1812
B(  8-N , 28-H ) :   0.9490 B(  9-C , 10-S ) :   1.6100 B(  9-C , 11-N ) :   1.3031
B( 11-N , 12-C ) :   0.9926 B( 11-N , 29-H ) :   0.9516 B( 12-C , 13-C ) :   0.9434
B( 12-C , 30-H ) :   0.9995 B( 13-C , 14-C ) :   1.3754 B( 13-C , 19-C ) :   1.3703
B( 14-C , 15-C ) :   1.3933 B( 14-C , 31-H ) :   0.9647 B( 15-C , 16-C ) :   1.3623
B( 15-C , 32-H ) :   0.9711 B( 16-C , 17-C ) :   1.3317 B( 16-C , 33-H ) :   0.9855
B( 17-C , 18-O ) :   1.1083 B( 17-C , 19-C ) :   1.3758 B( 18-O , 34-H ) :   0.9803
B( 19-C , 35-H ) :   0.9580

MP2 TOTAL ENERGY:    -1274.344842001 Eh
FINAL SINGLE POINT ENERGY     -1274.344842000572

DIPOLE MOMENT
-------------
                                X             Y             Z
Electronic contribution:     10.12285       9.83758       7.74674
Nuclear contribution   :    -11.57669     -11.11169      -8.70713
                        -----------------------------------------
Total Dipole Moment    :     -1.45384      -1.27411      -0.96039
                        -----------------------------------------
Magnitude (a.u.)       :      2.15855
Magnitude (Debye)      :      5.48660

Rotational constants in cm-1:     0.011510     0.009228     0.006366
Rotational constants in MHz :   345.069493   276.653490   190.845224

                             ****ORCA TERMINATED NORMALLY****
TOTAL RUN TIME: 0 days 1 hours 45 minutes 28 seconds 848 msec
