                         Program Version 5.0.0 -  RELEASE  -
|  1> ! ri-mp2 cc-pvtz cc-pvtz/c TightSCF NoKeepInts
|  2>
|  3> %scf
|  4>   MaxCore 4096
|  5> end
|  6> *xyz  0  1
|  7>     C       15.4007185   14.2873999   17.1129541
|  8>     C       15.4070247   15.4520091   16.1002852
|  9>     O       16.7367240   15.7324911   15.6060268
| 10>     C       17.8199012   15.7261461   16.4380676
| 11>     O       18.4950573   14.7218575   16.5795452
| 12>     C       17.9158478   16.9005062   17.3695221
| 13>     C       17.4409394   18.1417201   17.0886351
| 14>     C       16.7728624   18.6185174   15.8144761
| 15>     N       17.6464276   19.1857374   17.9959138
| 16>     C       18.4555577   19.1158382   19.0990178
| 17>     S       18.7482048   20.4371971   20.0492269
| 18>     N       19.0108607   17.8917364   19.3729548
| 19>     C       18.6691901   16.6357638   18.6785042
| 20>     C       17.8739941   15.7154761   19.5993296
| 21>     C       18.2647498   14.3750064   19.7734329
| 22>     C       17.5294154   13.5169525   20.6080625
| 23>     C       16.3923261   14.0023273   21.2758794
| 24>     C       15.9980373   15.3359703   21.1036740
| 25>     O       14.8943753   15.8049518   21.7382413
| 26>     C       16.7311497   16.1877265   20.2713947
| 27>     H       15.9087905   13.4078858   16.6968992
| 28>     H       14.3711719   14.0002680   17.3578885
| 29>     H       15.8979748   14.5632089   18.0479295
| 30>     H       14.7541940   15.2051549   15.2530619
| 31>     H       14.9937977   16.3405576   16.5934725
| 32>     H       17.2136266   18.1397049   14.9309976
| 33>     H       16.8887461   19.6997116   15.6682799
| 34>     H       15.6994351   18.3993372   15.8217288
| 35>     H       17.2550018   20.0949890   17.8073855
| 36>     H       19.5846868   17.8605669   20.2060789
| 37>     H       19.6128504   16.1312120   18.4240387
| 38>     H       19.1329587   13.9915638   19.2420448
| 39>     H       17.8390447   12.4802000   20.7282947
| 40>     H       15.8202837   13.3418577   21.9190810
| 41>     H       14.5630656   15.0940429   22.3075566
| 42>     H       16.4080074   17.2164075   20.1541178
| 43> *
| 44>
| 45>                          ****END OF INPUT****

CARTESIAN COORDINATES (ANGSTROEM)
---------------------------------
  C     15.400718   14.287400   17.112954
  C     15.407025   15.452009   16.100285
  O     16.736724   15.732491   15.606027
  C     17.819901   15.726146   16.438068
  O     18.495057   14.721858   16.579545
  C     17.915848   16.900506   17.369522
  C     17.440939   18.141720   17.088635
  C     16.772862   18.618517   15.814476
  N     17.646428   19.185737   17.995914
  C     18.455558   19.115838   19.099018
  S     18.748205   20.437197   20.049227
  N     19.010861   17.891736   19.372955
  C     18.669190   16.635764   18.678504
  C     17.873994   15.715476   19.599330
  C     18.264750   14.375006   19.773433
  C     17.529415   13.516953   20.608062
  C     16.392326   14.002327   21.275879
  C     15.998037   15.335970   21.103674
  O     14.894375   15.804952   21.738241
  C     16.731150   16.187727   20.271395
  H     15.908790   13.407886   16.696899
  H     14.371172   14.000268   17.357888
  H     15.897975   14.563209   18.047929
  H     14.754194   15.205155   15.253062
  H     14.993798   16.340558   16.593473
  H     17.213627   18.139705   14.930998
  H     16.888746   19.699712   15.668280
  H     15.699435   18.399337   15.821729
  H     17.255002   20.094989   17.807385
  H     19.584687   17.860567   20.206079
  H     19.612850   16.131212   18.424039
  H     19.132959   13.991564   19.242045
  H     17.839045   12.480200   20.728295
  H     15.820284   13.341858   21.919081
  H     14.563066   15.094043   22.307557
  H     16.408007   17.216407   20.154118

 Total Charge           Charge          ....    0
 Multiplicity           Mult            ....    1
 Number of Electrons    NEL             ....  154
 Basis Dimension        Dim             ....  828

ORBITAL ENERGIES
----------------

  NO   OCC          E(Eh)            E(eV)
   0   2.0000     -91.890777     -2500.4752
   1   2.0000     -20.597065      -560.4746
   2   2.0000     -20.584851      -560.1423
   3   2.0000     -20.553583      -559.2914
   4   2.0000     -15.630990      -425.3409
   5   2.0000     -15.609618      -424.7593
   6   2.0000     -11.395740      -310.0939
   7   2.0000     -11.385998      -309.8287
   8   2.0000     -11.338923      -308.5478
   9   2.0000     -11.313688      -307.8611
  10   2.0000     -11.309220      -307.7395
  11   2.0000     -11.307265      -307.6863
  12   2.0000     -11.263267      -306.4891
  13   2.0000     -11.263201      -306.4873
  14   2.0000     -11.259059      -306.3746
  15   2.0000     -11.253626      -306.2267
  16   2.0000     -11.243327      -305.9465
  17   2.0000     -11.239190      -305.8339
  18   2.0000     -11.235741      -305.7400
  19   2.0000     -11.223871      -305.4171
  20   2.0000      -8.895841      -242.0681
  21   2.0000      -6.577416      -178.9806
  22   2.0000      -6.575408      -178.9259
  23   2.0000      -6.574819      -178.9099
  24   2.0000      -1.446714       -39.3671
  25   2.0000      -1.416871       -38.5550
  26   2.0000      -1.356728       -36.9185
  27   2.0000      -1.342422       -36.5291
  28   2.0000      -1.240173       -33.7468
  29   2.0000      -1.157796       -31.5052
  30   2.0000      -1.122572       -30.5467
  31   2.0000      -1.045394       -28.4466
  32   2.0000      -1.032292       -28.0901
  33   2.0000      -1.015475       -27.6325
  34   2.0000      -1.002620       -27.2827
  35   2.0000      -0.987458       -26.8701
  36   2.0000      -0.925847       -25.1936
  37   2.0000      -0.892667       -24.2907
  38   2.0000      -0.852769       -23.2050
  39   2.0000      -0.840865       -22.8811
  40   2.0000      -0.833679       -22.6856
  41   2.0000      -0.826219       -22.4826
  42   2.0000      -0.744731       -20.2652
  43   2.0000      -0.730636       -19.8816
  44   2.0000      -0.728884       -19.8339
  45   2.0000      -0.695103       -18.9147
  46   2.0000      -0.686473       -18.6799
  47   2.0000      -0.680811       -18.5258
  48   2.0000      -0.675897       -18.3921
  49   2.0000      -0.664446       -18.0805
  50   2.0000      -0.651630       -17.7318
  51   2.0000      -0.648809       -17.6550
  52   2.0000      -0.638111       -17.3639
  53   2.0000      -0.622114       -16.9286
  54   2.0000      -0.606190       -16.4953
  55   2.0000      -0.604606       -16.4522
  56   2.0000      -0.600686       -16.3455
  57   2.0000      -0.580524       -15.7969
  58   2.0000      -0.575056       -15.6481
  59   2.0000      -0.566222       -15.4077
  60   2.0000      -0.554757       -15.0957
  61   2.0000      -0.547801       -14.9064
  62   2.0000      -0.539074       -14.6689
  63   2.0000      -0.530368       -14.4320
  64   2.0000      -0.520247       -14.1566
  65   2.0000      -0.512432       -13.9440
  66   2.0000      -0.500701       -13.6248
  67   2.0000      -0.489314       -13.3149
  68   2.0000      -0.486397       -13.2355
  69   2.0000      -0.467577       -12.7234
  70   2.0000      -0.457957       -12.4616
  71   2.0000      -0.449052       -12.2193
  72   2.0000      -0.358132        -9.7453
  73   2.0000      -0.349433        -9.5086
  74   2.0000      -0.330011        -8.9801
  75   2.0000      -0.321281        -8.7425
  76   2.0000      -0.318496        -8.6667
  77   0.0000       0.070599         1.9211
  78   0.0000       0.105325         2.8660
  79   0.0000       0.119028         3.2389
  80   0.0000       0.131353         3.5743
  81   0.0000       0.137251         3.7348

MULLIKEN ATOMIC CHARGES
-----------------------
   0 C :   -0.296145
   1 C :    0.033399
   2 O :   -0.376349
   3 C :    0.467862
   4 O :   -0.389863
   5 C :   -0.218333
   6 C :    0.146381
   7 C :   -0.303142
   8 N :   -0.125354
   9 C :    0.194878
  10 S :   -0.436646
  11 N :   -0.199652
  12 C :    0.052369
  13 C :    0.003143
  14 C :   -0.156444
  15 C :   -0.141095
  16 C :   -0.267968
  17 C :    0.299057
  18 O :   -0.359592
  19 C :   -0.239107
  20 H :    0.116248
  21 H :    0.101711
  22 H :    0.109707
  23 H :    0.116700
  24 H :    0.079038
  25 H :    0.139380
  26 H :    0.113796
  27 H :    0.121286
  28 H :    0.197477
  29 H :    0.194511
  30 H :    0.157918
  31 H :    0.161807
  32 H :    0.161355
  33 H :    0.131772
  34 H :    0.241003
  35 H :    0.168892
Sum of atomic charges:   -0.0000000

LOEWDIN ATOMIC CHARGES
----------------------
   0 C :    0.110687
   1 C :   -0.018964
   2 O :    0.284146
   3 C :   -0.420270
   4 O :    0.128994
   5 C :   -0.093388
   6 C :   -0.071739
   7 C :    0.127405
   8 N :    0.404812
   9 C :   -0.459828
  10 S :   -0.034019
  11 N :    0.397658
  12 C :   -0.045972
  13 C :   -0.044194
  14 C :    0.021696
  15 C :    0.042926
  16 C :   -0.001114
  17 C :   -0.193714
  18 O :    0.394460
  19 C :    0.026551
  20 H :   -0.020942
  21 H :   -0.025360
  22 H :   -0.027366
  23 H :   -0.021478
  24 H :   -0.040431
  25 H :   -0.006127
  26 H :   -0.017238
  27 H :   -0.015533
  28 H :   -0.058043
  29 H :   -0.063436
  30 H :   -0.003522
  31 H :   -0.023498
  32 H :   -0.019624
  33 H :   -0.035162
  34 H :   -0.153685
  35 H :   -0.024689

  Mayer bond orders larger than 0.100000
B(  0-C ,  1-C ) :   0.9749 B(  0-C , 20-H ) :   0.9727 B(  0-C , 21-H ) :   0.9766
B(  0-C , 22-H ) :   0.9657 B(  1-C ,  2-O ) :   0.8982 B(  1-C , 23-H ) :   0.9788
B(  1-C , 24-H ) :   0.9729 B(  2-O ,  3-C ) :   1.0985 B(  3-C ,  4-O ) :   2.0551
B(  3-C ,  5-C ) :   1.0038 B(  5-C ,  6-C ) :   1.6648 B(  5-C , 12-C ) :   0.9599
B(  6-C ,  7-C ) :   0.9468 B(  6-C ,  8-N ) :   1.1417 B(  7-C , 25-H ) :   0.9664
B(  7-C , 26-H ) :   0.9871 B(  7-C , 27-H ) :   0.9666 B(  8-N ,  9-C ) :   1.1813
B(  8-N , 28-H ) :   0.9497 B(  9-C , 10-S ) :   1.6146 B(  9-C , 11-N ) :   1.3002
B( 11-N , 12-C ) :   0.9926 B( 11-N , 29-H ) :   0.9520 B( 12-C , 13-C ) :   0.9453
B( 12-C , 30-H ) :   0.9984 B( 13-C , 14-C ) :   1.3882 B( 13-C , 19-C ) :   1.3666
B( 14-C , 15-C ) :   1.3932 B( 14-C , 31-H ) :   0.9613 B( 15-C , 16-C ) :   1.3628
B( 15-C , 32-H ) :   0.9713 B( 16-C , 17-C ) :   1.3318 B( 16-C , 33-H ) :   0.9845
B( 17-C , 18-O ) :   1.1120 B( 17-C , 19-C ) :   1.3724 B( 18-O , 34-H ) :   0.9797
B( 19-C , 35-H ) :   0.9578

MP2 TOTAL ENERGY:    -1274.331905852 Eh
FINAL SINGLE POINT ENERGY     -1274.331905851872

DIPOLE MOMENT
-------------
                                X             Y             Z
Electronic contribution:      9.64738       8.71206       6.20146
Nuclear contribution   :    -11.14556      -9.70544      -6.70402
                        -----------------------------------------
Total Dipole Moment    :     -1.49818      -0.99338      -0.50256
                        -----------------------------------------
Magnitude (a.u.)       :      1.86652
Magnitude (Debye)      :      4.74432

Rotational constants in cm-1:     0.011718     0.009597     0.006683
Rotational constants in MHz :   351.282415   287.712396   200.342488

                             ****ORCA TERMINATED NORMALLY****
TOTAL RUN TIME: 0 days 2 hours 18 minutes 22 seconds 133 msec
