                         Program Version 5.0.0 -  RELEASE  -
|  1> ! ri-mp2 cc-pvtz cc-pvtz/c TightSCF NoKeepInts
|  2>
|  3> %scf
|  4>   MaxCore 4096
|  5> end
|  6> *xyz  0  1
|  7>     C       14.8374069   14.6366304   17.4131439
|  8>     C       15.6226774   15.4556963   16.3761461
|  9>     O       16.9768232   14.9669301   16.3832609
| 10>     C       18.1054217   15.7443633   16.4430711
| 11>     O       19.1809796   15.1918410   16.3070171
| 12>     C       18.0114714   16.9103503   17.3695477
| 13>     C       17.5314235   18.1080596   16.9641468
| 14>     C       17.0051223   18.4573304   15.5878877
| 15>     N       17.5671795   19.2025103   17.8305266
| 16>     C       18.1946733   19.2081578   19.0493227
| 17>     S       18.2666136   20.5717745   19.9818078
| 18>     N       18.7621082   18.0252717   19.4566511
| 19>     C       18.6378616   16.7320407   18.7530270
| 20>     C       17.8716247   15.7068358   19.5849627
| 21>     C       18.2471867   14.3514954   19.5414225
| 22>     C       17.5556775   13.3903207   20.2970922
| 23>     C       16.4780150   13.7861726   21.1070255
| 24>     C       16.0963717   15.1337473   21.1505639
| 25>     O       15.0470363   15.5167912   21.9204097
| 26>     C       16.7830284   16.0883888   20.3930362
| 27>     H       15.2643942   14.7640306   18.4134525
| 28>     H       14.8665632   13.5686996   17.1631851
| 29>     H       13.7883649   14.9544394   17.4451665
| 30>     H       15.1820398   15.3282350   15.3788421
| 31>     H       15.5496193   16.5099468   16.6561147
| 32>     H       17.1312085   17.6387500   14.8690552
| 33>     H       17.5419277   19.3219926   15.1764090
| 34>     H       15.9384340   18.7108770   15.6250889
| 35>     H       17.1747813   20.0850082   17.5419440
| 36>     H       19.2067738   18.0554356   20.3654770
| 37>     H       19.6555287   16.3415465   18.6033986
| 38>     H       19.0738011   14.0401420   18.9057518
| 39>     H       17.8549510   12.3446901   20.2490044
| 40>     H       15.9408580   13.0464660   21.6913479
| 41>     H       14.7372313   14.7334909   22.3996718
| 42>     H       16.4618206   17.1235416   20.4400215
| 43> *
| 44>
| 45>                          ****END OF INPUT****

CARTESIAN COORDINATES (ANGSTROEM)
---------------------------------
  C     14.837407   14.636630   17.413144
  C     15.622677   15.455696   16.376146
  O     16.976823   14.966930   16.383261
  C     18.105422   15.744363   16.443071
  O     19.180980   15.191841   16.307017
  C     18.011471   16.910350   17.369548
  C     17.531423   18.108060   16.964147
  C     17.005122   18.457330   15.587888
  N     17.567180   19.202510   17.830527
  C     18.194673   19.208158   19.049323
  S     18.266614   20.571774   19.981808
  N     18.762108   18.025272   19.456651
  C     18.637862   16.732041   18.753027
  C     17.871625   15.706836   19.584963
  C     18.247187   14.351495   19.541422
  C     17.555678   13.390321   20.297092
  C     16.478015   13.786173   21.107025
  C     16.096372   15.133747   21.150564
  O     15.047036   15.516791   21.920410
  C     16.783028   16.088389   20.393036
  H     15.264394   14.764031   18.413452
  H     14.866563   13.568700   17.163185
  H     13.788365   14.954439   17.445166
  H     15.182040   15.328235   15.378842
  H     15.549619   16.509947   16.656115
  H     17.131208   17.638750   14.869055
  H     17.541928   19.321993   15.176409
  H     15.938434   18.710877   15.625089
  H     17.174781   20.085008   17.541944
  H     19.206774   18.055436   20.365477
  H     19.655529   16.341546   18.603399
  H     19.073801   14.040142   18.905752
  H     17.854951   12.344690   20.249004
  H     15.940858   13.046466   21.691348
  H     14.737231   14.733491   22.399672
  H     16.461821   17.123542   20.440022

 Total Charge           Charge          ....    0
 Multiplicity           Mult            ....    1
 Number of Electrons    NEL             ....  154
 Basis Dimension        Dim             ....  828

ORBITAL ENERGIES
----------------

  NO   OCC          E(Eh)            E(eV)
   0   2.0000     -91.889041     -2500.4279
   1   2.0000     -20.602896      -560.6333
   2   2.0000     -20.598278      -560.5076
   3   2.0000     -20.554086      -559.3051
   4   2.0000     -15.625020      -425.1784
   5   2.0000     -15.611158      -424.8012
   6   2.0000     -11.398371      -310.1654
   7   2.0000     -11.385861      -309.8250
   8   2.0000     -11.326143      -308.2000
   9   2.0000     -11.316020      -307.9246
  10   2.0000     -11.315189      -307.9019
  11   2.0000     -11.304330      -307.6065
  12   2.0000     -11.271620      -306.7164
  13   2.0000     -11.266542      -306.5782
  14   2.0000     -11.263122      -306.4851
  15   2.0000     -11.255608      -306.2807
  16   2.0000     -11.244421      -305.9763
  17   2.0000     -11.240640      -305.8734
  18   2.0000     -11.237632      -305.7915
  19   2.0000     -11.226944      -305.5007
  20   2.0000      -8.894163      -242.0225
  21   2.0000      -6.575757      -178.9354
  22   2.0000      -6.573725      -178.8801
  23   2.0000      -6.573155      -178.8646
  24   2.0000      -1.452476       -39.5239
  25   2.0000      -1.418110       -38.5887
  26   2.0000      -1.361345       -37.0441
  27   2.0000      -1.339147       -36.4400
  28   2.0000      -1.239155       -33.7191
  29   2.0000      -1.159825       -31.5604
  30   2.0000      -1.125304       -30.6211
  31   2.0000      -1.048462       -28.5301
  32   2.0000      -1.039248       -28.2794
  33   2.0000      -1.017893       -27.6983
  34   2.0000      -1.004880       -27.3442
  35   2.0000      -0.988865       -26.9084
  36   2.0000      -0.927524       -25.2392
  37   2.0000      -0.884583       -24.0707
  38   2.0000      -0.854190       -23.2437
  39   2.0000      -0.840962       -22.8837
  40   2.0000      -0.835437       -22.7334
  41   2.0000      -0.834582       -22.7101
  42   2.0000      -0.758125       -20.6296
  43   2.0000      -0.738750       -20.1024
  44   2.0000      -0.730636       -19.8816
  45   2.0000      -0.696526       -18.9534
  46   2.0000      -0.689621       -18.7656
  47   2.0000      -0.683691       -18.6042
  48   2.0000      -0.676227       -18.4011
  49   2.0000      -0.662899       -18.0384
  50   2.0000      -0.653702       -17.7881
  51   2.0000      -0.641147       -17.4465
  52   2.0000      -0.637426       -17.3452
  53   2.0000      -0.617450       -16.8017
  54   2.0000      -0.611620       -16.6430
  55   2.0000      -0.606133       -16.4937
  56   2.0000      -0.602093       -16.3838
  57   2.0000      -0.588481       -16.0134
  58   2.0000      -0.576904       -15.6984
  59   2.0000      -0.567607       -15.4454
  60   2.0000      -0.561780       -15.2868
  61   2.0000      -0.557861       -15.1802
  62   2.0000      -0.538364       -14.6496
  63   2.0000      -0.533834       -14.5264
  64   2.0000      -0.518476       -14.1084
  65   2.0000      -0.513052       -13.9609
  66   2.0000      -0.502826       -13.6826
  67   2.0000      -0.501457       -13.6453
  68   2.0000      -0.486874       -13.2485
  69   2.0000      -0.468646       -12.7525
  70   2.0000      -0.455190       -12.3863
  71   2.0000      -0.450832       -12.2678
  72   2.0000      -0.357077        -9.7166
  73   2.0000      -0.350454        -9.5363
  74   2.0000      -0.328808        -8.9473
  75   2.0000      -0.323146        -8.7933
  76   2.0000      -0.317594        -8.6422
  77   0.0000       0.091007         2.4764
  78   0.0000       0.102823         2.7980
  79   0.0000       0.108850         2.9620
  80   0.0000       0.128612         3.4997
  81   0.0000       0.129820         3.5326

MULLIKEN ATOMIC CHARGES
-----------------------
   0 C :   -0.267008
   1 C :    0.014272
   2 O :   -0.308457
   3 C :    0.386834
   4 O :   -0.373725
   5 C :   -0.146837
   6 C :    0.114783
   7 C :   -0.320814
   8 N :   -0.135904
   9 C :    0.206228
  10 S :   -0.442848
  11 N :   -0.224679
  12 C :    0.058797
  13 C :    0.017386
  14 C :   -0.192597
  15 C :   -0.139503
  16 C :   -0.266245
  17 C :    0.300906
  18 O :   -0.360927
  19 C :   -0.249021
  20 H :    0.113779
  21 H :    0.102813
  22 H :    0.090574
  23 H :    0.111705
  24 H :    0.085685
  25 H :    0.118351
  26 H :    0.139110
  27 H :    0.121297
  28 H :    0.194968
  29 H :    0.201595
  30 H :    0.169397
  31 H :    0.167388
  32 H :    0.163299
  33 H :    0.132141
  34 H :    0.240895
  35 H :    0.176361
Sum of atomic charges:    0.0000000

LOEWDIN ATOMIC CHARGES
----------------------
   0 C :    0.111227
   1 C :   -0.024723
   2 O :    0.319818
   3 C :   -0.421231
   4 O :    0.131276
   5 C :   -0.078129
   6 C :   -0.112604
   7 C :    0.122317
   8 N :    0.400383
   9 C :   -0.456105
  10 S :   -0.039593
  11 N :    0.398026
  12 C :   -0.041802
  13 C :   -0.041774
  14 C :    0.023399
  15 C :    0.045606
  16 C :   -0.001595
  17 C :   -0.194332
  18 O :    0.395750
  19 C :    0.024892
  20 H :   -0.024124
  21 H :   -0.025194
  22 H :   -0.026967
  23 H :   -0.031208
  24 H :   -0.039429
  25 H :   -0.010494
  26 H :   -0.009203
  27 H :   -0.016932
  28 H :   -0.058693
  29 H :   -0.063709
  30 H :   -0.001584
  31 H :   -0.021807
  32 H :   -0.018557
  33 H :   -0.035091
  34 H :   -0.153262
  35 H :   -0.024552

  Mayer bond orders larger than 0.100000
B(  0-C ,  1-C ) :   0.9789 B(  0-C , 20-H ) :   0.9704 B(  0-C , 21-H ) :   0.9811
B(  0-C , 22-H ) :   0.9762 B(  1-C ,  2-O ) :   0.9253 B(  1-C , 23-H ) :   0.9801
B(  1-C , 24-H ) :   0.9616 B(  2-O ,  3-C ) :   1.1321 B(  3-C ,  4-O ) :   2.0904
B(  3-C ,  5-C ) :   0.9214 B(  5-C ,  6-C ) :   1.7045 B(  5-C , 12-C ) :   0.9620
B(  6-C ,  7-C ) :   0.9468 B(  6-C ,  8-N ) :   1.1052 B(  7-C , 25-H ) :   0.9819
B(  7-C , 26-H ) :   0.9698 B(  7-C , 27-H ) :   0.9667 B(  8-N ,  9-C ) :   1.1999
B(  8-N , 28-H ) :   0.9533 B(  9-C , 10-S ) :   1.6071 B(  9-C , 11-N ) :   1.2859
B( 11-N , 12-C ) :   0.9859 B( 11-N , 29-H ) :   0.9474 B( 12-C , 13-C ) :   0.9477
B( 12-C , 30-H ) :   0.9966 B( 13-C , 14-C ) :   1.3872 B( 13-C , 19-C ) :   1.3515
B( 14-C , 15-C ) :   1.3995 B( 14-C , 31-H ) :   0.9619 B( 15-C , 16-C ) :   1.3563
B( 15-C , 32-H ) :   0.9703 B( 16-C , 17-C ) :   1.3354 B( 16-C , 33-H ) :   0.9851
B( 17-C , 18-O ) :   1.1081 B( 17-C , 19-C ) :   1.3659 B( 18-O , 34-H ) :   0.9796
B( 19-C , 35-H ) :   0.9569

MP2 TOTAL ENERGY:    -1274.324492702 Eh
FINAL SINGLE POINT ENERGY     -1274.324492701902

DIPOLE MOMENT
-------------
                                X             Y             Z
Electronic contribution:     10.08837       7.77900       6.38080
Nuclear contribution   :    -11.67381      -8.84821      -7.10870
                        -----------------------------------------
Total Dipole Moment    :     -1.58544      -1.06921      -0.72790
                        -----------------------------------------
Magnitude (a.u.)       :      2.04613
Magnitude (Debye)      :      5.20086

Rotational constants in cm-1:     0.012158     0.009300     0.006750
Rotational constants in MHz :   364.490335   278.811733   202.348897

                             ****ORCA TERMINATED NORMALLY****
TOTAL RUN TIME: 0 days 1 hours 39 minutes 2 seconds 596 msec
