                         Program Version 4.2.0 -  RELEASE  -
|  1> ! ri-mp2 cc-pvtz cc-pvtz/c TightSCF  NoKeepInts
|  2>
|  3> %scf
|  4>   MaxCore 4096
|  5> end
|  6> *xyz  0  1
|  7>     C       14.2537144   15.4821297   16.1764505
|  8>     C       15.3988598   15.4898230   17.2029218
|  9>     O       16.5963941   15.0731922   16.5144854
| 10>     C       17.8049320   15.7267064   16.5125046
| 11>     O       18.8010241   15.1213628   16.1631398
| 12>     C       17.9284614   16.8882427   17.4400142
| 13>     C       17.3675240   18.0888292   17.1725152
| 14>     C       16.5570246   18.4545937   15.9482454
| 15>     N       17.5540183   19.1550176   18.0545072
| 16>     C       18.3528487   19.1126597   19.1683278
| 17>     S       18.5526225   20.4336286   20.1424691
| 18>     N       18.9717898   17.9163765   19.4412023
| 19>     C       18.7827120   16.6623605   18.6839460
| 20>     C       18.1664065   15.5701446   19.5515609
| 21>     C       18.6663100   14.2565861   19.4930664
| 22>     C       18.0837811   13.2341946   20.2603370
| 23>     C       16.9878905   13.5256410   21.0902039
| 24>     C       16.4812825   14.8309262   21.1443644
| 25>     O       15.4123212   15.1127225   21.9306349
| 26>     C       17.0630043   15.8471843   20.3799043
| 27>     H       13.3056288   15.7565765   16.6548411
| 28>     H       14.1386224   14.4828832   15.7375101
| 29>     H       14.4495386   16.1933897   15.3651506
| 30>     H       15.4709468   16.4824513   17.6566004
| 31>     H       15.1781711   14.7754222   18.0072876
| 32>     H       16.6218346   17.6900358   15.1641693
| 33>     H       16.9175696   19.3915496   15.5047668
| 34>     H       15.4978855   18.5859213   16.2013909
| 35>     H       17.1193069   20.0448982   17.8662451
| 36>     H       19.5367282   17.9100731   20.2811985
| 37>     H       19.7730111   16.3187508   18.3498467
| 38>     H       19.4997707   14.0236070   18.8335852
| 39>     H       18.4771371   12.2206418   20.2018482
| 40>     H       16.5326264   12.7372336   21.6805369
| 41>     H       15.1933110   14.3065940   22.4225519
| 42>     H       16.6519896   16.8496497   20.4356695
| 43> *
| 44>
| 45>                          ****END OF INPUT****

CARTESIAN COORDINATES (ANGSTROEM)
---------------------------------
  C     14.253714   15.482130   16.176451
  C     15.398860   15.489823   17.202922
  O     16.596394   15.073192   16.514485
  C     17.804932   15.726706   16.512505
  O     18.801024   15.121363   16.163140
  C     17.928461   16.888243   17.440014
  C     17.367524   18.088829   17.172515
  C     16.557025   18.454594   15.948245
  N     17.554018   19.155018   18.054507
  C     18.352849   19.112660   19.168328
  S     18.552622   20.433629   20.142469
  N     18.971790   17.916376   19.441202
  C     18.782712   16.662360   18.683946
  C     18.166407   15.570145   19.551561
  C     18.666310   14.256586   19.493066
  C     18.083781   13.234195   20.260337
  C     16.987890   13.525641   21.090204
  C     16.481282   14.830926   21.144364
  O     15.412321   15.112722   21.930635
  C     17.063004   15.847184   20.379904
  H     13.305629   15.756576   16.654841
  H     14.138622   14.482883   15.737510
  H     14.449539   16.193390   15.365151
  H     15.470947   16.482451   17.656600
  H     15.178171   14.775422   18.007288
  H     16.621835   17.690036   15.164169
  H     16.917570   19.391550   15.504767
  H     15.497885   18.585921   16.201391
  H     17.119307   20.044898   17.866245
  H     19.536728   17.910073   20.281198
  H     19.773011   16.318751   18.349847
  H     19.499771   14.023607   18.833585
  H     18.477137   12.220642   20.201848
  H     16.532626   12.737234   21.680537
  H     15.193311   14.306594   22.422552
  H     16.651990   16.849650   20.435669

 Total Charge           Charge          ....    0
 Multiplicity           Mult            ....    1
 Number of Electrons    NEL             ....  154
 Basis Dimension        Dim             ....  828

ORBITAL ENERGIES
----------------

  NO   OCC          E(Eh)            E(eV)
   0   2.0000     -91.889831     -2500.4494
   1   2.0000     -20.601721      -560.6013
   2   2.0000     -20.600265      -560.5617
   3   2.0000     -20.550271      -559.2013
   4   2.0000     -15.626515      -425.2191
   5   2.0000     -15.611906      -424.8216
   6   2.0000     -11.398145      -310.1593
   7   2.0000     -11.386873      -309.8526
   8   2.0000     -11.327272      -308.2307
   9   2.0000     -11.316808      -307.9460
  10   2.0000     -11.315668      -307.9150
  11   2.0000     -11.303528      -307.5846
  12   2.0000     -11.270527      -306.6866
  13   2.0000     -11.264612      -306.5257
  14   2.0000     -11.263546      -306.4967
  15   2.0000     -11.256841      -306.3142
  16   2.0000     -11.246283      -306.0269
  17   2.0000     -11.242392      -305.9210
  18   2.0000     -11.239656      -305.8466
  19   2.0000     -11.235157      -305.7242
  20   2.0000      -8.894952      -242.0440
  21   2.0000      -6.576541      -178.9568
  22   2.0000      -6.574514      -178.9016
  23   2.0000      -6.573941      -178.8860
  24   2.0000      -1.448039       -39.4031
  25   2.0000      -1.420068       -38.6420
  26   2.0000      -1.359059       -36.9819
  27   2.0000      -1.339911       -36.4608
  28   2.0000      -1.239896       -33.7393
  29   2.0000      -1.161716       -31.6119
  30   2.0000      -1.126277       -30.6475
  31   2.0000      -1.049678       -28.5632
  32   2.0000      -1.041725       -28.3468
  33   2.0000      -1.018996       -27.7283
  34   2.0000      -1.005428       -27.3591
  35   2.0000      -0.989818       -26.9343
  36   2.0000      -0.928223       -25.2582
  37   2.0000      -0.886910       -24.1340
  38   2.0000      -0.854469       -23.2513
  39   2.0000      -0.841962       -22.9109
  40   2.0000      -0.837252       -22.7828
  41   2.0000      -0.836633       -22.7660
  42   2.0000      -0.757270       -20.6064
  43   2.0000      -0.738706       -20.1012
  44   2.0000      -0.732343       -19.9281
  45   2.0000      -0.697804       -18.9882
  46   2.0000      -0.688680       -18.7399
  47   2.0000      -0.680256       -18.5107
  48   2.0000      -0.676875       -18.4187
  49   2.0000      -0.667774       -18.1711
  50   2.0000      -0.652952       -17.7677
  51   2.0000      -0.644546       -17.5390
  52   2.0000      -0.640055       -17.4168
  53   2.0000      -0.613992       -16.7076
  54   2.0000      -0.608534       -16.5590
  55   2.0000      -0.604349       -16.4452
  56   2.0000      -0.602164       -16.3857
  57   2.0000      -0.589368       -16.0375
  58   2.0000      -0.578864       -15.7517
  59   2.0000      -0.569308       -15.4916
  60   2.0000      -0.565113       -15.3775
  61   2.0000      -0.561123       -15.2689
  62   2.0000      -0.543990       -14.8027
  63   2.0000      -0.532706       -14.4957
  64   2.0000      -0.523379       -14.2419
  65   2.0000      -0.516120       -14.0443
  66   2.0000      -0.504270       -13.7219
  67   2.0000      -0.502568       -13.6756
  68   2.0000      -0.488792       -13.3007
  69   2.0000      -0.470905       -12.8140
  70   2.0000      -0.452845       -12.3225
  71   2.0000      -0.448614       -12.2074
  72   2.0000      -0.356659        -9.7052
  73   2.0000      -0.352099        -9.5811
  74   2.0000      -0.329566        -8.9680
  75   2.0000      -0.324637        -8.8338
  76   2.0000      -0.318065        -8.6550
  77   0.0000       0.087060         2.3690
  78   0.0000       0.104731         2.8499
  79   0.0000       0.112494         3.0611
  80   0.0000       0.127599         3.4721
  81   0.0000       0.130251         3.5443

MULLIKEN ATOMIC CHARGES
-----------------------
   0 C :   -0.263201
   1 C :    0.011149
   2 O :   -0.312652
   3 C :    0.388212
   4 O :   -0.380451
   5 C :   -0.173111
   6 C :    0.125845
   7 C :   -0.329442
   8 N :   -0.137004
   9 C :    0.206622
  10 S :   -0.441630
  11 N :   -0.213073
  12 C :    0.063777
  13 C :    0.030972
  14 C :   -0.189017
  15 C :   -0.129262
  16 C :   -0.276216
  17 C :    0.311323
  18 O :   -0.359045
  19 C :   -0.276395
  20 H :    0.092377
  21 H :    0.111898
  22 H :    0.086809
  23 H :    0.095475
  24 H :    0.130494
  25 H :    0.124940
  26 H :    0.140834
  27 H :    0.124242
  28 H :    0.196132
  29 H :    0.198325
  30 H :    0.164150
  31 H :    0.165021
  32 H :    0.163296
  33 H :    0.132806
  34 H :    0.241982
  35 H :    0.173818
Sum of atomic charges:   -0.0000000

LOEWDIN ATOMIC CHARGES
----------------------
   0 C :    0.104976
   1 C :   -0.018250
   2 O :    0.312671
   3 C :   -0.418544
   4 O :    0.125428
   5 C :   -0.081994
   6 C :   -0.108438
   7 C :    0.125481
   8 N :    0.400476
   9 C :   -0.455202
  10 S :   -0.038321
  11 N :    0.397247
  12 C :   -0.044094
  13 C :   -0.043005
  14 C :    0.023921
  15 C :    0.046370
  16 C :   -0.000202
  17 C :   -0.194390
  18 O :    0.394218
  19 C :    0.028564
  20 H :   -0.025457
  21 H :   -0.022655
  22 H :   -0.032714
  23 H :   -0.040947
  24 H :   -0.023134
  25 H :   -0.008917
  26 H :   -0.009879
  27 H :   -0.016118
  28 H :   -0.058377
  29 H :   -0.063657
  30 H :   -0.002422
  31 H :   -0.022075
  32 H :   -0.018396
  33 H :   -0.034568
  34 H :   -0.152825
  35 H :   -0.024771

  Mayer bond orders larger than 0.100000
B(  0-C ,  1-C ) :   0.9742 B(  0-C , 20-H ) :   0.9758 B(  0-C , 21-H ) :   0.9790
B(  0-C , 22-H ) :   0.9778 B(  1-C ,  2-O ) :   0.9016 B(  1-C , 23-H ) :   0.9636
B(  1-C , 24-H ) :   0.9745 B(  2-O ,  3-C ) :   1.1806 B(  3-C ,  4-O ) :   2.0964
B(  3-C ,  5-C ) :   0.9255 B(  5-C ,  6-C ) :   1.6947 B(  5-C , 12-C ) :   0.9607
B(  6-C ,  7-C ) :   0.9433 B(  6-C ,  8-N ) :   1.1108 B(  7-C , 25-H ) :   0.9804
B(  7-C , 26-H ) :   0.9730 B(  7-C , 27-H ) :   0.9647 B(  8-N ,  9-C ) :   1.1960
B(  8-N , 28-H ) :   0.9522 B(  9-C , 10-S ) :   1.6107 B(  9-C , 11-N ) :   1.2866
B( 11-N , 12-C ) :   0.9998 B( 11-N , 29-H ) :   0.9487 B( 12-C , 13-C ) :   0.9471
B( 12-C , 30-H ) :   0.9969 B( 13-C , 14-C ) :   1.3857 B( 13-C , 19-C ) :   1.3454
B( 14-C , 15-C ) :   1.3961 B( 14-C , 31-H ) :   0.9624 B( 15-C , 16-C ) :   1.3648
B( 15-C , 32-H ) :   0.9701 B( 16-C , 17-C ) :   1.3280 B( 16-C , 33-H ) :   0.9842
B( 17-C , 18-O ) :   1.1089 B( 17-C , 19-C ) :   1.3719 B( 18-O , 34-H ) :   0.9789
B( 19-C , 35-H ) :   0.9591

MP2 TOTAL ENERGY:    -1274.329527055 Eh
FINAL SINGLE POINT ENERGY     -1274.329527054683

DIPOLE MOMENT
-------------
                                X             Y             Z
Electronic contribution:     11.83716       5.79800       7.85450
Nuclear contribution   :    -13.43139      -6.80793      -8.14224
                        -----------------------------------------
Total Dipole Moment    :     -1.59423      -1.00992      -0.28774
                        -----------------------------------------
Magnitude (a.u.)       :      1.90901
Magnitude (Debye)      :      4.85231

Rotational constants in cm-1:     0.011504     0.009214     0.006831
Rotational constants in MHz :   344.868844   276.217468   204.799727

                             ****ORCA TERMINATED NORMALLY****
TOTAL RUN TIME: 0 days 1 hours 49 minutes 49 seconds 85 msec
