                         Program Version 4.2.0 -  RELEASE  -
|  1> ! ri-mp2 cc-pvtz cc-pvtz/c TightSCF  NoKeepInts
|  2>
|  3> %scf
|  4>   MaxCore 4096
|  5> end
|  6> *xyz  0  1
|  7>     C       15.0651028   13.8414677   16.1816632
|  8>     C       15.3819448   15.2306352   16.7620806
|  9>     O       16.4396484   15.8099139   15.9777685
| 10>     C       17.6946999   15.7813136   16.5078072
| 11>     O       18.2655832   14.7181149   16.6785825
| 12>     C       17.9541965   16.9555768   17.4021747
| 13>     C       17.5226689   18.2126978   17.1327910
| 14>     C       16.7586524   18.6772693   15.9106388
| 15>     N       17.8476014   19.2597689   18.0003494
| 16>     C       18.7062765   19.1548239   19.0634280
| 17>     S       19.1292132   20.4691101   19.9736896
| 18>     N       19.1956164   17.9013723   19.3354864
| 19>     C       18.7527943   16.6587075   18.6741949
| 20>     C       17.9298359   15.8014543   19.6324354
| 21>     C       18.2570268   14.4486952   19.8384302
| 22>     C       17.4891957   13.6488120   20.7011085
| 23>     C       16.3824030   14.2051131   21.3644044
| 24>     C       16.0502631   15.5508609   21.1592024
| 25>     O       14.9751093   16.0884507   21.7882412
| 26>     C       16.8155650   16.3442053   20.2987932
| 27>     H       15.9389206   13.1820164   16.2612614
| 28>     H       14.7848889   13.9172796   15.1237949
| 29>     H       14.2352378   13.3759638   16.7267340
| 30>     H       14.4861042   15.8606942   16.6924138
| 31>     H       15.6635101   15.1474533   17.8213134
| 32>     H       17.1344159   18.1894491   15.0023204
| 33>     H       16.8450093   19.7589271   15.7500361
| 34>     H       15.6927766   18.4354429   16.0037181
| 35>     H       17.5007424   20.1877381   17.8158308
| 36>     H       19.8050539   17.8477059   20.1416765
| 37>     H       19.6506898   16.0930586   18.3854738
| 38>     H       19.1002647   14.0102090   19.3097485
| 39>     H       17.7501509   12.6019163   20.8463084
| 40>     H       15.7853939   13.5898394   22.0294113
| 41>     H       14.6195825   15.4122179   22.3846414
| 42>     H       16.5408610   17.3837249   20.1560472
| 43> *
| 44>
| 45>                          ****END OF INPUT****

CARTESIAN COORDINATES (ANGSTROEM)
---------------------------------
  C     15.065103   13.841468   16.181663
  C     15.381945   15.230635   16.762081
  O     16.439648   15.809914   15.977768
  C     17.694700   15.781314   16.507807
  O     18.265583   14.718115   16.678583
  C     17.954196   16.955577   17.402175
  C     17.522669   18.212698   17.132791
  C     16.758652   18.677269   15.910639
  N     17.847601   19.259769   18.000349
  C     18.706277   19.154824   19.063428
  S     19.129213   20.469110   19.973690
  N     19.195616   17.901372   19.335486
  C     18.752794   16.658707   18.674195
  C     17.929836   15.801454   19.632435
  C     18.257027   14.448695   19.838430
  C     17.489196   13.648812   20.701108
  C     16.382403   14.205113   21.364404
  C     16.050263   15.550861   21.159202
  O     14.975109   16.088451   21.788241
  C     16.815565   16.344205   20.298793
  H     15.938921   13.182016   16.261261
  H     14.784889   13.917280   15.123795
  H     14.235238   13.375964   16.726734
  H     14.486104   15.860694   16.692414
  H     15.663510   15.147453   17.821313
  H     17.134416   18.189449   15.002320
  H     16.845009   19.758927   15.750036
  H     15.692777   18.435443   16.003718
  H     17.500742   20.187738   17.815831
  H     19.805054   17.847706   20.141676
  H     19.650690   16.093059   18.385474
  H     19.100265   14.010209   19.309749
  H     17.750151   12.601916   20.846308
  H     15.785394   13.589839   22.029411
  H     14.619582   15.412218   22.384641
  H     16.540861   17.383725   20.156047

 Total Charge           Charge          ....    0
 Multiplicity           Mult            ....    1
 Number of Electrons    NEL             ....  154
 Basis Dimension        Dim             ....  828

ORBITAL ENERGIES
----------------

  NO   OCC          E(Eh)            E(eV)
   0   2.0000     -91.890027     -2500.4548
   1   2.0000     -20.597225      -560.4790
   2   2.0000     -20.580503      -560.0240
   3   2.0000     -20.557762      -559.4052
   4   2.0000     -15.629787      -425.3081
   5   2.0000     -15.609411      -424.7537
   6   2.0000     -11.395092      -310.0762
   7   2.0000     -11.385492      -309.8150
   8   2.0000     -11.334816      -308.4360
   9   2.0000     -11.313723      -307.8621
  10   2.0000     -11.309705      -307.7527
  11   2.0000     -11.299778      -307.4826
  12   2.0000     -11.261566      -306.4428
  13   2.0000     -11.260158      -306.4045
  14   2.0000     -11.259218      -306.3789
  15   2.0000     -11.253810      -306.2317
  16   2.0000     -11.243475      -305.9505
  17   2.0000     -11.239273      -305.8362
  18   2.0000     -11.236392      -305.7578
  19   2.0000     -11.220675      -305.3301
  20   2.0000      -8.895092      -242.0478
  21   2.0000      -6.576667      -178.9602
  22   2.0000      -6.574660      -178.9056
  23   2.0000      -6.574073      -178.8896
  24   2.0000      -1.452502       -39.5246
  25   2.0000      -1.417052       -38.5599
  26   2.0000      -1.357446       -36.9380
  27   2.0000      -1.340812       -36.4853
  28   2.0000      -1.238992       -33.7147
  29   2.0000      -1.157856       -31.5069
  30   2.0000      -1.122364       -30.5411
  31   2.0000      -1.045568       -28.4514
  32   2.0000      -1.030511       -28.0416
  33   2.0000      -1.015343       -27.6289
  34   2.0000      -1.000320       -27.2201
  35   2.0000      -0.985708       -26.8225
  36   2.0000      -0.924642       -25.1608
  37   2.0000      -0.880230       -23.9523
  38   2.0000      -0.850741       -23.1498
  39   2.0000      -0.840724       -22.8773
  40   2.0000      -0.833853       -22.6903
  41   2.0000      -0.829536       -22.5728
  42   2.0000      -0.752352       -20.4725
  43   2.0000      -0.733448       -19.9581
  44   2.0000      -0.729643       -19.8546
  45   2.0000      -0.695567       -18.9273
  46   2.0000      -0.687533       -18.7087
  47   2.0000      -0.680448       -18.5159
  48   2.0000      -0.673863       -18.3367
  49   2.0000      -0.664519       -18.0825
  50   2.0000      -0.648048       -17.6343
  51   2.0000      -0.645756       -17.5719
  52   2.0000      -0.637586       -17.3496
  53   2.0000      -0.606612       -16.5068
  54   2.0000      -0.604880       -16.4596
  55   2.0000      -0.601143       -16.3579
  56   2.0000      -0.589613       -16.0442
  57   2.0000      -0.586192       -15.9511
  58   2.0000      -0.577711       -15.7203
  59   2.0000      -0.570197       -15.5159
  60   2.0000      -0.563193       -15.3253
  61   2.0000      -0.551663       -15.0115
  62   2.0000      -0.535829       -14.5806
  63   2.0000      -0.523031       -14.2324
  64   2.0000      -0.514207       -13.9923
  65   2.0000      -0.510984       -13.9046
  66   2.0000      -0.503230       -13.6936
  67   2.0000      -0.498557       -13.5664
  68   2.0000      -0.481483       -13.1018
  69   2.0000      -0.466939       -12.7060
  70   2.0000      -0.453396       -12.3375
  71   2.0000      -0.451701       -12.2914
  72   2.0000      -0.355904        -9.6846
  73   2.0000      -0.349351        -9.5063
  74   2.0000      -0.329288        -8.9604
  75   2.0000      -0.321066        -8.7367
  76   2.0000      -0.317126        -8.6294
  77   0.0000       0.069290         1.8855
  78   0.0000       0.103925         2.8279
  79   0.0000       0.118980         3.2376
  80   0.0000       0.131155         3.5689
  81   0.0000       0.134616         3.6631

MULLIKEN ATOMIC CHARGES
-----------------------
   0 C :   -0.261471
   1 C :    0.037272
   2 O :   -0.379361
   3 C :    0.458954
   4 O :   -0.395601
   5 C :   -0.198666
   6 C :    0.132287
   7 C :   -0.279860
   8 N :   -0.123260
   9 C :    0.199590
  10 S :   -0.437571
  11 N :   -0.201169
  12 C :    0.057690
  13 C :    0.022777
  14 C :   -0.156093
  15 C :   -0.136585
  16 C :   -0.277238
  17 C :    0.314364
  18 O :   -0.359241
  19 C :   -0.275808
  20 H :    0.112820
  21 H :    0.093343
  22 H :    0.085493
  23 H :    0.096335
  24 H :    0.103202
  25 H :    0.125728
  26 H :    0.105832
  27 H :    0.123762
  28 H :    0.197409
  29 H :    0.194260
  30 H :    0.156406
  31 H :    0.159932
  32 H :    0.161741
  33 H :    0.131893
  34 H :    0.241099
  35 H :    0.169734
Sum of atomic charges:    0.0000000

LOEWDIN ATOMIC CHARGES
----------------------
   0 C :    0.106728
   1 C :   -0.015457
   2 O :    0.286329
   3 C :   -0.419962
   4 O :    0.134046
   5 C :   -0.095121
   6 C :   -0.073844
   7 C :    0.126972
   8 N :    0.404451
   9 C :   -0.457931
  10 S :   -0.034867
  11 N :    0.397011
  12 C :   -0.045531
  13 C :   -0.042714
  14 C :    0.020982
  15 C :    0.042305
  16 C :   -0.001814
  17 C :   -0.195072
  18 O :    0.393989
  19 C :    0.027288
  20 H :   -0.023121
  21 H :   -0.028082
  22 H :   -0.029839
  23 H :   -0.029665
  24 H :   -0.027019
  25 H :   -0.007079
  26 H :   -0.018987
  27 H :   -0.010199
  28 H :   -0.058434
  29 H :   -0.064027
  30 H :   -0.004238
  31 H :   -0.023978
  32 H :   -0.019790
  33 H :   -0.035200
  34 H :   -0.153652
  35 H :   -0.024476

  Mayer bond orders larger than 0.100000
B(  0-C ,  1-C ) :   0.9854 B(  0-C , 20-H ) :   0.9736 B(  0-C , 21-H ) :   0.9783
B(  0-C , 22-H ) :   0.9758 B(  1-C ,  2-O ) :   0.8827 B(  1-C , 23-H ) :   0.9809
B(  1-C , 24-H ) :   0.9656 B(  2-O ,  3-C ) :   1.0834 B(  3-C ,  4-O ) :   2.0243
B(  3-C ,  5-C ) :   1.0246 B(  5-C ,  6-C ) :   1.6698 B(  5-C , 12-C ) :   0.9592
B(  6-C ,  7-C ) :   0.9515 B(  6-C ,  8-N ) :   1.1384 B(  7-C , 25-H ) :   0.9700
B(  7-C , 26-H ) :   0.9879 B(  7-C , 27-H ) :   0.9637 B(  8-N ,  9-C ) :   1.1829
B(  8-N , 28-H ) :   0.9497 B(  9-C , 10-S ) :   1.6137 B(  9-C , 11-N ) :   1.2987
B( 11-N , 12-C ) :   0.9929 B( 11-N , 29-H ) :   0.9518 B( 12-C , 13-C ) :   0.9430
B( 12-C , 30-H ) :   0.9987 B( 13-C , 14-C ) :   1.3818 B( 13-C , 19-C ) :   1.3637
B( 14-C , 15-C ) :   1.3951 B( 14-C , 31-H ) :   0.9620 B( 15-C , 16-C ) :   1.3640
B( 15-C , 32-H ) :   0.9708 B( 16-C , 17-C ) :   1.3300 B( 16-C , 33-H ) :   0.9844
B( 17-C , 18-O ) :   1.1108 B( 17-C , 19-C ) :   1.3726 B( 18-O , 34-H ) :   0.9796
B( 19-C , 35-H ) :   0.9586

MP2 TOTAL ENERGY:    -1274.322469124 Eh
FINAL SINGLE POINT ENERGY     -1274.322469124152

DIPOLE MOMENT
-------------
                                X             Y             Z
Electronic contribution:     10.72416      10.21646       7.34863
Nuclear contribution   :    -12.11888     -11.27894      -7.78496
                        -----------------------------------------
Total Dipole Moment    :     -1.39472      -1.06249      -0.43633
                        -----------------------------------------
Magnitude (a.u.)       :      1.80679
Magnitude (Debye)      :      4.59250

Rotational constants in cm-1:     0.011970     0.009129     0.006493
Rotational constants in MHz :   358.841847   273.670601   194.664087

                             ****ORCA TERMINATED NORMALLY****
TOTAL RUN TIME: 0 days 1 hours 34 minutes 46 seconds 489 msec
