                         Program Version 4.2.0 -  RELEASE  -
|  1> ! ri-mp2 cc-pvtz cc-pvtz/c TightSCF  NoKeepInts
|  2>
|  3> %scf
|  4>   MaxCore 4096
|  5> end
|  6> *xyz  0  1
|  7>     C       15.0953228   13.9474719   15.7275735
|  8>     C       15.9739463   14.2941799   16.9461784
|  9>     O       17.0516158   15.1648237   16.5480129
| 10>     C       16.8234895   16.5071795   16.4272022
| 11>     O       15.8890180   16.9419561   15.7780021
| 12>     C       17.5738764   17.3166723   17.4514678
| 13>     C       17.4355337   18.6636620   17.5555227
| 14>     C       16.5451908   19.5631294   16.7246047
| 15>     N       18.1974292   19.3775432   18.4854122
| 16>     C       19.2039881   18.8459448   19.2461791
| 17>     S       20.1379788   19.7812521   20.2404622
| 18>     N       19.4049674   17.4940512   19.1351104
| 19>     C       18.5344540   16.5661871   18.3910412
| 20>     C       17.7990320   15.6636575   19.3774971
| 21>     C       18.1905844   14.3211551   19.5382796
| 22>     C       17.5114447   13.4809610   20.4365242
| 23>     C       16.4353197   13.9882652   21.1844311
| 24>     C       16.0492054   15.3272231   21.0345040
| 25>     O       15.0119369   15.8206374   21.7562850
| 26>     C       16.7255589   16.1604464   20.1382558
| 27>     H       14.5317468   14.8211534   15.3788855
| 28>     H       14.3717057   13.1662008   15.9890031
| 29>     H       15.7117127   13.5799032   14.8979563
| 30>     H       15.3691174   14.7577903   17.7374760
| 31>     H       16.3983601   13.3648740   17.3470527
| 32>     H       15.4890418   19.3066498   16.8778351
| 33>     H       16.7594833   19.4387424   15.6554789
| 34>     H       16.6664523   20.6263558   16.9626775
| 35>     H       18.0665067   20.3724212   18.5761256
| 36>     H       20.1329854   17.1263836   19.7339794
| 37>     H       19.1835741   15.9373956   17.7652601
| 38>     H       19.0208593   13.9256340   18.9589633
| 39>     H       17.8210305   12.4435831   20.5530340
| 40>     H       15.9087877   13.3438238   21.8809451
| 41>     H       14.7105572   15.1192375   22.3532814
| 42>     H       16.4151860   17.1954526   20.0434997
| 43> *
| 44>
| 45>                          ****END OF INPUT****

CARTESIAN COORDINATES (ANGSTROEM)
---------------------------------
  C     15.095323   13.947472   15.727574
  C     15.973946   14.294180   16.946178
  O     17.051616   15.164824   16.548013
  C     16.823490   16.507179   16.427202
  O     15.889018   16.941956   15.778002
  C     17.573876   17.316672   17.451468
  C     17.435534   18.663662   17.555523
  C     16.545191   19.563129   16.724605
  N     18.197429   19.377543   18.485412
  C     19.203988   18.845945   19.246179
  S     20.137979   19.781252   20.240462
  N     19.404967   17.494051   19.135110
  C     18.534454   16.566187   18.391041
  C     17.799032   15.663657   19.377497
  C     18.190584   14.321155   19.538280
  C     17.511445   13.480961   20.436524
  C     16.435320   13.988265   21.184431
  C     16.049205   15.327223   21.034504
  O     15.011937   15.820637   21.756285
  C     16.725559   16.160446   20.138256
  H     14.531747   14.821153   15.378885
  H     14.371706   13.166201   15.989003
  H     15.711713   13.579903   14.897956
  H     15.369117   14.757790   17.737476
  H     16.398360   13.364874   17.347053
  H     15.489042   19.306650   16.877835
  H     16.759483   19.438742   15.655479
  H     16.666452   20.626356   16.962678
  H     18.066507   20.372421   18.576126
  H     20.132985   17.126384   19.733979
  H     19.183574   15.937396   17.765260
  H     19.020859   13.925634   18.958963
  H     17.821030   12.443583   20.553034
  H     15.908788   13.343824   21.880945
  H     14.710557   15.119238   22.353281
  H     16.415186   17.195453   20.043500

 Total Charge           Charge          ....    0
 Multiplicity           Mult            ....    1
 Number of Electrons    NEL             ....  154
 Basis Dimension        Dim             ....  828

ORBITAL ENERGIES
----------------

  NO   OCC          E(Eh)            E(eV)
   0   2.0000     -91.889905     -2500.4514
   1   2.0000     -20.600428      -560.5661
   2   2.0000     -20.586458      -560.1860
   3   2.0000     -20.546746      -559.1054
   4   2.0000     -15.630302      -425.3221
   5   2.0000     -15.609264      -424.7497
   6   2.0000     -11.394950      -310.0724
   7   2.0000     -11.384894      -309.7987
   8   2.0000     -11.336882      -308.4922
   9   2.0000     -11.318038      -307.9795
  10   2.0000     -11.310677      -307.7792
  11   2.0000     -11.296304      -307.3881
  12   2.0000     -11.263170      -306.4864
  13   2.0000     -11.259417      -306.3843
  14   2.0000     -11.259251      -306.3798
  15   2.0000     -11.253264      -306.2169
  16   2.0000     -11.246993      -306.0462
  17   2.0000     -11.241842      -305.9061
  18   2.0000     -11.241709      -305.9025
  19   2.0000     -11.215705      -305.1949
  20   2.0000      -8.894961      -242.0442
  21   2.0000      -6.576533      -178.9566
  22   2.0000      -6.574530      -178.9021
  23   2.0000      -6.573941      -178.8860
  24   2.0000      -1.447511       -39.3888
  25   2.0000      -1.420108       -38.6431
  26   2.0000      -1.354117       -36.8474
  27   2.0000      -1.341368       -36.5005
  28   2.0000      -1.239931       -33.7402
  29   2.0000      -1.161019       -31.5929
  30   2.0000      -1.121075       -30.5060
  31   2.0000      -1.045125       -28.4393
  32   2.0000      -1.030921       -28.0528
  33   2.0000      -1.019138       -27.7322
  34   2.0000      -0.996309       -27.1109
  35   2.0000      -0.984787       -26.7974
  36   2.0000      -0.924515       -25.1573
  37   2.0000      -0.885334       -24.0912
  38   2.0000      -0.848940       -23.1008
  39   2.0000      -0.841262       -22.8919
  40   2.0000      -0.837504       -22.7896
  41   2.0000      -0.824558       -22.4374
  42   2.0000      -0.754141       -20.5212
  43   2.0000      -0.734341       -19.9824
  44   2.0000      -0.721210       -19.6251
  45   2.0000      -0.699242       -19.0273
  46   2.0000      -0.690259       -18.7829
  47   2.0000      -0.679994       -18.5036
  48   2.0000      -0.670092       -18.2341
  49   2.0000      -0.657497       -17.8914
  50   2.0000      -0.648669       -17.6512
  51   2.0000      -0.647132       -17.6094
  52   2.0000      -0.635807       -17.3012
  53   2.0000      -0.611015       -16.6266
  54   2.0000      -0.604488       -16.4490
  55   2.0000      -0.600948       -16.3526
  56   2.0000      -0.592268       -16.1164
  57   2.0000      -0.582899       -15.8615
  58   2.0000      -0.576435       -15.6856
  59   2.0000      -0.571380       -15.5481
  60   2.0000      -0.564945       -15.3729
  61   2.0000      -0.539498       -14.6805
  62   2.0000      -0.534815       -14.5530
  63   2.0000      -0.527946       -14.3661
  64   2.0000      -0.516585       -14.0570
  65   2.0000      -0.512630       -13.9494
  66   2.0000      -0.503256       -13.6943
  67   2.0000      -0.497861       -13.5475
  68   2.0000      -0.486302       -13.2330
  69   2.0000      -0.463628       -12.6160
  70   2.0000      -0.455369       -12.3912
  71   2.0000      -0.441517       -12.0143
  72   2.0000      -0.355556        -9.6752
  73   2.0000      -0.353103        -9.6084
  74   2.0000      -0.329733        -8.9725
  75   2.0000      -0.325280        -8.8513
  76   2.0000      -0.317319        -8.6347
  77   0.0000       0.071269         1.9393
  78   0.0000       0.101549         2.7633
  79   0.0000       0.123248         3.3538
  80   0.0000       0.130041         3.5386
  81   0.0000       0.134635         3.6636

MULLIKEN ATOMIC CHARGES
-----------------------
   0 C :   -0.273895
   1 C :    0.030671
   2 O :   -0.382373
   3 C :    0.481576
   4 O :   -0.417341
   5 C :   -0.250558
   6 C :    0.160923
   7 C :   -0.270282
   8 N :   -0.123145
   9 C :    0.214621
  10 S :   -0.439533
  11 N :   -0.206859
  12 C :    0.067440
  13 C :    0.053552
  14 C :   -0.192896
  15 C :   -0.126716
  16 C :   -0.278704
  17 C :    0.316104
  18 O :   -0.356211
  19 C :   -0.266443
  20 H :    0.118145
  21 H :    0.087950
  22 H :    0.092636
  23 H :    0.096465
  24 H :    0.107869
  25 H :    0.131345
  26 H :    0.131049
  27 H :    0.095610
  28 H :    0.197574
  29 H :    0.194704
  30 H :    0.150325
  31 H :    0.149374
  32 H :    0.164451
  33 H :    0.132768
  34 H :    0.241606
  35 H :    0.168199
Sum of atomic charges:   -0.0000000

LOEWDIN ATOMIC CHARGES
----------------------
   0 C :    0.105120
   1 C :   -0.018299
   2 O :    0.289866
   3 C :   -0.415075
   4 O :    0.116432
   5 C :   -0.097374
   6 C :   -0.058427
   7 C :    0.131187
   8 N :    0.406929
   9 C :   -0.456050
  10 S :   -0.034730
  11 N :    0.396132
  12 C :   -0.052529
  13 C :   -0.036888
  14 C :    0.015365
  15 C :    0.040825
  16 C :   -0.002181
  17 C :   -0.190456
  18 O :    0.396240
  19 C :    0.030486
  20 H :   -0.027358
  21 H :   -0.030918
  22 H :   -0.027679
  23 H :   -0.030017
  24 H :   -0.025081
  25 H :   -0.004984
  26 H :   -0.003798
  27 H :   -0.023185
  28 H :   -0.057391
  29 H :   -0.064955
  30 H :   -0.009228
  31 H :   -0.029571
  32 H :   -0.020412
  33 H :   -0.034842
  34 H :   -0.152977
  35 H :   -0.024179

  Mayer bond orders larger than 0.100000
B(  0-C ,  1-C ) :   0.9851 B(  0-C , 20-H ) :   0.9723 B(  0-C , 21-H ) :   0.9779
B(  0-C , 22-H ) :   0.9774 B(  1-C ,  2-O ) :   0.8786 B(  1-C , 23-H ) :   0.9670
B(  1-C , 24-H ) :   0.9789 B(  2-O ,  3-C ) :   1.0973 B(  3-C ,  4-O ) :   1.9878
B(  3-C ,  5-C ) :   1.0751 B(  5-C ,  6-C ) :   1.6475 B(  5-C , 12-C ) :   0.9707
B(  6-C ,  7-C ) :   0.9666 B(  6-C ,  8-N ) :   1.1614 B(  7-C , 25-H ) :   0.9596
B(  7-C , 26-H ) :   0.9605 B(  7-C , 27-H ) :   0.9906 B(  8-N ,  9-C ) :   1.1821
B(  8-N , 28-H ) :   0.9477 B(  9-C , 10-S ) :   1.6063 B(  9-C , 11-N ) :   1.3072
B( 11-N , 12-C ) :   0.9739 B( 11-N , 29-H ) :   0.9520 B( 12-C , 13-C ) :   0.9413
B( 12-C , 30-H ) :   1.0013 B( 13-C , 14-C ) :   1.3422 B( 13-C , 19-C ) :   1.3783
B( 14-C , 15-C ) :   1.3889 B( 14-C , 31-H ) :   0.9764 B( 15-C , 16-C ) :   1.3642
B( 15-C , 32-H ) :   0.9694 B( 16-C , 17-C ) :   1.3297 B( 16-C , 33-H ) :   0.9840
B( 17-C , 18-O ) :   1.1128 B( 17-C , 19-C ) :   1.3693 B( 18-O , 34-H ) :   0.9791
B( 19-C , 35-H ) :   0.9582

MP2 TOTAL ENERGY:    -1274.334945634 Eh
FINAL SINGLE POINT ENERGY     -1274.334945634092

DIPOLE MOMENT
-------------
                                X             Y             Z
Electronic contribution:     10.41355       9.92033       7.64083
Nuclear contribution   :    -11.37435     -11.47506      -7.63433
                        -----------------------------------------
Total Dipole Moment    :     -0.96080      -1.55473       0.00651
                        -----------------------------------------
Magnitude (a.u.)       :      1.82767
Magnitude (Debye)      :      4.64556

Rotational constants in cm-1:     0.012220     0.008748     0.006272
Rotational constants in MHz :   366.333300   262.272409   188.043810

                             ****ORCA TERMINATED NORMALLY****
TOTAL RUN TIME: 0 days 1 hours 43 minutes 13 seconds 225 msec
