                         Program Version 4.2.0 -  RELEASE  -
|  1> ! ri-mp2 cc-pvtz cc-pvtz/c TightSCF  NoKeepInts
|  2>
|  3> %scf
|  4>   MaxCore 4096
|  5> end
|  6> *xyz  0  1
|  7>     C       15.2120928   15.1621276   17.1387077
|  8>     C       16.2542170   14.2322594   16.4811990
|  9>     O       17.6086565   14.7477952   16.4729094
| 10>     C       17.8688049   16.0376940   16.1124257
| 11>     O       17.6035521   16.3859482   14.9759365
| 12>     C       17.8364783   16.9899735   17.2775310
| 13>     C       17.3910403   18.2683784   17.1728522
| 14>     C       16.7071821   18.9136268   15.9863156
| 15>     N       17.6174831   19.1706425   18.2170360
| 16>     C       18.4987880   18.9552035   19.2442264
| 17>     S       18.8901231   20.1414774   20.3278411
| 18>     N       19.0413031   17.6967754   19.3263618
| 19>     C       18.5606589   16.5319877   18.5578093
| 20>     C       17.7367725   15.6201097   19.4655375
| 21>     C       18.0000559   14.2374127   19.5060718
| 22>     C       17.2613799   13.3898140   20.3483849
| 23>     C       16.2554869   13.9286521   21.1678352
| 24>     C       15.9976252   15.3057046   21.1427061
| 25>     O       15.0256704   15.8289135   21.9312839
| 26>     C       16.7329186   16.1468302   20.3015156
| 27>     H       15.4053351   15.2931908   18.2044250
| 28>     H       14.2126683   14.7205951   17.0448728
| 29>     H       15.1803193   16.1442459   16.6539592
| 30>     H       16.2431392   13.2603418   16.9910440
| 31>     H       15.9454731   14.0583778   15.4416778
| 32>     H       17.4214396   19.0594493   15.1657282
| 33>     H       16.2672508   19.8885856   16.2264075
| 34>     H       15.9002002   18.2761240   15.6051431
| 35>     H       17.2395665   20.1028669   18.1592449
| 36>     H       19.6685457   17.5572156   20.1083023
| 37>     H       19.4487002   15.9660497   18.2427487
| 38>     H       18.7760881   13.8152222   18.8726147
| 39>     H       17.4714139   12.3216907   20.3659094
| 40>     H       15.6826520   13.2781672   21.8206782
| 41>     H       14.6704506   15.1094644   22.4745754
| 42>     H       16.5134680   17.2090866   20.3021820
| 43> *
| 44>
| 45>                          ****END OF INPUT****

CARTESIAN COORDINATES (ANGSTROEM)
---------------------------------
  C     15.212093   15.162128   17.138708
  C     16.254217   14.232259   16.481199
  O     17.608656   14.747795   16.472909
  C     17.868805   16.037694   16.112426
  O     17.603552   16.385948   14.975936
  C     17.836478   16.989974   17.277531
  C     17.391040   18.268378   17.172852
  C     16.707182   18.913627   15.986316
  N     17.617483   19.170642   18.217036
  C     18.498788   18.955203   19.244226
  S     18.890123   20.141477   20.327841
  N     19.041303   17.696775   19.326362
  C     18.560659   16.531988   18.557809
  C     17.736773   15.620110   19.465537
  C     18.000056   14.237413   19.506072
  C     17.261380   13.389814   20.348385
  C     16.255487   13.928652   21.167835
  C     15.997625   15.305705   21.142706
  O     15.025670   15.828913   21.931284
  C     16.732919   16.146830   20.301516
  H     15.405335   15.293191   18.204425
  H     14.212668   14.720595   17.044873
  H     15.180319   16.144246   16.653959
  H     16.243139   13.260342   16.991044
  H     15.945473   14.058378   15.441678
  H     17.421440   19.059449   15.165728
  H     16.267251   19.888586   16.226408
  H     15.900200   18.276124   15.605143
  H     17.239566   20.102867   18.159245
  H     19.668546   17.557216   20.108302
  H     19.448700   15.966050   18.242749
  H     18.776088   13.815222   18.872615
  H     17.471414   12.321691   20.365909
  H     15.682652   13.278167   21.820678
  H     14.670451   15.109464   22.474575
  H     16.513468   17.209087   20.302182

 Total Charge           Charge          ....    0
 Multiplicity           Mult            ....    1
 Number of Electrons    NEL             ....  154
 Basis Dimension        Dim             ....  828

ORBITAL ENERGIES
----------------

  NO   OCC          E(Eh)            E(eV)
   0   2.0000     -91.891310     -2500.4897
   1   2.0000     -20.598516      -560.5141
   2   2.0000     -20.577931      -559.9540
   3   2.0000     -20.554658      -559.3207
   4   2.0000     -15.630473      -425.3268
   5   2.0000     -15.609784      -424.7638
   6   2.0000     -11.394723      -310.0662
   7   2.0000     -11.385661      -309.8196
   8   2.0000     -11.335700      -308.4601
   9   2.0000     -11.315946      -307.9225
  10   2.0000     -11.313630      -307.8595
  11   2.0000     -11.301451      -307.5281
  12   2.0000     -11.262432      -306.4664
  13   2.0000     -11.260906      -306.4248
  14   2.0000     -11.257479      -306.3316
  15   2.0000     -11.254947      -306.2627
  16   2.0000     -11.245856      -306.0153
  17   2.0000     -11.240697      -305.8749
  18   2.0000     -11.239732      -305.8486
  19   2.0000     -11.225572      -305.4633
  20   2.0000      -8.896328      -242.0814
  21   2.0000      -6.577894      -178.9936
  22   2.0000      -6.575899      -178.9393
  23   2.0000      -6.575302      -178.9231
  24   2.0000      -1.448093       -39.4046
  25   2.0000      -1.418345       -38.5951
  26   2.0000      -1.350841       -36.7583
  27   2.0000      -1.341850       -36.5136
  28   2.0000      -1.240166       -33.7466
  29   2.0000      -1.159077       -31.5401
  30   2.0000      -1.120763       -30.4975
  31   2.0000      -1.044483       -28.4218
  32   2.0000      -1.032488       -28.0954
  33   2.0000      -1.017735       -27.6940
  34   2.0000      -1.000213       -27.2172
  35   2.0000      -0.987008       -26.8579
  36   2.0000      -0.925048       -25.1718
  37   2.0000      -0.896181       -24.3863
  38   2.0000      -0.848449       -23.0875
  39   2.0000      -0.842223       -22.9181
  40   2.0000      -0.836468       -22.7615
  41   2.0000      -0.818244       -22.2656
  42   2.0000      -0.748707       -20.3734
  43   2.0000      -0.734126       -19.9766
  44   2.0000      -0.723760       -19.6945
  45   2.0000      -0.697534       -18.9809
  46   2.0000      -0.691127       -18.8065
  47   2.0000      -0.675623       -18.3846
  48   2.0000      -0.668737       -18.1973
  49   2.0000      -0.665727       -18.1154
  50   2.0000      -0.651297       -17.7227
  51   2.0000      -0.646125       -17.5820
  52   2.0000      -0.637941       -17.3593
  53   2.0000      -0.618814       -16.8388
  54   2.0000      -0.608329       -16.5535
  55   2.0000      -0.601489       -16.3673
  56   2.0000      -0.600844       -16.3498
  57   2.0000      -0.579450       -15.7676
  58   2.0000      -0.573230       -15.5984
  59   2.0000      -0.564780       -15.3684
  60   2.0000      -0.553246       -15.0546
  61   2.0000      -0.549524       -14.9533
  62   2.0000      -0.540929       -14.7194
  63   2.0000      -0.527605       -14.3569
  64   2.0000      -0.525045       -14.2872
  65   2.0000      -0.515175       -14.0186
  66   2.0000      -0.503397       -13.6981
  67   2.0000      -0.499922       -13.6036
  68   2.0000      -0.476491       -12.9660
  69   2.0000      -0.465007       -12.6535
  70   2.0000      -0.453449       -12.3390
  71   2.0000      -0.445200       -12.1145
  72   2.0000      -0.357926        -9.7397
  73   2.0000      -0.349458        -9.5092
  74   2.0000      -0.330379        -8.9901
  75   2.0000      -0.324392        -8.8272
  76   2.0000      -0.318209        -8.6589
  77   0.0000       0.066520         1.8101
  78   0.0000       0.103555         2.8179
  79   0.0000       0.118512         3.2249
  80   0.0000       0.128873         3.5068
  81   0.0000       0.132117         3.5951

MULLIKEN ATOMIC CHARGES
-----------------------
   0 C :   -0.333138
   1 C :    0.039785
   2 O :   -0.390201
   3 C :    0.461883
   4 O :   -0.390908
   5 C :   -0.222508
   6 C :    0.163046
   7 C :   -0.278007
   8 N :   -0.122991
   9 C :    0.185225
  10 S :   -0.430788
  11 N :   -0.196013
  12 C :    0.034978
  13 C :    0.041376
  14 C :   -0.185302
  15 C :   -0.144547
  16 C :   -0.270284
  17 C :    0.300410
  18 O :   -0.357702
  19 C :   -0.244468
  20 H :    0.123475
  21 H :    0.118215
  22 H :    0.099116
  23 H :    0.114298
  24 H :    0.119288
  25 H :    0.140130
  26 H :    0.094700
  27 H :    0.125197
  28 H :    0.198063
  29 H :    0.191640
  30 H :    0.149264
  31 H :    0.157207
  32 H :    0.164190
  33 H :    0.133028
  34 H :    0.240497
  35 H :    0.171845
Sum of atomic charges:   -0.0000000

LOEWDIN ATOMIC CHARGES
----------------------
   0 C :    0.108139
   1 C :   -0.011497
   2 O :    0.275253
   3 C :   -0.421997
   4 O :    0.131814
   5 C :   -0.094743
   6 C :   -0.063101
   7 C :    0.129384
   8 N :    0.407008
   9 C :   -0.460099
  10 S :   -0.031424
  11 N :    0.396158
  12 C :   -0.051692
  13 C :   -0.040276
  14 C :    0.018303
  15 C :    0.038927
  16 C :   -0.002356
  17 C :   -0.193047
  18 O :    0.396602
  19 C :    0.030685
  20 H :   -0.030861
  21 H :   -0.022252
  22 H :   -0.031395
  23 H :   -0.022611
  24 H :   -0.028221
  25 H :   -0.003150
  26 H :   -0.022496
  27 H :   -0.010819
  28 H :   -0.058008
  29 H :   -0.065113
  30 H :   -0.006323
  31 H :   -0.028039
  32 H :   -0.020441
  33 H :   -0.034937
  34 H :   -0.153548
  35 H :   -0.023829

  Mayer bond orders larger than 0.100000
B(  0-C ,  1-C ) :   0.9617 B(  0-C , 20-H ) :   0.9670 B(  0-C , 21-H ) :   0.9782
B(  0-C , 22-H ) :   0.9727 B(  1-C ,  2-O ) :   0.8780 B(  1-C , 23-H ) :   0.9792
B(  1-C , 24-H ) :   0.9853 B(  2-O ,  3-C ) :   1.1009 B(  3-C ,  4-O ) :   2.0311
B(  3-C ,  5-C ) :   1.0323 B(  5-C ,  6-C ) :   1.6654 B(  5-C , 12-C ) :   0.9685
B(  6-C ,  7-C ) :   0.9668 B(  6-C ,  8-N ) :   1.1331 B(  7-C , 25-H ) :   0.9566
B(  7-C , 26-H ) :   0.9868 B(  7-C , 27-H ) :   0.9676 B(  8-N ,  9-C ) :   1.1793
B(  8-N , 28-H ) :   0.9491 B(  9-C , 10-S ) :   1.6230 B(  9-C , 11-N ) :   1.2929
B( 11-N , 12-C ) :   0.9878 B( 11-N , 29-H ) :   0.9528 B( 12-C , 13-C ) :   0.9361
B( 12-C , 30-H ) :   1.0076 B( 13-C , 14-C ) :   1.3728 B( 13-C , 19-C ) :   1.3599
B( 14-C , 15-C ) :   1.3905 B( 14-C , 31-H ) :   0.9669 B( 15-C , 16-C ) :   1.3621
B( 15-C , 32-H ) :   0.9698 B( 16-C , 17-C ) :   1.3312 B( 16-C , 33-H ) :   0.9840
B( 17-C , 18-O ) :   1.1130 B( 17-C , 19-C ) :   1.3767 B( 18-O , 34-H ) :   0.9798
B( 19-C , 35-H ) :   0.9578

MP2 TOTAL ENERGY:    -1274.315810480 Eh
FINAL SINGLE POINT ENERGY     -1274.315810480205

DIPOLE MOMENT
-------------
                                X             Y             Z
Electronic contribution:     10.00165       7.74785       6.09416
Nuclear contribution   :    -11.16239      -9.36400      -6.12975
                        -----------------------------------------
Total Dipole Moment    :     -1.16075      -1.61615      -0.03558
                        -----------------------------------------
Magnitude (a.u.)       :      1.99011
Magnitude (Debye)      :      5.05846

Rotational constants in cm-1:     0.011642     0.010120     0.006571
Rotational constants in MHz :   349.004695   303.377985   196.990566

                             ****ORCA TERMINATED NORMALLY****
TOTAL RUN TIME: 0 days 1 hours 52 minutes 8 seconds 674 msec
