                         Program Version 4.2.0 -  RELEASE  -
|  1> ! ri-mp2 cc-pvtz cc-pvtz/c TightSCF  NoKeepInts
|  2>
|  3> %scf
|  4>   MaxCore 4096
|  5> end
|  6> *xyz  0  1
|  7>     C       15.1883856   14.3833721   17.2707683
|  8>     C       15.3911817   15.6462032   16.4119114
|  9>     O       16.6669973   15.5535920   15.7434330
| 10>     C       17.8392453   15.6796995   16.4392509
| 11>     O       18.6247750   14.7513721   16.4993844
| 12>     C       17.9460511   16.8721509   17.3429663
| 13>     C       17.4922340   18.1076306   17.0138421
| 14>     C       16.8534547   18.5393206   15.7092867
| 15>     N       17.6878034   19.1774985   17.8912732
| 16>     C       18.4455369   19.1246822   19.0315082
| 17>     S       18.7043345   20.4642257   19.9657281
| 18>     N       18.9783731   17.9028714   19.3583052
| 19>     C       18.6877299   16.6351280   18.6610514
| 20>     C       17.9011762   15.6919471   19.5646108
| 21>     C       18.3283287   14.3642222   19.7489984
| 22>     C       17.5982131   13.4843831   20.5654255
| 23>     C       16.4289451   13.9345315   21.2018571
| 24>     C       15.9978284   15.2550775   21.0172046
| 25>     O       14.8621203   15.6893219   21.6189392
| 26>     C       16.7266422   16.1290860   20.2045086
| 27>     H       15.9654229   14.2904359   18.0371020
| 28>     H       15.2219582   13.4834181   16.6440050
| 29>     H       14.2157527   14.4129547   17.7764385
| 30>     H       14.5917155   15.6996110   15.6616888
| 31>     H       15.3213610   16.5377072   17.0464753
| 32>     H       17.1841226   17.9141774   14.8703683
| 33>     H       17.1248865   19.5702344   15.4489946
| 34>     H       15.7599148   18.4865050   15.7627841
| 35>     H       17.3162093   20.0861669   17.6628879
| 36>     H       19.5140261   17.8873365   20.2170245
| 37>     H       19.6496248   16.1581776   18.4216176
| 38>     H       19.2212844   14.0075845   19.2402822
| 39>     H       17.9361606   12.4575611   20.6948786
| 40>     H       15.8603467   13.2565347   21.8297684
| 41>     H       14.5390043   14.9697498   22.1822756
| 42>     H       16.3758532   17.1475292   20.0771554
| 43> *
| 44>
| 45>                          ****END OF INPUT****

CARTESIAN COORDINATES (ANGSTROEM)
---------------------------------
  C     15.188386   14.383372   17.270768
  C     15.391182   15.646203   16.411911
  O     16.666997   15.553592   15.743433
  C     17.839245   15.679699   16.439251
  O     18.624775   14.751372   16.499384
  C     17.946051   16.872151   17.342966
  C     17.492234   18.107631   17.013842
  C     16.853455   18.539321   15.709287
  N     17.687803   19.177498   17.891273
  C     18.445537   19.124682   19.031508
  S     18.704334   20.464226   19.965728
  N     18.978373   17.902871   19.358305
  C     18.687730   16.635128   18.661051
  C     17.901176   15.691947   19.564611
  C     18.328329   14.364222   19.748998
  C     17.598213   13.484383   20.565425
  C     16.428945   13.934531   21.201857
  C     15.997828   15.255078   21.017205
  O     14.862120   15.689322   21.618939
  C     16.726642   16.129086   20.204509
  H     15.965423   14.290436   18.037102
  H     15.221958   13.483418   16.644005
  H     14.215753   14.412955   17.776439
  H     14.591715   15.699611   15.661689
  H     15.321361   16.537707   17.046475
  H     17.184123   17.914177   14.870368
  H     17.124886   19.570234   15.448995
  H     15.759915   18.486505   15.762784
  H     17.316209   20.086167   17.662888
  H     19.514026   17.887336   20.217024
  H     19.649625   16.158178   18.421618
  H     19.221284   14.007585   19.240282
  H     17.936161   12.457561   20.694879
  H     15.860347   13.256535   21.829768
  H     14.539004   14.969750   22.182276
  H     16.375853   17.147529   20.077155

 Total Charge           Charge          ....    0
 Multiplicity           Mult            ....    1
 Number of Electrons    NEL             ....  154
 Basis Dimension        Dim             ....  828

ORBITAL ENERGIES
----------------

  NO   OCC          E(Eh)            E(eV)
   0   2.0000     -91.891129     -2500.4847
   1   2.0000     -20.599081      -560.5295
   2   2.0000     -20.591626      -560.3266
   3   2.0000     -20.552363      -559.2582
   4   2.0000     -15.630617      -425.3307
   5   2.0000     -15.610854      -424.7929
   6   2.0000     -11.396296      -310.1090
   7   2.0000     -11.386953      -309.8547
   8   2.0000     -11.336914      -308.4931
   9   2.0000     -11.315655      -307.9146
  10   2.0000     -11.311269      -307.7953
  11   2.0000     -11.305618      -307.6415
  12   2.0000     -11.265708      -306.5555
  13   2.0000     -11.264172      -306.5137
  14   2.0000     -11.261206      -306.4330
  15   2.0000     -11.255773      -306.2852
  16   2.0000     -11.245266      -305.9992
  17   2.0000     -11.241164      -305.8876
  18   2.0000     -11.238163      -305.8060
  19   2.0000     -11.223743      -305.4136
  20   2.0000      -8.896207      -242.0781
  21   2.0000      -6.577785      -178.9906
  22   2.0000      -6.575771      -178.9358
  23   2.0000      -6.575187      -178.9199
  24   2.0000      -1.447682       -39.3934
  25   2.0000      -1.418836       -38.6085
  26   2.0000      -1.358713       -36.9725
  27   2.0000      -1.342556       -36.5328
  28   2.0000      -1.240880       -33.7661
  29   2.0000      -1.160119       -31.5684
  30   2.0000      -1.124474       -30.5985
  31   2.0000      -1.047467       -28.5030
  32   2.0000      -1.033145       -28.1133
  33   2.0000      -1.017525       -27.6883
  34   2.0000      -1.004479       -27.3333
  35   2.0000      -0.988980       -26.9115
  36   2.0000      -0.927250       -25.2318
  37   2.0000      -0.888465       -24.1764
  38   2.0000      -0.854507       -23.2523
  39   2.0000      -0.842064       -22.9137
  40   2.0000      -0.835876       -22.7453
  41   2.0000      -0.831743       -22.6329
  42   2.0000      -0.747328       -20.3358
  43   2.0000      -0.737136       -20.0585
  44   2.0000      -0.730454       -19.8767
  45   2.0000      -0.697184       -18.9713
  46   2.0000      -0.687604       -18.7107
  47   2.0000      -0.680553       -18.5188
  48   2.0000      -0.677159       -18.4264
  49   2.0000      -0.662456       -18.0263
  50   2.0000      -0.655177       -17.8283
  51   2.0000      -0.649025       -17.6609
  52   2.0000      -0.639829       -17.4106
  53   2.0000      -0.616409       -16.7733
  54   2.0000      -0.608347       -16.5540
  55   2.0000      -0.605820       -16.4852
  56   2.0000      -0.601354       -16.3637
  57   2.0000      -0.582922       -15.8621
  58   2.0000      -0.576848       -15.6968
  59   2.0000      -0.568244       -15.4627
  60   2.0000      -0.558262       -15.1911
  61   2.0000      -0.551987       -15.0203
  62   2.0000      -0.543258       -14.7828
  63   2.0000      -0.529837       -14.4176
  64   2.0000      -0.521156       -14.1814
  65   2.0000      -0.513319       -13.9681
  66   2.0000      -0.501953       -13.6588
  67   2.0000      -0.494166       -13.4469
  68   2.0000      -0.486350       -13.2343
  69   2.0000      -0.469338       -12.7713
  70   2.0000      -0.459386       -12.5005
  71   2.0000      -0.447872       -12.1872
  72   2.0000      -0.358430        -9.7534
  73   2.0000      -0.351572        -9.5668
  74   2.0000      -0.330514        -8.9937
  75   2.0000      -0.323444        -8.8014
  76   2.0000      -0.319236        -8.6868
  77   0.0000       0.073273         1.9939
  78   0.0000       0.103440         2.8148
  79   0.0000       0.116853         3.1797
  80   0.0000       0.128819         3.5053
  81   0.0000       0.136613         3.7174

MULLIKEN ATOMIC CHARGES
-----------------------
   0 C :   -0.277197
   1 C :    0.012826
   2 O :   -0.351465
   3 C :    0.438043
   4 O :   -0.383971
   5 C :   -0.226213
   6 C :    0.151242
   7 C :   -0.309254
   8 N :   -0.128836
   9 C :    0.199467
  10 S :   -0.437808
  11 N :   -0.202135
  12 C :    0.060192
  13 C :    0.008322
  14 C :   -0.166683
  15 C :   -0.132443
  16 C :   -0.274290
  17 C :    0.308664
  18 O :   -0.360112
  19 C :   -0.256738
  20 H :    0.107057
  21 H :    0.111603
  22 H :    0.093994
  23 H :    0.121209
  24 H :    0.089192
  25 H :    0.140773
  26 H :    0.121235
  27 H :    0.120810
  28 H :    0.197628
  29 H :    0.195447
  30 H :    0.159698
  31 H :    0.162277
  32 H :    0.162260
  33 H :    0.132084
  34 H :    0.241632
  35 H :    0.171491
Sum of atomic charges:    0.0000000

LOEWDIN ATOMIC CHARGES
----------------------
   0 C :    0.110569
   1 C :   -0.023845
   2 O :    0.293118
   3 C :   -0.418160
   4 O :    0.127366
   5 C :   -0.090844
   6 C :   -0.082592
   7 C :    0.127715
   8 N :    0.403681
   9 C :   -0.458526
  10 S :   -0.034719
  11 N :    0.397587
  12 C :   -0.045854
  13 C :   -0.045188
  14 C :    0.021225
  15 C :    0.043808
  16 C :   -0.000268
  17 C :   -0.192782
  18 O :    0.394611
  19 C :    0.027723
  20 H :   -0.025748
  21 H :   -0.023304
  22 H :   -0.026348
  23 H :   -0.023033
  24 H :   -0.040775
  25 H :   -0.006352
  26 H :   -0.014512
  27 H :   -0.015733
  28 H :   -0.057571
  29 H :   -0.063265
  30 H :   -0.003372
  31 H :   -0.022797
  32 H :   -0.019059
  33 H :   -0.034780
  34 H :   -0.153125
  35 H :   -0.024852

  Mayer bond orders larger than 0.100000
B(  0-C ,  1-C ) :   0.9797 B(  0-C , 20-H ) :   0.9674 B(  0-C , 21-H ) :   0.9793
B(  0-C , 22-H ) :   0.9756 B(  1-C ,  2-O ) :   0.8956 B(  1-C , 23-H ) :   0.9799
B(  1-C , 24-H ) :   0.9660 B(  2-O ,  3-C ) :   1.1364 B(  3-C ,  4-O ) :   2.0782
B(  3-C ,  5-C ) :   0.9583 B(  5-C ,  6-C ) :   1.6707 B(  5-C , 12-C ) :   0.9613
B(  6-C ,  7-C ) :   0.9446 B(  6-C ,  8-N ) :   1.1330 B(  7-C , 25-H ) :   0.9705
B(  7-C , 26-H ) :   0.9828 B(  7-C , 27-H ) :   0.9642 B(  8-N ,  9-C ) :   1.1849
B(  8-N , 28-H ) :   0.9502 B(  9-C , 10-S ) :   1.6137 B(  9-C , 11-N ) :   1.2969
B( 11-N , 12-C ) :   0.9974 B( 11-N , 29-H ) :   0.9513 B( 12-C , 13-C ) :   0.9419
B( 12-C , 30-H ) :   0.9974 B( 13-C , 14-C ) :   1.3865 B( 13-C , 19-C ) :   1.3626
B( 14-C , 15-C ) :   1.3920 B( 14-C , 31-H ) :   0.9623 B( 15-C , 16-C ) :   1.3633
B( 15-C , 32-H ) :   0.9712 B( 16-C , 17-C ) :   1.3311 B( 16-C , 33-H ) :   0.9845
B( 17-C , 18-O ) :   1.1092 B( 17-C , 19-C ) :   1.3714 B( 18-O , 34-H ) :   0.9792
B( 19-C , 35-H ) :   0.9574

MP2 TOTAL ENERGY:    -1274.336168373 Eh
FINAL SINGLE POINT ENERGY     -1274.336168372555

DIPOLE MOMENT
-------------
                                X             Y             Z
Electronic contribution:      9.82649       8.20721       5.61054
Nuclear contribution   :    -11.32479      -9.08377      -5.96805
                        -----------------------------------------
Total Dipole Moment    :     -1.49830      -0.87656      -0.35751
                        -----------------------------------------
Magnitude (a.u.)       :      1.77231
Magnitude (Debye)      :      4.50484

Rotational constants in cm-1:     0.012118     0.009410     0.006814
Rotational constants in MHz :   363.298461   282.105950   204.283026

                             ****ORCA TERMINATED NORMALLY****
TOTAL RUN TIME: 0 days 1 hours 49 minutes 29 seconds 403 msec
