                         Program Version 5.0.0 -  RELEASE  -
|  1> ! ri-mp2 cc-pvtz cc-pvtz/c TightSCF NoKeepInts
|  2>
|  3> %scf
|  4>   MaxCore 4096
|  5> end
|  6> *xyz  0  1
|  7>     C       14.9854131   14.1439759   15.8094747
|  8>     C       16.1513773   14.0889522   16.8187345
|  9>     O       17.1583392   15.1036785   16.5902560
| 10>     C       16.8684914   16.4365057   16.4605364
| 11>     O       15.9927187   16.8581542   15.7266114
| 12>     C       17.6094379   17.2847913   17.4598251
| 13>     C       17.4725984   18.6349222   17.5111452
| 14>     C       16.5978321   19.5043115   16.6330244
| 15>     N       18.2150040   19.3814828   18.4309952
| 16>     C       19.1870642   18.8739401   19.2505430
| 17>     S       20.0886598   19.8419459   20.2435009
| 18>     N       19.3801449   17.5173079   19.2027536
| 19>     C       18.5442830   16.5659387   18.4486731
| 20>     C       17.7819577   15.6751982   19.4254459
| 21>     C       18.1698133   14.3354120   19.6155103
| 22>     C       17.4658043   13.5066783   20.5052400
| 23>     C       16.3679017   14.0227537   21.2145659
| 24>     C       15.9846047   15.3589025   21.0347027
| 25>     O       14.9265846   15.8607645   21.7196993
| 26>     C       16.6860008   16.1807191   20.1471992
| 27>     H       14.3143591   14.9854508   16.0212684
| 28>     H       14.3896349   13.2252035   15.8660905
| 29>     H       15.3616537   14.2444254   14.7836163
| 30>     H       15.7460196   14.1945762   17.8338726
| 31>     H       16.6296888   13.1031947   16.7572054
| 32>     H       15.5402370   19.2407317   16.7621526
| 33>     H       16.8444206   19.3554592   15.5740068
| 34>     H       16.7013532   20.5742818   16.8480246
| 35>     H       18.0889970   20.3800126   18.4772633
| 36>     H       20.0797561   17.1688516   19.8453363
| 37>     H       19.2218482   15.9320599   17.8592980
| 38>     H       19.0169934   13.9333789   19.0659914
| 39>     H       17.7729756   12.4715119   20.6451277
| 40>     H       15.8221119   13.3873489   21.9044933
| 41>     H       14.6055721   15.1653832   22.3133964
| 42>     H       16.3773476   17.2137946   20.0284196
| 43> *
| 44>
| 45>                          ****END OF INPUT****

CARTESIAN COORDINATES (ANGSTROEM)
---------------------------------
  C     14.985413   14.143976   15.809475
  C     16.151377   14.088952   16.818735
  O     17.158339   15.103678   16.590256
  C     16.868491   16.436506   16.460536
  O     15.992719   16.858154   15.726611
  C     17.609438   17.284791   17.459825
  C     17.472598   18.634922   17.511145
  C     16.597832   19.504312   16.633024
  N     18.215004   19.381483   18.430995
  C     19.187064   18.873940   19.250543
  S     20.088660   19.841946   20.243501
  N     19.380145   17.517308   19.202754
  C     18.544283   16.565939   18.448673
  C     17.781958   15.675198   19.425446
  C     18.169813   14.335412   19.615510
  C     17.465804   13.506678   20.505240
  C     16.367902   14.022754   21.214566
  C     15.984605   15.358902   21.034703
  O     14.926585   15.860764   21.719699
  C     16.686001   16.180719   20.147199
  H     14.314359   14.985451   16.021268
  H     14.389635   13.225203   15.866091
  H     15.361654   14.244425   14.783616
  H     15.746020   14.194576   17.833873
  H     16.629689   13.103195   16.757205
  H     15.540237   19.240732   16.762153
  H     16.844421   19.355459   15.574007
  H     16.701353   20.574282   16.848025
  H     18.088997   20.380013   18.477263
  H     20.079756   17.168852   19.845336
  H     19.221848   15.932060   17.859298
  H     19.016993   13.933379   19.065991
  H     17.772976   12.471512   20.645128
  H     15.822112   13.387349   21.904493
  H     14.605572   15.165383   22.313396
  H     16.377348   17.213795   20.028420

 Total Charge           Charge          ....    0
 Multiplicity           Mult            ....    1
 Number of Electrons    NEL             ....  154
 Basis Dimension        Dim             ....  828

ORBITAL ENERGIES
----------------

  NO   OCC          E(Eh)            E(eV)
   0   2.0000     -91.889216     -2500.4327
   1   2.0000     -20.600037      -560.5555
   2   2.0000     -20.588822      -560.2503
   3   2.0000     -20.544141      -559.0345
   4   2.0000     -15.629409      -425.2978
   5   2.0000     -15.608613      -424.7319
   6   2.0000     -11.395528      -310.0881
   7   2.0000     -11.384242      -309.7810
   8   2.0000     -11.336075      -308.4703
   9   2.0000     -11.317735      -307.9712
  10   2.0000     -11.309601      -307.7499
  11   2.0000     -11.298708      -307.4535
  12   2.0000     -11.262668      -306.4728
  13   2.0000     -11.258934      -306.3712
  14   2.0000     -11.258176      -306.3505
  15   2.0000     -11.252436      -306.1944
  16   2.0000     -11.246546      -306.0341
  17   2.0000     -11.241552      -305.8982
  18   2.0000     -11.241088      -305.8856
  19   2.0000     -11.217914      -305.2550
  20   2.0000      -8.894281      -242.0257
  21   2.0000      -6.575856      -178.9381
  22   2.0000      -6.573851      -178.8836
  23   2.0000      -6.573264      -178.8676
  24   2.0000      -1.443332       -39.2751
  25   2.0000      -1.419703       -38.6321
  26   2.0000      -1.353521       -36.8312
  27   2.0000      -1.340532       -36.4777
  28   2.0000      -1.239163       -33.7193
  29   2.0000      -1.160521       -31.5794
  30   2.0000      -1.120402       -30.4877
  31   2.0000      -1.044524       -28.4230
  32   2.0000      -1.032175       -28.0869
  33   2.0000      -1.018588       -27.7172
  34   2.0000      -0.995904       -27.0999
  35   2.0000      -0.984195       -26.7813
  36   2.0000      -0.923759       -25.1368
  37   2.0000      -0.890682       -24.2367
  38   2.0000      -0.848238       -23.0817
  39   2.0000      -0.840579       -22.8733
  40   2.0000      -0.837007       -22.7761
  41   2.0000      -0.821880       -22.3645
  42   2.0000      -0.748378       -20.3644
  43   2.0000      -0.733264       -19.9531
  44   2.0000      -0.718394       -19.5485
  45   2.0000      -0.698564       -19.0089
  46   2.0000      -0.689093       -18.7512
  47   2.0000      -0.678193       -18.4546
  48   2.0000      -0.668504       -18.1909
  49   2.0000      -0.660151       -17.9636
  50   2.0000      -0.650516       -17.7014
  51   2.0000      -0.646279       -17.5862
  52   2.0000      -0.636517       -17.3205
  53   2.0000      -0.610324       -16.6078
  54   2.0000      -0.604237       -16.4421
  55   2.0000      -0.600375       -16.3370
  56   2.0000      -0.597619       -16.2620
  57   2.0000      -0.580435       -15.7944
  58   2.0000      -0.574161       -15.6237
  59   2.0000      -0.570821       -15.5328
  60   2.0000      -0.562821       -15.3151
  61   2.0000      -0.539236       -14.6733
  62   2.0000      -0.534382       -14.5413
  63   2.0000      -0.527079       -14.3426
  64   2.0000      -0.521209       -14.1828
  65   2.0000      -0.513970       -13.9858
  66   2.0000      -0.502477       -13.6731
  67   2.0000      -0.496177       -13.5017
  68   2.0000      -0.484231       -13.1766
  69   2.0000      -0.463442       -12.6109
  70   2.0000      -0.453836       -12.3495
  71   2.0000      -0.439722       -11.9654
  72   2.0000      -0.354685        -9.6515
  73   2.0000      -0.352552        -9.5934
  74   2.0000      -0.329152        -8.9567
  75   2.0000      -0.324911        -8.8413
  76   2.0000      -0.316769        -8.6197
  77   0.0000       0.073196         1.9918
  78   0.0000       0.102954         2.8015
  79   0.0000       0.123851         3.3702
  80   0.0000       0.130707         3.5567
  81   0.0000       0.135487         3.6868

MULLIKEN ATOMIC CHARGES
-----------------------
   0 C :   -0.274742
   1 C :    0.036894
   2 O :   -0.385175
   3 C :    0.478853
   4 O :   -0.419090
   5 C :   -0.247839
   6 C :    0.161435
   7 C :   -0.269633
   8 N :   -0.123260
   9 C :    0.214463
  10 S :   -0.440648
  11 N :   -0.207762
  12 C :    0.074784
  13 C :    0.024038
  14 C :   -0.168182
  15 C :   -0.132839
  16 C :   -0.279509
  17 C :    0.310804
  18 O :   -0.355891
  19 C :   -0.253446
  20 H :    0.106827
  21 H :    0.092137
  22 H :    0.104097
  23 H :    0.098799
  24 H :    0.101502
  25 H :    0.130746
  26 H :    0.131796
  27 H :    0.095295
  28 H :    0.197426
  29 H :    0.195049
  30 H :    0.149307
  31 H :    0.150057
  32 H :    0.162186
  33 H :    0.132546
  34 H :    0.241404
  35 H :    0.167572
Sum of atomic charges:   -0.0000000

LOEWDIN ATOMIC CHARGES
----------------------
   0 C :    0.103323
   1 C :   -0.015881
   2 O :    0.288193
   3 C :   -0.412649
   4 O :    0.115411
   5 C :   -0.096995
   6 C :   -0.058676
   7 C :    0.131096
   8 N :    0.406748
   9 C :   -0.456016
  10 S :   -0.035693
  11 N :    0.396192
  12 C :   -0.052480
  13 C :   -0.037774
  14 C :    0.014729
  15 C :    0.040134
  16 C :   -0.002771
  17 C :   -0.190426
  18 O :    0.396266
  19 C :    0.029778
  20 H :   -0.028036
  21 H :   -0.029917
  22 H :   -0.023863
  23 H :   -0.029715
  24 H :   -0.024228
  25 H :   -0.005149
  26 H :   -0.003743
  27 H :   -0.023405
  28 H :   -0.057539
  29 H :   -0.064903
  30 H :   -0.010063
  31 H :   -0.029585
  32 H :   -0.020506
  33 H :   -0.034982
  34 H :   -0.153136
  35 H :   -0.023739

  Mayer bond orders larger than 0.100000
B(  0-C ,  1-C ) :   0.9834 B(  0-C , 20-H ) :   0.9728 B(  0-C , 21-H ) :   0.9757
B(  0-C , 22-H ) :   0.9761 B(  1-C ,  2-O ) :   0.8889 B(  1-C , 23-H ) :   0.9683
B(  1-C , 24-H ) :   0.9814 B(  2-O ,  3-C ) :   1.0986 B(  3-C ,  4-O ) :   1.9964
B(  3-C ,  5-C ) :   1.0760 B(  5-C ,  6-C ) :   1.6497 B(  5-C , 12-C ) :   0.9722
B(  6-C ,  7-C ) :   0.9662 B(  6-C ,  8-N ) :   1.1604 B(  7-C , 25-H ) :   0.9600
B(  7-C , 26-H ) :   0.9601 B(  7-C , 27-H ) :   0.9908 B(  8-N ,  9-C ) :   1.1836
B(  8-N , 28-H ) :   0.9476 B(  9-C , 10-S ) :   1.6051 B(  9-C , 11-N ) :   1.3075
B( 11-N , 12-C ) :   0.9768 B( 11-N , 29-H ) :   0.9517 B( 12-C , 13-C ) :   0.9375
B( 12-C , 30-H ) :   1.0012 B( 13-C , 14-C ) :   1.3553 B( 13-C , 19-C ) :   1.3827
B( 14-C , 15-C ) :   1.3926 B( 14-C , 31-H ) :   0.9738 B( 15-C , 16-C ) :   1.3623
B( 15-C , 32-H ) :   0.9705 B( 16-C , 17-C ) :   1.3301 B( 16-C , 33-H ) :   0.9844
B( 17-C , 18-O ) :   1.1130 B( 17-C , 19-C ) :   1.3704 B( 18-O , 34-H ) :   0.9792
B( 19-C , 35-H ) :   0.9579

MP2 TOTAL ENERGY:    -1274.336172545 Eh
FINAL SINGLE POINT ENERGY     -1274.336172545093

DIPOLE MOMENT
-------------
                                X             Y             Z
Electronic contribution:     10.41683       9.77933       7.76206
Nuclear contribution   :    -11.41155     -11.44680      -7.81948
                        -----------------------------------------
Total Dipole Moment    :     -0.99472      -1.66746      -0.05742
                        -----------------------------------------
Magnitude (a.u.)       :      1.94247
Magnitude (Debye)      :      4.93738

Rotational constants in cm-1:     0.012175     0.008728     0.006257
Rotational constants in MHz :   365.010270   261.664847   187.590682

                             ****ORCA TERMINATED NORMALLY****
TOTAL RUN TIME: 0 days 2 hours 26 minutes 37 seconds 733 msec
