                         Program Version 4.2.0 -  RELEASE  -
|  1> ! ri-mp2 cc-pvtz cc-pvtz/c TightSCF  NoKeepInts
|  2>
|  3> %scf
|  4>   MaxCore 4096
|  5> end
|  6> *xyz  0  1
|  7>     C       15.0727634   13.8496864   15.5398317
|  8>     C       15.2594906   14.9472836   16.6022231
|  9>     O       16.2611942   15.8630061   16.1255464
| 10>     C       17.5209898   15.7599425   16.6386193
| 11>     O       18.0398391   14.6707633   16.8194500
| 12>     C       17.8832486   16.9443539   17.4825581
| 13>     C       17.4956995   18.2153744   17.2082774
| 14>     C       16.6850021   18.6945507   16.0221213
| 15>     N       17.9173234   19.2636239   18.0319524
| 16>     C       18.8244159   19.1405718   19.0516887
| 17>     S       19.3555214   20.4522254   19.9077563
| 18>     N       19.2695935   17.8717185   19.3265381
| 19>     C       18.7400437   16.6380840   18.7144811
| 20>     C       17.9437698   15.8312324   19.7367859
| 21>     C       18.2649233   14.4847880   19.9891964
| 22>     C       17.5260848   13.7340079   20.9188495
| 23>     C       16.4551431   14.3337385   21.6029651
| 24>     C       16.1291626   15.6733029   21.3515434
| 25>     O       15.0900540   16.2529371   22.0037335
| 26>     C       16.8657275   16.4176680   20.4248481
| 27>     H       16.0027313   13.2828595   15.4038360
| 28>     H       14.7895155   14.2872181   14.5746366
| 29>     H       14.2870749   13.1481545   15.8449493
| 30>     H       14.3100058   15.4815307   16.7344477
| 31>     H       15.5427645   14.5081268   17.5697025
| 32>     H       17.0040269   18.1929919   15.0998308
| 33>     H       16.7885285   19.7730625   15.8514242
| 34>     H       15.6194038   18.4789675   16.1693268
| 35>     H       17.6025855   20.2025007   17.8456771
| 36>     H       19.9148533   17.8058359   20.1032829
| 37>     H       19.5970213   16.0322766   18.3860550
| 38>     H       19.0807484   14.0131182   19.4466278
| 39>     H       17.7816769   12.6915518   21.1004255
| 40>     H       15.8809015   13.7568721   22.3202841
| 41>     H       14.7471085   15.6044323   22.6368906
| 42>     H       16.5980633   17.4536416   20.2476373
| 43> *
| 44>
| 45>                          ****END OF INPUT****

CARTESIAN COORDINATES (ANGSTROEM)
---------------------------------
  C     15.072763   13.849686   15.539832
  C     15.259491   14.947284   16.602223
  O     16.261194   15.863006   16.125546
  C     17.520990   15.759942   16.638619
  O     18.039839   14.670763   16.819450
  C     17.883249   16.944354   17.482558
  C     17.495699   18.215374   17.208277
  C     16.685002   18.694551   16.022121
  N     17.917323   19.263624   18.031952
  C     18.824416   19.140572   19.051689
  S     19.355521   20.452225   19.907756
  N     19.269593   17.871719   19.326538
  C     18.740044   16.638084   18.714481
  C     17.943770   15.831232   19.736786
  C     18.264923   14.484788   19.989196
  C     17.526085   13.734008   20.918850
  C     16.455143   14.333738   21.602965
  C     16.129163   15.673303   21.351543
  O     15.090054   16.252937   22.003733
  C     16.865727   16.417668   20.424848
  H     16.002731   13.282859   15.403836
  H     14.789516   14.287218   14.574637
  H     14.287075   13.148155   15.844949
  H     14.310006   15.481531   16.734448
  H     15.542765   14.508127   17.569702
  H     17.004027   18.192992   15.099831
  H     16.788529   19.773062   15.851424
  H     15.619404   18.478967   16.169327
  H     17.602585   20.202501   17.845677
  H     19.914853   17.805836   20.103283
  H     19.597021   16.032277   18.386055
  H     19.080748   14.013118   19.446628
  H     17.781677   12.691552   21.100425
  H     15.880902   13.756872   22.320284
  H     14.747108   15.604432   22.636891
  H     16.598063   17.453642   20.247637

 Total Charge           Charge          ....    0
 Multiplicity           Mult            ....    1
 Number of Electrons    NEL             ....  154
 Basis Dimension        Dim             ....  828

ORBITAL ENERGIES
----------------

  NO   OCC          E(Eh)            E(eV)
   0   2.0000     -91.888578     -2500.4153
   1   2.0000     -20.595104      -560.4213
   2   2.0000     -20.588125      -560.2314
   3   2.0000     -20.554514      -559.3167
   4   2.0000     -15.628202      -425.2650
   5   2.0000     -15.608034      -424.7162
   6   2.0000     -11.395877      -310.0976
   7   2.0000     -11.383998      -309.7743
   8   2.0000     -11.333341      -308.3959
   9   2.0000     -11.311345      -307.7974
  10   2.0000     -11.308270      -307.7137
  11   2.0000     -11.299508      -307.4752
  12   2.0000     -11.259789      -306.3944
  13   2.0000     -11.259754      -306.3935
  14   2.0000     -11.257007      -306.3187
  15   2.0000     -11.251537      -306.1699
  16   2.0000     -11.241170      -305.8878
  17   2.0000     -11.237062      -305.7760
  18   2.0000     -11.234301      -305.7009
  19   2.0000     -11.221977      -305.3655
  20   2.0000      -8.893654      -242.0086
  21   2.0000      -6.575232      -178.9212
  22   2.0000      -6.573223      -178.8665
  23   2.0000      -6.572639      -178.8506
  24   2.0000      -1.453605       -39.5546
  25   2.0000      -1.414868       -38.5005
  26   2.0000      -1.357422       -36.9373
  27   2.0000      -1.339350       -36.4456
  28   2.0000      -1.237589       -33.6765
  29   2.0000      -1.155574       -31.4448
  30   2.0000      -1.121055       -30.5055
  31   2.0000      -1.043971       -28.4079
  32   2.0000      -1.032357       -28.0919
  33   2.0000      -1.012979       -27.5646
  34   2.0000      -0.998461       -27.1695
  35   2.0000      -0.983739       -26.7689
  36   2.0000      -0.922930       -25.1142
  37   2.0000      -0.884140       -24.0587
  38   2.0000      -0.848453       -23.0876
  39   2.0000      -0.838195       -22.8085
  40   2.0000      -0.831582       -22.6285
  41   2.0000      -0.824455       -22.4346
  42   2.0000      -0.753755       -20.5107
  43   2.0000      -0.734231       -19.9794
  44   2.0000      -0.727760       -19.8034
  45   2.0000      -0.693524       -18.8717
  46   2.0000      -0.686275       -18.6745
  47   2.0000      -0.680894       -18.5281
  48   2.0000      -0.672879       -18.3100
  49   2.0000      -0.661915       -18.0116
  50   2.0000      -0.646931       -17.6039
  51   2.0000      -0.641640       -17.4599
  52   2.0000      -0.633063       -17.2265
  53   2.0000      -0.606515       -16.5041
  54   2.0000      -0.602994       -16.4083
  55   2.0000      -0.600395       -16.3376
  56   2.0000      -0.597863       -16.2687
  57   2.0000      -0.584208       -15.8971
  58   2.0000      -0.575879       -15.6705
  59   2.0000      -0.567518       -15.4430
  60   2.0000      -0.562244       -15.2994
  61   2.0000      -0.548484       -14.9250
  62   2.0000      -0.534332       -14.5399
  63   2.0000      -0.520653       -14.1677
  64   2.0000      -0.514079       -13.9888
  65   2.0000      -0.511501       -13.9186
  66   2.0000      -0.503415       -13.6986
  67   2.0000      -0.497504       -13.5378
  68   2.0000      -0.481826       -13.1112
  69   2.0000      -0.464151       -12.6302
  70   2.0000      -0.455988       -12.4081
  71   2.0000      -0.452442       -12.3116
  72   2.0000      -0.353863        -9.6291
  73   2.0000      -0.347322        -9.4511
  74   2.0000      -0.327876        -8.9220
  75   2.0000      -0.318527        -8.6676
  76   2.0000      -0.315456        -8.5840
  77   0.0000       0.072247         1.9659
  78   0.0000       0.106841         2.9073
  79   0.0000       0.120041         3.2665
  80   0.0000       0.133166         3.6236
  81   0.0000       0.137146         3.7319

MULLIKEN ATOMIC CHARGES
-----------------------
   0 C :   -0.270008
   1 C :    0.046252
   2 O :   -0.369675
   3 C :    0.428162
   4 O :   -0.406894
   5 C :   -0.162591
   6 C :    0.136636
   7 C :   -0.280632
   8 N :   -0.123947
   9 C :    0.203042
  10 S :   -0.439865
  11 N :   -0.200802
  12 C :    0.051318
  13 C :    0.043217
  14 C :   -0.163285
  15 C :   -0.134385
  16 C :   -0.280826
  17 C :    0.311061
  18 O :   -0.358266
  19 C :   -0.273060
  20 H :    0.112493
  21 H :    0.090534
  22 H :    0.087313
  23 H :    0.096126
  24 H :    0.104117
  25 H :    0.123467
  26 H :    0.102996
  27 H :    0.126331
  28 H :    0.197103
  29 H :    0.194142
  30 H :    0.154712
  31 H :    0.156114
  32 H :    0.160837
  33 H :    0.130299
  34 H :    0.240595
  35 H :    0.167370
Sum of atomic charges:   -0.0000000

LOEWDIN ATOMIC CHARGES
----------------------
   0 C :    0.104852
   1 C :   -0.014671
   2 O :    0.293891
   3 C :   -0.415930
   4 O :    0.123412
   5 C :   -0.092721
   6 C :   -0.072840
   7 C :    0.126132
   8 N :    0.404156
   9 C :   -0.457642
  10 S :   -0.036447
  11 N :    0.397142
  12 C :   -0.045478
  13 C :   -0.040604
  14 C :    0.020814
  15 C :    0.040709
  16 C :   -0.002387
  17 C :   -0.193545
  18 O :    0.393500
  19 C :    0.028293
  20 H :   -0.023436
  21 H :   -0.029417
  22 H :   -0.029399
  23 H :   -0.028481
  24 H :   -0.025043
  25 H :   -0.008212
  26 H :   -0.019739
  27 H :   -0.009556
  28 H :   -0.058749
  29 H :   -0.064031
  30 H :   -0.004846
  31 H :   -0.024841
  32 H :   -0.020540
  33 H :   -0.035773
  34 H :   -0.154275
  35 H :   -0.024300

  Mayer bond orders larger than 0.100000
B(  0-C ,  1-C ) :   0.9769 B(  0-C , 20-H ) :   0.9750 B(  0-C , 21-H ) :   0.9777
B(  0-C , 22-H ) :   0.9764 B(  1-C ,  2-O ) :   0.8889 B(  1-C , 23-H ) :   0.9821
B(  1-C , 24-H ) :   0.9699 B(  2-O ,  3-C ) :   1.0862 B(  3-C ,  4-O ) :   1.9997
B(  3-C ,  5-C ) :   1.0418 B(  5-C ,  6-C ) :   1.6641 B(  5-C , 12-C ) :   0.9640
B(  6-C ,  7-C ) :   0.9522 B(  6-C ,  8-N ) :   1.1384 B(  7-C , 25-H ) :   0.9701
B(  7-C , 26-H ) :   0.9887 B(  7-C , 27-H ) :   0.9630 B(  8-N ,  9-C ) :   1.1839
B(  8-N , 28-H ) :   0.9497 B(  9-C , 10-S ) :   1.6105 B(  9-C , 11-N ) :   1.3002
B( 11-N , 12-C ) :   0.9927 B( 11-N , 29-H ) :   0.9516 B( 12-C , 13-C ) :   0.9443
B( 12-C , 30-H ) :   0.9985 B( 13-C , 14-C ) :   1.3773 B( 13-C , 19-C ) :   1.3692
B( 14-C , 15-C ) :   1.3945 B( 14-C , 31-H ) :   0.9640 B( 15-C , 16-C ) :   1.3633
B( 15-C , 32-H ) :   0.9710 B( 16-C , 17-C ) :   1.3305 B( 16-C , 33-H ) :   0.9852
B( 17-C , 18-O ) :   1.1096 B( 17-C , 19-C ) :   1.3767 B( 18-O , 34-H ) :   0.9800
B( 19-C , 35-H ) :   0.9578

MP2 TOTAL ENERGY:    -1274.328127656 Eh
FINAL SINGLE POINT ENERGY     -1274.328127656394

DIPOLE MOMENT
-------------
                                X             Y             Z
Electronic contribution:     10.81551      10.53045       8.91799
Nuclear contribution   :    -12.29755     -11.71284      -9.49135
                        -----------------------------------------
Total Dipole Moment    :     -1.48204      -1.18238      -0.57336
                        -----------------------------------------
Magnitude (a.u.)       :      1.98071
Magnitude (Debye)      :      5.03456

Rotational constants in cm-1:     0.011395     0.009008     0.006204
Rotational constants in MHz :   341.627987   270.053349   185.998479

                             ****ORCA TERMINATED NORMALLY****
TOTAL RUN TIME: 0 days 1 hours 34 minutes 6 seconds 454 msec
