                         Program Version 5.0.0 -  RELEASE  -
|  1> ! ri-mp2 cc-pvtz cc-pvtz/c TightSCF NoKeepInts
|  2>
|  3> %scf
|  4>   MaxCore 4096
|  5> end
|  6> *xyz  0  1
|  7>     C       15.3655273   14.6325296   17.2034849
|  8>     C       15.5676950   15.1184603   15.7497238
|  9>     O       16.7959963   15.8572938   15.5453982
| 10>     C       17.8359279   15.8049304   16.4271077
| 11>     O       18.4578607   14.7703011   16.5967338
| 12>     C       17.9055736   16.9538387   17.3930561
| 13>     C       17.3609399   18.1797481   17.1786514
| 14>     C       16.5987623   18.6609520   15.9611673
| 15>     N       17.5512236   19.1974452   18.1193139
| 16>     C       18.4013907   19.1231444   19.1911277
| 17>     S       18.6778131   20.4225939   20.1760115
| 18>     N       19.0096077   17.9122151   19.4051547
| 19>     C       18.6811672   16.6676160   18.6845384
| 20>     C       17.9087582   15.7105010   19.5897753
| 21>     C       18.3182850   14.3707621   19.7220280
| 22>     C       17.6043161   13.4795585   20.5402488
| 23>     C       16.4694476   13.9306200   21.2350263
| 24>     C       16.0571185   15.2636113   21.1063549
| 25>     O       14.9558806   15.7001691   21.7678169
| 26>     C       16.7698568   16.1484288   20.2911978
| 27>     H       16.1470764   13.9246491   17.5077148
| 28>     H       14.4025637   14.1165323   17.2977244
| 29>     H       15.3596665   15.4765940   17.9029783
| 30>     H       15.5785710   14.2368377   15.0954178
| 31>     H       14.7155444   15.7402573   15.4471285
| 32>     H       15.5937956   18.2231906   15.9337638
| 33>     H       17.1180946   18.3769360   15.0371367
| 34>     H       16.4855394   19.7517292   15.9389476
| 35>     H       17.1159803   20.0950332   17.9777574
| 36>     H       19.6108576   17.8745014   20.2182962
| 37>     H       19.6297067   16.1854787   18.4064331
| 38>     H       19.1847028   14.0137668   19.1699863
| 39>     H       17.9286578   12.4440450   20.6269631
| 40>     H       15.9134094   13.2447939   21.8654915
| 41>     H       14.6378957   14.9674292   22.3164856
| 42>     H       16.4317902   17.1755061   20.2078578
| 43> *
| 44>
| 45>                          ****END OF INPUT****

CARTESIAN COORDINATES (ANGSTROEM)
---------------------------------
  C     15.365527   14.632530   17.203485
  C     15.567695   15.118460   15.749724
  O     16.795996   15.857294   15.545398
  C     17.835928   15.804930   16.427108
  O     18.457861   14.770301   16.596734
  C     17.905574   16.953839   17.393056
  C     17.360940   18.179748   17.178651
  C     16.598762   18.660952   15.961167
  N     17.551224   19.197445   18.119314
  C     18.401391   19.123144   19.191128
  S     18.677813   20.422594   20.176012
  N     19.009608   17.912215   19.405155
  C     18.681167   16.667616   18.684538
  C     17.908758   15.710501   19.589775
  C     18.318285   14.370762   19.722028
  C     17.604316   13.479558   20.540249
  C     16.469448   13.930620   21.235026
  C     16.057119   15.263611   21.106355
  O     14.955881   15.700169   21.767817
  C     16.769857   16.148429   20.291198
  H     16.147076   13.924649   17.507715
  H     14.402564   14.116532   17.297724
  H     15.359666   15.476594   17.902978
  H     15.578571   14.236838   15.095418
  H     14.715544   15.740257   15.447128
  H     15.593796   18.223191   15.933764
  H     17.118095   18.376936   15.037137
  H     16.485539   19.751729   15.938948
  H     17.115980   20.095033   17.977757
  H     19.610858   17.874501   20.218296
  H     19.629707   16.185479   18.406433
  H     19.184703   14.013767   19.169986
  H     17.928658   12.444045   20.626963
  H     15.913409   13.244794   21.865492
  H     14.637896   14.967429   22.316486
  H     16.431790   17.175506   20.207858

 Total Charge           Charge          ....    0
 Multiplicity           Mult            ....    1
 Number of Electrons    NEL             ....  154
 Basis Dimension        Dim             ....  828

ORBITAL ENERGIES
----------------

  NO   OCC          E(Eh)            E(eV)
   0   2.0000     -91.890278     -2500.4616
   1   2.0000     -20.595246      -560.4251
   2   2.0000     -20.582949      -560.0905
   3   2.0000     -20.551377      -559.2314
   4   2.0000     -15.630913      -425.3388
   5   2.0000     -15.608704      -424.7344
   6   2.0000     -11.395482      -310.0868
   7   2.0000     -11.385176      -309.8064
   8   2.0000     -11.338413      -308.5339
   9   2.0000     -11.311224      -307.7941
  10   2.0000     -11.307846      -307.7021
  11   2.0000     -11.305844      -307.6476
  12   2.0000     -11.261671      -306.4457
  13   2.0000     -11.261611      -306.4440
  14   2.0000     -11.256834      -306.3140
  15   2.0000     -11.251286      -306.1631
  16   2.0000     -11.241006      -305.8833
  17   2.0000     -11.236652      -305.7649
  18   2.0000     -11.233271      -305.6728
  19   2.0000     -11.226630      -305.4921
  20   2.0000      -8.895327      -242.0542
  21   2.0000      -6.576900      -178.9665
  22   2.0000      -6.574896      -178.9120
  23   2.0000      -6.574306      -178.8960
  24   2.0000      -1.446575       -39.3633
  25   2.0000      -1.415050       -38.5055
  26   2.0000      -1.353990       -36.8439
  27   2.0000      -1.341679       -36.5089
  28   2.0000      -1.239130       -33.7184
  29   2.0000      -1.155398       -31.4400
  30   2.0000      -1.121247       -30.5107
  31   2.0000      -1.043673       -28.3998
  32   2.0000      -1.031998       -28.0821
  33   2.0000      -1.013229       -27.5714
  34   2.0000      -1.000888       -27.2356
  35   2.0000      -0.986543       -26.8452
  36   2.0000      -0.924415       -25.1546
  37   2.0000      -0.896662       -24.3994
  38   2.0000      -0.850417       -23.1410
  39   2.0000      -0.838938       -22.8287
  40   2.0000      -0.831482       -22.6258
  41   2.0000      -0.818998       -22.2861
  42   2.0000      -0.744513       -20.2592
  43   2.0000      -0.730168       -19.8689
  44   2.0000      -0.727416       -19.7940
  45   2.0000      -0.693196       -18.8628
  46   2.0000      -0.687158       -18.6985
  47   2.0000      -0.676523       -18.4091
  48   2.0000      -0.673410       -18.3244
  49   2.0000      -0.661796       -18.0084
  50   2.0000      -0.651816       -17.7368
  51   2.0000      -0.647247       -17.6125
  52   2.0000      -0.635963       -17.3054
  53   2.0000      -0.625329       -17.0161
  54   2.0000      -0.603764       -16.4293
  55   2.0000      -0.602785       -16.4026
  56   2.0000      -0.599141       -16.3035
  57   2.0000      -0.579755       -15.7759
  58   2.0000      -0.575435       -15.6584
  59   2.0000      -0.563899       -15.3445
  60   2.0000      -0.551909       -15.0182
  61   2.0000      -0.545852       -14.8534
  62   2.0000      -0.536524       -14.5995
  63   2.0000      -0.531285       -14.4570
  64   2.0000      -0.519978       -14.1493
  65   2.0000      -0.511692       -13.9238
  66   2.0000      -0.499834       -13.6012
  67   2.0000      -0.494957       -13.4685
  68   2.0000      -0.480697       -13.0804
  69   2.0000      -0.465936       -12.6788
  70   2.0000      -0.454491       -12.3673
  71   2.0000      -0.449633       -12.2351
  72   2.0000      -0.356171        -9.6919
  73   2.0000      -0.346786        -9.4365
  74   2.0000      -0.329348        -8.9620
  75   2.0000      -0.319160        -8.6848
  76   2.0000      -0.316817        -8.6210
  77   0.0000       0.069298         1.8857
  78   0.0000       0.107121         2.9149
  79   0.0000       0.118798         3.2326
  80   0.0000       0.132544         3.6067
  81   0.0000       0.138160         3.7595

MULLIKEN ATOMIC CHARGES
-----------------------
   0 C :   -0.341412
   1 C :    0.050437
   2 O :   -0.391547
   3 C :    0.503247
   4 O :   -0.407488
   5 C :   -0.228333
   6 C :    0.152243
   7 C :   -0.290097
   8 N :   -0.122085
   9 C :    0.193777
  10 S :   -0.435715
  11 N :   -0.200039
  12 C :    0.045394
  13 C :    0.061765
  14 C :   -0.182760
  15 C :   -0.133864
  16 C :   -0.277554
  17 C :    0.321313
  18 O :   -0.360061
  19 C :   -0.295532
  20 H :    0.130659
  21 H :    0.115118
  22 H :    0.103112
  23 H :    0.112803
  24 H :    0.099057
  25 H :    0.118141
  26 H :    0.135303
  27 H :    0.108065
  28 H :    0.197368
  29 H :    0.194017
  30 H :    0.156398
  31 H :    0.162063
  32 H :    0.162325
  33 H :    0.130601
  34 H :    0.240615
  35 H :    0.172663
Sum of atomic charges:    0.0000000

LOEWDIN ATOMIC CHARGES
----------------------
   0 C :    0.106791
   1 C :   -0.012961
   2 O :    0.282812
   3 C :   -0.420971
   4 O :    0.122784
   5 C :   -0.094985
   6 C :   -0.067543
   7 C :    0.126579
   8 N :    0.405403
   9 C :   -0.459678
  10 S :   -0.033751
  11 N :    0.397719
  12 C :   -0.045822
  13 C :   -0.039792
  14 C :    0.022004
  15 C :    0.041261
  16 C :   -0.002274
  17 C :   -0.193655
  18 O :    0.393934
  19 C :    0.028723
  20 H :   -0.021564
  21 H :   -0.023391
  22 H :   -0.031602
  23 H :   -0.026233
  24 H :   -0.030179
  25 H :   -0.011662
  26 H :   -0.005673
  27 H :   -0.019748
  28 H :   -0.058739
  29 H :   -0.063693
  30 H :   -0.003745
  31 H :   -0.024353
  32 H :   -0.020409
  33 H :   -0.035758
  34 H :   -0.154151
  35 H :   -0.025676

  Mayer bond orders larger than 0.100000
B(  0-C ,  1-C ) :   0.9617 B(  0-C , 20-H ) :   0.9654 B(  0-C , 21-H ) :   0.9748
B(  0-C , 22-H ) :   0.9703 B(  1-C ,  2-O ) :   0.8939 B(  1-C , 23-H ) :   0.9854
B(  1-C , 24-H ) :   0.9797 B(  2-O ,  3-C ) :   1.0886 B(  3-C ,  4-O ) :   2.0255
B(  3-C ,  5-C ) :   1.0293 B(  5-C ,  6-C ) :   1.6501 B(  5-C , 12-C ) :   0.9631
B(  6-C ,  7-C ) :   0.9544 B(  6-C ,  8-N ) :   1.1440 B(  7-C , 25-H ) :   0.9670
B(  7-C , 26-H ) :   0.9644 B(  7-C , 27-H ) :   0.9900 B(  8-N ,  9-C ) :   1.1785
B(  8-N , 28-H ) :   0.9487 B(  9-C , 10-S ) :   1.6154 B(  9-C , 11-N ) :   1.3020
B( 11-N , 12-C ) :   0.9884 B( 11-N , 29-H ) :   0.9521 B( 12-C , 13-C ) :   0.9469
B( 12-C , 30-H ) :   0.9996 B( 13-C , 14-C ) :   1.3791 B( 13-C , 19-C ) :   1.3495
B( 14-C , 15-C ) :   1.3936 B( 14-C , 31-H ) :   0.9617 B( 15-C , 16-C ) :   1.3619
B( 15-C , 32-H ) :   0.9705 B( 16-C , 17-C ) :   1.3319 B( 16-C , 33-H ) :   0.9848
B( 17-C , 18-O ) :   1.1101 B( 17-C , 19-C ) :   1.3679 B( 18-O , 34-H ) :   0.9803
B( 19-C , 35-H ) :   0.9591

MP2 TOTAL ENERGY:    -1274.329609002 Eh
FINAL SINGLE POINT ENERGY     -1274.329609002241

DIPOLE MOMENT
-------------
                                X             Y             Z
Electronic contribution:      9.73818       8.74080       6.48359
Nuclear contribution   :    -11.21252      -9.88569      -7.16493
                        -----------------------------------------
Total Dipole Moment    :     -1.47433      -1.14489      -0.68135
                        -----------------------------------------
Magnitude (a.u.)       :      1.98713
Magnitude (Debye)      :      5.05087

Rotational constants in cm-1:     0.011542     0.009728     0.006676
Rotational constants in MHz :   346.023238   291.633684   200.130230

                             ****ORCA TERMINATED NORMALLY****
TOTAL RUN TIME: 0 days 2 hours 9 minutes 0 seconds 242 msec
