                         Program Version 5.0.0 -  RELEASE  -
|  1> ! ri-mp2 cc-pvtz cc-pvtz/c TightSCF NoKeepInts
|  2>
|  3> %scf
|  4>   MaxCore 4096
|  5> end
|  6> *xyz  0  1
|  7>     C       14.5341912   16.1116361   16.5723767
|  8>     C       15.5515641   15.0874410   17.1065554
|  9>     O       16.7240883   15.0134386   16.2656780
| 10>     C       17.8882729   15.7220042   16.4422127
| 11>     O       18.9494528   15.2136457   16.1324738
| 12>     C       17.8517056   16.8553696   17.4095627
| 13>     C       17.3319339   18.0562645   17.0701730
| 14>     C       16.7521974   18.4452906   15.7266178
| 15>     N       17.4217987   19.1302321   17.9577709
| 16>     C       18.1086115   19.1052981   19.1437220
| 17>     S       18.2041036   20.4360199   20.1204397
| 18>     N       18.7177042   17.9210800   19.4804817
| 19>     C       18.6192974   16.6593544   18.7187537
| 20>     C       18.0241635   15.5336620   19.5599449
| 21>     C       18.4879971   14.2159432   19.3913900
| 22>     C       17.9375531   13.1607283   20.1372636
| 23>     C       16.9123451   13.4231773   21.0614011
| 24>     C       16.4440579   14.7327968   21.2309796
| 25>     O       15.4451821   14.9877601   22.1126138
| 26>     C       16.9919025   15.7817496   20.4854029
| 27>     H       14.7371473   17.1135757   16.9614004
| 28>     H       13.5237346   15.8393952   16.9014590
| 29>     H       14.5355261   16.1365843   15.4754791
| 30>     H       15.8003483   15.2932397   18.1525985
| 31>     H       15.0702618   14.1010568   17.0829938
| 32>     H       16.5684772   17.5784693   15.0807942
| 33>     H       17.4467942   19.1023719   15.1877672
| 34>     H       15.8017544   18.9812898   15.8381775
| 35>     H       17.0084216   20.0169537   17.7150474
| 36>     H       19.2084623   17.9305430   20.3658791
| 37>     H       19.6434675   16.3602635   18.4497033
| 38>     H       19.2726348   14.0069390   18.6664927
| 39>     H       18.3044752   12.1455805   19.9938376
| 40>     H       16.4837943   12.6102603   21.6385135
| 41>     H       15.2394859   14.1575417   22.5687343
| 42>     H       16.6040914   16.7850436   20.6293083
| 43> *
| 44>
| 45>                          ****END OF INPUT****

CARTESIAN COORDINATES (ANGSTROEM)
---------------------------------
  C     14.534191   16.111636   16.572377
  C     15.551564   15.087441   17.106555
  O     16.724088   15.013439   16.265678
  C     17.888273   15.722004   16.442213
  O     18.949453   15.213646   16.132474
  C     17.851706   16.855370   17.409563
  C     17.331934   18.056265   17.070173
  C     16.752197   18.445291   15.726618
  N     17.421799   19.130232   17.957771
  C     18.108611   19.105298   19.143722
  S     18.204104   20.436020   20.120440
  N     18.717704   17.921080   19.480482
  C     18.619297   16.659354   18.718754
  C     18.024164   15.533662   19.559945
  C     18.487997   14.215943   19.391390
  C     17.937553   13.160728   20.137264
  C     16.912345   13.423177   21.061401
  C     16.444058   14.732797   21.230980
  O     15.445182   14.987760   22.112614
  C     16.991902   15.781750   20.485403
  H     14.737147   17.113576   16.961400
  H     13.523735   15.839395   16.901459
  H     14.535526   16.136584   15.475479
  H     15.800348   15.293240   18.152598
  H     15.070262   14.101057   17.082994
  H     16.568477   17.578469   15.080794
  H     17.446794   19.102372   15.187767
  H     15.801754   18.981290   15.838177
  H     17.008422   20.016954   17.715047
  H     19.208462   17.930543   20.365879
  H     19.643467   16.360263   18.449703
  H     19.272635   14.006939   18.666493
  H     18.304475   12.145580   19.993838
  H     16.483794   12.610260   21.638513
  H     15.239486   14.157542   22.568734
  H     16.604091   16.785044   20.629308

 Total Charge           Charge          ....    0
 Multiplicity           Mult            ....    1
 Number of Electrons    NEL             ....  154
 Basis Dimension        Dim             ....  828

ORBITAL ENERGIES
----------------

  NO   OCC          E(Eh)            E(eV)
   0   2.0000     -91.890253     -2500.4609
   1   2.0000     -20.601765      -560.6025
   2   2.0000     -20.596815      -560.4678
   3   2.0000     -20.551792      -559.2427
   4   2.0000     -15.626201      -425.2105
   5   2.0000     -15.612475      -424.8371
   6   2.0000     -11.398407      -310.1664
   7   2.0000     -11.387153      -309.8602
   8   2.0000     -11.328199      -308.2560
   9   2.0000     -11.319409      -308.0168
  10   2.0000     -11.317295      -307.9593
  11   2.0000     -11.302242      -307.5496
  12   2.0000     -11.266763      -306.5842
  13   2.0000     -11.266632      -306.5806
  14   2.0000     -11.264717      -306.5285
  15   2.0000     -11.259729      -306.3928
  16   2.0000     -11.248290      -306.0815
  17   2.0000     -11.244112      -305.9679
  18   2.0000     -11.241327      -305.8920
  19   2.0000     -11.235290      -305.7278
  20   2.0000      -8.895368      -242.0553
  21   2.0000      -6.576958      -178.9681
  22   2.0000      -6.574930      -178.9129
  23   2.0000      -6.574356      -178.8973
  24   2.0000      -1.446126       -39.3511
  25   2.0000      -1.421580       -38.6832
  26   2.0000      -1.358227       -36.9592
  27   2.0000      -1.340203       -36.4688
  28   2.0000      -1.240491       -33.7555
  29   2.0000      -1.163419       -31.6582
  30   2.0000      -1.126330       -30.6490
  31   2.0000      -1.050289       -28.5798
  32   2.0000      -1.039719       -28.2922
  33   2.0000      -1.021309       -27.7912
  34   2.0000      -1.005165       -27.3519
  35   2.0000      -0.990582       -26.9551
  36   2.0000      -0.928751       -25.2726
  37   2.0000      -0.893151       -24.3039
  38   2.0000      -0.853246       -23.2180
  39   2.0000      -0.842607       -22.9285
  40   2.0000      -0.838631       -22.8203
  41   2.0000      -0.835529       -22.7359
  42   2.0000      -0.755053       -20.5460
  43   2.0000      -0.735393       -20.0111
  44   2.0000      -0.731834       -19.9142
  45   2.0000      -0.699216       -19.0266
  46   2.0000      -0.690369       -18.7859
  47   2.0000      -0.679928       -18.5018
  48   2.0000      -0.676991       -18.4219
  49   2.0000      -0.665546       -18.1104
  50   2.0000      -0.654842       -17.8191
  51   2.0000      -0.639922       -17.4132
  52   2.0000      -0.634102       -17.2548
  53   2.0000      -0.622171       -16.9301
  54   2.0000      -0.610917       -16.6239
  55   2.0000      -0.608365       -16.5545
  56   2.0000      -0.605127       -16.4664
  57   2.0000      -0.586992       -15.9729
  58   2.0000      -0.579998       -15.7826
  59   2.0000      -0.577287       -15.7088
  60   2.0000      -0.567317       -15.4375
  61   2.0000      -0.559173       -15.2159
  62   2.0000      -0.539027       -14.6677
  63   2.0000      -0.536026       -14.5860
  64   2.0000      -0.523943       -14.2572
  65   2.0000      -0.515694       -14.0328
  66   2.0000      -0.503880       -13.7113
  67   2.0000      -0.496500       -13.5104
  68   2.0000      -0.489535       -13.3209
  69   2.0000      -0.469239       -12.7686
  70   2.0000      -0.453574       -12.3424
  71   2.0000      -0.450119       -12.2484
  72   2.0000      -0.357416        -9.7258
  73   2.0000      -0.353324        -9.6144
  74   2.0000      -0.330021        -8.9803
  75   2.0000      -0.327209        -8.9038
  76   2.0000      -0.319575        -8.6961
  77   0.0000       0.089529         2.4362
  78   0.0000       0.102646         2.7931
  79   0.0000       0.116382         3.1669
  80   0.0000       0.125598         3.4177
  81   0.0000       0.128388         3.4936

MULLIKEN ATOMIC CHARGES
-----------------------
   0 C :   -0.317883
   1 C :    0.034711
   2 O :   -0.325515
   3 C :    0.395954
   4 O :   -0.377072
   5 C :   -0.176482
   6 C :    0.119650
   7 C :   -0.326523
   8 N :   -0.138067
   9 C :    0.208220
  10 S :   -0.441803
  11 N :   -0.228941
  12 C :    0.092204
  13 C :    0.002648
  14 C :   -0.204459
  15 C :   -0.135677
  16 C :   -0.271979
  17 C :    0.315149
  18 O :   -0.355926
  19 C :   -0.264846
  20 H :    0.092769
  21 H :    0.118820
  22 H :    0.108548
  23 H :    0.105347
  24 H :    0.123789
  25 H :    0.121876
  26 H :    0.151163
  27 H :    0.115673
  28 H :    0.196335
  29 H :    0.203178
  30 H :    0.165355
  31 H :    0.172902
  32 H :    0.165495
  33 H :    0.133739
  34 H :    0.241617
  35 H :    0.180031
Sum of atomic charges:    0.0000000

LOEWDIN ATOMIC CHARGES
----------------------
   0 C :    0.103556
   1 C :   -0.015731
   2 O :    0.298357
   3 C :   -0.416746
   4 O :    0.125949
   5 C :   -0.081182
   6 C :   -0.103974
   7 C :    0.124340
   8 N :    0.401961
   9 C :   -0.455353
  10 S :   -0.038088
  11 N :    0.397462
  12 C :   -0.043499
  13 C :   -0.044768
  14 C :    0.020932
  15 C :    0.046517
  16 C :    0.000000
  17 C :   -0.193535
  18 O :    0.396088
  19 C :    0.024421
  20 H :   -0.034136
  21 H :   -0.022181
  22 H :   -0.025749
  23 H :   -0.034208
  24 H :   -0.020172
  25 H :   -0.010137
  26 H :   -0.008320
  27 H :   -0.017678
  28 H :   -0.057877
  29 H :   -0.063999
  30 H :   -0.002435
  31 H :   -0.021188
  32 H :   -0.017542
  33 H :   -0.034192
  34 H :   -0.152543
  35 H :   -0.024350

  Mayer bond orders larger than 0.100000
B(  0-C ,  1-C ) :   0.9561 B(  0-C , 20-H ) :   0.9766 B(  0-C , 21-H ) :   0.9798
B(  0-C , 22-H ) :   0.9747 B(  1-C ,  2-O ) :   0.8958 B(  1-C , 23-H ) :   0.9607
B(  1-C , 24-H ) :   0.9877 B(  2-O ,  3-C ) :   1.1811 B(  3-C ,  4-O ) :   2.0990
B(  3-C ,  5-C ) :   0.9022 B(  5-C ,  6-C ) :   1.7056 B(  5-C , 12-C ) :   0.9475
B(  6-C ,  7-C ) :   0.9529 B(  6-C ,  8-N ) :   1.1018 B(  7-C , 25-H ) :   0.9792
B(  7-C , 26-H ) :   0.9639 B(  7-C , 27-H ) :   0.9701 B(  8-N ,  9-C ) :   1.2017
B(  8-N , 28-H ) :   0.9516 B(  9-C , 10-S ) :   1.6081 B(  9-C , 11-N ) :   1.2857
B( 11-N , 12-C ) :   0.9907 B( 11-N , 29-H ) :   0.9462 B( 12-C , 13-C ) :   0.9548
B( 12-C , 30-H ) :   0.9963 B( 13-C , 14-C ) :   1.3913 B( 13-C , 19-C ) :   1.3363
B( 14-C , 15-C ) :   1.3996 B( 14-C , 31-H ) :   0.9600 B( 15-C , 16-C ) :   1.3615
B( 15-C , 32-H ) :   0.9692 B( 16-C , 17-C ) :   1.3302 B( 16-C , 33-H ) :   0.9840
B( 17-C , 18-O ) :   1.1106 B( 17-C , 19-C ) :   1.3658 B( 18-O , 34-H ) :   0.9789
B( 19-C , 35-H ) :   0.9589

MP2 TOTAL ENERGY:    -1274.328005927 Eh
FINAL SINGLE POINT ENERGY     -1274.328005927357

DIPOLE MOMENT
-------------
                                X             Y             Z
Electronic contribution:     10.28983       4.99368       7.32162
Nuclear contribution   :    -11.75233      -6.20517      -7.57584
                        -----------------------------------------
Total Dipole Moment    :     -1.46251      -1.21148      -0.25422
                        -----------------------------------------
Magnitude (a.u.)       :      1.91605
Magnitude (Debye)      :      4.87021

Rotational constants in cm-1:     0.011801     0.009271     0.006784
Rotational constants in MHz :   353.773623   277.932194   203.369622

                             ****ORCA TERMINATED NORMALLY****
TOTAL RUN TIME: 0 days 2 hours 17 minutes 56 seconds 268 msec
