                         Program Version 4.2.0 -  RELEASE  -
|  1> ! ri-mp2 cc-pvtz cc-pvtz/c TightSCF  NoKeepInts
|  2>
|  3> %scf
|  4>   MaxCore 4096
|  5> end
|  6> *xyz  0  1
|  7>     C       14.1826812   15.4965444   16.1694036
|  8>     C       15.4724757   15.2824609   16.9804176
|  9>     O       16.5824136   15.3431282   16.0627397
| 10>     C       17.8344783   15.6644021   16.5111918
| 11>     O       18.7376280   14.8522900   16.4286828
| 12>     C       17.9277105   16.8562181   17.4133606
| 13>     C       17.3039669   18.0346528   17.1716878
| 14>     C       16.4640769   18.4055820   15.9690735
| 15>     N       17.4756901   19.1052287   18.0527940
| 16>     C       18.3386370   19.1104789   19.1175060
| 17>     S       18.5416295   20.4504308   20.0647625
| 18>     N       19.0223091   17.9449963   19.3608259
| 19>     C       18.8105201   16.6701984   18.6477240
| 20>     C       18.2024462   15.6194411   19.5719852
| 21>     C       18.7488221   14.3245295   19.6319360
| 22>     C       18.1763032   13.3430496   20.4580308
| 23>     C       17.0445316   13.6568828   21.2295064
| 24>     C       16.4931091   14.9435301   21.1678107
| 25>     O       15.3916287   15.2465860   21.8994430
| 26>     C       17.0647637   15.9185091   20.3443390
| 27>     H       13.3067519   15.4799083   16.8293995
| 28>     H       14.0636214   14.6992032   15.4249495
| 29>     H       14.1979412   16.4565002   15.6415990
| 30>     H       15.5317521   16.0600226   17.7517034
| 31>     H       15.4540304   14.3064112   17.4837728
| 32>     H       16.6088750   17.7131715   15.1310492
| 33>     H       16.7279105   19.4029014   15.5949328
| 34>     H       15.3981109   18.4146677   16.2238711
| 35>     H       16.9909647   19.9730881   17.8855348
| 36>     H       19.6346380   17.9698386   20.1664793
| 37>     H       19.7923872   16.3078713   18.3088050
| 38>     H       19.6116338   14.0725787   19.0190195
| 39>     H       18.6062758   12.3433138   20.4908432
| 40>     H       16.5975882   12.9001783   21.8659057
| 41>     H       15.1870751   14.4750080   22.4494926
| 42>     H       16.6216221   16.9081971   20.3134215
| 43> *
| 44>
| 45>                          ****END OF INPUT****

CARTESIAN COORDINATES (ANGSTROEM)
---------------------------------
  C     14.182681   15.496544   16.169404
  C     15.472476   15.282461   16.980418
  O     16.582414   15.343128   16.062740
  C     17.834478   15.664402   16.511192
  O     18.737628   14.852290   16.428683
  C     17.927710   16.856218   17.413361
  C     17.303967   18.034653   17.171688
  C     16.464077   18.405582   15.969074
  N     17.475690   19.105229   18.052794
  C     18.338637   19.110479   19.117506
  S     18.541629   20.450431   20.064763
  N     19.022309   17.944996   19.360826
  C     18.810520   16.670198   18.647724
  C     18.202446   15.619441   19.571985
  C     18.748822   14.324529   19.631936
  C     18.176303   13.343050   20.458031
  C     17.044532   13.656883   21.229506
  C     16.493109   14.943530   21.167811
  O     15.391629   15.246586   21.899443
  C     17.064764   15.918509   20.344339
  H     13.306752   15.479908   16.829400
  H     14.063621   14.699203   15.424949
  H     14.197941   16.456500   15.641599
  H     15.531752   16.060023   17.751703
  H     15.454030   14.306411   17.483773
  H     16.608875   17.713171   15.131049
  H     16.727911   19.402901   15.594933
  H     15.398111   18.414668   16.223871
  H     16.990965   19.973088   17.885535
  H     19.634638   17.969839   20.166479
  H     19.792387   16.307871   18.308805
  H     19.611634   14.072579   19.019019
  H     18.606276   12.343314   20.490843
  H     16.597588   12.900178   21.865906
  H     15.187075   14.475008   22.449493
  H     16.621622   16.908197   20.313422

 Total Charge           Charge          ....    0
 Multiplicity           Mult            ....    1
 Number of Electrons    NEL             ....  154
 Basis Dimension        Dim             ....  828

ORBITAL ENERGIES
----------------

  NO   OCC          E(Eh)            E(eV)
   0   2.0000     -91.890815     -2500.4762
   1   2.0000     -20.598947      -560.5259
   2   2.0000     -20.592484      -560.3500
   3   2.0000     -20.553086      -559.2779
   4   2.0000     -15.629589      -425.3027
   5   2.0000     -15.610994      -424.7968
   6   2.0000     -11.395690      -310.0925
   7   2.0000     -11.386991      -309.8558
   8   2.0000     -11.334533      -308.4283
   9   2.0000     -11.315340      -307.9061
  10   2.0000     -11.311854      -307.8112
  11   2.0000     -11.303575      -307.5859
  12   2.0000     -11.266038      -306.5645
  13   2.0000     -11.264049      -306.5104
  14   2.0000     -11.261248      -306.4341
  15   2.0000     -11.255108      -306.2670
  16   2.0000     -11.244824      -305.9872
  17   2.0000     -11.241127      -305.8866
  18   2.0000     -11.237725      -305.7940
  19   2.0000     -11.235888      -305.7441
  20   2.0000      -8.895906      -242.0699
  21   2.0000      -6.577486      -178.9825
  22   2.0000      -6.575470      -178.9276
  23   2.0000      -6.574887      -178.9118
  24   2.0000      -1.449088       -39.4317
  25   2.0000      -1.418739       -38.6058
  26   2.0000      -1.359293       -36.9882
  27   2.0000      -1.341910       -36.5152
  28   2.0000      -1.240517       -33.7562
  29   2.0000      -1.159932       -31.5634
  30   2.0000      -1.124705       -30.6048
  31   2.0000      -1.047488       -28.5036
  32   2.0000      -1.040231       -28.3061
  33   2.0000      -1.017290       -27.6819
  34   2.0000      -1.004402       -27.3312
  35   2.0000      -0.989065       -26.9138
  36   2.0000      -0.926899       -25.2222
  37   2.0000      -0.882213       -24.0062
  38   2.0000      -0.853952       -23.2372
  39   2.0000      -0.842902       -22.9365
  40   2.0000      -0.835787       -22.7429
  41   2.0000      -0.834962       -22.7205
  42   2.0000      -0.758238       -20.6327
  43   2.0000      -0.738941       -20.1076
  44   2.0000      -0.731331       -19.9005
  45   2.0000      -0.696865       -18.9627
  46   2.0000      -0.687787       -18.7156
  47   2.0000      -0.683270       -18.5927
  48   2.0000      -0.676332       -18.4039
  49   2.0000      -0.661237       -17.9932
  50   2.0000      -0.652413       -17.7531
  51   2.0000      -0.642272       -17.4771
  52   2.0000      -0.638082       -17.3631
  53   2.0000      -0.621031       -16.8991
  54   2.0000      -0.608001       -16.5445
  55   2.0000      -0.607452       -16.5296
  56   2.0000      -0.602549       -16.3962
  57   2.0000      -0.584446       -15.9036
  58   2.0000      -0.577179       -15.7059
  59   2.0000      -0.568135       -15.4597
  60   2.0000      -0.561620       -15.2825
  61   2.0000      -0.554853       -15.0983
  62   2.0000      -0.541676       -14.7398
  63   2.0000      -0.530481       -14.4351
  64   2.0000      -0.523970       -14.2579
  65   2.0000      -0.515784       -14.0352
  66   2.0000      -0.502234       -13.6665
  67   2.0000      -0.497280       -13.5317
  68   2.0000      -0.487444       -13.2640
  69   2.0000      -0.468520       -12.7491
  70   2.0000      -0.462162       -12.5761
  71   2.0000      -0.450389       -12.2557
  72   2.0000      -0.357680        -9.7330
  73   2.0000      -0.350923        -9.5491
  74   2.0000      -0.330245        -8.9864
  75   2.0000      -0.322863        -8.7856
  76   2.0000      -0.318963        -8.6794
  77   0.0000       0.075838         2.0637
  78   0.0000       0.104211         2.8357
  79   0.0000       0.116827         3.1790
  80   0.0000       0.130105         3.5403
  81   0.0000       0.134648         3.6640

MULLIKEN ATOMIC CHARGES
-----------------------
   0 C :   -0.270214
   1 C :    0.011679
   2 O :   -0.344817
   3 C :    0.443569
   4 O :   -0.380655
   5 C :   -0.226744
   6 C :    0.151410
   7 C :   -0.332179
   8 N :   -0.130760
   9 C :    0.198868
  10 S :   -0.438427
  11 N :   -0.204813
  12 C :    0.060850
  13 C :    0.042976
  14 C :   -0.180152
  15 C :   -0.130786
  16 C :   -0.279076
  17 C :    0.317077
  18 O :   -0.358313
  19 C :   -0.297051
  20 H :    0.096156
  21 H :    0.109495
  22 H :    0.091908
  23 H :    0.098996
  24 H :    0.124526
  25 H :    0.139908
  26 H :    0.135074
  27 H :    0.121280
  28 H :    0.197640
  29 H :    0.195954
  30 H :    0.161372
  31 H :    0.164110
  32 H :    0.162820
  33 H :    0.131735
  34 H :    0.241735
  35 H :    0.174850
Sum of atomic charges:    0.0000000

LOEWDIN ATOMIC CHARGES
----------------------
   0 C :    0.108803
   1 C :   -0.018092
   2 O :    0.295373
   3 C :   -0.416992
   4 O :    0.130525
   5 C :   -0.089797
   6 C :   -0.087917
   7 C :    0.126573
   8 N :    0.403368
   9 C :   -0.457705
  10 S :   -0.035416
  11 N :    0.397239
  12 C :   -0.045695
  13 C :   -0.043395
  14 C :    0.022609
  15 C :    0.044217
  16 C :   -0.000818
  17 C :   -0.194683
  18 O :    0.393656
  19 C :    0.027340
  20 H :   -0.023621
  21 H :   -0.023619
  22 H :   -0.032198
  23 H :   -0.039177
  24 H :   -0.025000
  25 H :   -0.008067
  26 H :   -0.012212
  27 H :   -0.016812
  28 H :   -0.057069
  29 H :   -0.063454
  30 H :   -0.003118
  31 H :   -0.022522
  32 H :   -0.019068
  33 H :   -0.034898
  34 H :   -0.153100
  35 H :   -0.025257

  Mayer bond orders larger than 0.100000
B(  0-C ,  1-C ) :   0.9756 B(  0-C , 20-H ) :   0.9759 B(  0-C , 21-H ) :   0.9793
B(  0-C , 22-H ) :   0.9783 B(  1-C ,  2-O ) :   0.8962 B(  1-C , 23-H ) :   0.9624
B(  1-C , 24-H ) :   0.9792 B(  2-O ,  3-C ) :   1.1467 B(  3-C ,  4-O ) :   2.0911
B(  3-C ,  5-C ) :   0.9533 B(  5-C ,  6-C ) :   1.6670 B(  5-C , 12-C ) :   0.9613
B(  6-C ,  7-C ) :   0.9442 B(  6-C ,  8-N ) :   1.1286 B(  7-C , 25-H ) :   0.9739
B(  7-C , 26-H ) :   0.9779 B(  7-C , 27-H ) :   0.9635 B(  8-N ,  9-C ) :   1.1873
B(  8-N , 28-H ) :   0.9512 B(  9-C , 10-S ) :   1.6139 B(  9-C , 11-N ) :   1.2945
B( 11-N , 12-C ) :   0.9981 B( 11-N , 29-H ) :   0.9509 B( 12-C , 13-C ) :   0.9416
B( 12-C , 30-H ) :   0.9982 B( 13-C , 14-C ) :   1.3852 B( 13-C , 19-C ) :   1.3487
B( 14-C , 15-C ) :   1.3956 B( 14-C , 31-H ) :   0.9610 B( 15-C , 16-C ) :   1.3644
B( 15-C , 32-H ) :   0.9703 B( 16-C , 17-C ) :   1.3290 B( 16-C , 33-H ) :   0.9846
B( 17-C , 18-O ) :   1.1113 B( 17-C , 19-C ) :   1.3716 B( 18-O , 34-H ) :   0.9794
B( 19-C , 35-H ) :   0.9572

MP2 TOTAL ENERGY:    -1274.332902710 Eh
FINAL SINGLE POINT ENERGY     -1274.332902709954

DIPOLE MOMENT
-------------
                                X             Y             Z
Electronic contribution:     11.98294       6.25782       7.41723
Nuclear contribution   :    -13.44785      -7.28073      -7.68323
                        -----------------------------------------
Total Dipole Moment    :     -1.46492      -1.02291      -0.26601
                        -----------------------------------------
Magnitude (a.u.)       :      1.80640
Magnitude (Debye)      :      4.59150

Rotational constants in cm-1:     0.011095     0.009377     0.006825
Rotational constants in MHz :   332.606023   281.114037   204.609274

                             ****ORCA TERMINATED NORMALLY****
TOTAL RUN TIME: 0 days 1 hours 49 minutes 9 seconds 455 msec
