                         Program Version 4.2.0 -  RELEASE  -
|  1> ! ri-mp2 cc-pvtz cc-pvtz/c TightSCF  NoKeepInts
|  2>
|  3> %scf
|  4>   MaxCore 4096
|  5> end
|  6> *xyz  0  1
|  7>     C       14.2268692   15.1265033   16.2291125
|  8>     C       15.6825726   14.6556852   16.0737418
|  9>     O       16.4998637   15.8298529   15.9357667
| 10>     C       17.7257637   15.8347953   16.5321668
| 11>     O       18.3880679   14.8145008   16.6275362
| 12>     C       17.9066699   16.9855080   17.4765755
| 13>     C       17.3338581   18.2053590   17.3128721
| 14>     C       16.4535652   18.6678463   16.1702403
| 15>     N       17.6002736   19.2266055   18.2302664
| 16>     C       18.5217867   19.1498955   19.2413560
| 17>     S       18.8592788   20.4454367   20.2125377
| 18>     N       19.1509837   17.9416350   19.4062581
| 19>     C       18.8030549   16.7021457   18.6859679
| 20>     C       18.1371657   15.7045151   19.6299604
| 21>     C       18.6650728   14.4097962   19.7875837
| 22>     C       18.0487550   13.4845522   20.6466582
| 23>     C       16.8930184   13.8557400   21.3546142
| 24>     C       16.3615059   15.1428903   21.1972062
| 25>     O       15.2409149   15.5018466   21.8729836
| 26>     C       16.9771179   16.0615511   20.3414395
| 27>     H       14.1187722   15.7602159   17.1183182
| 28>     H       13.5549360   14.2664377   16.3377155
| 29>     H       13.9099713   15.7016132   15.3502933
| 30>     H       15.9647992   14.0842498   16.9696655
| 31>     H       15.7949311   14.0058273   15.1960579
| 32>     H       16.8561681   18.3344965   15.2055633
| 33>     H       16.3674960   19.7601061   16.1205887
| 34>     H       15.4413254   18.2569305   16.2713956
| 35>     H       17.1490486   20.1213498   18.1256066
| 36>     H       19.8029603   17.9031300   20.1791821
| 37>     H       19.7375439   16.2571479   18.3146075
| 38>     H       19.5479999   14.1142221   19.2260632
| 39>     H       18.4641335   12.4842545   20.7552213
| 40>     H       16.4127535   13.1435054   22.0172271
| 41>     H       14.9969287   14.7584822   22.4446583
| 42>     H       16.5510735   17.0533706   20.2369921
| 43> *
| 44>
| 45>                          ****END OF INPUT****

CARTESIAN COORDINATES (ANGSTROEM)
---------------------------------
  C     14.226869   15.126503   16.229112
  C     15.682573   14.655685   16.073742
  O     16.499864   15.829853   15.935767
  C     17.725764   15.834795   16.532167
  O     18.388068   14.814501   16.627536
  C     17.906670   16.985508   17.476575
  C     17.333858   18.205359   17.312872
  C     16.453565   18.667846   16.170240
  N     17.600274   19.226606   18.230266
  C     18.521787   19.149895   19.241356
  S     18.859279   20.445437   20.212538
  N     19.150984   17.941635   19.406258
  C     18.803055   16.702146   18.685968
  C     18.137166   15.704515   19.629960
  C     18.665073   14.409796   19.787584
  C     18.048755   13.484552   20.646658
  C     16.893018   13.855740   21.354614
  C     16.361506   15.142890   21.197206
  O     15.240915   15.501847   21.872984
  C     16.977118   16.061551   20.341439
  H     14.118772   15.760216   17.118318
  H     13.554936   14.266438   16.337716
  H     13.909971   15.701613   15.350293
  H     15.964799   14.084250   16.969666
  H     15.794931   14.005827   15.196058
  H     16.856168   18.334497   15.205563
  H     16.367496   19.760106   16.120589
  H     15.441325   18.256930   16.271396
  H     17.149049   20.121350   18.125607
  H     19.802960   17.903130   20.179182
  H     19.737544   16.257148   18.314608
  H     19.548000   14.114222   19.226063
  H     18.464133   12.484255   20.755221
  H     16.412754   13.143505   22.017227
  H     14.996929   14.758482   22.444658
  H     16.551074   17.053371   20.236992

 Total Charge           Charge          ....    0
 Multiplicity           Mult            ....    1
 Number of Electrons    NEL             ....  154
 Basis Dimension        Dim             ....  828

ORBITAL ENERGIES
----------------

  NO   OCC          E(Eh)            E(eV)
   0   2.0000     -91.888366     -2500.4096
   1   2.0000     -20.594452      -560.4035
   2   2.0000     -20.593676      -560.3824
   3   2.0000     -20.550608      -559.2105
   4   2.0000     -15.628168      -425.2641
   5   2.0000     -15.607625      -424.7051
   6   2.0000     -11.394521      -310.0607
   7   2.0000     -11.383650      -309.7649
   8   2.0000     -11.333987      -308.4135
   9   2.0000     -11.310458      -307.7732
  10   2.0000     -11.307489      -307.6924
  11   2.0000     -11.299030      -307.4622
  12   2.0000     -11.260071      -306.4021
  13   2.0000     -11.259395      -306.3837
  14   2.0000     -11.256059      -306.2930
  15   2.0000     -11.250547      -306.1429
  16   2.0000     -11.240175      -305.8607
  17   2.0000     -11.236195      -305.7524
  18   2.0000     -11.233298      -305.6736
  19   2.0000     -11.233226      -305.6716
  20   2.0000      -8.893437      -242.0027
  21   2.0000      -6.575016      -178.9153
  22   2.0000      -6.573007      -178.8606
  23   2.0000      -6.572423      -178.8447
  24   2.0000      -1.454200       -39.5708
  25   2.0000      -1.414203       -38.4824
  26   2.0000      -1.356890       -36.9229
  27   2.0000      -1.339291       -36.4440
  28   2.0000      -1.237389       -33.6711
  29   2.0000      -1.154703       -31.4211
  30   2.0000      -1.120641       -30.4942
  31   2.0000      -1.044498       -28.4222
  32   2.0000      -1.036908       -28.2157
  33   2.0000      -1.012098       -27.5406
  34   2.0000      -0.998692       -27.1758
  35   2.0000      -0.984363       -26.7859
  36   2.0000      -0.922410       -25.1000
  37   2.0000      -0.886924       -24.1344
  38   2.0000      -0.847318       -23.0567
  39   2.0000      -0.836879       -22.7726
  40   2.0000      -0.830607       -22.6020
  41   2.0000      -0.820200       -22.3188
  42   2.0000      -0.759749       -20.6738
  43   2.0000      -0.736071       -20.0295
  44   2.0000      -0.726882       -19.7795
  45   2.0000      -0.692883       -18.8543
  46   2.0000      -0.684344       -18.6220
  47   2.0000      -0.681133       -18.5346
  48   2.0000      -0.676638       -18.4123
  49   2.0000      -0.659475       -17.9452
  50   2.0000      -0.651507       -17.7284
  51   2.0000      -0.644397       -17.5349
  52   2.0000      -0.635889       -17.3034
  53   2.0000      -0.603347       -16.4179
  54   2.0000      -0.601924       -16.3792
  55   2.0000      -0.598063       -16.2741
  56   2.0000      -0.597409       -16.2563
  57   2.0000      -0.576503       -15.6874
  58   2.0000      -0.575262       -15.6537
  59   2.0000      -0.567315       -15.4374
  60   2.0000      -0.559273       -15.2186
  61   2.0000      -0.556305       -15.1378
  62   2.0000      -0.542550       -14.7635
  63   2.0000      -0.519921       -14.1478
  64   2.0000      -0.515562       -14.0292
  65   2.0000      -0.511766       -13.9259
  66   2.0000      -0.503638       -13.7047
  67   2.0000      -0.497265       -13.5313
  68   2.0000      -0.482127       -13.1193
  69   2.0000      -0.463161       -12.6032
  70   2.0000      -0.458617       -12.4796
  71   2.0000      -0.456470       -12.4212
  72   2.0000      -0.353873        -9.6294
  73   2.0000      -0.346484        -9.4283
  74   2.0000      -0.327626        -8.9152
  75   2.0000      -0.317548        -8.6409
  76   2.0000      -0.315184        -8.5766
  77   0.0000       0.073918         2.0114
  78   0.0000       0.107399         2.9225
  79   0.0000       0.119183         3.2431
  80   0.0000       0.133828         3.6416
  81   0.0000       0.139623         3.7993

MULLIKEN ATOMIC CHARGES
-----------------------
   0 C :   -0.285290
   1 C :    0.052663
   2 O :   -0.357042
   3 C :    0.432712
   4 O :   -0.408045
   5 C :   -0.177255
   6 C :    0.140709
   7 C :   -0.285700
   8 N :   -0.124861
   9 C :    0.203453
  10 S :   -0.440102
  11 N :   -0.199994
  12 C :    0.050093
  13 C :    0.050950
  14 C :   -0.161511
  15 C :   -0.133227
  16 C :   -0.280936
  17 C :    0.312557
  18 O :   -0.358944
  19 C :   -0.278945
  20 H :    0.098657
  21 H :    0.104617
  22 H :    0.095065
  23 H :    0.097913
  24 H :    0.099412
  25 H :    0.125508
  26 H :    0.105326
  27 H :    0.125444
  28 H :    0.197112
  29 H :    0.194101
  30 H :    0.154114
  31 H :    0.154509
  32 H :    0.160382
  33 H :    0.129534
  34 H :    0.240629
  35 H :    0.166391
Sum of atomic charges:    0.0000000

LOEWDIN ATOMIC CHARGES
----------------------
   0 C :    0.105422
   1 C :   -0.014759
   2 O :    0.299716
   3 C :   -0.417009
   4 O :    0.116706
   5 C :   -0.092889
   6 C :   -0.071738
   7 C :    0.125713
   8 N :    0.404250
   9 C :   -0.457802
  10 S :   -0.036548
  11 N :    0.397324
  12 C :   -0.045707
  13 C :   -0.039721
  14 C :    0.021750
  15 C :    0.041104
  16 C :   -0.002408
  17 C :   -0.193460
  18 O :    0.393103
  19 C :    0.027768
  20 H :   -0.027284
  21 H :   -0.023161
  22 H :   -0.029139
  23 H :   -0.024847
  24 H :   -0.029387
  25 H :   -0.008094
  26 H :   -0.020046
  27 H :   -0.010388
  28 H :   -0.058907
  29 H :   -0.063947
  30 H :   -0.004757
  31 H :   -0.024935
  32 H :   -0.020698
  33 H :   -0.036002
  34 H :   -0.154461
  35 H :   -0.024763

  Mayer bond orders larger than 0.100000
B(  0-C ,  1-C ) :   0.9696 B(  0-C , 20-H ) :   0.9764 B(  0-C , 21-H ) :   0.9785
B(  0-C , 22-H ) :   0.9771 B(  1-C ,  2-O ) :   0.9004 B(  1-C , 23-H ) :   0.9708
B(  1-C , 24-H ) :   0.9840 B(  2-O ,  3-C ) :   1.1173 B(  3-C ,  4-O ) :   2.0163
B(  3-C ,  5-C ) :   1.0345 B(  5-C ,  6-C ) :   1.6615 B(  5-C , 12-C ) :   0.9661
B(  6-C ,  7-C ) :   0.9536 B(  6-C ,  8-N ) :   1.1405 B(  7-C , 25-H ) :   0.9689
B(  7-C , 26-H ) :   0.9893 B(  7-C , 27-H ) :   0.9637 B(  8-N ,  9-C ) :   1.1832
B(  8-N , 28-H ) :   0.9495 B(  9-C , 10-S ) :   1.6100 B(  9-C , 11-N ) :   1.3016
B( 11-N , 12-C ) :   0.9917 B( 11-N , 29-H ) :   0.9518 B( 12-C , 13-C ) :   0.9445
B( 12-C , 30-H ) :   0.9984 B( 13-C , 14-C ) :   1.3763 B( 13-C , 19-C ) :   1.3691
B( 14-C , 15-C ) :   1.3942 B( 14-C , 31-H ) :   0.9646 B( 15-C , 16-C ) :   1.3632
B( 15-C , 32-H ) :   0.9711 B( 16-C , 17-C ) :   1.3310 B( 16-C , 33-H ) :   0.9855
B( 17-C , 18-O ) :   1.1088 B( 17-C , 19-C ) :   1.3761 B( 18-O , 34-H ) :   0.9802
B( 19-C , 35-H ) :   0.9583

MP2 TOTAL ENERGY:    -1274.335135198 Eh
FINAL SINGLE POINT ENERGY     -1274.335135198083

DIPOLE MOMENT
-------------
                                X             Y             Z
Electronic contribution:     11.80891       8.31067       8.16173
Nuclear contribution   :    -13.18740      -9.64330      -8.94057
                        -----------------------------------------
Total Dipole Moment    :     -1.37849      -1.33264      -0.77884
                        -----------------------------------------
Magnitude (a.u.)       :      2.06948
Magnitude (Debye)      :      5.26020

Rotational constants in cm-1:     0.010963     0.009223     0.006488
Rotational constants in MHz :   328.661490   276.505674   194.505568

                             ****ORCA TERMINATED NORMALLY****
TOTAL RUN TIME: 0 days 1 hours 44 minutes 3 seconds 325 msec
