                         Program Version 4.2.0 -  RELEASE  -
|  1> ! ri-mp2 cc-pvtz cc-pvtz/c TightSCF  NoKeepInts
|  2>
|  3> %scf
|  4>   MaxCore 4096
|  5> end
|  6> *xyz  0  1
|  7>     C       14.5448191   16.0797006   16.7623500
|  8>     C       15.6393220   15.0119438   16.9405068
|  9>     O       16.7305831   15.2085141   16.0144857
| 10>     C       17.9384562   15.7375130   16.3938968
| 11>     O       18.9455362   15.0653981   16.2684625
| 12>     C       17.8858168   16.8583147   17.3799988
| 13>     C       17.2934972   18.0407482   17.0917784
| 14>     C       16.6443681   18.4466224   15.7846942
| 15>     N       17.3632161   19.0948381   18.0051521
| 16>     C       18.1152869   19.0850700   19.1508841
| 17>     S       18.2080595   20.4062946   20.1406913
| 18>     N       18.7915715   17.9239736   19.4344127
| 19>     C       18.6741391   16.6617302   18.6770523
| 20>     C       18.0587105   15.5571612   19.5306224
| 21>     C       18.5650442   14.2465744   19.4571244
| 22>     C       17.9909193   13.2126742   20.2150926
| 23>     C       16.8982672   13.4895433   21.0539761
| 24>     C       16.3868875   14.7920383   21.1270469
| 25>     O       15.3229993   15.0600955   21.9248101
| 26>     C       16.9589391   15.8193135   20.3698188
| 27>     H       14.7938200   16.9987826   17.3019693
| 28>     H       13.5955346   15.7130405   17.1719652
| 29>     H       14.3878139   16.3105968   15.7014192
| 30>     H       15.9828269   14.9709776   17.9800990
| 31>     H       15.1902188   14.0354589   16.7171076
| 32>     H       16.5456499   17.6115432   15.0818091
| 33>     H       17.2448122   19.2150915   15.2814342
| 34>     H       15.6411478   18.8587719   15.9476084
| 35>     H       16.8957576   19.9644567   17.8019045
| 36>     H       19.3267555   17.9411138   20.2934702
| 37>     H       19.6914432   16.3461264   18.4014779
| 38>     H       19.4006786   14.0257440   18.7957775
| 39>     H       18.3913657   12.2024701   20.1460235
| 40>     H       16.4510772   12.6930062   21.6396838
| 41>     H       15.1111668   14.2486267   22.4108256
| 42>     H       16.5404922   16.8181315   20.4385680
| 43> *
| 44>
| 45>                          ****END OF INPUT****

CARTESIAN COORDINATES (ANGSTROEM)
---------------------------------
  C     14.544819   16.079701   16.762350
  C     15.639322   15.011944   16.940507
  O     16.730583   15.208514   16.014486
  C     17.938456   15.737513   16.393897
  O     18.945536   15.065398   16.268462
  C     17.885817   16.858315   17.379999
  C     17.293497   18.040748   17.091778
  C     16.644368   18.446622   15.784694
  N     17.363216   19.094838   18.005152
  C     18.115287   19.085070   19.150884
  S     18.208059   20.406295   20.140691
  N     18.791571   17.923974   19.434413
  C     18.674139   16.661730   18.677052
  C     18.058711   15.557161   19.530622
  C     18.565044   14.246574   19.457124
  C     17.990919   13.212674   20.215093
  C     16.898267   13.489543   21.053976
  C     16.386888   14.792038   21.127047
  O     15.322999   15.060095   21.924810
  C     16.958939   15.819313   20.369819
  H     14.793820   16.998783   17.301969
  H     13.595535   15.713040   17.171965
  H     14.387814   16.310597   15.701419
  H     15.982827   14.970978   17.980099
  H     15.190219   14.035459   16.717108
  H     16.545650   17.611543   15.081809
  H     17.244812   19.215091   15.281434
  H     15.641148   18.858772   15.947608
  H     16.895758   19.964457   17.801904
  H     19.326756   17.941114   20.293470
  H     19.691443   16.346126   18.401478
  H     19.400679   14.025744   18.795777
  H     18.391366   12.202470   20.146023
  H     16.451077   12.693006   21.639684
  H     15.111167   14.248627   22.410826
  H     16.540492   16.818131   20.438568

 Total Charge           Charge          ....    0
 Multiplicity           Mult            ....    1
 Number of Electrons    NEL             ....  154
 Basis Dimension        Dim             ....  828

ORBITAL ENERGIES
----------------

  NO   OCC          E(Eh)            E(eV)
   0   2.0000     -91.890926     -2500.4792
   1   2.0000     -20.600934      -560.5799
   2   2.0000     -20.588399      -560.2388
   3   2.0000     -20.554054      -559.3042
   4   2.0000     -15.628270      -425.2669
   5   2.0000     -15.611945      -424.8226
   6   2.0000     -11.396665      -310.1190
   7   2.0000     -11.387390      -309.8666
   8   2.0000     -11.332024      -308.3600
   9   2.0000     -11.318405      -307.9895
  10   2.0000     -11.314845      -307.8926
  11   2.0000     -11.301562      -307.5311
  12   2.0000     -11.264937      -306.5345
  13   2.0000     -11.264684      -306.5276
  14   2.0000     -11.264393      -306.5197
  15   2.0000     -11.258553      -306.3608
  16   2.0000     -11.247643      -306.0639
  17   2.0000     -11.243259      -305.9446
  18   2.0000     -11.240255      -305.8629
  19   2.0000     -11.234036      -305.6937
  20   2.0000      -8.896021      -242.0730
  21   2.0000      -6.577604      -178.9857
  22   2.0000      -6.575584      -178.9307
  23   2.0000      -6.575003      -178.9149
  24   2.0000      -1.446143       -39.3516
  25   2.0000      -1.420769       -38.6611
  26   2.0000      -1.356644       -36.9162
  27   2.0000      -1.341480       -36.5035
  28   2.0000      -1.240870       -33.7658
  29   2.0000      -1.162440       -31.6316
  30   2.0000      -1.125632       -30.6300
  31   2.0000      -1.049225       -28.5509
  32   2.0000      -1.037689       -28.2370
  33   2.0000      -1.020071       -27.7575
  34   2.0000      -1.004612       -27.3369
  35   2.0000      -0.990307       -26.9476
  36   2.0000      -0.928212       -25.2579
  37   2.0000      -0.889041       -24.1920
  38   2.0000      -0.852878       -23.2080
  39   2.0000      -0.842714       -22.9314
  40   2.0000      -0.838085       -22.8054
  41   2.0000      -0.833958       -22.6932
  42   2.0000      -0.755594       -20.5608
  43   2.0000      -0.735736       -20.0204
  44   2.0000      -0.731944       -19.9172
  45   2.0000      -0.698804       -19.0154
  46   2.0000      -0.689393       -18.7593
  47   2.0000      -0.680085       -18.5061
  48   2.0000      -0.676036       -18.3959
  49   2.0000      -0.663405       -18.0522
  50   2.0000      -0.654356       -17.8059
  51   2.0000      -0.641333       -17.4516
  52   2.0000      -0.635076       -17.2813
  53   2.0000      -0.616848       -16.7853
  54   2.0000      -0.609416       -16.5831
  55   2.0000      -0.607885       -16.5414
  56   2.0000      -0.604417       -16.4470
  57   2.0000      -0.585616       -15.9354
  58   2.0000      -0.580795       -15.8042
  59   2.0000      -0.577193       -15.7062
  60   2.0000      -0.565939       -15.4000
  61   2.0000      -0.557313       -15.1652
  62   2.0000      -0.541066       -14.7232
  63   2.0000      -0.530162       -14.4264
  64   2.0000      -0.522947       -14.2301
  65   2.0000      -0.515314       -14.0224
  66   2.0000      -0.503319       -13.6960
  67   2.0000      -0.493539       -13.4299
  68   2.0000      -0.488507       -13.2929
  69   2.0000      -0.467817       -12.7299
  70   2.0000      -0.456717       -12.4279
  71   2.0000      -0.449381       -12.2283
  72   2.0000      -0.358369        -9.7517
  73   2.0000      -0.352907        -9.6031
  74   2.0000      -0.330500        -8.9934
  75   2.0000      -0.326298        -8.8790
  76   2.0000      -0.319940        -8.7060
  77   0.0000       0.081742         2.2243
  78   0.0000       0.101613         2.7650
  79   0.0000       0.117040         3.1848
  80   0.0000       0.127118         3.4590
  81   0.0000       0.129199         3.5157

MULLIKEN ATOMIC CHARGES
-----------------------
   0 C :   -0.308406
   1 C :    0.025623
   2 O :   -0.345829
   3 C :    0.418599
   4 O :   -0.373180
   5 C :   -0.179054
   6 C :    0.106428
   7 C :   -0.327221
   8 N :   -0.130831
   9 C :    0.197825
  10 S :   -0.438800
  11 N :   -0.216343
  12 C :    0.076607
  13 C :    0.003568
  14 C :   -0.191523
  15 C :   -0.137380
  16 C :   -0.272798
  17 C :    0.311452
  18 O :   -0.356831
  19 C :   -0.257890
  20 H :    0.090125
  21 H :    0.120289
  22 H :    0.105635
  23 H :    0.108905
  24 H :    0.124815
  25 H :    0.129083
  26 H :    0.149075
  27 H :    0.117869
  28 H :    0.197477
  29 H :    0.199146
  30 H :    0.165058
  31 H :    0.173112
  32 H :    0.164695
  33 H :    0.133730
  34 H :    0.241561
  35 H :    0.175409
Sum of atomic charges:   -0.0000000

LOEWDIN ATOMIC CHARGES
----------------------
   0 C :    0.104282
   1 C :   -0.013386
   2 O :    0.285879
   3 C :   -0.416471
   4 O :    0.131819
   5 C :   -0.085461
   6 C :   -0.094306
   7 C :    0.125038
   8 N :    0.403401
   9 C :   -0.457007
  10 S :   -0.036065
  11 N :    0.397276
  12 C :   -0.043973
  13 C :   -0.045741
  14 C :    0.020010
  15 C :    0.045086
  16 C :   -0.000350
  17 C :   -0.194337
  18 O :    0.395727
  19 C :    0.025598
  20 H :   -0.034783
  21 H :   -0.021944
  22 H :   -0.026119
  23 H :   -0.031271
  24 H :   -0.021376
  25 H :   -0.010755
  26 H :   -0.009672
  27 H :   -0.017211
  28 H :   -0.056816
  29 H :   -0.063696
  30 H :   -0.002637
  31 H :   -0.021627
  32 H :   -0.018066
  33 H :   -0.034287
  34 H :   -0.152798
  35 H :   -0.023959

  Mayer bond orders larger than 0.100000
B(  0-C ,  1-C ) :   0.9606 B(  0-C , 20-H ) :   0.9767 B(  0-C , 21-H ) :   0.9788
B(  0-C , 22-H ) :   0.9746 B(  1-C ,  2-O ) :   0.8944 B(  1-C , 23-H ) :   0.9635
B(  1-C , 24-H ) :   0.9876 B(  2-O ,  3-C ) :   1.1514 B(  3-C ,  4-O ) :   2.0946
B(  3-C ,  5-C ) :   0.9255 B(  5-C ,  6-C ) :   1.6882 B(  5-C , 12-C ) :   0.9513
B(  6-C ,  7-C ) :   0.9536 B(  6-C ,  8-N ) :   1.1057 B(  7-C , 25-H ) :   0.9765
B(  7-C , 26-H ) :   0.9655 B(  7-C , 27-H ) :   0.9675 B(  8-N ,  9-C ) :   1.1937
B(  8-N , 28-H ) :   0.9509 B(  9-C , 10-S ) :   1.6135 B(  9-C , 11-N ) :   1.2891
B( 11-N , 12-C ) :   0.9926 B( 11-N , 29-H ) :   0.9490 B( 12-C , 13-C ) :   0.9486
B( 12-C , 30-H ) :   0.9975 B( 13-C , 14-C ) :   1.3932 B( 13-C , 19-C ) :   1.3439
B( 14-C , 15-C ) :   1.3965 B( 14-C , 31-H ) :   0.9585 B( 15-C , 16-C ) :   1.3635
B( 15-C , 32-H ) :   0.9698 B( 16-C , 17-C ) :   1.3289 B( 16-C , 33-H ) :   0.9839
B( 17-C , 18-O ) :   1.1122 B( 17-C , 19-C ) :   1.3685 B( 18-O , 34-H ) :   0.9790
B( 19-C , 35-H ) :   0.9594

MP2 TOTAL ENERGY:    -1274.326395213 Eh
FINAL SINGLE POINT ENERGY     -1274.326395213219

DIPOLE MOMENT
-------------
                                X             Y             Z
Electronic contribution:     10.45234       5.33238       6.66216
Nuclear contribution   :    -11.82296      -6.50178      -6.93367
                        -----------------------------------------
Total Dipole Moment    :     -1.37062      -1.16939      -0.27151
                        -----------------------------------------
Magnitude (a.u.)       :      1.82203
Magnitude (Debye)      :      4.63123

Rotational constants in cm-1:     0.011752     0.009403     0.006952
Rotational constants in MHz :   352.315879   281.882650   208.430041

                             ****ORCA TERMINATED NORMALLY****
TOTAL RUN TIME: 0 days 1 hours 47 minutes 35 seconds 672 msec
