                         Program Version 5.0.0 -  RELEASE  -
|  1> ! ri-mp2 cc-pvtz cc-pvtz/c TightSCF NoKeepInts
|  2>
|  3> %scf
|  4>   MaxCore 4096
|  5> end
|  6> *xyz  0  1
|  7>     C       14.5524982   14.4261778   16.6639458
|  8>     C       15.6024717   15.5278330   16.8782173
|  9>     O       16.8675924   14.9925975   16.4484618
| 10>     C       18.0742071   15.6312090   16.5938055
| 11>     O       19.1011173   14.9874537   16.4852770
| 12>     C       18.0523363   16.8751639   17.4190532
| 13>     C       17.5590767   18.0459845   16.9552799
| 14>     C       16.9962950   18.3146527   15.5761239
| 15>     N       17.6256107   19.1917087   17.7506819
| 16>     C       18.2580789   19.2612434   18.9651407
| 17>     S       18.3396480   20.6736438   19.8207857
| 18>     N       18.8176981   18.0991354   19.4381871
| 19>     C       18.7080625   16.7738400   18.7954133
| 20>     C       17.9584453   15.7788399   19.6769479
| 21>     C       18.3874108   14.4407150   19.7465095
| 22>     C       17.6909568   13.5041295   20.5280255
| 23>     C       16.5522653   13.9068741   21.2458419
| 24>     C       16.1175015   15.2369518   21.1751619
| 25>     O       15.0097848   15.6261734   21.8547367
| 26>     C       16.8124475   16.1677325   20.3962754
| 27>     H       14.8074710   13.5341050   17.2501639
| 28>     H       14.5001541   14.1405335   15.6058977
| 29>     H       13.5601044   14.7712527   16.9784116
| 30>     H       15.3218782   16.4095826   16.2927028
| 31>     H       15.6312902   15.7956388   17.9420098
| 32>     H       17.0492316   17.4354113   14.9222452
| 33>     H       17.5621108   19.1119252   15.0769869
| 34>     H       15.9472272   18.6308042   15.6299863
| 35>     H       17.2388526   20.0596741   17.4139637
| 36>     H       19.2625104   18.1773442   20.3442191
| 37>     H       19.7290328   16.3913828   18.6473968
| 38>     H       19.2569902   14.1209762   19.1756716
| 39>     H       18.0312641   12.4706788   20.5677570
| 40>     H       16.0095459   13.1851956   21.8474338
| 41>     H       14.7037303   14.8652073   22.3713024
| 42>     H       16.4521015   17.1902281   20.3539795
| 43> *
| 44>
| 45>                          ****END OF INPUT****

CARTESIAN COORDINATES (ANGSTROEM)
---------------------------------
  C     14.552498   14.426178   16.663946
  C     15.602472   15.527833   16.878217
  O     16.867592   14.992598   16.448462
  C     18.074207   15.631209   16.593805
  O     19.101117   14.987454   16.485277
  C     18.052336   16.875164   17.419053
  C     17.559077   18.045984   16.955280
  C     16.996295   18.314653   15.576124
  N     17.625611   19.191709   17.750682
  C     18.258079   19.261243   18.965141
  S     18.339648   20.673644   19.820786
  N     18.817698   18.099135   19.438187
  C     18.708063   16.773840   18.795413
  C     17.958445   15.778840   19.676948
  C     18.387411   14.440715   19.746509
  C     17.690957   13.504129   20.528025
  C     16.552265   13.906874   21.245842
  C     16.117501   15.236952   21.175162
  O     15.009785   15.626173   21.854737
  C     16.812448   16.167732   20.396275
  H     14.807471   13.534105   17.250164
  H     14.500154   14.140534   15.605898
  H     13.560104   14.771253   16.978412
  H     15.321878   16.409583   16.292703
  H     15.631290   15.795639   17.942010
  H     17.049232   17.435411   14.922245
  H     17.562111   19.111925   15.076987
  H     15.947227   18.630804   15.629986
  H     17.238853   20.059674   17.413964
  H     19.262510   18.177344   20.344219
  H     19.729033   16.391383   18.647397
  H     19.256990   14.120976   19.175672
  H     18.031264   12.470679   20.567757
  H     16.009546   13.185196   21.847434
  H     14.703730   14.865207   22.371302
  H     16.452102   17.190228   20.353980

 Total Charge           Charge          ....    0
 Multiplicity           Mult            ....    1
 Number of Electrons    NEL             ....  154
 Basis Dimension        Dim             ....  828

ORBITAL ENERGIES
----------------

  NO   OCC          E(Eh)            E(eV)
   0   2.0000     -91.889928     -2500.4521
   1   2.0000     -20.601830      -560.6043
   2   2.0000     -20.599922      -560.5524
   3   2.0000     -20.550865      -559.2175
   4   2.0000     -15.626361      -425.2149
   5   2.0000     -15.611881      -424.8209
   6   2.0000     -11.397694      -310.1470
   7   2.0000     -11.386835      -309.8515
   8   2.0000     -11.328380      -308.2609
   9   2.0000     -11.316886      -307.9481
  10   2.0000     -11.315916      -307.9217
  11   2.0000     -11.302450      -307.5553
  12   2.0000     -11.270793      -306.6939
  13   2.0000     -11.265224      -306.5423
  14   2.0000     -11.264069      -306.5109
  15   2.0000     -11.256867      -306.3149
  16   2.0000     -11.246018      -306.0197
  17   2.0000     -11.242237      -305.9168
  18   2.0000     -11.239072      -305.8307
  19   2.0000     -11.232332      -305.6473
  20   2.0000      -8.895049      -242.0466
  21   2.0000      -6.576639      -178.9595
  22   2.0000      -6.574611      -178.9043
  23   2.0000      -6.574038      -178.8887
  24   2.0000      -1.449465       -39.4419
  25   2.0000      -1.419741       -38.6331
  26   2.0000      -1.360320       -37.0162
  27   2.0000      -1.340025       -36.4639
  28   2.0000      -1.240015       -33.7425
  29   2.0000      -1.161445       -31.6045
  30   2.0000      -1.125841       -30.6357
  31   2.0000      -1.049389       -28.5553
  32   2.0000      -1.040287       -28.3076
  33   2.0000      -1.019204       -27.7340
  34   2.0000      -1.005523       -27.3617
  35   2.0000      -0.989490       -26.9254
  36   2.0000      -0.928212       -25.2579
  37   2.0000      -0.880411       -23.9572
  38   2.0000      -0.856046       -23.2942
  39   2.0000      -0.842072       -22.9139
  40   2.0000      -0.837384       -22.7864
  41   2.0000      -0.836672       -22.7670
  42   2.0000      -0.757147       -20.6030
  43   2.0000      -0.739912       -20.1340
  44   2.0000      -0.731873       -19.9153
  45   2.0000      -0.697769       -18.9873
  46   2.0000      -0.688530       -18.7359
  47   2.0000      -0.681551       -18.5460
  48   2.0000      -0.677633       -18.4393
  49   2.0000      -0.663098       -18.0438
  50   2.0000      -0.657362       -17.8877
  51   2.0000      -0.651080       -17.7168
  52   2.0000      -0.639856       -17.4114
  53   2.0000      -0.612442       -16.6654
  54   2.0000      -0.608030       -16.5453
  55   2.0000      -0.603680       -16.4270
  56   2.0000      -0.595393       -16.2015
  57   2.0000      -0.583246       -15.8709
  58   2.0000      -0.577345       -15.7103
  59   2.0000      -0.572407       -15.5760
  60   2.0000      -0.564408       -15.3583
  61   2.0000      -0.557385       -15.1672
  62   2.0000      -0.552882       -15.0447
  63   2.0000      -0.527007       -14.3406
  64   2.0000      -0.518874       -14.1193
  65   2.0000      -0.515620       -14.0307
  66   2.0000      -0.506545       -13.7838
  67   2.0000      -0.502529       -13.6745
  68   2.0000      -0.488162       -13.2836
  69   2.0000      -0.469775       -12.7832
  70   2.0000      -0.453796       -12.3484
  71   2.0000      -0.451071       -12.2743
  72   2.0000      -0.357261        -9.7216
  73   2.0000      -0.351654        -9.5690
  74   2.0000      -0.329643        -8.9700
  75   2.0000      -0.324607        -8.8330
  76   2.0000      -0.318616        -8.6700
  77   0.0000       0.087467         2.3801
  78   0.0000       0.104430         2.8417
  79   0.0000       0.111741         3.0406
  80   0.0000       0.128571         3.4986
  81   0.0000       0.130976         3.5641

MULLIKEN ATOMIC CHARGES
-----------------------
   0 C :   -0.261825
   1 C :    0.020279
   2 O :   -0.302548
   3 C :    0.392156
   4 O :   -0.380890
   5 C :   -0.187430
   6 C :    0.147892
   7 C :   -0.330024
   8 N :   -0.141218
   9 C :    0.205995
  10 S :   -0.441421
  11 N :   -0.220207
  12 C :    0.078227
  13 C :    0.026544
  14 C :   -0.197943
  15 C :   -0.131730
  16 C :   -0.274821
  17 C :    0.325159
  18 O :   -0.357651
  19 C :   -0.293727
  20 H :    0.107525
  21 H :    0.101469
  22 H :    0.088407
  23 H :    0.083553
  24 H :    0.109293
  25 H :    0.122787
  26 H :    0.142805
  27 H :    0.119934
  28 H :    0.195803
  29 H :    0.200246
  30 H :    0.165997
  31 H :    0.168755
  32 H :    0.164064
  33 H :    0.132477
  34 H :    0.241525
  35 H :    0.180542
Sum of atomic charges:   -0.0000000

LOEWDIN ATOMIC CHARGES
----------------------
   0 C :    0.112518
   1 C :   -0.025856
   2 O :    0.310730
   3 C :   -0.416755
   4 O :    0.124739
   5 C :   -0.080020
   6 C :   -0.104421
   7 C :    0.122143
   8 N :    0.401100
   9 C :   -0.455773
  10 S :   -0.038209
  11 N :    0.397367
  12 C :   -0.043316
  13 C :   -0.043162
  14 C :    0.023297
  15 C :    0.046185
  16 C :   -0.000136
  17 C :   -0.194144
  18 O :    0.394867
  19 C :    0.025924
  20 H :   -0.022586
  21 H :   -0.025956
  22 H :   -0.025138
  23 H :   -0.038688
  24 H :   -0.033078
  25 H :   -0.009107
  26 H :   -0.008995
  27 H :   -0.017767
  28 H :   -0.057977
  29 H :   -0.063666
  30 H :   -0.002034
  31 H :   -0.021579
  32 H :   -0.018240
  33 H :   -0.034618
  34 H :   -0.152917
  35 H :   -0.024731

  Mayer bond orders larger than 0.100000
B(  0-C ,  1-C ) :   0.9856 B(  0-C , 20-H ) :   0.9792 B(  0-C , 21-H ) :   0.9789
B(  0-C , 22-H ) :   0.9770 B(  1-C ,  2-O ) :   0.9139 B(  1-C , 23-H ) :   0.9724
B(  1-C , 24-H ) :   0.9579 B(  2-O ,  3-C ) :   1.1824 B(  3-C ,  4-O ) :   2.0924
B(  3-C ,  5-C ) :   0.9194 B(  5-C ,  6-C ) :   1.6848 B(  5-C , 12-C ) :   0.9569
B(  6-C ,  7-C ) :   0.9449 B(  6-C ,  8-N ) :   1.1166 B(  7-C , 25-H ) :   0.9818
B(  7-C , 26-H ) :   0.9669 B(  7-C , 27-H ) :   0.9675 B(  8-N ,  9-C ) :   1.1978
B(  8-N , 28-H ) :   0.9528 B(  9-C , 10-S ) :   1.6097 B(  9-C , 11-N ) :   1.2863
B( 11-N , 12-C ) :   0.9938 B( 11-N , 29-H ) :   0.9481 B( 12-C , 13-C ) :   0.9445
B( 12-C , 30-H ) :   0.9971 B( 13-C , 14-C ) :   1.3880 B( 13-C , 19-C ) :   1.3405
B( 14-C , 15-C ) :   1.3982 B( 14-C , 31-H ) :   0.9611 B( 15-C , 16-C ) :   1.3626
B( 15-C , 32-H ) :   0.9697 B( 16-C , 17-C ) :   1.3306 B( 16-C , 33-H ) :   0.9843
B( 17-C , 18-O ) :   1.1095 B( 17-C , 19-C ) :   1.3621 B( 18-O , 34-H ) :   0.9793
B( 19-C , 35-H ) :   0.9579

MP2 TOTAL ENERGY:    -1274.331778977 Eh
FINAL SINGLE POINT ENERGY     -1274.331778977029

DIPOLE MOMENT
-------------
                                X             Y             Z
Electronic contribution:     10.64037       8.33006       7.26156
Nuclear contribution   :    -12.17770      -9.36631      -7.72006
                        -----------------------------------------
Total Dipole Moment    :     -1.53732      -1.03625      -0.45849
                        -----------------------------------------
Magnitude (a.u.)       :      1.90982
Magnitude (Debye)      :      4.85437

Rotational constants in cm-1:     0.011933     0.009065     0.006732
Rotational constants in MHz :   357.740164   271.751036   201.813538

                             ****ORCA TERMINATED NORMALLY****
TOTAL RUN TIME: 0 days 2 hours 6 minutes 9 seconds 681 msec
