                         Program Version 4.2.0 -  RELEASE  -
|  1> ! ri-mp2 cc-pvtz cc-pvtz/c TightSCF  NoKeepInts
|  2>
|  3> %scf
|  4>   MaxCore 4096
|  5> end
|  6> *xyz  0  1
|  7>     C       15.0845158   13.9906604   15.6053489
|  8>     C       15.9501932   14.1905385   16.8669657
|  9>     O       17.0109785   15.1387358   16.6274147
| 10>     C       16.7509506   16.4771092   16.5088229
| 11>     O       15.7885841   16.9060889   15.8976927
| 12>     C       17.5561614   17.3020804   17.4770457
| 13>     C       17.4438608   18.6533747   17.5485134
| 14>     C       16.5436965   19.5451300   16.7199047
| 15>     N       18.2436196   19.3782251   18.4371125
| 16>     C       19.2493091   18.8467922   19.1990977
| 17>     S       20.2167913   19.7900093   20.1531288
| 18>     N       19.4185941   17.4879401   19.1268880
| 19>     C       18.5280762   16.5578297   18.4095810
| 20>     C       17.7982595   15.6730807   19.4166380
| 21>     C       18.1510143   14.3177555   19.5587405
| 22>     C       17.4747895   13.4952184   20.4753517
| 23>     C       16.4402520   14.0329424   21.2598387
| 24>     C       16.0918561   15.3840529   21.1268931
| 25>     O       15.0947410   15.9066024   21.8840464
| 26>     C       16.7654308   16.1996938   20.2125600
| 27>     H       14.4309367   14.8521222   15.4240754
| 28>     H       14.4428938   13.1089988   15.7208396
| 29>     H       15.7158353   13.8405344   14.7208942
| 30>     H       15.3246186   14.5194553   17.7078846
| 31>     H       16.3982486   13.2268428   17.1407062
| 32>     H       15.4885757   19.3223913   16.9245025
| 33>     H       16.7112254   19.3759472   15.6486210
| 34>     H       16.7014945   20.6127295   16.9126370
| 35>     H       18.1348197   20.3777883   18.5014149
| 36>     H       20.1450968   17.1216142   19.7283951
| 37>     H       19.1624577   15.9166649   17.7813542
| 38>     H       18.9484471   13.8988327   18.9505825
| 39>     H       17.7543847   12.4479346   20.5775298
| 40>     H       15.9161365   13.4023226   21.9706025
| 41>     H       14.7856095   15.2098018   22.4823115
| 42>     H       16.4845450   17.2441588   20.1300634
| 43> *
| 44>
| 45>                          ****END OF INPUT****

CARTESIAN COORDINATES (ANGSTROEM)
---------------------------------
  C     15.084516   13.990660   15.605349
  C     15.950193   14.190539   16.866966
  O     17.010979   15.138736   16.627415
  C     16.750951   16.477109   16.508823
  O     15.788584   16.906089   15.897693
  C     17.556161   17.302080   17.477046
  C     17.443861   18.653375   17.548513
  C     16.543696   19.545130   16.719905
  N     18.243620   19.378225   18.437113
  C     19.249309   18.846792   19.199098
  S     20.216791   19.790009   20.153129
  N     19.418594   17.487940   19.126888
  C     18.528076   16.557830   18.409581
  C     17.798259   15.673081   19.416638
  C     18.151014   14.317756   19.558740
  C     17.474789   13.495218   20.475352
  C     16.440252   14.032942   21.259839
  C     16.091856   15.384053   21.126893
  O     15.094741   15.906602   21.884046
  C     16.765431   16.199694   20.212560
  H     14.430937   14.852122   15.424075
  H     14.442894   13.108999   15.720840
  H     15.715835   13.840534   14.720894
  H     15.324619   14.519455   17.707885
  H     16.398249   13.226843   17.140706
  H     15.488576   19.322391   16.924502
  H     16.711225   19.375947   15.648621
  H     16.701494   20.612729   16.912637
  H     18.134820   20.377788   18.501415
  H     20.145097   17.121614   19.728395
  H     19.162458   15.916665   17.781354
  H     18.948447   13.898833   18.950582
  H     17.754385   12.447935   20.577530
  H     15.916137   13.402323   21.970602
  H     14.785609   15.209802   22.482312
  H     16.484545   17.244159   20.130063

 Total Charge           Charge          ....    0
 Multiplicity           Mult            ....    1
 Number of Electrons    NEL             ....  154
 Basis Dimension        Dim             ....  828

ORBITAL ENERGIES
----------------

  NO   OCC          E(Eh)            E(eV)
   0   2.0000     -91.889267     -2500.4341
   1   2.0000     -20.599175      -560.5320
   2   2.0000     -20.590129      -560.2859
   3   2.0000     -20.545417      -559.0692
   4   2.0000     -15.629480      -425.2998
   5   2.0000     -15.608670      -424.7335
   6   2.0000     -11.395586      -310.0897
   7   2.0000     -11.384331      -309.7834
   8   2.0000     -11.335990      -308.4680
   9   2.0000     -11.316698      -307.9430
  10   2.0000     -11.309813      -307.7557
  11   2.0000     -11.297954      -307.4330
  12   2.0000     -11.262062      -306.4563
  13   2.0000     -11.258748      -306.3661
  14   2.0000     -11.258081      -306.3480
  15   2.0000     -11.252709      -306.2018
  16   2.0000     -11.245615      -306.0087
  17   2.0000     -11.240691      -305.8748
  18   2.0000     -11.240438      -305.8679
  19   2.0000     -11.216710      -305.2222
  20   2.0000      -8.894330      -242.0270
  21   2.0000      -6.575904      -178.9395
  22   2.0000      -6.573900      -178.8849
  23   2.0000      -6.573313      -178.8689
  24   2.0000      -1.446966       -39.3739
  25   2.0000      -1.418840       -38.6086
  26   2.0000      -1.354671       -36.8625
  27   2.0000      -1.340556       -36.4784
  28   2.0000      -1.239148       -33.7189
  29   2.0000      -1.159779       -31.5592
  30   2.0000      -1.120479       -30.4898
  31   2.0000      -1.044100       -28.4114
  32   2.0000      -1.032179       -28.0870
  33   2.0000      -1.017751       -27.6944
  34   2.0000      -0.995603       -27.0917
  35   2.0000      -0.984088       -26.7784
  36   2.0000      -0.923599       -25.1324
  37   2.0000      -0.888610       -24.1803
  38   2.0000      -0.848131       -23.0788
  39   2.0000      -0.840000       -22.8576
  40   2.0000      -0.836334       -22.7578
  41   2.0000      -0.822386       -22.3783
  42   2.0000      -0.752450       -20.4752
  43   2.0000      -0.733161       -19.9503
  44   2.0000      -0.720800       -19.6140
  45   2.0000      -0.697917       -18.9913
  46   2.0000      -0.689294       -18.7567
  47   2.0000      -0.680160       -18.5081
  48   2.0000      -0.669785       -18.2258
  49   2.0000      -0.656579       -17.8664
  50   2.0000      -0.648968       -17.6593
  51   2.0000      -0.646462       -17.5911
  52   2.0000      -0.634896       -17.2764
  53   2.0000      -0.609599       -16.5880
  54   2.0000      -0.603180       -16.4134
  55   2.0000      -0.600151       -16.3309
  56   2.0000      -0.594606       -16.1801
  57   2.0000      -0.582461       -15.8496
  58   2.0000      -0.575907       -15.6712
  59   2.0000      -0.571128       -15.5412
  60   2.0000      -0.564113       -15.3503
  61   2.0000      -0.539096       -14.6695
  62   2.0000      -0.534680       -14.5494
  63   2.0000      -0.526796       -14.3348
  64   2.0000      -0.517424       -14.0798
  65   2.0000      -0.513163       -13.9639
  66   2.0000      -0.502130       -13.6637
  67   2.0000      -0.498192       -13.5565
  68   2.0000      -0.485547       -13.2124
  69   2.0000      -0.463712       -12.6182
  70   2.0000      -0.456065       -12.4101
  71   2.0000      -0.440682       -11.9916
  72   2.0000      -0.354495        -9.6463
  73   2.0000      -0.351838        -9.5740
  74   2.0000      -0.328960        -8.9514
  75   2.0000      -0.324041        -8.8176
  76   2.0000      -0.316689        -8.6175
  77   0.0000       0.072925         1.9844
  78   0.0000       0.103331         2.8118
  79   0.0000       0.124057         3.3758
  80   0.0000       0.130991         3.5645
  81   0.0000       0.136299         3.7089

MULLIKEN ATOMIC CHARGES
-----------------------
   0 C :   -0.280076
   1 C :    0.039467
   2 O :   -0.378470
   3 C :    0.471005
   4 O :   -0.421129
   5 C :   -0.235582
   6 C :    0.158217
   7 C :   -0.271155
   8 N :   -0.122449
   9 C :    0.214084
  10 S :   -0.440336
  11 N :   -0.207196
  12 C :    0.069630
  13 C :    0.041945
  14 C :   -0.180144
  15 C :   -0.128981
  16 C :   -0.281129
  17 C :    0.313755
  18 O :   -0.355962
  19 C :   -0.261476
  20 H :    0.119895
  21 H :    0.090122
  22 H :    0.093885
  23 H :    0.096299
  24 H :    0.103844
  25 H :    0.131951
  26 H :    0.130082
  27 H :    0.095561
  28 H :    0.197339
  29 H :    0.194958
  30 H :    0.149580
  31 H :    0.149157
  32 H :    0.162713
  33 H :    0.132089
  34 H :    0.241258
  35 H :    0.167249
Sum of atomic charges:   -0.0000000

LOEWDIN ATOMIC CHARGES
----------------------
   0 C :    0.104648
   1 C :   -0.016385
   2 O :    0.292316
   3 C :   -0.413544
   4 O :    0.114023
   5 C :   -0.096340
   6 C :   -0.059113
   7 C :    0.131079
   8 N :    0.406682
   9 C :   -0.456093
  10 S :   -0.035504
  11 N :    0.396132
  12 C :   -0.052332
  13 C :   -0.037381
  14 C :    0.015144
  15 C :    0.039873
  16 C :   -0.002607
  17 C :   -0.190222
  18 O :    0.395996
  19 C :    0.030387
  20 H :   -0.027695
  21 H :   -0.030734
  22 H :   -0.026928
  23 H :   -0.029106
  24 H :   -0.024806
  25 H :   -0.004897
  26 H :   -0.004103
  27 H :   -0.023256
  28 H :   -0.057520
  29 H :   -0.064837
  30 H :   -0.010004
  31 H :   -0.029790
  32 H :   -0.020786
  33 H :   -0.035182
  34 H :   -0.153337
  35 H :   -0.023777

  Mayer bond orders larger than 0.100000
B(  0-C ,  1-C ) :   0.9826 B(  0-C , 20-H ) :   0.9719 B(  0-C , 21-H ) :   0.9781
B(  0-C , 22-H ) :   0.9764 B(  1-C ,  2-O ) :   0.8842 B(  1-C , 23-H ) :   0.9689
B(  1-C , 24-H ) :   0.9811 B(  2-O ,  3-C ) :   1.1083 B(  3-C ,  4-O ) :   1.9841
B(  3-C ,  5-C ) :   1.0715 B(  5-C ,  6-C ) :   1.6505 B(  5-C , 12-C ) :   0.9716
B(  6-C ,  7-C ) :   0.9665 B(  6-C ,  8-N ) :   1.1614 B(  7-C , 25-H ) :   0.9593
B(  7-C , 26-H ) :   0.9612 B(  7-C , 27-H ) :   0.9908 B(  8-N ,  9-C ) :   1.1830
B(  8-N , 28-H ) :   0.9478 B(  9-C , 10-S ) :   1.6058 B(  9-C , 11-N ) :   1.3070
B( 11-N , 12-C ) :   0.9782 B( 11-N , 29-H ) :   0.9517 B( 12-C , 13-C ) :   0.9379
B( 12-C , 30-H ) :   1.0015 B( 13-C , 14-C ) :   1.3510 B( 13-C , 19-C ) :   1.3836
B( 14-C , 15-C ) :   1.3900 B( 14-C , 31-H ) :   0.9750 B( 15-C , 16-C ) :   1.3640
B( 15-C , 32-H ) :   0.9702 B( 16-C , 17-C ) :   1.3301 B( 16-C , 33-H ) :   0.9844
B( 17-C , 18-O ) :   1.1123 B( 17-C , 19-C ) :   1.3703 B( 18-O , 34-H ) :   0.9793
B( 19-C , 35-H ) :   0.9579

MP2 TOTAL ENERGY:    -1274.337268693 Eh
FINAL SINGLE POINT ENERGY     -1274.337268692512

DIPOLE MOMENT
-------------
                                X             Y             Z
Electronic contribution:     10.47754       9.94546       8.07611
Nuclear contribution   :    -11.47035     -11.55977      -8.18362
                        -----------------------------------------
Total Dipole Moment    :     -0.99281      -1.61432      -0.10751
                        -----------------------------------------
Magnitude (a.u.)       :      1.89822
Magnitude (Debye)      :      4.82490

Rotational constants in cm-1:     0.012088     0.008691     0.006211
Rotational constants in MHz :   362.398368   260.549748   186.187056

                             ****ORCA TERMINATED NORMALLY****
TOTAL RUN TIME: 0 days 1 hours 49 minutes 32 seconds 565 msec
