                         Program Version 4.2.0 -  RELEASE  -
|  1> ! ri-mp2 cc-pvtz cc-pvtz/c TightSCF  NoKeepInts
|  2>
|  3> %scf
|  4>   MaxCore 4096
|  5> end
|  6> *xyz  0  1
|  7>     C       14.5471922   14.3834860   16.1877565
|  8>     C       15.8664910   14.9412710   16.7477183
|  9>     O       16.5221574   15.6952648   15.7138287
| 10>     C       17.7226741   16.2887568   15.9868924
| 11>     O       18.7331693   15.7523708   15.5734191
| 12>     C       17.7663628   17.0589059   17.2666196
| 13>     C       17.1801749   18.2709977   17.4063289
| 14>     C       16.3303350   18.9825410   16.3781920
| 15>     N       17.5159175   19.0652726   18.5151436
| 16>     C       18.6170069   18.8358690   19.3106329
| 17>     S       19.1366370   19.9176696   20.4499464
| 18>     N       19.2743332   17.6475692   19.1026715
| 19>     C       18.6858338   16.5202542   18.3626324
| 20>     C       17.9499882   15.6115113   19.3492215
| 21>     C       18.4181670   14.3127339   19.6274191
| 22>     C       17.8133648   13.5331024   20.6311567
| 23>     C       16.7323872   14.0526472   21.3643428
| 24>     C       16.2480626   15.3328114   21.0735314
| 25>     O       15.2107183   15.8520168   21.7768419
| 26>     C       16.8440514   16.0993076   20.0714052
| 27>     H       13.9658926   13.9211747   16.9935964
| 28>     H       14.7461449   13.6068346   15.4382304
| 29>     H       13.9372919   15.1685388   15.7247011
| 30>     H       15.6354571   15.5822635   17.6071103
| 31>     H       16.5097686   14.1144181   17.0799905
| 32>     H       15.8421318   18.2784238   15.6934191
| 33>     H       16.9511357   19.6576591   15.7752325
| 34>     H       15.5394056   19.5828458   16.8458307
| 35>     H       17.0511798   19.9462486   18.6675553
| 36>     H       20.0905049   17.4964802   19.6810246
| 37>     H       19.4980542   15.9492738   17.8931959
| 38>     H       19.2716803   13.9139854   19.0849080
| 39>     H       18.1954447   12.5385560   20.8552577
| 40>     H       16.2801083   13.4688485   22.1597747
| 41>     H       15.0563335   15.2761092   22.5407218
| 42>     H       16.4614415   17.0959808   19.8977501
| 43> *
| 44>
| 45>                          ****END OF INPUT****

CARTESIAN COORDINATES (ANGSTROEM)
---------------------------------
  C     14.547192   14.383486   16.187756
  C     15.866491   14.941271   16.747718
  O     16.522157   15.695265   15.713829
  C     17.722674   16.288757   15.986892
  O     18.733169   15.752371   15.573419
  C     17.766363   17.058906   17.266620
  C     17.180175   18.270998   17.406329
  C     16.330335   18.982541   16.378192
  N     17.515918   19.065273   18.515144
  C     18.617007   18.835869   19.310633
  S     19.136637   19.917670   20.449946
  N     19.274333   17.647569   19.102671
  C     18.685834   16.520254   18.362632
  C     17.949988   15.611511   19.349221
  C     18.418167   14.312734   19.627419
  C     17.813365   13.533102   20.631157
  C     16.732387   14.052647   21.364343
  C     16.248063   15.332811   21.073531
  O     15.210718   15.852017   21.776842
  C     16.844051   16.099308   20.071405
  H     13.965893   13.921175   16.993596
  H     14.746145   13.606835   15.438230
  H     13.937292   15.168539   15.724701
  H     15.635457   15.582263   17.607110
  H     16.509769   14.114418   17.079991
  H     15.842132   18.278424   15.693419
  H     16.951136   19.657659   15.775232
  H     15.539406   19.582846   16.845831
  H     17.051180   19.946249   18.667555
  H     20.090505   17.496480   19.681025
  H     19.498054   15.949274   17.893196
  H     19.271680   13.913985   19.084908
  H     18.195445   12.538556   20.855258
  H     16.280108   13.468849   22.159775
  H     15.056333   15.276109   22.540722
  H     16.461441   17.095981   19.897750

 Total Charge           Charge          ....    0
 Multiplicity           Mult            ....    1
 Number of Electrons    NEL             ....  154
 Basis Dimension        Dim             ....  828

ORBITAL ENERGIES
----------------

  NO   OCC          E(Eh)            E(eV)
   0   2.0000     -91.889466     -2500.4395
   1   2.0000     -20.600898      -560.5789
   2   2.0000     -20.584292      -560.1271
   3   2.0000     -20.558595      -559.4278
   4   2.0000     -15.627968      -425.2586
   5   2.0000     -15.607932      -424.7134
   6   2.0000     -11.395451      -310.0860
   7   2.0000     -11.384781      -309.7956
   8   2.0000     -11.328822      -308.2729
   9   2.0000     -11.317618      -307.9680
  10   2.0000     -11.313018      -307.8429
  11   2.0000     -11.298342      -307.4435
  12   2.0000     -11.265567      -306.5517
  13   2.0000     -11.264092      -306.5115
  14   2.0000     -11.262101      -306.4574
  15   2.0000     -11.260810      -306.4222
  16   2.0000     -11.248131      -306.0772
  17   2.0000     -11.244780      -305.9860
  18   2.0000     -11.241151      -305.8873
  19   2.0000     -11.230665      -305.6019
  20   2.0000      -8.894432      -242.0298
  21   2.0000      -6.575992      -178.9419
  22   2.0000      -6.574005      -178.8878
  23   2.0000      -6.573410      -178.8716
  24   2.0000      -1.451706       -39.5029
  25   2.0000      -1.420754       -38.6607
  26   2.0000      -1.357757       -36.9465
  27   2.0000      -1.338958       -36.4349
  28   2.0000      -1.238200       -33.6931
  29   2.0000      -1.161816       -31.6146
  30   2.0000      -1.124267       -30.5929
  31   2.0000      -1.048903       -28.5421
  32   2.0000      -1.033760       -28.1300
  33   2.0000      -1.020463       -27.7682
  34   2.0000      -1.004486       -27.3335
  35   2.0000      -0.986493       -26.8438
  36   2.0000      -0.926394       -25.2084
  37   2.0000      -0.876755       -23.8577
  38   2.0000      -0.853291       -23.2192
  39   2.0000      -0.846541       -23.0356
  40   2.0000      -0.839099       -22.8330
  41   2.0000      -0.832890       -22.6641
  42   2.0000      -0.757586       -20.6150
  43   2.0000      -0.733925       -19.9711
  44   2.0000      -0.728551       -19.8249
  45   2.0000      -0.701424       -19.0867
  46   2.0000      -0.692017       -18.8307
  47   2.0000      -0.681627       -18.5480
  48   2.0000      -0.674825       -18.3629
  49   2.0000      -0.664530       -18.0828
  50   2.0000      -0.654073       -17.7982
  51   2.0000      -0.641245       -17.4492
  52   2.0000      -0.640098       -17.4179
  53   2.0000      -0.614341       -16.7171
  54   2.0000      -0.612922       -16.6785
  55   2.0000      -0.606826       -16.5126
  56   2.0000      -0.605058       -16.4645
  57   2.0000      -0.584862       -15.9149
  58   2.0000      -0.578708       -15.7474
  59   2.0000      -0.564638       -15.3646
  60   2.0000      -0.555206       -15.1079
  61   2.0000      -0.547150       -14.8887
  62   2.0000      -0.539473       -14.6798
  63   2.0000      -0.529985       -14.4216
  64   2.0000      -0.525847       -14.3090
  65   2.0000      -0.518274       -14.1030
  66   2.0000      -0.505430       -13.7535
  67   2.0000      -0.493415       -13.4265
  68   2.0000      -0.487562       -13.2672
  69   2.0000      -0.463773       -12.6199
  70   2.0000      -0.454018       -12.3545
  71   2.0000      -0.451400       -12.2832
  72   2.0000      -0.362143        -9.8544
  73   2.0000      -0.352250        -9.5852
  74   2.0000      -0.330279        -8.9874
  75   2.0000      -0.326640        -8.8883
  76   2.0000      -0.316044        -8.6000
  77   0.0000       0.077199         2.1007
  78   0.0000       0.101476         2.7613
  79   0.0000       0.116205         3.1621
  80   0.0000       0.123010         3.3473
  81   0.0000       0.128478         3.4961

MULLIKEN ATOMIC CHARGES
-----------------------
   0 C :   -0.265096
   1 C :    0.047657
   2 O :   -0.349684
   3 C :    0.427570
   4 O :   -0.368770
   5 C :   -0.182135
   6 C :    0.136206
   7 C :   -0.303722
   8 N :   -0.149925
   9 C :    0.205299
  10 S :   -0.435654
  11 N :   -0.180282
  12 C :    0.009625
  13 C :    0.069990
  14 C :   -0.196828
  15 C :   -0.127708
  16 C :   -0.273061
  17 C :    0.304080
  18 O :   -0.356862
  19 C :   -0.281708
  20 H :    0.091323
  21 H :    0.103374
  22 H :    0.096945
  23 H :    0.085589
  24 H :    0.097027
  25 H :    0.122605
  26 H :    0.136706
  27 H :    0.103330
  28 H :    0.197482
  29 H :    0.189919
  30 H :    0.172461
  31 H :    0.158964
  32 H :    0.163186
  33 H :    0.134008
  34 H :    0.242188
  35 H :    0.175900
Sum of atomic charges:   -0.0000000

LOEWDIN ATOMIC CHARGES
----------------------
   0 C :    0.113019
   1 C :   -0.023576
   2 O :    0.284143
   3 C :   -0.416668
   4 O :    0.141403
   5 C :   -0.082063
   6 C :   -0.094656
   7 C :    0.125419
   8 N :    0.401688
   9 C :   -0.452773
  10 S :   -0.035046
  11 N :    0.398180
  12 C :   -0.045238
  13 C :   -0.035400
  14 C :    0.010898
  15 C :    0.043937
  16 C :    0.001804
  17 C :   -0.193200
  18 O :    0.396451
  19 C :    0.031510
  20 H :   -0.023924
  21 H :   -0.024787
  22 H :   -0.027168
  23 H :   -0.038855
  24 H :   -0.028883
  25 H :   -0.010456
  26 H :   -0.008236
  27 H :   -0.016546
  28 H :   -0.061370
  29 H :   -0.066052
  30 H :   -0.000113
  31 H :   -0.028370
  32 H :   -0.019742
  33 H :   -0.033667
  34 H :   -0.152901
  35 H :   -0.028762

  Mayer bond orders larger than 0.100000
B(  0-C ,  1-C ) :   0.9756 B(  0-C , 20-H ) :   0.9768 B(  0-C , 21-H ) :   0.9827
B(  0-C , 22-H ) :   0.9778 B(  1-C ,  2-O ) :   0.9004 B(  1-C , 23-H ) :   0.9641
B(  1-C , 24-H ) :   0.9720 B(  2-O ,  3-C ) :   1.1283 B(  3-C ,  4-O ) :   2.0966
B(  3-C ,  5-C ) :   0.9329 B(  5-C ,  6-C ) :   1.7049 B(  5-C , 12-C ) :   0.9648
B(  6-C ,  7-C ) :   0.9503 B(  6-C ,  8-N ) :   1.0989 B(  7-C , 25-H ) :   0.9772
B(  7-C , 26-H ) :   0.9640 B(  7-C , 27-H ) :   0.9755 B(  8-N ,  9-C ) :   1.1797
B(  8-N , 28-H ) :   0.9522 B(  9-C , 10-S ) :   1.6206 B(  9-C , 11-N ) :   1.2917
B( 11-N , 12-C ) :   0.9752 B( 11-N , 29-H ) :   0.9542 B( 12-C , 13-C ) :   0.9654
B( 12-C , 30-H ) :   0.9884 B( 13-C , 14-C ) :   1.3646 B( 13-C , 19-C ) :   1.3432
B( 14-C , 15-C ) :   1.3777 B( 14-C , 31-H ) :   0.9681 B( 15-C , 16-C ) :   1.3787
B( 15-C , 32-H ) :   0.9700 B( 16-C , 17-C ) :   1.3267 B( 16-C , 33-H ) :   0.9827
B( 17-C , 18-O ) :   1.1197 B( 17-C , 19-C ) :   1.3883 B( 18-O , 34-H ) :   0.9791
B( 19-C , 35-H ) :   0.9512

MP2 TOTAL ENERGY:    -1274.315433688 Eh
FINAL SINGLE POINT ENERGY     -1274.315433687540

DIPOLE MOMENT
-------------
                                X             Y             Z
Electronic contribution:     11.39715       8.68627       6.06783
Nuclear contribution   :    -13.00623      -9.87230      -5.81703
                        -----------------------------------------
Total Dipole Moment    :     -1.60907      -1.18603       0.25079
                        -----------------------------------------
Magnitude (a.u.)       :      2.01462
Magnitude (Debye)      :      5.12075

Rotational constants in cm-1:     0.010866     0.009911     0.006761
Rotational constants in MHz :   325.749699   297.121923   202.683481

                             ****ORCA TERMINATED NORMALLY****
TOTAL RUN TIME: 0 days 1 hours 46 minutes 39 seconds 562 msec
