                         Program Version 4.2.0 -  RELEASE  -
|  1> ! ri-mp2 cc-pvtz cc-pvtz/c TightSCF  NoKeepInts
|  2>
|  3> %scf
|  4>   MaxCore 4096
|  5> end
|  6> *xyz  0  1
|  7>     C       15.4487022   14.1889754   16.9928528
|  8>     C       15.4469688   15.1477939   15.7794950
|  9>     O       16.6394893   15.9623150   15.6526166
| 10>     C       17.7180337   15.8547285   16.4831179
| 11>     O       18.3376948   14.8114825   16.6038993
| 12>     C       17.8920467   17.0090018   17.4271764
| 13>     C       17.4047025   18.2603275   17.2225950
| 14>     C       16.6284712   18.7736501   16.0272723
| 15>     N       17.6735107   19.2701702   18.1524041
| 16>     C       18.5299112   19.1495992   19.2149419
| 17>     S       18.8867312   20.4321725   20.1962335
| 18>     N       19.0744418   17.9078352   19.4234603
| 19>     C       18.6870751   16.6843324   18.6962844
| 20>     C       17.8955875   15.7466700   19.6045589
| 21>     C       18.2803217   14.4007593   19.7472981
| 22>     C       17.5449122   13.5278512   20.5663011
| 23>     C       16.4134568   14.0036856   21.2502266
| 24>     C       16.0247487   15.3425826   21.1089204
| 25>     O       14.9268546   15.8028033   21.7598801
| 26>     C       16.7579805   16.2087932   20.2919165
| 27>     H       16.2227374   13.4178385   16.8926523
| 28>     H       14.4828734   13.6754665   17.0690316
| 29>     H       15.6114007   14.7328057   17.9313701
| 30>     H       15.3258660   14.5530374   14.8647877
| 31>     H       14.5748323   15.8097968   15.8543290
| 32>     H       15.6017368   18.3883396   16.0365257
| 33>     H       17.1010237   18.4562093   15.0891289
| 34>     H       16.5716554   19.8686705   16.0000974
| 35>     H       17.2852496   20.1897798   18.0158239
| 36>     H       19.6803714   17.8379130   20.2309295
| 37>     H       19.6111192   16.1714382   18.3919967
| 38>     H       19.1434660   14.0249919   19.2027849
| 39>     H       17.8500167   12.4873116   20.6620396
| 40>     H       15.8413717   13.3321512   21.8817242
| 41>     H       14.5926279   15.0796370   22.3115732
| 42>     H       16.4390103   17.2410835   20.1977542
| 43> *
| 44>
| 45>                          ****END OF INPUT****

CARTESIAN COORDINATES (ANGSTROEM)
---------------------------------
  C     15.448702   14.188975   16.992853
  C     15.446969   15.147794   15.779495
  O     16.639489   15.962315   15.652617
  C     17.718034   15.854729   16.483118
  O     18.337695   14.811483   16.603899
  C     17.892047   17.009002   17.427176
  C     17.404702   18.260327   17.222595
  C     16.628471   18.773650   16.027272
  N     17.673511   19.270170   18.152404
  C     18.529911   19.149599   19.214942
  S     18.886731   20.432173   20.196234
  N     19.074442   17.907835   19.423460
  C     18.687075   16.684332   18.696284
  C     17.895588   15.746670   19.604559
  C     18.280322   14.400759   19.747298
  C     17.544912   13.527851   20.566301
  C     16.413457   14.003686   21.250227
  C     16.024749   15.342583   21.108920
  O     14.926855   15.802803   21.759880
  C     16.757980   16.208793   20.291916
  H     16.222737   13.417838   16.892652
  H     14.482873   13.675467   17.069032
  H     15.611401   14.732806   17.931370
  H     15.325866   14.553037   14.864788
  H     14.574832   15.809797   15.854329
  H     15.601737   18.388340   16.036526
  H     17.101024   18.456209   15.089129
  H     16.571655   19.868671   16.000097
  H     17.285250   20.189780   18.015824
  H     19.680371   17.837913   20.230929
  H     19.611119   16.171438   18.391997
  H     19.143466   14.024992   19.202785
  H     17.850017   12.487312   20.662040
  H     15.841372   13.332151   21.881724
  H     14.592628   15.079637   22.311573
  H     16.439010   17.241083   20.197754

 Total Charge           Charge          ....    0
 Multiplicity           Mult            ....    1
 Number of Electrons    NEL             ....  154
 Basis Dimension        Dim             ....  828

ORBITAL ENERGIES
----------------

  NO   OCC          E(Eh)            E(eV)
   0   2.0000     -91.889319     -2500.4355
   1   2.0000     -20.595249      -560.4252
   2   2.0000     -20.585851      -560.1695
   3   2.0000     -20.550301      -559.2021
   4   2.0000     -15.629564      -425.3021
   5   2.0000     -15.608112      -424.7183
   6   2.0000     -11.395724      -310.0934
   7   2.0000     -11.384355      -309.7841
   8   2.0000     -11.336722      -308.4879
   9   2.0000     -11.311477      -307.8009
  10   2.0000     -11.307180      -307.6840
  11   2.0000     -11.306194      -307.6572
  12   2.0000     -11.260262      -306.4073
  13   2.0000     -11.260135      -306.4038
  14   2.0000     -11.256832      -306.3140
  15   2.0000     -11.251444      -306.1674
  16   2.0000     -11.241195      -305.8885
  17   2.0000     -11.237088      -305.7767
  18   2.0000     -11.233670      -305.6837
  19   2.0000     -11.225557      -305.4629
  20   2.0000      -8.894381      -242.0284
  21   2.0000      -6.575956      -178.9409
  22   2.0000      -6.573950      -178.8863
  23   2.0000      -6.573363      -178.8703
  24   2.0000      -1.445593       -39.3366
  25   2.0000      -1.415067       -38.5059
  26   2.0000      -1.354521       -36.8584
  27   2.0000      -1.340482       -36.4764
  28   2.0000      -1.238254       -33.6946
  29   2.0000      -1.155582       -31.4450
  30   2.0000      -1.120691       -30.4955
  31   2.0000      -1.043520       -28.3956
  32   2.0000      -1.032170       -28.0868
  33   2.0000      -1.013170       -27.5698
  34   2.0000      -0.999699       -27.2032
  35   2.0000      -0.985158       -26.8075
  36   2.0000      -0.923702       -25.1352
  37   2.0000      -0.896180       -24.3863
  38   2.0000      -0.849531       -23.1169
  39   2.0000      -0.838467       -22.8159
  40   2.0000      -0.831523       -22.6269
  41   2.0000      -0.819496       -22.2996
  42   2.0000      -0.743444       -20.2301
  43   2.0000      -0.728472       -19.8227
  44   2.0000      -0.726531       -19.7699
  45   2.0000      -0.693009       -18.8577
  46   2.0000      -0.686082       -18.6693
  47   2.0000      -0.675883       -18.3917
  48   2.0000      -0.674689       -18.3592
  49   2.0000      -0.663095       -18.0437
  50   2.0000      -0.650804       -17.7093
  51   2.0000      -0.646120       -17.5818
  52   2.0000      -0.635012       -17.2795
  53   2.0000      -0.623910       -16.9774
  54   2.0000      -0.603780       -16.4297
  55   2.0000      -0.602189       -16.3864
  56   2.0000      -0.599112       -16.3027
  57   2.0000      -0.577761       -15.7217
  58   2.0000      -0.575173       -15.6512
  59   2.0000      -0.564455       -15.3596
  60   2.0000      -0.550809       -14.9883
  61   2.0000      -0.546468       -14.8701
  62   2.0000      -0.536879       -14.6092
  63   2.0000      -0.526909       -14.3379
  64   2.0000      -0.518953       -14.1214
  65   2.0000      -0.511087       -13.9074
  66   2.0000      -0.500345       -13.6151
  67   2.0000      -0.495818       -13.4919
  68   2.0000      -0.480165       -13.0659
  69   2.0000      -0.464729       -12.6459
  70   2.0000      -0.455733       -12.4011
  71   2.0000      -0.449122       -12.2212
  72   2.0000      -0.355073        -9.6620
  73   2.0000      -0.347368        -9.4524
  74   2.0000      -0.328515        -8.9393
  75   2.0000      -0.318791        -8.6747
  76   2.0000      -0.316220        -8.6048
  77   0.0000       0.071795         1.9536
  78   0.0000       0.107734         2.9316
  79   0.0000       0.120566         3.2808
  80   0.0000       0.132743         3.6121
  81   0.0000       0.138956         3.7812

MULLIKEN ATOMIC CHARGES
-----------------------
   0 C :   -0.324849
   1 C :    0.061353
   2 O :   -0.384732
   3 C :    0.472688
   4 O :   -0.406453
   5 C :   -0.199394
   6 C :    0.138502
   7 C :   -0.284876
   8 N :   -0.122000
   9 C :    0.198544
  10 S :   -0.437870
  11 N :   -0.200749
  12 C :    0.048774
  13 C :    0.027246
  14 C :   -0.156414
  15 C :   -0.139865
  16 C :   -0.272372
  17 C :    0.308803
  18 O :   -0.360415
  19 C :   -0.264142
  20 H :    0.124330
  21 H :    0.107914
  22 H :    0.108328
  23 H :    0.104912
  24 H :    0.087598
  25 H :    0.121099
  26 H :    0.131708
  27 H :    0.105144
  28 H :    0.197205
  29 H :    0.194172
  30 H :    0.155547
  31 H :    0.159919
  32 H :    0.161198
  33 H :    0.130715
  34 H :    0.240531
  35 H :    0.167902
Sum of atomic charges:    0.0000000

LOEWDIN ATOMIC CHARGES
----------------------
   0 C :    0.107091
   1 C :   -0.010312
   2 O :    0.284606
   3 C :   -0.419193
   4 O :    0.121840
   5 C :   -0.094911
   6 C :   -0.067926
   7 C :    0.125962
   8 N :    0.404879
   9 C :   -0.458929
  10 S :   -0.035110
  11 N :    0.397649
  12 C :   -0.046068
  13 C :   -0.041506
  14 C :    0.022743
  15 C :    0.041895
  16 C :   -0.002208
  17 C :   -0.194344
  18 O :    0.393899
  19 C :    0.026659
  20 H :   -0.023230
  21 H :   -0.024708
  22 H :   -0.026185
  23 H :   -0.026346
  24 H :   -0.032061
  25 H :   -0.011037
  26 H :   -0.006314
  27 H :   -0.020250
  28 H :   -0.058830
  29 H :   -0.063834
  30 H :   -0.004412
  31 H :   -0.024356
  32 H :   -0.020400
  33 H :   -0.035736
  34 H :   -0.154202
  35 H :   -0.024813

  Mayer bond orders larger than 0.100000
B(  0-C ,  1-C ) :   0.9681 B(  0-C , 20-H ) :   0.9700 B(  0-C , 21-H ) :   0.9745
B(  0-C , 22-H ) :   0.9662 B(  1-C ,  2-O ) :   0.8990 B(  1-C , 23-H ) :   0.9829
B(  1-C , 24-H ) :   0.9776 B(  2-O ,  3-C ) :   1.0922 B(  3-C ,  4-O ) :   2.0222
B(  3-C ,  5-C ) :   1.0343 B(  5-C ,  6-C ) :   1.6615 B(  5-C , 12-C ) :   0.9602
B(  6-C ,  7-C ) :   0.9526 B(  6-C ,  8-N ) :   1.1459 B(  7-C , 25-H ) :   0.9665
B(  7-C , 26-H ) :   0.9656 B(  7-C , 27-H ) :   0.9899 B(  8-N ,  9-C ) :   1.1801
B(  8-N , 28-H ) :   0.9489 B(  9-C , 10-S ) :   1.6127 B(  9-C , 11-N ) :   1.3024
B( 11-N , 12-C ) :   0.9903 B( 11-N , 29-H ) :   0.9519 B( 12-C , 13-C ) :   0.9452
B( 12-C , 30-H ) :   0.9997 B( 13-C , 14-C ) :   1.3835 B( 13-C , 19-C ) :   1.3650
B( 14-C , 15-C ) :   1.3942 B( 14-C , 31-H ) :   0.9615 B( 15-C , 16-C ) :   1.3620
B( 15-C , 32-H ) :   0.9708 B( 16-C , 17-C ) :   1.3318 B( 16-C , 33-H ) :   0.9848
B( 17-C , 18-O ) :   1.1101 B( 17-C , 19-C ) :   1.3730 B( 18-O , 34-H ) :   0.9801
B( 19-C , 35-H ) :   0.9587

MP2 TOTAL ENERGY:    -1274.331700048 Eh
FINAL SINGLE POINT ENERGY     -1274.331700047544

DIPOLE MOMENT
-------------
                                X             Y             Z
Electronic contribution:      9.75630       9.61506       6.96886
Nuclear contribution   :    -11.27141     -10.82346      -7.68924
                        -----------------------------------------
Total Dipole Moment    :     -1.51511      -1.20840      -0.72038
                        -----------------------------------------
Magnitude (a.u.)       :      2.06754
Magnitude (Debye)      :      5.25527

Rotational constants in cm-1:     0.011698     0.009432     0.006535
Rotational constants in MHz :   350.683415   282.763311   195.928719

                             ****ORCA TERMINATED NORMALLY****
TOTAL RUN TIME: 0 days 2 hours 4 minutes 8 seconds 924 msec
