                         Program Version 4.2.0 -  RELEASE  -
|  1> ! ri-mp2 cc-pvtz cc-pvtz/c TightSCF  NoKeepInts
|  2>
|  3> %scf
|  4>   MaxCore 4096
|  5> end
|  6> *xyz  0  1
|  7>     C       15.0795745   14.2740653   17.2033514
|  8>     C       15.4277146   15.6557911   16.6229660
|  9>     O       16.6519144   15.5204509   15.8720506
| 10>     C       17.8635663   15.6847134   16.4859911
| 11>     O       18.6632825   14.7677151   16.5286348
| 12>     C       18.0004493   16.8983433   17.3531632
| 13>     C       17.5370908   18.1238543   17.0066889
| 14>     C       16.8668425   18.5156790   15.7065983
| 15>     N       17.7307955   19.2083449   17.8660898
| 16>     C       18.4652700   19.1672665   19.0225493
| 17>     S       18.7048878   20.5169226   19.9472267
| 18>     N       18.9872512   17.9479412   19.3777001
| 19>     C       18.7269211   16.6739899   18.6793243
| 20>     C       17.9255516   15.7210235   19.5608058
| 21>     C       18.3506022   14.3922668   19.7416534
| 22>     C       17.5991472   13.5004041   20.5249182
| 23>     C       16.4090422   13.9388436   21.1299500
| 24>     C       15.9791031   15.2599267   20.9473313
| 25>     O       14.8225834   15.6829117   21.5164802
| 26>     C       16.7299194   16.1461097   20.1687096
| 27>     H       15.8604712   13.9361749   17.8966760
| 28>     H       14.9862807   13.5297637   16.4026315
| 29>     H       14.1305989   14.3129511   17.7515580
| 30>     H       14.6209420   15.9639655   15.9455990
| 31>     H       15.4984191   16.3973655   17.4281104
| 32>     H       17.1904461   17.8743740   14.8769531
| 33>     H       17.1141320   19.5449909   15.4177851
| 34>     H       15.7758435   18.4423748   15.7854035
| 35>     H       17.3639013   20.1143249   17.6199287
| 36>     H       19.5034157   17.9423309   20.2484290
| 37>     H       19.6978791   16.2075035   18.4563812
| 38>     H       19.2583466   14.0436301   19.2540313
| 39>     H       17.9362667   12.4729503   20.6515777
| 40>     H       15.8234228   13.2512614   21.7312505
| 41>     H       14.4861685   14.9568943   22.0636615
| 42>     H       16.3789563   17.1645805   20.0418409
| 43> *
| 44>
| 45>                          ****END OF INPUT****

CARTESIAN COORDINATES (ANGSTROEM)
---------------------------------
  C     15.079574   14.274065   17.203351
  C     15.427715   15.655791   16.622966
  O     16.651914   15.520451   15.872051
  C     17.863566   15.684713   16.485991
  O     18.663283   14.767715   16.528635
  C     18.000449   16.898343   17.353163
  C     17.537091   18.123854   17.006689
  C     16.866843   18.515679   15.706598
  N     17.730795   19.208345   17.866090
  C     18.465270   19.167267   19.022549
  S     18.704888   20.516923   19.947227
  N     18.987251   17.947941   19.377700
  C     18.726921   16.673990   18.679324
  C     17.925552   15.721023   19.560806
  C     18.350602   14.392267   19.741653
  C     17.599147   13.500404   20.524918
  C     16.409042   13.938844   21.129950
  C     15.979103   15.259927   20.947331
  O     14.822583   15.682912   21.516480
  C     16.729919   16.146110   20.168710
  H     15.860471   13.936175   17.896676
  H     14.986281   13.529764   16.402631
  H     14.130599   14.312951   17.751558
  H     14.620942   15.963965   15.945599
  H     15.498419   16.397365   17.428110
  H     17.190446   17.874374   14.876953
  H     17.114132   19.544991   15.417785
  H     15.775844   18.442375   15.785403
  H     17.363901   20.114325   17.619929
  H     19.503416   17.942331   20.248429
  H     19.697879   16.207504   18.456381
  H     19.258347   14.043630   19.254031
  H     17.936267   12.472950   20.651578
  H     15.823423   13.251261   21.731251
  H     14.486168   14.956894   22.063661
  H     16.378956   17.164580   20.041841

 Total Charge           Charge          ....    0
 Multiplicity           Mult            ....    1
 Number of Electrons    NEL             ....  154
 Basis Dimension        Dim             ....  828

ORBITAL ENERGIES
----------------

  NO   OCC          E(Eh)            E(eV)
   0   2.0000     -91.891231     -2500.4875
   1   2.0000     -20.599852      -560.5505
   2   2.0000     -20.592689      -560.3556
   3   2.0000     -20.551993      -559.2482
   4   2.0000     -15.630411      -425.3251
   5   2.0000     -15.611364      -424.8068
   6   2.0000     -11.395639      -310.0911
   7   2.0000     -11.387335      -309.8651
   8   2.0000     -11.335340      -308.4503
   9   2.0000     -11.316321      -307.9328
  10   2.0000     -11.311917      -307.8129
  11   2.0000     -11.303789      -307.5917
  12   2.0000     -11.265866      -306.5598
  13   2.0000     -11.262922      -306.4797
  14   2.0000     -11.262086      -306.4569
  15   2.0000     -11.256062      -306.2930
  16   2.0000     -11.245665      -306.0101
  17   2.0000     -11.242170      -305.9150
  18   2.0000     -11.238735      -305.8215
  19   2.0000     -11.224095      -305.4231
  20   2.0000      -8.896315      -242.0810
  21   2.0000      -6.577893      -178.9936
  22   2.0000      -6.575879      -178.9388
  23   2.0000      -6.575295      -178.9229
  24   2.0000      -1.448487       -39.4153
  25   2.0000      -1.419621       -38.6299
  26   2.0000      -1.359064       -36.9820
  27   2.0000      -1.342184       -36.5227
  28   2.0000      -1.240797       -33.7638
  29   2.0000      -1.160878       -31.5891
  30   2.0000      -1.125010       -30.6131
  31   2.0000      -1.048068       -28.5194
  32   2.0000      -1.033630       -28.1265
  33   2.0000      -1.018156       -27.7054
  34   2.0000      -1.004432       -27.3320
  35   2.0000      -0.989252       -26.9189
  36   2.0000      -0.927408       -25.2361
  37   2.0000      -0.884544       -24.0697
  38   2.0000      -0.854761       -23.2592
  39   2.0000      -0.842448       -22.9242
  40   2.0000      -0.836532       -22.7632
  41   2.0000      -0.834019       -22.6948
  42   2.0000      -0.749850       -20.4044
  43   2.0000      -0.738237       -20.0884
  44   2.0000      -0.731084       -19.8938
  45   2.0000      -0.697946       -18.9921
  46   2.0000      -0.688002       -18.7215
  47   2.0000      -0.679615       -18.4933
  48   2.0000      -0.677289       -18.4300
  49   2.0000      -0.662980       -18.0406
  50   2.0000      -0.655187       -17.8285
  51   2.0000      -0.649339       -17.6694
  52   2.0000      -0.640474       -17.4282
  53   2.0000      -0.611392       -16.6368
  54   2.0000      -0.609087       -16.5741
  55   2.0000      -0.604947       -16.4615
  56   2.0000      -0.599537       -16.3142
  57   2.0000      -0.582104       -15.8398
  58   2.0000      -0.577747       -15.7213
  59   2.0000      -0.570532       -15.5250
  60   2.0000      -0.560046       -15.2396
  61   2.0000      -0.557062       -15.1584
  62   2.0000      -0.542891       -14.7728
  63   2.0000      -0.527415       -14.3517
  64   2.0000      -0.519369       -14.1327
  65   2.0000      -0.513777       -13.9806
  66   2.0000      -0.502632       -13.6773
  67   2.0000      -0.496083       -13.4991
  68   2.0000      -0.488216       -13.2850
  69   2.0000      -0.470275       -12.7968
  70   2.0000      -0.458547       -12.4777
  71   2.0000      -0.447770       -12.1844
  72   2.0000      -0.357614        -9.7312
  73   2.0000      -0.352201        -9.5839
  74   2.0000      -0.330651        -8.9975
  75   2.0000      -0.323830        -8.8119
  76   2.0000      -0.319191        -8.6856
  77   0.0000       0.074065         2.0154
  78   0.0000       0.102727         2.7953
  79   0.0000       0.116965         3.1828
  80   0.0000       0.127806         3.4778
  81   0.0000       0.136399         3.7116

MULLIKEN ATOMIC CHARGES
-----------------------
   0 C :   -0.270785
   1 C :   -0.003735
   2 O :   -0.345929
   3 C :    0.438790
   4 O :   -0.384895
   5 C :   -0.230927
   6 C :    0.155132
   7 C :   -0.304086
   8 N :   -0.129853
   9 C :    0.200859
  10 S :   -0.437710
  11 N :   -0.205142
  12 C :    0.064650
  13 C :    0.033341
  14 C :   -0.176519
  15 C :   -0.132273
  16 C :   -0.276880
  17 C :    0.317914
  18 O :   -0.360899
  19 C :   -0.290345
  20 H :    0.109002
  21 H :    0.109705
  22 H :    0.091336
  23 H :    0.118394
  24 H :    0.102959
  25 H :    0.138649
  26 H :    0.119608
  27 H :    0.120254
  28 H :    0.197641
  29 H :    0.195944
  30 H :    0.159453
  31 H :    0.162840
  32 H :    0.163363
  33 H :    0.131957
  34 H :    0.242057
  35 H :    0.176130
Sum of atomic charges:    0.0000000

LOEWDIN ATOMIC CHARGES
----------------------
   0 C :    0.108885
   1 C :   -0.024420
   2 O :    0.297428
   3 C :   -0.418650
   4 O :    0.127515
   5 C :   -0.092003
   6 C :   -0.085021
   7 C :    0.128436
   8 N :    0.403352
   9 C :   -0.457327
  10 S :   -0.034749
  11 N :    0.397198
  12 C :   -0.045922
  13 C :   -0.044026
  14 C :    0.022429
  15 C :    0.043797
  16 C :   -0.000115
  17 C :   -0.193487
  18 O :    0.394253
  19 C :    0.027586
  20 H :   -0.023039
  21 H :   -0.023995
  22 H :   -0.027177
  23 H :   -0.027460
  24 H :   -0.039268
  25 H :   -0.005868
  26 H :   -0.014674
  27 H :   -0.014535
  28 H :   -0.057775
  29 H :   -0.063481
  30 H :   -0.003460
  31 H :   -0.022600
  32 H :   -0.019022
  33 H :   -0.034780
  34 H :   -0.152863
  35 H :   -0.025164

  Mayer bond orders larger than 0.100000
B(  0-C ,  1-C ) :   0.9843 B(  0-C , 20-H ) :   0.9694 B(  0-C , 21-H ) :   0.9789
B(  0-C , 22-H ) :   0.9760 B(  1-C ,  2-O ) :   0.8923 B(  1-C , 23-H ) :   0.9794
B(  1-C , 24-H ) :   0.9605 B(  2-O ,  3-C ) :   1.1485 B(  3-C ,  4-O ) :   2.0803
B(  3-C ,  5-C ) :   0.9524 B(  5-C ,  6-C ) :   1.6694 B(  5-C , 12-C ) :   0.9623
B(  6-C ,  7-C ) :   0.9469 B(  6-C ,  8-N ) :   1.1344 B(  7-C , 25-H ) :   0.9717
B(  7-C , 26-H ) :   0.9823 B(  7-C , 27-H ) :   0.9629 B(  8-N ,  9-C ) :   1.1864
B(  8-N , 28-H ) :   0.9502 B(  9-C , 10-S ) :   1.6138 B(  9-C , 11-N ) :   1.2952
B( 11-N , 12-C ) :   0.9977 B( 11-N , 29-H ) :   0.9509 B( 12-C , 13-C ) :   0.9412
B( 12-C , 30-H ) :   0.9978 B( 13-C , 14-C ) :   1.3862 B( 13-C , 19-C ) :   1.3500
B( 14-C , 15-C ) :   1.3930 B( 14-C , 31-H ) :   0.9619 B( 15-C , 16-C ) :   1.3625
B( 15-C , 32-H ) :   0.9708 B( 16-C , 17-C ) :   1.3309 B( 16-C , 33-H ) :   0.9848
B( 17-C , 18-O ) :   1.1081 B( 17-C , 19-C ) :   1.3695 B( 18-O , 34-H ) :   0.9790
B( 19-C , 35-H ) :   0.9568

MP2 TOTAL ENERGY:    -1274.336177038 Eh
FINAL SINGLE POINT ENERGY     -1274.336177037643

DIPOLE MOMENT
-------------
                                X             Y             Z
Electronic contribution:     10.11122       8.56706       5.63221
Nuclear contribution   :    -11.58628      -9.45883      -5.96132
                        -----------------------------------------
Total Dipole Moment    :     -1.47506      -0.89177      -0.32911
                        -----------------------------------------
Magnitude (a.u.)       :      1.75482
Magnitude (Debye)      :      4.46039

Rotational constants in cm-1:     0.012479     0.009225     0.006860
Rotational constants in MHz :   374.101528   276.546955   205.664287

                             ****ORCA TERMINATED NORMALLY****
TOTAL RUN TIME: 0 days 1 hours 52 minutes 28 seconds 417 msec
