                         Program Version 4.2.0 -  RELEASE  -
|  1> ! ri-mp2 cc-pvtz cc-pvtz/c TightSCF  NoKeepInts
|  2>
|  3> %scf
|  4>   MaxCore 4096
|  5> end
|  6> *xyz  0  1
|  7>     C       15.0817281   15.4163578   17.5752326
|  8>     C       15.6154972   15.3306168   16.1326794
|  9>     O       17.0003277   14.9228542   16.1053502
| 10>     C       18.1210376   15.6272741   16.4828384
| 11>     O       19.1932724   15.0513210   16.4713937
| 12>     C       17.9333785   16.8166092   17.3683638
| 13>     C       17.4108485   17.9838828   16.9235620
| 14>     C       16.9660581   18.3128006   15.5148534
| 15>     N       17.3642281   19.0943408   17.7691692
| 16>     C       17.9574531   19.1608429   19.0023343
| 17>     S       17.9280129   20.5447991   19.9066215
| 18>     N       18.5837654   18.0228110   19.4460375
| 19>     C       18.5521455   16.7112922   18.7676526
| 20>     C       17.8629501   15.6494763   19.6240367
| 21>     C       18.3120048   14.3162760   19.5805478
| 22>     C       17.6885648   13.3216497   20.3518519
| 23>     C       16.6052978   13.6604614   21.1795253
| 24>     C       16.1544342   14.9859508   21.2294908
| 25>     O       15.1023966   15.3151356   22.0203007
| 26>     C       16.7766938   15.9745297   20.4603550
| 27>     H       15.4368549   14.5661658   18.1717060
| 28>     H       13.9853290   15.3916500   17.5753077
| 29>     H       15.3856470   16.3458164   18.0669530
| 30>     H       15.0361441   14.5572054   15.6116655
| 31>     H       15.4430813   16.2653768   15.5939933
| 32>     H       17.2094546   17.5149691   14.8025932
| 33>     H       17.4728748   19.2160930   15.1510716
| 34>     H       15.8857433   18.4976377   15.4716269
| 35>     H       16.9318761   19.9478249   17.4519776
| 36>     H       19.0051742   18.0969546   20.3634363
| 37>     H       19.5966965   16.3916629   18.6361190
| 38>     H       19.1450538   14.0465947   18.9345395
| 39>     H       18.0447687   12.2940562   20.3020348
| 40>     H       16.1196212   12.8945680   21.7750788
| 41>     H       14.8380314   14.5154408   22.4996630
| 42>     H       16.4005540   16.9907017   20.5140367
| 43> *
| 44>
| 45>                          ****END OF INPUT****

CARTESIAN COORDINATES (ANGSTROEM)
---------------------------------
  C     15.081728   15.416358   17.575233
  C     15.615497   15.330617   16.132679
  O     17.000328   14.922854   16.105350
  C     18.121038   15.627274   16.482838
  O     19.193272   15.051321   16.471394
  C     17.933378   16.816609   17.368364
  C     17.410849   17.983883   16.923562
  C     16.966058   18.312801   15.514853
  N     17.364228   19.094341   17.769169
  C     17.957453   19.160843   19.002334
  S     17.928013   20.544799   19.906621
  N     18.583765   18.022811   19.446037
  C     18.552146   16.711292   18.767653
  C     17.862950   15.649476   19.624037
  C     18.312005   14.316276   19.580548
  C     17.688565   13.321650   20.351852
  C     16.605298   13.660461   21.179525
  C     16.154434   14.985951   21.229491
  O     15.102397   15.315136   22.020301
  C     16.776694   15.974530   20.460355
  H     15.436855   14.566166   18.171706
  H     13.985329   15.391650   17.575308
  H     15.385647   16.345816   18.066953
  H     15.036144   14.557205   15.611665
  H     15.443081   16.265377   15.593993
  H     17.209455   17.514969   14.802593
  H     17.472875   19.216093   15.151072
  H     15.885743   18.497638   15.471627
  H     16.931876   19.947825   17.451978
  H     19.005174   18.096955   20.363436
  H     19.596697   16.391663   18.636119
  H     19.145054   14.046595   18.934539
  H     18.044769   12.294056   20.302035
  H     16.119621   12.894568   21.775079
  H     14.838031   14.515441   22.499663
  H     16.400554   16.990702   20.514037

 Total Charge           Charge          ....    0
 Multiplicity           Mult            ....    1
 Number of Electrons    NEL             ....  154
 Basis Dimension        Dim             ....  828

ORBITAL ENERGIES
----------------

  NO   OCC          E(Eh)            E(eV)
   0   2.0000     -91.890279     -2500.4616
   1   2.0000     -20.600706      -560.5737
   2   2.0000     -20.597201      -560.4783
   3   2.0000     -20.550270      -559.2013
   4   2.0000     -15.627441      -425.2443
   5   2.0000     -15.611447      -424.8091
   6   2.0000     -11.400729      -310.2296
   7   2.0000     -11.386830      -309.8514
   8   2.0000     -11.330406      -308.3160
   9   2.0000     -11.315205      -307.9024
  10   2.0000     -11.313714      -307.8618
  11   2.0000     -11.308023      -307.7070
  12   2.0000     -11.272426      -306.7383
  13   2.0000     -11.268037      -306.6189
  14   2.0000     -11.261797      -306.4491
  15   2.0000     -11.254258      -306.2439
  16   2.0000     -11.243551      -305.9526
  17   2.0000     -11.239058      -305.8303
  18   2.0000     -11.235908      -305.7446
  19   2.0000     -11.228096      -305.5320
  20   2.0000      -8.895391      -242.0559
  21   2.0000      -6.576982      -178.9688
  22   2.0000      -6.574952      -178.9135
  23   2.0000      -6.574378      -178.8979
  24   2.0000      -1.446997       -39.3748
  25   2.0000      -1.417028       -38.5593
  26   2.0000      -1.358440       -36.9650
  27   2.0000      -1.341165       -36.4950
  28   2.0000      -1.240481       -33.7552
  29   2.0000      -1.158726       -31.5305
  30   2.0000      -1.125446       -30.6249
  31   2.0000      -1.047942       -28.5159
  32   2.0000      -1.038663       -28.2635
  33   2.0000      -1.017102       -27.6767
  34   2.0000      -1.005916       -27.3724
  35   2.0000      -0.990145       -26.9432
  36   2.0000      -0.928005       -25.2523
  37   2.0000      -0.895446       -24.3663
  38   2.0000      -0.855275       -23.2732
  39   2.0000      -0.840645       -22.8751
  40   2.0000      -0.834092       -22.6968
  41   2.0000      -0.830447       -22.5976
  42   2.0000      -0.749738       -20.4014
  43   2.0000      -0.740392       -20.1471
  44   2.0000      -0.730368       -19.8743
  45   2.0000      -0.695193       -18.9172
  46   2.0000      -0.687487       -18.7075
  47   2.0000      -0.679891       -18.5008
  48   2.0000      -0.675383       -18.3781
  49   2.0000      -0.663666       -18.0593
  50   2.0000      -0.652407       -17.7529
  51   2.0000      -0.645511       -17.5652
  52   2.0000      -0.639859       -17.4114
  53   2.0000      -0.617897       -16.8138
  54   2.0000      -0.611250       -16.6330
  55   2.0000      -0.605902       -16.4874
  56   2.0000      -0.601679       -16.3725
  57   2.0000      -0.590923       -16.0798
  58   2.0000      -0.579277       -15.7629
  59   2.0000      -0.572119       -15.5681
  60   2.0000      -0.565672       -15.3927
  61   2.0000      -0.556745       -15.1498
  62   2.0000      -0.539155       -14.6712
  63   2.0000      -0.531363       -14.4591
  64   2.0000      -0.518289       -14.1033
  65   2.0000      -0.512654       -13.9500
  66   2.0000      -0.504039       -13.7156
  67   2.0000      -0.501161       -13.6373
  68   2.0000      -0.483438       -13.1550
  69   2.0000      -0.464680       -12.6446
  70   2.0000      -0.454394       -12.3647
  71   2.0000      -0.451469       -12.2851
  72   2.0000      -0.357764        -9.7353
  73   2.0000      -0.347899        -9.4668
  74   2.0000      -0.329938        -8.9781
  75   2.0000      -0.322689        -8.7808
  76   2.0000      -0.318865        -8.6768
  77   0.0000       0.085578         2.3287
  78   0.0000       0.106877         2.9083
  79   0.0000       0.111787         3.0419
  80   0.0000       0.129968         3.5366
  81   0.0000       0.131103         3.5675

MULLIKEN ATOMIC CHARGES
-----------------------
   0 C :   -0.317501
   1 C :    0.009973
   2 O :   -0.317719
   3 C :    0.413034
   4 O :   -0.382775
   5 C :   -0.207475
   6 C :    0.146935
   7 C :   -0.333000
   8 N :   -0.137685
   9 C :    0.205565
  10 S :   -0.441145
  11 N :   -0.229068
  12 C :    0.094459
  13 C :    0.020594
  14 C :   -0.210560
  15 C :   -0.136029
  16 C :   -0.278732
  17 C :    0.320765
  18 O :   -0.358596
  19 C :   -0.274030
  20 H :    0.126384
  21 H :    0.113281
  22 H :    0.105581
  23 H :    0.131910
  24 H :    0.089374
  25 H :    0.123991
  26 H :    0.141834
  27 H :    0.121213
  28 H :    0.196144
  29 H :    0.203158
  30 H :    0.168617
  31 H :    0.175239
  32 H :    0.163841
  33 H :    0.131859
  34 H :    0.241012
  35 H :    0.179551
Sum of atomic charges:    0.0000000

LOEWDIN ATOMIC CHARGES
----------------------
   0 C :    0.103679
   1 C :   -0.021427
   2 O :    0.304712
   3 C :   -0.415225
   4 O :    0.124669
   5 C :   -0.076681
   6 C :   -0.102844
   7 C :    0.121140
   8 N :    0.401748
   9 C :   -0.457852
  10 S :   -0.037958
  11 N :    0.398554
  12 C :   -0.041661
  13 C :   -0.041656
  14 C :    0.021193
  15 C :    0.043340
  16 C :   -0.001935
  17 C :   -0.193598
  18 O :    0.395376
  19 C :    0.028547
  20 H :   -0.017852
  21 H :   -0.025678
  22 H :   -0.036206
  23 H :   -0.018487
  24 H :   -0.040362
  25 H :   -0.009350
  26 H :   -0.008281
  27 H :   -0.018066
  28 H :   -0.057864
  29 H :   -0.063285
  30 H :   -0.001459
  31 H :   -0.021947
  32 H :   -0.018628
  33 H :   -0.035054
  34 H :   -0.153609
  35 H :   -0.025994

  Mayer bond orders larger than 0.100000
B(  0-C ,  1-C ) :   0.9541 B(  0-C , 20-H ) :   0.9687 B(  0-C , 21-H ) :   0.9766
B(  0-C , 22-H ) :   0.9721 B(  1-C ,  2-O ) :   0.9095 B(  1-C , 23-H ) :   0.9844
B(  1-C , 24-H ) :   0.9745 B(  2-O ,  3-C ) :   1.1688 B(  3-C ,  4-O ) :   2.0786
B(  3-C ,  5-C ) :   0.9219 B(  5-C ,  6-C ) :   1.6977 B(  5-C , 12-C ) :   0.9477
B(  6-C ,  7-C ) :   0.9443 B(  6-C ,  8-N ) :   1.1042 B(  7-C , 25-H ) :   0.9819
B(  7-C , 26-H ) :   0.9690 B(  7-C , 27-H ) :   0.9668 B(  8-N ,  9-C ) :   1.1972
B(  8-N , 28-H ) :   0.9529 B(  9-C , 10-S ) :   1.6079 B(  9-C , 11-N ) :   1.2880
B( 11-N , 12-C ) :   0.9865 B( 11-N , 29-H ) :   0.9473 B( 12-C , 13-C ) :   0.9538
B( 12-C , 30-H ) :   0.9945 B( 13-C , 14-C ) :   1.3895 B( 13-C , 19-C ) :   1.3361
B( 14-C , 15-C ) :   1.4031 B( 14-C , 31-H ) :   0.9583 B( 15-C , 16-C ) :   1.3570
B( 15-C , 32-H ) :   0.9702 B( 16-C , 17-C ) :   1.3317 B( 16-C , 33-H ) :   0.9850
B( 17-C , 18-O ) :   1.1087 B( 17-C , 19-C ) :   1.3683 B( 18-O , 34-H ) :   0.9796
B( 19-C , 35-H ) :   0.9563

MP2 TOTAL ENERGY:    -1274.326374412 Eh
FINAL SINGLE POINT ENERGY     -1274.326374412039

DIPOLE MOMENT
-------------
                                X             Y             Z
Electronic contribution:      8.94593       6.26203       6.26120
Nuclear contribution   :    -10.43989      -7.28323      -7.02260
                        -----------------------------------------
Total Dipole Moment    :     -1.49396      -1.02119      -0.76140
                        -----------------------------------------
Magnitude (a.u.)       :      1.96328
Magnitude (Debye)      :      4.99027

Rotational constants in cm-1:     0.011963     0.009551     0.006807
Rotational constants in MHz :   358.627680   286.322016   204.063769

                             ****ORCA TERMINATED NORMALLY****
TOTAL RUN TIME: 0 days 1 hours 54 minutes 16 seconds 582 msec
