                         Program Version 5.0.0 -  RELEASE  -
|  1> ! ri-mp2 cc-pvtz cc-pvtz/c TightSCF NoKeepInts
|  2>
|  3> %scf
|  4>   MaxCore 4096
|  5> end
|  6> *xyz  0  1
|  7>     C       14.5274098   14.5363222   16.0523167
|  8>     C       15.6891066   15.0390096   16.9245068
|  9>     O       16.7620101   15.4101420   16.0431427
| 10>     C       17.9863243   15.5780365   16.6150965
| 11>     O       18.6775767   14.6073994   16.8677775
| 12>     C       18.0714956   16.8341276   17.4273209
| 13>     C       17.5350877   18.0148495   17.0326249
| 14>     C       16.8138752   18.3010761   15.7323493
| 15>     N       17.6886852   19.1500082   17.8336654
| 16>     C       18.4673202   19.2105041   18.9601345
| 17>     S       18.6811427   20.6218965   19.7948238
| 18>     N       19.0578420   18.0380800   19.3626511
| 19>     C       18.8037750   16.7127922   18.7651322
| 20>     C       18.0076220   15.8307797   19.7231696
| 21>     C       18.4608337   14.5386429   20.0458611
| 22>     C       17.7174445   13.7123426   20.9050691
| 23>     C       16.5079102   14.1802879   21.4459715
| 24>     C       16.0503805   15.4648420   21.1236090
| 25>     O       14.8762374   15.9154458   21.6323346
| 26>     C       16.7921401   16.2848615   20.2676943
| 27>     H       14.8430502   13.6744149   15.4509087
| 28>     H       14.1825879   15.3253154   15.3727326
| 29>     H       13.6819991   14.2265550   16.6786157
| 30>     H       15.3696065   15.8942551   17.5345267
| 31>     H       16.0114891   14.2317482   17.5976704
| 32>     H       17.2832539   17.7687099   14.8953193
| 33>     H       16.8243202   19.3677044   15.4763836
| 34>     H       15.7669426   17.9785700   15.7878635
| 35>     H       17.2666334   20.0211818   17.5532886
| 36>     H       19.6048166   18.1061127   20.2115182
| 37>     H       19.7763823   16.2349208   18.5770926
| 38>     H       19.3851487   14.1656489   19.6105805
| 39>     H       18.0768861   12.7122230   21.1414176
| 40>     H       15.9293506   13.5435918   22.1071801
| 41>     H       14.5503210   15.2431471   22.2499142
| 42>     H       16.4199921   17.2764548   20.0337362
| 43> *
| 44>
| 45>                          ****END OF INPUT****

CARTESIAN COORDINATES (ANGSTROEM)
---------------------------------
  C     14.527410   14.536322   16.052317
  C     15.689107   15.039010   16.924507
  O     16.762010   15.410142   16.043143
  C     17.986324   15.578036   16.615096
  O     18.677577   14.607399   16.867777
  C     18.071496   16.834128   17.427321
  C     17.535088   18.014849   17.032625
  C     16.813875   18.301076   15.732349
  N     17.688685   19.150008   17.833665
  C     18.467320   19.210504   18.960134
  S     18.681143   20.621896   19.794824
  N     19.057842   18.038080   19.362651
  C     18.803775   16.712792   18.765132
  C     18.007622   15.830780   19.723170
  C     18.460834   14.538643   20.045861
  C     17.717444   13.712343   20.905069
  C     16.507910   14.180288   21.445971
  C     16.050380   15.464842   21.123609
  O     14.876237   15.915446   21.632335
  C     16.792140   16.284862   20.267694
  H     14.843050   13.674415   15.450909
  H     14.182588   15.325315   15.372733
  H     13.681999   14.226555   16.678616
  H     15.369606   15.894255   17.534527
  H     16.011489   14.231748   17.597670
  H     17.283254   17.768710   14.895319
  H     16.824320   19.367704   15.476384
  H     15.766943   17.978570   15.787863
  H     17.266633   20.021182   17.553289
  H     19.604817   18.106113   20.211518
  H     19.776382   16.234921   18.577093
  H     19.385149   14.165649   19.610581
  H     18.076886   12.712223   21.141418
  H     15.929351   13.543592   22.107180
  H     14.550321   15.243147   22.249914
  H     16.419992   17.276455   20.033736

 Total Charge           Charge          ....    0
 Multiplicity           Mult            ....    1
 Number of Electrons    NEL             ....  154
 Basis Dimension        Dim             ....  828

ORBITAL ENERGIES
----------------

  NO   OCC          E(Eh)            E(eV)
   0   2.0000     -91.890393     -2500.4647
   1   2.0000     -20.597711      -560.4922
   2   2.0000     -20.582647      -560.0823
   3   2.0000     -20.557324      -559.3932
   4   2.0000     -15.630155      -425.3181
   5   2.0000     -15.609843      -424.7654
   6   2.0000     -11.393450      -310.0315
   7   2.0000     -11.386020      -309.8293
   8   2.0000     -11.334845      -308.4368
   9   2.0000     -11.313807      -307.8643
  10   2.0000     -11.310062      -307.7624
  11   2.0000     -11.300255      -307.4956
  12   2.0000     -11.263347      -306.4912
  13   2.0000     -11.260313      -306.4087
  14   2.0000     -11.259275      -306.3805
  15   2.0000     -11.253803      -306.2315
  16   2.0000     -11.243581      -305.9534
  17   2.0000     -11.239416      -305.8401
  18   2.0000     -11.236441      -305.7591
  19   2.0000     -11.231724      -305.6307
  20   2.0000      -8.895462      -242.0578
  21   2.0000      -6.577038      -178.9703
  22   2.0000      -6.575029      -178.9156
  23   2.0000      -6.574443      -178.8997
  24   2.0000      -1.452810       -39.5330
  25   2.0000      -1.417508       -38.5724
  26   2.0000      -1.358196       -36.9584
  27   2.0000      -1.341180       -36.4954
  28   2.0000      -1.239376       -33.7251
  29   2.0000      -1.158094       -31.5133
  30   2.0000      -1.122940       -30.5567
  31   2.0000      -1.046186       -28.4682
  32   2.0000      -1.035597       -28.1800
  33   2.0000      -1.015540       -27.6342
  34   2.0000      -1.001479       -27.2516
  35   2.0000      -0.987058       -26.8592
  36   2.0000      -0.925138       -25.1743
  37   2.0000      -0.877724       -23.8841
  38   2.0000      -0.851646       -23.1745
  39   2.0000      -0.841545       -22.8996
  40   2.0000      -0.834074       -22.6963
  41   2.0000      -0.832226       -22.6460
  42   2.0000      -0.757195       -20.6043
  43   2.0000      -0.736337       -20.0367
  44   2.0000      -0.730114       -19.8674
  45   2.0000      -0.695629       -18.9290
  46   2.0000      -0.687945       -18.7199
  47   2.0000      -0.682014       -18.5586
  48   2.0000      -0.675361       -18.3775
  49   2.0000      -0.659240       -17.9388
  50   2.0000      -0.649914       -17.6851
  51   2.0000      -0.642771       -17.4907
  52   2.0000      -0.635680       -17.2977
  53   2.0000      -0.619644       -16.8614
  54   2.0000      -0.606193       -16.4953
  55   2.0000      -0.604881       -16.4597
  56   2.0000      -0.601301       -16.3622
  57   2.0000      -0.580953       -15.8085
  58   2.0000      -0.577145       -15.7049
  59   2.0000      -0.565153       -15.3786
  60   2.0000      -0.558162       -15.1884
  61   2.0000      -0.552121       -15.0240
  62   2.0000      -0.537021       -14.6131
  63   2.0000      -0.523553       -14.2466
  64   2.0000      -0.519841       -14.1456
  65   2.0000      -0.514260       -13.9937
  66   2.0000      -0.503095       -13.6899
  67   2.0000      -0.498408       -13.5624
  68   2.0000      -0.483414       -13.1544
  69   2.0000      -0.466105       -12.6834
  70   2.0000      -0.459396       -12.5008
  71   2.0000      -0.454082       -12.3562
  72   2.0000      -0.356405        -9.6983
  73   2.0000      -0.349487        -9.5100
  74   2.0000      -0.329662        -8.9706
  75   2.0000      -0.321177        -8.7397
  76   2.0000      -0.317621        -8.6429
  77   0.0000       0.069518         1.8917
  78   0.0000       0.103248         2.8095
  79   0.0000       0.116988         3.1834
  80   0.0000       0.130796         3.5591
  81   0.0000       0.134168         3.6509

MULLIKEN ATOMIC CHARGES
-----------------------
   0 C :   -0.256420
   1 C :    0.015245
   2 O :   -0.366869
   3 C :    0.469181
   4 O :   -0.385353
   5 C :   -0.236725
   6 C :    0.151253
   7 C :   -0.284281
   8 N :   -0.125104
   9 C :    0.199828
  10 S :   -0.437373
  11 N :   -0.201545
  12 C :    0.048506
  13 C :    0.047588
  14 C :   -0.165414
  15 C :   -0.133919
  16 C :   -0.279767
  17 C :    0.313814
  18 O :   -0.359165
  19 C :   -0.292210
  20 H :    0.106235
  21 H :    0.091391
  22 H :    0.090793
  23 H :    0.095895
  24 H :    0.117904
  25 H :    0.129119
  26 H :    0.110062
  27 H :    0.121149
  28 H :    0.197285
  29 H :    0.194379
  30 H :    0.157083
  31 H :    0.160012
  32 H :    0.161902
  33 H :    0.131540
  34 H :    0.241488
  35 H :    0.172489
Sum of atomic charges:   -0.0000000

LOEWDIN ATOMIC CHARGES
----------------------
   0 C :    0.111765
   1 C :   -0.022718
   2 O :    0.289139
   3 C :   -0.421449
   4 O :    0.136042
   5 C :   -0.094950
   6 C :   -0.077609
   7 C :    0.127198
   8 N :    0.404189
   9 C :   -0.457618
  10 S :   -0.034666
  11 N :    0.397031
  12 C :   -0.045756
  13 C :   -0.041649
  14 C :    0.021831
  15 C :    0.042359
  16 C :   -0.001850
  17 C :   -0.195144
  18 O :    0.393439
  19 C :    0.028676
  20 H :   -0.022430
  21 H :   -0.029869
  22 H :   -0.024389
  23 H :   -0.038242
  24 H :   -0.023475
  25 H :   -0.006522
  26 H :   -0.018072
  27 H :   -0.011518
  28 H :   -0.058491
  29 H :   -0.063913
  30 H :   -0.003925
  31 H :   -0.023767
  32 H :   -0.019723
  33 H :   -0.035219
  34 H :   -0.153417
  35 H :   -0.025286

  Mayer bond orders larger than 0.100000
B(  0-C ,  1-C ) :   0.9787 B(  0-C , 20-H ) :   0.9788 B(  0-C , 21-H ) :   0.9791
B(  0-C , 22-H ) :   0.9763 B(  1-C ,  2-O ) :   0.8874 B(  1-C , 23-H ) :   0.9681
B(  1-C , 24-H ) :   0.9728 B(  2-O ,  3-C ) :   1.1090 B(  3-C ,  4-O ) :   2.0657
B(  3-C ,  5-C ) :   0.9858 B(  5-C ,  6-C ) :   1.6634 B(  5-C , 12-C ) :   0.9675
B(  6-C ,  7-C ) :   0.9515 B(  6-C ,  8-N ) :   1.1374 B(  7-C , 25-H ) :   0.9704
B(  7-C , 26-H ) :   0.9863 B(  7-C , 27-H ) :   0.9636 B(  8-N ,  9-C ) :   1.1832
B(  8-N , 28-H ) :   0.9497 B(  9-C , 10-S ) :   1.6138 B(  9-C , 11-N ) :   1.2982
B( 11-N , 12-C ) :   0.9944 B( 11-N , 29-H ) :   0.9519 B( 12-C , 13-C ) :   0.9460
B( 12-C , 30-H ) :   0.9988 B( 13-C , 14-C ) :   1.3819 B( 13-C , 19-C ) :   1.3522
B( 14-C , 15-C ) :   1.3946 B( 14-C , 31-H ) :   0.9621 B( 15-C , 16-C ) :   1.3644
B( 15-C , 32-H ) :   0.9707 B( 16-C , 17-C ) :   1.3299 B( 16-C , 33-H ) :   0.9846
B( 17-C , 18-O ) :   1.1110 B( 17-C , 19-C ) :   1.3726 B( 18-O , 34-H ) :   0.9796
B( 19-C , 35-H ) :   0.9587

MP2 TOTAL ENERGY:    -1274.324677626 Eh
FINAL SINGLE POINT ENERGY     -1274.324677626034

DIPOLE MOMENT
-------------
                                X             Y             Z
Electronic contribution:     11.24802       9.01708       7.46067
Nuclear contribution   :    -12.57952     -10.14487      -7.85923
                        -----------------------------------------
Total Dipole Moment    :     -1.33150      -1.12779      -0.39856
                        -----------------------------------------
Magnitude (a.u.)       :      1.78988
Magnitude (Debye)      :      4.54951

Rotational constants in cm-1:     0.011503     0.009246     0.006712
Rotational constants in MHz :   344.852083   277.192880   201.210335

                             ****ORCA TERMINATED NORMALLY****
TOTAL RUN TIME: 0 days 2 hours 0 minutes 38 seconds 16 msec
