                         Program Version 4.2.0 -  RELEASE  -
|  1> ! ri-mp2 cc-pvtz cc-pvtz/c TightSCF  NoKeepInts
|  2>
|  3> %scf
|  4>   MaxCore 4096
|  5> end
|  6> *xyz  0  1
|  7>     C       14.9222672   13.9250065   16.0669611
|  8>     C       15.4370755   15.1650105   16.8164219
|  9>     O       16.4751818   15.7564662   16.0155916
| 10>     C       17.7344078   15.7543277   16.5347864
| 11>     O       18.3158462   14.6997603   16.7229029
| 12>     C       17.9766915   16.9427321   17.4146344
| 13>     C       17.5319280   18.1905865   17.1252058
| 14>     C       16.7701081   18.6278510   15.8917016
| 15>     N       17.8372634   19.2531213   17.9809022
| 16>     C       18.6857162   19.1720253   19.0542463
| 17>     S       19.0831871   20.5028355   19.9519026
| 18>     N       19.1872979   17.9282018   19.3475867
| 19>     C       18.7692835   16.6719120   18.6959927
| 20>     C       17.9508522   15.8132049   19.6565449
| 21>     C       18.3061570   14.4727470   19.8938396
| 22>     C       17.5421700   13.6711472   20.7583632
| 23>     C       16.4109545   14.2132476   21.3915908
| 24>     C       16.0508992   15.5466064   21.1549270
| 25>     O       14.9522970   16.0700838   21.7546650
| 26>     C       16.8125233   16.3416736   20.2928865
| 27>     H       15.7309694   13.1946338   15.9350290
| 28>     H       14.5396308   14.2005406   15.0764920
| 29>     H       14.1132319   13.4428685   16.6287317
| 30>     H       14.6166415   15.8812284   16.9518987
| 31>     H       15.8092482   14.8735610   17.8091967
| 32>     H       17.1546740   18.1283676   14.9934737
| 33>     H       16.8476012   19.7074508   15.7137006
| 34>     H       15.7059986   18.3777270   15.9834610
| 35>     H       17.4811415   20.1743510   17.7808762
| 36>     H       19.7883783   17.8923633   20.1610047
| 37>     H       19.6778665   16.1168006   18.4206110
| 38>     H       19.1685655   14.0446620   19.3881142
| 39>     H       17.8249832   12.6336494   20.9281063
| 40>     H       15.8168587   13.5964633   22.0578215
| 41>     H       14.6026827   15.3971898   22.3583182
| 42>     H       16.5164206   17.3715957   20.1255117
| 43> *
| 44>
| 45>                          ****END OF INPUT****

CARTESIAN COORDINATES (ANGSTROEM)
---------------------------------
  C     14.922267   13.925006   16.066961
  C     15.437076   15.165010   16.816422
  O     16.475182   15.756466   16.015592
  C     17.734408   15.754328   16.534786
  O     18.315846   14.699760   16.722903
  C     17.976691   16.942732   17.414634
  C     17.531928   18.190586   17.125206
  C     16.770108   18.627851   15.891702
  N     17.837263   19.253121   17.980902
  C     18.685716   19.172025   19.054246
  S     19.083187   20.502835   19.951903
  N     19.187298   17.928202   19.347587
  C     18.769283   16.671912   18.695993
  C     17.950852   15.813205   19.656545
  C     18.306157   14.472747   19.893840
  C     17.542170   13.671147   20.758363
  C     16.410954   14.213248   21.391591
  C     16.050899   15.546606   21.154927
  O     14.952297   16.070084   21.754665
  C     16.812523   16.341674   20.292887
  H     15.730969   13.194634   15.935029
  H     14.539631   14.200541   15.076492
  H     14.113232   13.442868   16.628732
  H     14.616642   15.881228   16.951899
  H     15.809248   14.873561   17.809197
  H     17.154674   18.128368   14.993474
  H     16.847601   19.707451   15.713701
  H     15.705999   18.377727   15.983461
  H     17.481141   20.174351   17.780876
  H     19.788378   17.892363   20.161005
  H     19.677867   16.116801   18.420611
  H     19.168565   14.044662   19.388114
  H     17.824983   12.633649   20.928106
  H     15.816859   13.596463   22.057821
  H     14.602683   15.397190   22.358318
  H     16.516421   17.371596   20.125512

 Total Charge           Charge          ....    0
 Multiplicity           Mult            ....    1
 Number of Electrons    NEL             ....  154
 Basis Dimension        Dim             ....  828

ORBITAL ENERGIES
----------------

  NO   OCC          E(Eh)            E(eV)
   0   2.0000     -91.889876     -2500.4506
   1   2.0000     -20.597281      -560.4805
   2   2.0000     -20.580292      -560.0182
   3   2.0000     -20.557592      -559.4005
   4   2.0000     -15.629582      -425.3026
   5   2.0000     -15.609340      -424.7517
   6   2.0000     -11.394669      -310.0647
   7   2.0000     -11.385390      -309.8122
   8   2.0000     -11.334386      -308.4243
   9   2.0000     -11.313726      -307.8621
  10   2.0000     -11.309726      -307.7533
  11   2.0000     -11.299373      -307.4716
  12   2.0000     -11.261611      -306.4440
  13   2.0000     -11.260048      -306.4015
  14   2.0000     -11.259158      -306.3773
  15   2.0000     -11.253882      -306.2337
  16   2.0000     -11.243583      -305.9534
  17   2.0000     -11.239260      -305.8358
  18   2.0000     -11.236520      -305.7612
  19   2.0000     -11.222944      -305.3918
  20   2.0000      -8.894943      -242.0437
  21   2.0000      -6.576520      -178.9562
  22   2.0000      -6.574511      -178.9015
  23   2.0000      -6.573925      -178.8856
  24   2.0000      -1.452755       -39.5315
  25   2.0000      -1.417095       -38.5611
  26   2.0000      -1.357051       -36.9272
  27   2.0000      -1.340633       -36.4805
  28   2.0000      -1.238878       -33.7116
  29   2.0000      -1.157906       -31.5082
  30   2.0000      -1.122360       -30.5410
  31   2.0000      -1.045700       -28.4549
  32   2.0000      -1.031588       -28.0709
  33   2.0000      -1.015343       -27.6289
  34   2.0000      -1.000349       -27.2209
  35   2.0000      -0.985678       -26.8217
  36   2.0000      -0.924594       -25.1595
  37   2.0000      -0.879270       -23.9261
  38   2.0000      -0.850523       -23.1439
  39   2.0000      -0.840619       -22.8744
  40   2.0000      -0.833896       -22.6915
  41   2.0000      -0.829777       -22.5794
  42   2.0000      -0.754020       -20.5179
  43   2.0000      -0.734326       -19.9820
  44   2.0000      -0.729641       -19.8545
  45   2.0000      -0.695493       -18.9253
  46   2.0000      -0.687567       -18.7096
  47   2.0000      -0.680372       -18.5139
  48   2.0000      -0.674096       -18.3431
  49   2.0000      -0.663091       -18.0436
  50   2.0000      -0.648190       -17.6381
  51   2.0000      -0.644551       -17.5391
  52   2.0000      -0.636979       -17.3331
  53   2.0000      -0.607053       -16.5188
  54   2.0000      -0.604983       -16.4624
  55   2.0000      -0.601230       -16.3603
  56   2.0000      -0.597164       -16.2496
  57   2.0000      -0.583185       -15.8693
  58   2.0000      -0.577625       -15.7180
  59   2.0000      -0.567292       -15.4368
  60   2.0000      -0.563544       -15.3348
  61   2.0000      -0.551557       -15.0086
  62   2.0000      -0.535895       -14.5824
  63   2.0000      -0.523151       -14.2357
  64   2.0000      -0.513828       -13.9820
  65   2.0000      -0.509523       -13.8648
  66   2.0000      -0.504141       -13.7184
  67   2.0000      -0.498880       -13.5752
  68   2.0000      -0.482029       -13.1167
  69   2.0000      -0.466640       -12.6979
  70   2.0000      -0.454973       -12.3805
  71   2.0000      -0.452018       -12.3000
  72   2.0000      -0.355650        -9.6777
  73   2.0000      -0.349408        -9.5079
  74   2.0000      -0.329162        -8.9570
  75   2.0000      -0.321131        -8.7384
  76   2.0000      -0.316922        -8.6239
  77   0.0000       0.069376         1.8878
  78   0.0000       0.103604         2.8192
  79   0.0000       0.118497         3.2245
  80   0.0000       0.131115         3.5678
  81   0.0000       0.134520         3.6605

MULLIKEN ATOMIC CHARGES
-----------------------
   0 C :   -0.258698
   1 C :    0.043297
   2 O :   -0.379751
   3 C :    0.453506
   4 O :   -0.394577
   5 C :   -0.195316
   6 C :    0.131112
   7 C :   -0.279744
   8 N :   -0.123754
   9 C :    0.200650
  10 S :   -0.438009
  11 N :   -0.201133
  12 C :    0.057544
  13 C :    0.018117
  14 C :   -0.152959
  15 C :   -0.136783
  16 C :   -0.278131
  17 C :    0.310799
  18 O :   -0.358746
  19 C :   -0.269069
  20 H :    0.109529
  21 H :    0.093053
  22 H :    0.085478
  23 H :    0.092808
  24 H :    0.104785
  25 H :    0.125223
  26 H :    0.105863
  27 H :    0.123732
  28 H :    0.197306
  29 H :    0.194209
  30 H :    0.156122
  31 H :    0.159085
  32 H :    0.161696
  33 H :    0.131855
  34 H :    0.241171
  35 H :    0.169730
Sum of atomic charges:   -0.0000000

LOEWDIN ATOMIC CHARGES
----------------------
   0 C :    0.107170
   1 C :   -0.014728
   2 O :    0.287291
   3 C :   -0.421710
   4 O :    0.132884
   5 C :   -0.094597
   6 C :   -0.074635
   7 C :    0.127004
   8 N :    0.404315
   9 C :   -0.457709
  10 S :   -0.035135
  11 N :    0.396993
  12 C :   -0.045473
  13 C :   -0.042789
  14 C :    0.020799
  15 C :    0.041936
  16 C :   -0.001925
  17 C :   -0.194909
  18 O :    0.393923
  19 C :    0.027949
  20 H :   -0.021973
  21 H :   -0.028440
  22 H :   -0.028956
  23 H :   -0.032116
  24 H :   -0.024830
  25 H :   -0.007215
  26 H :   -0.018921
  27 H :   -0.010286
  28 H :   -0.058479
  29 H :   -0.064044
  30 H :   -0.004292
  31 H :   -0.024036
  32 H :   -0.019800
  33 H :   -0.035181
  34 H :   -0.153651
  35 H :   -0.024432

  Mayer bond orders larger than 0.100000
B(  0-C ,  1-C ) :   0.9845 B(  0-C , 20-H ) :   0.9755 B(  0-C , 21-H ) :   0.9793
B(  0-C , 22-H ) :   0.9760 B(  1-C ,  2-O ) :   0.8790 B(  1-C , 23-H ) :   0.9789
B(  1-C , 24-H ) :   0.9668 B(  2-O ,  3-C ) :   1.0840 B(  3-C ,  4-O ) :   2.0273
B(  3-C ,  5-C ) :   1.0279 B(  5-C ,  6-C ) :   1.6679 B(  5-C , 12-C ) :   0.9609
B(  6-C ,  7-C ) :   0.9517 B(  6-C ,  8-N ) :   1.1377 B(  7-C , 25-H ) :   0.9704
B(  7-C , 26-H ) :   0.9876 B(  7-C , 27-H ) :   0.9637 B(  8-N ,  9-C ) :   1.1835
B(  8-N , 28-H ) :   0.9498 B(  9-C , 10-S ) :   1.6131 B(  9-C , 11-N ) :   1.2988
B( 11-N , 12-C ) :   0.9928 B( 11-N , 29-H ) :   0.9518 B( 12-C , 13-C ) :   0.9428
B( 12-C , 30-H ) :   0.9985 B( 13-C , 14-C ) :   1.3814 B( 13-C , 19-C ) :   1.3670
B( 14-C , 15-C ) :   1.3946 B( 14-C , 31-H ) :   0.9625 B( 15-C , 16-C ) :   1.3640
B( 15-C , 32-H ) :   0.9709 B( 16-C , 17-C ) :   1.3297 B( 16-C , 33-H ) :   0.9846
B( 17-C , 18-O ) :   1.1112 B( 17-C , 19-C ) :   1.3743 B( 18-O , 34-H ) :   0.9795
B( 19-C , 35-H ) :   0.9579

MP2 TOTAL ENERGY:    -1274.321502900 Eh
FINAL SINGLE POINT ENERGY     -1274.321502899949

DIPOLE MOMENT
-------------
                                X             Y             Z
Electronic contribution:     10.91418      10.14713       7.54584
Nuclear contribution   :    -12.28890     -11.23961      -7.97853
                        -----------------------------------------
Total Dipole Moment    :     -1.37472      -1.09248      -0.43270
                        -----------------------------------------
Magnitude (a.u.)       :      1.80848
Magnitude (Debye)      :      4.59679

Rotational constants in cm-1:     0.011885     0.009099     0.006491
Rotational constants in MHz :   356.305783   272.793228   194.581878

                             ****ORCA TERMINATED NORMALLY****
TOTAL RUN TIME: 0 days 1 hours 44 minutes 31 seconds 203 msec
