                         Program Version 5.0.0 -  RELEASE  -
|  1> ! ri-mp2 cc-pvtz cc-pvtz/c TightSCF NoKeepInts
|  2>
|  3> %scf
|  4>   MaxCore 4096
|  5> end
|  6> *xyz  0  1
|  7>     C       15.3834340   13.8896285   15.0373670
|  8>     C       15.0966244   14.8899700   16.1755622
|  9>     O       16.0941673   15.9289570   16.1665971
| 10>     C       17.3082235   15.7198962   16.7592164
| 11>     O       17.7561759   14.6003673   16.9449448
| 12>     C       17.7716255   16.8923973   17.5739123
| 13>     C       17.4494692   18.1855762   17.3118598
| 14>     C       16.6089408   18.7197225   16.1702662
| 15>     N       17.9822010   19.2083925   18.1032169
| 16>     C       18.9471197   19.0359946   19.0603979
| 17>     S       19.6157537   20.3173043   19.8646346
| 18>     N       19.3307238   17.7438236   19.3161553
| 19>     C       18.6763666   16.5438921   18.7611032
| 20>     C       17.8936570   15.8115417   19.8481209
| 21>     C       18.1355416   14.4494167   20.1053713
| 22>     C       17.4148692   13.7690433   21.1011756
| 23>     C       16.4424914   14.4558559   21.8477482
| 24>     C       16.1954799   15.8114956   21.5922137
| 25>     O       15.2524175   16.4758293   22.3068086
| 26>     C       16.9139205   16.4857749   20.5999191
| 27>     H       15.4544847   14.4091758   14.0739572
| 28>     H       14.5775615   13.1491370   14.9682725
| 29>     H       16.3219196   13.3482763   15.2081860
| 30>     H       14.1089214   15.3388193   16.0100459
| 31>     H       15.0787141   14.3748122   17.1460887
| 32>     H       16.8866262   18.2415592   15.2226075
| 33>     H       16.7275197   19.8009359   16.0293619
| 34>     H       15.5445974   18.5217538   16.3482666
| 35>     H       17.7135711   20.1638597   17.9301256
| 36>     H       20.0212642   17.6415556   20.0486939
| 37>     H       19.4670266   15.8732160   18.3947208
| 38>     H       18.8746831   13.9114944   19.5166441
| 39>     H       17.6078710   12.7138252   21.2858378
| 40>     H       15.8825000   13.9338363   22.6164022
| 41>     H       14.9014980   15.8591874   22.9666589
| 42>     H       16.7090389   17.5356762   20.4215392
| 43> *
| 44>
| 45>                          ****END OF INPUT****

CARTESIAN COORDINATES (ANGSTROEM)
---------------------------------
  C     15.383434   13.889628   15.037367
  C     15.096624   14.889970   16.175562
  O     16.094167   15.928957   16.166597
  C     17.308224   15.719896   16.759216
  O     17.756176   14.600367   16.944945
  C     17.771625   16.892397   17.573912
  C     17.449469   18.185576   17.311860
  C     16.608941   18.719722   16.170266
  N     17.982201   19.208392   18.103217
  C     18.947120   19.035995   19.060398
  S     19.615754   20.317304   19.864635
  N     19.330724   17.743824   19.316155
  C     18.676367   16.543892   18.761103
  C     17.893657   15.811542   19.848121
  C     18.135542   14.449417   20.105371
  C     17.414869   13.769043   21.101176
  C     16.442491   14.455856   21.847748
  C     16.195480   15.811496   21.592214
  O     15.252417   16.475829   22.306809
  C     16.913920   16.485775   20.599919
  H     15.454485   14.409176   14.073957
  H     14.577561   13.149137   14.968272
  H     16.321920   13.348276   15.208186
  H     14.108921   15.338819   16.010046
  H     15.078714   14.374812   17.146089
  H     16.886626   18.241559   15.222608
  H     16.727520   19.800936   16.029362
  H     15.544597   18.521754   16.348267
  H     17.713571   20.163860   17.930126
  H     20.021264   17.641556   20.048694
  H     19.467027   15.873216   18.394721
  H     18.874683   13.911494   19.516644
  H     17.607871   12.713825   21.285838
  H     15.882500   13.933836   22.616402
  H     14.901498   15.859187   22.966659
  H     16.709039   17.535676   20.421539

 Total Charge           Charge          ....    0
 Multiplicity           Mult            ....    1
 Number of Electrons    NEL             ....  154
 Basis Dimension        Dim             ....  828

ORBITAL ENERGIES
----------------

  NO   OCC          E(Eh)            E(eV)
   0   2.0000     -91.887854     -2500.3956
   1   2.0000     -20.597193      -560.4781
   2   2.0000     -20.592654      -560.3546
   3   2.0000     -20.550383      -559.2044
   4   2.0000     -15.627673      -425.2506
   5   2.0000     -15.606894      -424.6852
   6   2.0000     -11.397107      -310.1310
   7   2.0000     -11.382964      -309.7462
   8   2.0000     -11.334018      -308.4143
   9   2.0000     -11.308637      -307.7236
  10   2.0000     -11.306572      -307.6675
  11   2.0000     -11.301375      -307.5261
  12   2.0000     -11.259983      -306.3997
  13   2.0000     -11.258784      -306.3671
  14   2.0000     -11.254533      -306.2514
  15   2.0000     -11.248890      -306.0979
  16   2.0000     -11.238483      -305.8147
  17   2.0000     -11.234441      -305.7047
  18   2.0000     -11.231662      -305.6291
  19   2.0000     -11.222165      -305.3706
  20   2.0000      -8.892924      -241.9888
  21   2.0000      -6.574504      -178.9013
  22   2.0000      -6.572495      -178.8467
  23   2.0000      -6.571911      -178.8308
  24   2.0000      -1.453128       -39.5416
  25   2.0000      -1.412396       -38.4333
  26   2.0000      -1.358141       -36.9569
  27   2.0000      -1.338822       -36.4312
  28   2.0000      -1.236761       -33.6540
  29   2.0000      -1.153058       -31.3763
  30   2.0000      -1.119747       -30.4699
  31   2.0000      -1.042347       -28.3637
  32   2.0000      -1.033064       -28.1111
  33   2.0000      -1.010454       -27.4958
  34   2.0000      -0.997105       -27.1326
  35   2.0000      -0.982501       -26.7352
  36   2.0000      -0.921579       -25.0774
  37   2.0000      -0.889883       -24.2149
  38   2.0000      -0.847557       -23.0632
  39   2.0000      -0.836263       -22.7559
  40   2.0000      -0.829002       -22.5583
  41   2.0000      -0.820121       -22.3166
  42   2.0000      -0.752027       -20.4637
  43   2.0000      -0.733439       -19.9579
  44   2.0000      -0.725743       -19.7485
  45   2.0000      -0.691574       -18.8187
  46   2.0000      -0.685306       -18.6481
  47   2.0000      -0.680499       -18.5173
  48   2.0000      -0.671509       -18.2727
  49   2.0000      -0.661561       -18.0020
  50   2.0000      -0.645872       -17.5751
  51   2.0000      -0.641140       -17.4463
  52   2.0000      -0.631947       -17.1962
  53   2.0000      -0.606848       -16.5132
  54   2.0000      -0.600656       -16.3447
  55   2.0000      -0.599417       -16.3110
  56   2.0000      -0.595696       -16.2097
  57   2.0000      -0.585894       -15.9430
  58   2.0000      -0.573804       -15.6140
  59   2.0000      -0.567778       -15.4500
  60   2.0000      -0.560582       -15.2542
  61   2.0000      -0.546381       -14.8678
  62   2.0000      -0.535369       -14.5681
  63   2.0000      -0.519118       -14.1259
  64   2.0000      -0.517624       -14.0853
  65   2.0000      -0.510915       -13.9027
  66   2.0000      -0.502097       -13.6627
  67   2.0000      -0.495972       -13.4961
  68   2.0000      -0.480278       -13.0690
  69   2.0000      -0.461919       -12.5694
  70   2.0000      -0.456300       -12.4166
  71   2.0000      -0.453518       -12.3409
  72   2.0000      -0.353491        -9.6190
  73   2.0000      -0.344875        -9.3845
  74   2.0000      -0.327066        -8.8999
  75   2.0000      -0.316026        -8.5995
  76   2.0000      -0.314454        -8.5567
  77   0.0000       0.075218         2.0468
  78   0.0000       0.110880         3.0172
  79   0.0000       0.121411         3.3037
  80   0.0000       0.135201         3.6790
  81   0.0000       0.140152         3.8137

MULLIKEN ATOMIC CHARGES
-----------------------
   0 C :   -0.290975
   1 C :    0.044797
   2 O :   -0.355517
   3 C :    0.427753
   4 O :   -0.421640
   5 C :   -0.146807
   6 C :    0.138753
   7 C :   -0.284178
   8 N :   -0.122926
   9 C :    0.202209
  10 S :   -0.440261
  11 N :   -0.198266
  12 C :    0.039961
  13 C :    0.053143
  14 C :   -0.163766
  15 C :   -0.134183
  16 C :   -0.279811
  17 C :    0.311318
  18 O :   -0.358668
  19 C :   -0.271228
  20 H :    0.090029
  21 H :    0.092026
  22 H :    0.121919
  23 H :    0.101254
  24 H :    0.098769
  25 H :    0.123993
  26 H :    0.101970
  27 H :    0.127497
  28 H :    0.196876
  29 H :    0.193653
  30 H :    0.154200
  31 H :    0.154249
  32 H :    0.159655
  33 H :    0.128672
  34 H :    0.240125
  35 H :    0.165405
Sum of atomic charges:    0.0000000

LOEWDIN ATOMIC CHARGES
----------------------
   0 C :    0.104464
   1 C :   -0.014624
   2 O :    0.298056
   3 C :   -0.411708
   4 O :    0.115123
   5 C :   -0.090983
   6 C :   -0.069634
   7 C :    0.125303
   8 N :    0.404344
   9 C :   -0.458371
  10 S :   -0.036757
  11 N :    0.397471
  12 C :   -0.045829
  13 C :   -0.039233
  14 C :    0.021146
  15 C :    0.040459
  16 C :   -0.002466
  17 C :   -0.192757
  18 O :    0.393197
  19 C :    0.028762
  20 H :   -0.030365
  21 H :   -0.028963
  22 H :   -0.025360
  23 H :   -0.025790
  24 H :   -0.026601
  25 H :   -0.008805
  26 H :   -0.020445
  27 H :   -0.009542
  28 H :   -0.059021
  29 H :   -0.063890
  30 H :   -0.005039
  31 H :   -0.025318
  32 H :   -0.021118
  33 H :   -0.036265
  34 H :   -0.154783
  35 H :   -0.024659

  Mayer bond orders larger than 0.100000
B(  0-C ,  1-C ) :   0.9697 B(  0-C , 20-H ) :   0.9761 B(  0-C , 21-H ) :   0.9768
B(  0-C , 22-H ) :   0.9728 B(  1-C ,  2-O ) :   0.9026 B(  1-C , 23-H ) :   0.9842
B(  1-C , 24-H ) :   0.9755 B(  2-O ,  3-C ) :   1.1161 B(  3-C ,  4-O ) :   1.9737
B(  3-C ,  5-C ) :   1.0472 B(  5-C ,  6-C ) :   1.6560 B(  5-C , 12-C ) :   0.9641
B(  6-C ,  7-C ) :   0.9543 B(  6-C ,  8-N ) :   1.1406 B(  7-C , 25-H ) :   0.9684
B(  7-C , 26-H ) :   0.9902 B(  7-C , 27-H ) :   0.9628 B(  8-N ,  9-C ) :   1.1818
B(  8-N , 28-H ) :   0.9494 B(  9-C , 10-S ) :   1.6100 B(  9-C , 11-N ) :   1.3019
B( 11-N , 12-C ) :   0.9928 B( 11-N , 29-H ) :   0.9518 B( 12-C , 13-C ) :   0.9459
B( 12-C , 30-H ) :   0.9990 B( 13-C , 14-C ) :   1.3758 B( 13-C , 19-C ) :   1.3701
B( 14-C , 15-C ) :   1.3946 B( 14-C , 31-H ) :   0.9647 B( 15-C , 16-C ) :   1.3629
B( 15-C , 32-H ) :   0.9712 B( 16-C , 17-C ) :   1.3311 B( 16-C , 33-H ) :   0.9858
B( 17-C , 18-O ) :   1.1085 B( 17-C , 19-C ) :   1.3782 B( 18-O , 34-H ) :   0.9805
B( 19-C , 35-H ) :   0.9582

MP2 TOTAL ENERGY:    -1274.337449077 Eh
FINAL SINGLE POINT ENERGY     -1274.337449076734

DIPOLE MOMENT
-------------
                                X             Y             Z
Electronic contribution:     10.41674      10.26017      10.49423
Nuclear contribution   :    -12.03326     -11.43718     -11.26710
                        -----------------------------------------
Total Dipole Moment    :     -1.61652      -1.17702      -0.77287
                        -----------------------------------------
Magnitude (a.u.)       :      2.14379
Magnitude (Debye)      :      5.44908

Rotational constants in cm-1:     0.010837     0.008976     0.005956
Rotational constants in MHz :   324.889279   269.086501   178.556887

                             ****ORCA TERMINATED NORMALLY****
TOTAL RUN TIME: 0 days 1 hours 32 minutes 4 seconds 753 msec
