                         Program Version 5.0.0 -  RELEASE  -
|  1> ! ri-mp2 cc-pvtz cc-pvtz/c TightSCF NoKeepInts
|  2>
|  3> %scf
|  4>   MaxCore 4096
|  5> end
|  6> *xyz  0  1
|  7>     C       15.9478867   12.9649292   16.3162945
|  8>     C       15.7780948   14.3975441   15.7832785
|  9>     O       16.4757528   15.2700169   16.6873787
| 10>     C       16.1013539   16.5808290   16.7932424
| 11>     O       15.1376983   17.0314082   16.1968349
| 12>     C       17.1178510   17.4100690   17.5288913
| 13>     C       17.0357220   18.7624132   17.6114854
| 14>     C       15.9664124   19.6544203   17.0178565
| 15>     N       18.0274040   19.4857064   18.2809556
| 16>     C       19.1693027   18.9466484   18.8104631
| 17>     S       20.3360690   19.8857863   19.5122762
| 18>     N       19.2976811   17.5836449   18.7292174
| 19>     C       18.2634559   16.6598714   18.2280389
| 20>     C       17.7522343   15.7843357   19.3685766
| 21>     C       17.9614674   14.3925135   19.3497155
| 22>     C       17.4878318   13.5838227   20.3964870
| 23>     C       16.8020556   14.1715687   21.4731490
| 24>     C       16.5951602   15.5576696   21.4970443
| 25>     O       15.9334769   16.1280773   22.5352558
| 26>     C       17.0671639   16.3598061   20.4534906
| 27>     H       17.0075458   12.6823434   16.3359331
| 28>     H       15.4126267   12.2509474   15.6786283
| 29>     H       15.5485007   12.8831301   17.3352308
| 30>     H       16.1805230   14.4915990   14.7662467
| 31>     H       14.7053636   14.6346386   15.7600424
| 32>     H       15.9352199   19.5453534   15.9263093
| 33>     H       16.1211603   20.7166116   17.2405293
| 34>     H       14.9765778   19.3772973   17.4026760
| 35>     H       17.9504911   20.4878810   18.3499647
| 36>     H       20.1316060   17.2114094   19.1649748
| 37>     H       18.7438232   16.0122294   17.4812878
| 38>     H       18.4846934   13.9347710   18.5145949
| 39>     H       17.6512252   12.5079569   20.3705965
| 40>     H       16.4340576   13.5513232   22.2837389
| 41>     H       15.7073535   15.4223028   23.1593437
| 42>     H       16.9021575   17.4311246   20.4939706
| 43> *
| 44>
| 45>                          ****END OF INPUT****

CARTESIAN COORDINATES (ANGSTROEM)
---------------------------------
  C     15.947887   12.964929   16.316295
  C     15.778095   14.397544   15.783278
  O     16.475753   15.270017   16.687379
  C     16.101354   16.580829   16.793242
  O     15.137698   17.031408   16.196835
  C     17.117851   17.410069   17.528891
  C     17.035722   18.762413   17.611485
  C     15.966412   19.654420   17.017857
  N     18.027404   19.485706   18.280956
  C     19.169303   18.946648   18.810463
  S     20.336069   19.885786   19.512276
  N     19.297681   17.583645   18.729217
  C     18.263456   16.659871   18.228039
  C     17.752234   15.784336   19.368577
  C     17.961467   14.392513   19.349715
  C     17.487832   13.583823   20.396487
  C     16.802056   14.171569   21.473149
  C     16.595160   15.557670   21.497044
  O     15.933477   16.128077   22.535256
  C     17.067164   16.359806   20.453491
  H     17.007546   12.682343   16.335933
  H     15.412627   12.250947   15.678628
  H     15.548501   12.883130   17.335231
  H     16.180523   14.491599   14.766247
  H     14.705364   14.634639   15.760042
  H     15.935220   19.545353   15.926309
  H     16.121160   20.716612   17.240529
  H     14.976578   19.377297   17.402676
  H     17.950491   20.487881   18.349965
  H     20.131606   17.211409   19.164975
  H     18.743823   16.012229   17.481288
  H     18.484693   13.934771   18.514595
  H     17.651225   12.507957   20.370596
  H     16.434058   13.551323   22.283739
  H     15.707353   15.422303   23.159344
  H     16.902158   17.431125   20.493971

 Total Charge           Charge          ....    0
 Multiplicity           Mult            ....    1
 Number of Electrons    NEL             ....  154
 Basis Dimension        Dim             ....  828

ORBITAL ENERGIES
----------------

  NO   OCC          E(Eh)            E(eV)
   0   2.0000     -91.888442     -2500.4116
   1   2.0000     -20.602626      -560.6259
   2   2.0000     -20.595181      -560.4234
   3   2.0000     -20.541843      -558.9720
   4   2.0000     -15.628519      -425.2736
   5   2.0000     -15.607799      -424.7098
   6   2.0000     -11.394909      -310.0712
   7   2.0000     -11.383536      -309.7618
   8   2.0000     -11.335467      -308.4537
   9   2.0000     -11.312191      -307.8204
  10   2.0000     -11.308117      -307.7095
  11   2.0000     -11.296762      -307.4005
  12   2.0000     -11.258823      -306.3681
  13   2.0000     -11.258184      -306.3508
  14   2.0000     -11.253559      -306.2249
  15   2.0000     -11.251575      -306.1709
  16   2.0000     -11.241981      -305.9099
  17   2.0000     -11.237509      -305.7882
  18   2.0000     -11.237003      -305.7744
  19   2.0000     -11.231025      -305.6117
  20   2.0000      -8.893509      -242.0047
  21   2.0000      -6.575085      -178.9172
  22   2.0000      -6.573079      -178.8626
  23   2.0000      -6.572494      -178.8466
  24   2.0000      -1.452621       -39.5278
  25   2.0000      -1.414864       -38.5004
  26   2.0000      -1.355096       -36.8740
  27   2.0000      -1.339514       -36.4500
  28   2.0000      -1.237954       -33.6865
  29   2.0000      -1.156529       -31.4708
  30   2.0000      -1.119858       -30.4729
  31   2.0000      -1.043514       -28.3955
  32   2.0000      -1.039804       -28.2945
  33   2.0000      -1.013806       -27.5871
  34   2.0000      -0.995229       -27.0815
  35   2.0000      -0.983992       -26.7758
  36   2.0000      -0.921759       -25.0823
  37   2.0000      -0.889253       -24.1978
  38   2.0000      -0.846192       -23.0260
  39   2.0000      -0.836397       -22.7595
  40   2.0000      -0.832780       -22.6611
  41   2.0000      -0.817464       -22.2443
  42   2.0000      -0.765559       -20.8319
  43   2.0000      -0.730992       -19.8913
  44   2.0000      -0.720983       -19.6190
  45   2.0000      -0.694966       -18.9110
  46   2.0000      -0.688296       -18.7295
  47   2.0000      -0.679577       -18.4922
  48   2.0000      -0.673106       -18.3162
  49   2.0000      -0.665425       -18.1071
  50   2.0000      -0.645717       -17.5709
  51   2.0000      -0.644224       -17.5302
  52   2.0000      -0.634827       -17.2745
  53   2.0000      -0.605383       -16.4733
  54   2.0000      -0.600453       -16.3392
  55   2.0000      -0.597808       -16.2672
  56   2.0000      -0.593270       -16.1437
  57   2.0000      -0.577915       -15.7259
  58   2.0000      -0.570188       -15.5156
  59   2.0000      -0.568177       -15.4609
  60   2.0000      -0.562530       -15.3072
  61   2.0000      -0.550100       -14.9690
  62   2.0000      -0.538371       -14.6498
  63   2.0000      -0.525021       -14.2865
  64   2.0000      -0.523855       -14.2548
  65   2.0000      -0.512817       -13.9545
  66   2.0000      -0.502162       -13.6645
  67   2.0000      -0.497904       -13.5487
  68   2.0000      -0.484733       -13.1902
  69   2.0000      -0.463063       -12.6006
  70   2.0000      -0.460232       -12.5236
  71   2.0000      -0.447988       -12.1904
  72   2.0000      -0.353766        -9.6265
  73   2.0000      -0.348437        -9.4815
  74   2.0000      -0.327758        -8.9188
  75   2.0000      -0.319838        -8.7032
  76   2.0000      -0.315407        -8.5827
  77   0.0000       0.076466         2.0807
  78   0.0000       0.107459         2.9241
  79   0.0000       0.124527         3.3885
  80   0.0000       0.132972         3.6183
  81   0.0000       0.136780         3.7220

MULLIKEN ATOMIC CHARGES
-----------------------
   0 C :   -0.284471
   1 C :    0.038305
   2 O :   -0.341887
   3 C :    0.466095
   4 O :   -0.432746
   5 C :   -0.219046
   6 C :    0.148832
   7 C :   -0.273400
   8 N :   -0.120374
   9 C :    0.209749
  10 S :   -0.440382
  11 N :   -0.203355
  12 C :    0.044368
  13 C :    0.060851
  14 C :   -0.174614
  15 C :   -0.134212
  16 C :   -0.278413
  17 C :    0.315673
  18 O :   -0.356935
  19 C :   -0.267213
  20 H :    0.090255
  21 H :    0.104570
  22 H :    0.106480
  23 H :    0.089541
  24 H :    0.107922
  25 H :    0.131417
  26 H :    0.094660
  27 H :    0.131401
  28 H :    0.197330
  29 H :    0.194532
  30 H :    0.149292
  31 H :    0.150791
  32 H :    0.160116
  33 H :    0.129544
  34 H :    0.240422
  35 H :    0.164900
Sum of atomic charges:   -0.0000000

LOEWDIN ATOMIC CHARGES
----------------------
   0 C :    0.105365
   1 C :   -0.014758
   2 O :    0.309949
   3 C :   -0.411729
   4 O :    0.095962
   5 C :   -0.094419
   6 C :   -0.059274
   7 C :    0.131386
   8 N :    0.406394
   9 C :   -0.456973
  10 S :   -0.036013
  11 N :    0.396656
  12 C :   -0.053286
  13 C :   -0.040061
  14 C :    0.016657
  15 C :    0.039415
  16 C :   -0.000990
  17 C :   -0.189814
  18 O :    0.394899
  19 C :    0.031758
  20 H :   -0.031244
  21 H :   -0.024566
  22 H :   -0.024143
  23 H :   -0.031256
  24 H :   -0.027055
  25 H :   -0.004057
  26 H :   -0.023514
  27 H :   -0.004554
  28 H :   -0.057651
  29 H :   -0.064447
  30 H :   -0.012520
  31 H :   -0.031052
  32 H :   -0.021729
  33 H :   -0.035604
  34 H :   -0.154143
  35 H :   -0.023592

  Mayer bond orders larger than 0.100000
B(  0-C ,  1-C ) :   0.9726 B(  0-C , 20-H ) :   0.9788 B(  0-C , 21-H ) :   0.9787
B(  0-C , 22-H ) :   0.9736 B(  1-C ,  2-O ) :   0.9029 B(  1-C , 23-H ) :   0.9796
B(  1-C , 24-H ) :   0.9768 B(  2-O ,  3-C ) :   1.1754 B(  3-C ,  4-O ) :   1.9728
B(  3-C ,  5-C ) :   1.0594 B(  5-C ,  6-C ) :   1.6550 B(  5-C , 12-C ) :   0.9720
B(  6-C ,  7-C ) :   0.9678 B(  6-C ,  8-N ) :   1.1624 B(  7-C , 25-H ) :   0.9593
B(  7-C , 26-H ) :   0.9902 B(  7-C , 27-H ) :   0.9617 B(  8-N ,  9-C ) :   1.1834
B(  8-N , 28-H ) :   0.9479 B(  9-C , 10-S ) :   1.6077 B(  9-C , 11-N ) :   1.3046
B( 11-N , 12-C ) :   0.9892 B( 11-N , 29-H ) :   0.9513 B( 12-C , 13-C ) :   0.9373
B( 12-C , 30-H ) :   1.0041 B( 13-C , 14-C ) :   1.3597 B( 13-C , 19-C ) :   1.3805
B( 14-C , 15-C ) :   1.3922 B( 14-C , 31-H ) :   0.9699 B( 15-C , 16-C ) :   1.3636
B( 15-C , 32-H ) :   0.9705 B( 16-C , 17-C ) :   1.3311 B( 16-C , 33-H ) :   0.9852
B( 17-C , 18-O ) :   1.1093 B( 17-C , 19-C ) :   1.3738 B( 18-O , 34-H ) :   0.9801
B( 19-C , 35-H ) :   0.9583

MP2 TOTAL ENERGY:    -1274.349882729 Eh
FINAL SINGLE POINT ENERGY     -1274.349882729426

DIPOLE MOMENT
-------------
                                X             Y             Z
Electronic contribution:      8.46305      12.05252       7.34828
Nuclear contribution   :     -9.47098     -13.78339      -7.73045
                        -----------------------------------------
Total Dipole Moment    :     -1.00793      -1.73087      -0.38218
                        -----------------------------------------
Magnitude (a.u.)       :      2.03909
Magnitude (Debye)      :      5.18296

Rotational constants in cm-1:     0.011394     0.008560     0.006096
Rotational constants in MHz :   341.588441   256.635122   182.743250

                             ****ORCA TERMINATED NORMALLY****
TOTAL RUN TIME: 0 days 1 hours 58 minutes 18 seconds 696 msec
