                         Program Version 5.0.0 -  RELEASE  -
|  1> ! ri-mp2 cc-pvtz cc-pvtz/c TightSCF NoKeepInts
|  2>
|  3> %scf
|  4>   MaxCore 4096
|  5> end
|  6> *xyz  0  1
|  7>     C       15.3753499   14.5486752   14.2122812
|  8>     C       15.1820992   14.6426484   15.7353289
|  9>     O       16.0117660   15.7198599   16.2100143
| 10>     C       17.0727263   15.4687958   17.0326981
| 11>     O       17.4681816   14.3384706   17.2675753
| 12>     C       17.6464681   16.6800158   17.7142886
| 13>     C       17.3740942   17.9716041   17.3869959
| 14>     C       16.4624640   18.4913349   16.2937855
| 15>     N       18.0271929   19.0101678   18.0597758
| 16>     C       19.0596910   18.8453771   18.9445977
| 17>     S       19.8677251   20.1350895   19.5922125
| 18>     N       19.3878702   17.5529983   19.2648850
| 19>     C       18.6149191   16.3639324   18.8606568
| 20>     C       17.8754656   15.7753482   20.0596279
| 21>     C       18.0459421   14.4224985   20.4073676
| 22>     C       17.3671961   13.8744212   21.5086635
| 23>     C       16.5093870   14.6855581   22.2707570
| 24>     C       16.3337162   16.0325085   21.9259187
| 25>     O       15.5014787   16.8169495   22.6562970
| 26>     C       17.0102846   16.5750442   20.8289088
| 27>     H       15.1211397   15.4998761   13.7285078
| 28>     H       14.7334760   13.7654707   13.7909415
| 29>     H       16.4174257   14.3032301   13.9715487
| 30>     H       14.1304785   14.8688161   15.9534324
| 31>     H       15.4256693   13.6820451   16.2092390
| 32>     H       16.7250572   18.0484515   15.3249237
| 33>     H       16.5188621   19.5801711   16.1754930
| 34>     H       15.4166707   18.2392366   16.5094794
| 35>     H       17.8008154   19.9664596   17.8381669
| 36>     H       20.1313516   17.4578422   19.9446432
| 37>     H       19.3309054   15.6129105   18.4965334
| 38>     H       18.6956009   13.7885175   19.8087847
| 39>     H       17.5032007   12.8248052   21.7627999
| 40>     H       15.9817741   14.2658602   23.1206703
| 41>     H       15.1580777   16.2761789   23.3831819
| 42>     H       16.8624771   17.6208305   20.5830182
| 43> *
| 44>
| 45>                          ****END OF INPUT****

CARTESIAN COORDINATES (ANGSTROEM)
---------------------------------
  C     15.375350   14.548675   14.212281
  C     15.182099   14.642648   15.735329
  O     16.011766   15.719860   16.210014
  C     17.072726   15.468796   17.032698
  O     17.468182   14.338471   17.267575
  C     17.646468   16.680016   17.714289
  C     17.374094   17.971604   17.386996
  C     16.462464   18.491335   16.293785
  N     18.027193   19.010168   18.059776
  C     19.059691   18.845377   18.944598
  S     19.867725   20.135089   19.592212
  N     19.387870   17.552998   19.264885
  C     18.614919   16.363932   18.860657
  C     17.875466   15.775348   20.059628
  C     18.045942   14.422498   20.407368
  C     17.367196   13.874421   21.508664
  C     16.509387   14.685558   22.270757
  C     16.333716   16.032508   21.925919
  O     15.501479   16.816949   22.656297
  C     17.010285   16.575044   20.828909
  H     15.121140   15.499876   13.728508
  H     14.733476   13.765471   13.790941
  H     16.417426   14.303230   13.971549
  H     14.130478   14.868816   15.953432
  H     15.425669   13.682045   16.209239
  H     16.725057   18.048451   15.324924
  H     16.518862   19.580171   16.175493
  H     15.416671   18.239237   16.509479
  H     17.800815   19.966460   17.838167
  H     20.131352   17.457842   19.944643
  H     19.330905   15.612910   18.496533
  H     18.695601   13.788517   19.808785
  H     17.503201   12.824805   21.762800
  H     15.981774   14.265860   23.120670
  H     15.158078   16.276179   23.383182
  H     16.862477   17.620830   20.583018

 Total Charge           Charge          ....    0
 Multiplicity           Mult            ....    1
 Number of Electrons    NEL             ....  154
 Basis Dimension        Dim             ....  828

ORBITAL ENERGIES
----------------

  NO   OCC          E(Eh)            E(eV)
   0   2.0000     -91.888001     -2500.3996
   1   2.0000     -20.604396      -560.6741
   2   2.0000     -20.590813      -560.3045
   3   2.0000     -20.544850      -559.0538
   4   2.0000     -15.628528      -425.2739
   5   2.0000     -15.606454      -424.6732
   6   2.0000     -11.396819      -310.1232
   7   2.0000     -11.382759      -309.7406
   8   2.0000     -11.337038      -308.4965
   9   2.0000     -11.306579      -307.6677
  10   2.0000     -11.304956      -307.6235
  11   2.0000     -11.299127      -307.4649
  12   2.0000     -11.260809      -306.4222
  13   2.0000     -11.258977      -306.3723
  14   2.0000     -11.252572      -306.1980
  15   2.0000     -11.246697      -306.0382
  16   2.0000     -11.236367      -305.7571
  17   2.0000     -11.232546      -305.6531
  18   2.0000     -11.231414      -305.6223
  19   2.0000     -11.229445      -305.5687
  20   2.0000      -8.893062      -241.9925
  21   2.0000      -6.574639      -178.9050
  22   2.0000      -6.572633      -178.8504
  23   2.0000      -6.572046      -178.8345
  24   2.0000      -1.453814       -39.5603
  25   2.0000      -1.410544       -38.3828
  26   2.0000      -1.357458       -36.9383
  27   2.0000      -1.339396       -36.4468
  28   2.0000      -1.236855       -33.6565
  29   2.0000      -1.151328       -31.3292
  30   2.0000      -1.119155       -30.4538
  31   2.0000      -1.043679       -28.4000
  32   2.0000      -1.036192       -28.1962
  33   2.0000      -1.008673       -27.4474
  34   2.0000      -0.997271       -27.1371
  35   2.0000      -0.982809       -26.7436
  36   2.0000      -0.920762       -25.0552
  37   2.0000      -0.891219       -24.2513
  38   2.0000      -0.847328       -23.0570
  39   2.0000      -0.834570       -22.7098
  40   2.0000      -0.826950       -22.5025
  41   2.0000      -0.817232       -22.2380
  42   2.0000      -0.760469       -20.6934
  43   2.0000      -0.735872       -20.0241
  44   2.0000      -0.724276       -19.7085
  45   2.0000      -0.689786       -18.7700
  46   2.0000      -0.684530       -18.6270
  47   2.0000      -0.679817       -18.4988
  48   2.0000      -0.672768       -18.3069
  49   2.0000      -0.654041       -17.7974
  50   2.0000      -0.649300       -17.6683
  51   2.0000      -0.642094       -17.4723
  52   2.0000      -0.630501       -17.1568
  53   2.0000      -0.611967       -16.6525
  54   2.0000      -0.599993       -16.3266
  55   2.0000      -0.598826       -16.2949
  56   2.0000      -0.594122       -16.1669
  57   2.0000      -0.583216       -15.8701
  58   2.0000      -0.572333       -15.5740
  59   2.0000      -0.563824       -15.3424
  60   2.0000      -0.561343       -15.2749
  61   2.0000      -0.544891       -14.8272
  62   2.0000      -0.538417       -14.6511
  63   2.0000      -0.531364       -14.4591
  64   2.0000      -0.516413       -14.0523
  65   2.0000      -0.509226       -13.8567
  66   2.0000      -0.500073       -13.6077
  67   2.0000      -0.494875       -13.4662
  68   2.0000      -0.480538       -13.0761
  69   2.0000      -0.463152       -12.6030
  70   2.0000      -0.458118       -12.4660
  71   2.0000      -0.454189       -12.3591
  72   2.0000      -0.354292        -9.6408
  73   2.0000      -0.343252        -9.3404
  74   2.0000      -0.327082        -8.9004
  75   2.0000      -0.315394        -8.5823
  76   2.0000      -0.312930        -8.5153
  77   0.0000       0.076008         2.0683
  78   0.0000       0.114283         3.1098
  79   0.0000       0.121192         3.2978
  80   0.0000       0.136323         3.7095
  81   0.0000       0.139864         3.8059

MULLIKEN ATOMIC CHARGES
-----------------------
   0 C :   -0.273125
   1 C :    0.020959
   2 O :   -0.344276
   3 C :    0.458312
   4 O :   -0.435142
   5 C :   -0.184190
   6 C :    0.143887
   7 C :   -0.285215
   8 N :   -0.120443
   9 C :    0.200742
  10 S :   -0.439094
  11 N :   -0.196412
  12 C :    0.032763
  13 C :    0.058536
  14 C :   -0.160464
  15 C :   -0.133919
  16 C :   -0.278652
  17 C :    0.311674
  18 O :   -0.359261
  19 C :   -0.272233
  20 H :    0.090380
  21 H :    0.095827
  22 H :    0.101478
  23 H :    0.101772
  24 H :    0.121600
  25 H :    0.126855
  26 H :    0.102506
  27 H :    0.128085
  28 H :    0.196624
  29 H :    0.193500
  30 H :    0.153474
  31 H :    0.153000
  32 H :    0.158670
  33 H :    0.127680
  34 H :    0.239953
  35 H :    0.164151
Sum of atomic charges:   -0.0000000

LOEWDIN ATOMIC CHARGES
----------------------
   0 C :    0.103727
   1 C :   -0.012263
   2 O :    0.308506
   3 C :   -0.414474
   4 O :    0.100692
   5 C :   -0.090927
   6 C :   -0.064493
   7 C :    0.124736
   8 N :    0.404964
   9 C :   -0.459183
  10 S :   -0.035843
  11 N :    0.398033
  12 C :   -0.046710
  13 C :   -0.038756
  14 C :    0.022330
  15 C :    0.040879
  16 C :   -0.002267
  17 C :   -0.192515
  18 O :    0.392924
  19 C :    0.028417
  20 H :   -0.029928
  21 H :   -0.025512
  22 H :   -0.025042
  23 H :   -0.029311
  24 H :   -0.026856
  25 H :   -0.008945
  26 H :   -0.021225
  27 H :   -0.009448
  28 H :   -0.059255
  29 H :   -0.063575
  30 H :   -0.005205
  31 H :   -0.025378
  32 H :   -0.021348
  33 H :   -0.036490
  34 H :   -0.154992
  35 H :   -0.025268

  Mayer bond orders larger than 0.100000
B(  0-C ,  1-C ) :   0.9696 B(  0-C , 20-H ) :   0.9791 B(  0-C , 21-H ) :   0.9759
B(  0-C , 22-H ) :   0.9785 B(  1-C ,  2-O ) :   0.8833 B(  1-C , 23-H ) :   0.9831
B(  1-C , 24-H ) :   0.9728 B(  2-O ,  3-C ) :   1.1697 B(  3-C ,  4-O ) :   1.9699
B(  3-C ,  5-C ) :   1.0606 B(  5-C ,  6-C ) :   1.6438 B(  5-C , 12-C ) :   0.9660
B(  6-C ,  7-C ) :   0.9550 B(  6-C ,  8-N ) :   1.1524 B(  7-C , 25-H ) :   0.9653
B(  7-C , 26-H ) :   0.9916 B(  7-C , 27-H ) :   0.9640 B(  8-N ,  9-C ) :   1.1770
B(  8-N , 28-H ) :   0.9487 B(  9-C , 10-S ) :   1.6109 B(  9-C , 11-N ) :   1.3051
B( 11-N , 12-C ) :   0.9930 B( 11-N , 29-H ) :   0.9520 B( 12-C , 13-C ) :   0.9480
B( 12-C , 30-H ) :   1.0006 B( 13-C , 14-C ) :   1.3755 B( 13-C , 19-C ) :   1.3691
B( 14-C , 15-C ) :   1.3946 B( 14-C , 31-H ) :   0.9651 B( 15-C , 16-C ) :   1.3625
B( 15-C , 32-H ) :   0.9715 B( 16-C , 17-C ) :   1.3316 B( 16-C , 33-H ) :   0.9861
B( 17-C , 18-O ) :   1.1078 B( 17-C , 19-C ) :   1.3795 B( 18-O , 34-H ) :   0.9807
B( 19-C , 35-H ) :   0.9585

MP2 TOTAL ENERGY:    -1274.348012116 Eh
FINAL SINGLE POINT ENERGY     -1274.348012115650

DIPOLE MOMENT
-------------
                                X             Y             Z
Electronic contribution:     10.47004       8.58274      12.59777
Nuclear contribution   :    -12.17413      -9.70206     -13.49087
                        -----------------------------------------
Total Dipole Moment    :     -1.70409      -1.11932      -0.89310
                        -----------------------------------------
Magnitude (a.u.)       :      2.22586
Magnitude (Debye)      :      5.65768

Rotational constants in cm-1:     0.010556     0.008615     0.005663
Rotational constants in MHz :   316.457533   258.265386   169.781045

                             ****ORCA TERMINATED NORMALLY****
TOTAL RUN TIME: 0 days 1 hours 25 minutes 1 seconds 813 msec
