                         Program Version 5.0.0 -  RELEASE  -
|  1> ! ri-mp2 cc-pvtz cc-pvtz/c TightSCF NoKeepInts
|  2>
|  3> %scf
|  4>   MaxCore 4096
|  5> end
|  6> *xyz  0  1
|  7>     C       14.3972091   15.2697293   16.8915486
|  8>     C       15.7222631   14.6943801   16.3638151
|  9>     O       16.5386918   15.8058544   15.9554165
| 10>     C       17.8111331   15.8736903   16.4394364
| 11>     O       18.5073627   14.8751176   16.5197316
| 12>     C       17.9667841   17.0121518   17.3990716
| 13>     C       17.3948045   18.2284765   17.2202268
| 14>     C       16.5643969   18.6854922   16.0393639
| 15>     N       17.6068680   19.2412718   18.1601532
| 16>     C       18.4580992   19.1491768   19.2302711
| 17>     S       18.7232139   20.4288102   20.2440358
| 18>     N       19.0792624   17.9396242   19.4190054
| 19>     C       18.8015097   16.7136768   18.6465465
| 20>     C       18.0964264   15.6786172   19.5184396
| 21>     C       18.6533519   14.3997344   19.7018055
| 22>     C       17.9922993   13.4363917   20.4821840
| 23>     C       16.7615765   13.7525992   21.0823961
| 24>     C       16.2014263   15.0238783   20.8980763
| 25>     O       15.0071972   15.3288018   21.4653668
| 26>     C       16.8626588   15.9811849   20.1228289
| 27>     H       14.5766237   15.9200324   17.7571501
| 28>     H       13.7262758   14.4610868   17.2059305
| 29>     H       13.8907016   15.8546683   16.1139823
| 30>     H       16.2034750   14.1133602   17.1638558
| 31>     H       15.5397083   14.0267577   15.5118653
| 32>     H       16.9765405   18.3035092   15.0970149
| 33>     H       16.5260260   19.7781793   15.9525524
| 34>     H       15.5342952   18.3179959   16.1265518
| 35>     H       17.1600939   20.1363163   18.0395021
| 36>     H       19.6769053   17.8908160   20.2341262
| 37>     H       19.7638903   16.2963419   18.3166356
| 38>     H       19.5941086   14.1456576   19.2195653
| 39>     H       18.4309657   12.4485485   20.6117049
| 40>     H       16.2460779   13.0099958   21.6823032
| 41>     H       14.7417999   14.5703916   22.0071924
| 42>     H       16.4129776   16.9596832   19.9943474
| 43> *
| 44>
| 45>                          ****END OF INPUT****

CARTESIAN COORDINATES (ANGSTROEM)
---------------------------------
  C     14.397209   15.269729   16.891549
  C     15.722263   14.694380   16.363815
  O     16.538692   15.805854   15.955416
  C     17.811133   15.873690   16.439436
  O     18.507363   14.875118   16.519732
  C     17.966784   17.012152   17.399072
  C     17.394804   18.228476   17.220227
  C     16.564397   18.685492   16.039364
  N     17.606868   19.241272   18.160153
  C     18.458099   19.149177   19.230271
  S     18.723214   20.428810   20.244036
  N     19.079262   17.939624   19.419005
  C     18.801510   16.713677   18.646546
  C     18.096426   15.678617   19.518440
  C     18.653352   14.399734   19.701805
  C     17.992299   13.436392   20.482184
  C     16.761577   13.752599   21.082396
  C     16.201426   15.023878   20.898076
  O     15.007197   15.328802   21.465367
  C     16.862659   15.981185   20.122829
  H     14.576624   15.920032   17.757150
  H     13.726276   14.461087   17.205930
  H     13.890702   15.854668   16.113982
  H     16.203475   14.113360   17.163856
  H     15.539708   14.026758   15.511865
  H     16.976540   18.303509   15.097015
  H     16.526026   19.778179   15.952552
  H     15.534295   18.317996   16.126552
  H     17.160094   20.136316   18.039502
  H     19.676905   17.890816   20.234126
  H     19.763890   16.296342   18.316636
  H     19.594109   14.145658   19.219565
  H     18.430966   12.448548   20.611705
  H     16.246078   13.009996   21.682303
  H     14.741800   14.570392   22.007192
  H     16.412978   16.959683   19.994347

 Total Charge           Charge          ....    0
 Multiplicity           Mult            ....    1
 Number of Electrons    NEL             ....  154
 Basis Dimension        Dim             ....  828

ORBITAL ENERGIES
----------------

  NO   OCC          E(Eh)            E(eV)
   0   2.0000     -91.888429     -2500.4113
   1   2.0000     -20.597206      -560.4785
   2   2.0000     -20.588064      -560.2297
   3   2.0000     -20.553710      -559.2949
   4   2.0000     -15.627601      -425.2486
   5   2.0000     -15.608388      -424.7258
   6   2.0000     -11.394275      -310.0540
   7   2.0000     -11.384100      -309.7771
   8   2.0000     -11.331588      -308.3482
   9   2.0000     -11.313193      -307.8476
  10   2.0000     -11.309111      -307.7366
  11   2.0000     -11.297624      -307.4240
  12   2.0000     -11.259609      -306.3895
  13   2.0000     -11.259276      -306.3805
  14   2.0000     -11.258472      -306.3586
  15   2.0000     -11.253325      -306.2185
  16   2.0000     -11.242937      -305.9359
  17   2.0000     -11.238702      -305.8206
  18   2.0000     -11.236130      -305.7507
  19   2.0000     -11.229758      -305.5773
  20   2.0000      -8.893513      -242.0048
  21   2.0000      -6.575094      -178.9174
  22   2.0000      -6.573082      -178.8627
  23   2.0000      -6.572500      -178.8468
  24   2.0000      -1.453312       -39.5466
  25   2.0000      -1.416923       -38.5564
  26   2.0000      -1.356600       -36.9150
  27   2.0000      -1.338999       -36.4360
  28   2.0000      -1.237623       -33.6774
  29   2.0000      -1.157285       -31.4913
  30   2.0000      -1.121548       -30.5189
  31   2.0000      -1.045332       -28.4449
  32   2.0000      -1.035076       -28.1659
  33   2.0000      -1.014671       -27.6106
  34   2.0000      -0.999401       -27.1951
  35   2.0000      -0.985057       -26.8048
  36   2.0000      -0.923631       -25.1333
  37   2.0000      -0.885516       -24.0961
  38   2.0000      -0.847474       -23.0609
  39   2.0000      -0.838489       -22.8165
  40   2.0000      -0.833293       -22.6751
  41   2.0000      -0.821048       -22.3419
  42   2.0000      -0.757924       -20.6242
  43   2.0000      -0.736296       -20.0356
  44   2.0000      -0.728627       -19.8269
  45   2.0000      -0.695211       -18.9177
  46   2.0000      -0.685541       -18.6545
  47   2.0000      -0.680020       -18.5043
  48   2.0000      -0.676605       -18.4114
  49   2.0000      -0.660052       -17.9609
  50   2.0000      -0.652725       -17.7616
  51   2.0000      -0.645058       -17.5529
  52   2.0000      -0.636588       -17.3224
  53   2.0000      -0.606029       -16.4909
  54   2.0000      -0.603291       -16.4164
  55   2.0000      -0.600616       -16.3436
  56   2.0000      -0.594884       -16.1876
  57   2.0000      -0.577445       -15.7131
  58   2.0000      -0.575987       -15.6734
  59   2.0000      -0.569730       -15.5032
  60   2.0000      -0.560552       -15.2534
  61   2.0000      -0.552781       -15.0419
  62   2.0000      -0.543169       -14.7804
  63   2.0000      -0.522322       -14.2131
  64   2.0000      -0.514676       -14.0051
  65   2.0000      -0.511215       -13.9109
  66   2.0000      -0.502591       -13.6762
  67   2.0000      -0.498661       -13.5693
  68   2.0000      -0.483731       -13.1630
  69   2.0000      -0.464456       -12.6385
  70   2.0000      -0.456975       -12.4349
  71   2.0000      -0.454671       -12.3722
  72   2.0000      -0.353396        -9.6164
  73   2.0000      -0.348886        -9.4937
  74   2.0000      -0.327879        -8.9220
  75   2.0000      -0.320399        -8.7185
  76   2.0000      -0.315266        -8.5788
  77   0.0000       0.072965         1.9855
  78   0.0000       0.103920         2.8278
  79   0.0000       0.119166         3.2427
  80   0.0000       0.130900         3.5620
  81   0.0000       0.138362         3.7650

MULLIKEN ATOMIC CHARGES
-----------------------
   0 C :   -0.289484
   1 C :    0.042865
   2 O :   -0.368900
   3 C :    0.440012
   4 O :   -0.401494
   5 C :   -0.186671
   6 C :    0.136801
   7 C :   -0.282932
   8 N :   -0.125669
   9 C :    0.206246
  10 S :   -0.441037
  11 N :   -0.202289
  12 C :    0.059431
  13 C :    0.044443
  14 C :   -0.156317
  15 C :   -0.132615
  16 C :   -0.280782
  17 C :    0.320330
  18 O :   -0.361355
  19 C :   -0.297804
  20 H :    0.103641
  21 H :    0.104354
  22 H :    0.095829
  23 H :    0.105022
  24 H :    0.105861
  25 H :    0.122931
  26 H :    0.105704
  27 H :    0.126283
  28 H :    0.196996
  29 H :    0.194466
  30 H :    0.154405
  31 H :    0.154557
  32 H :    0.161219
  33 H :    0.131085
  34 H :    0.241417
  35 H :    0.173453
Sum of atomic charges:   -0.0000000

LOEWDIN ATOMIC CHARGES
----------------------
   0 C :    0.104325
   1 C :   -0.012766
   2 O :    0.295674
   3 C :   -0.417641
   4 O :    0.124064
   5 C :   -0.093408
   6 C :   -0.077024
   7 C :    0.126379
   8 N :    0.403777
   9 C :   -0.456629
  10 S :   -0.037222
  11 N :    0.396947
  12 C :   -0.045197
  13 C :   -0.040840
  14 C :    0.021750
  15 C :    0.041916
  16 C :   -0.002092
  17 C :   -0.194149
  18 O :    0.393512
  19 C :    0.028666
  20 H :   -0.027591
  21 H :   -0.023664
  22 H :   -0.030513
  23 H :   -0.024294
  24 H :   -0.029091
  25 H :   -0.008202
  26 H :   -0.019435
  27 H :   -0.010315
  28 H :   -0.058848
  29 H :   -0.064197
  30 H :   -0.004861
  31 H :   -0.024765
  32 H :   -0.020176
  33 H :   -0.035479
  34 H :   -0.153713
  35 H :   -0.024899

  Mayer bond orders larger than 0.100000
B(  0-C ,  1-C ) :   0.9692 B(  0-C , 20-H ) :   0.9742 B(  0-C , 21-H ) :   0.9787
B(  0-C , 22-H ) :   0.9777 B(  1-C ,  2-O ) :   0.8903 B(  1-C , 23-H ) :   0.9684
B(  1-C , 24-H ) :   0.9862 B(  2-O ,  3-C ) :   1.1040 B(  3-C ,  4-O ) :   2.0262
B(  3-C ,  5-C ) :   1.0225 B(  5-C ,  6-C ) :   1.6707 B(  5-C , 12-C ) :   0.9661
B(  6-C ,  7-C ) :   0.9530 B(  6-C ,  8-N ) :   1.1388 B(  7-C , 25-H ) :   0.9713
B(  7-C , 26-H ) :   0.9877 B(  7-C , 27-H ) :   0.9627 B(  8-N ,  9-C ) :   1.1863
B(  8-N , 28-H ) :   0.9500 B(  9-C , 10-S ) :   1.6091 B(  9-C , 11-N ) :   1.2996
B( 11-N , 12-C ) :   0.9937 B( 11-N , 29-H ) :   0.9516 B( 12-C , 13-C ) :   0.9434
B( 12-C , 30-H ) :   0.9978 B( 13-C , 14-C ) :   1.3767 B( 13-C , 19-C ) :   1.3659
B( 14-C , 15-C ) :   1.3936 B( 14-C , 31-H ) :   0.9650 B( 15-C , 16-C ) :   1.3642
B( 15-C , 32-H ) :   0.9710 B( 16-C , 17-C ) :   1.3309 B( 16-C , 33-H ) :   0.9847
B( 17-C , 18-O ) :   1.1051 B( 17-C , 19-C ) :   1.3703 B( 18-O , 34-H ) :   0.9802
B( 19-C , 35-H ) :   0.9565

MP2 TOTAL ENERGY:    -1274.328442664 Eh
FINAL SINGLE POINT ENERGY     -1274.328442664376

DIPOLE MOMENT
-------------
                                X             Y             Z
Electronic contribution:     11.24722       7.92135       6.47977
Nuclear contribution   :    -12.52663      -9.25800      -7.12154
                        -----------------------------------------
Total Dipole Moment    :     -1.27942      -1.33665      -0.64177
                        -----------------------------------------
Magnitude (a.u.)       :      1.95842
Magnitude (Debye)      :      4.97790

Rotational constants in cm-1:     0.011941     0.009157     0.006868
Rotational constants in MHz :   357.991449   274.517743   205.898831

                             ****ORCA TERMINATED NORMALLY****
TOTAL RUN TIME: 0 days 2 hours 7 minutes 52 seconds 747 msec
