                         Program Version 4.2.0 -  RELEASE  -
|  1> ! ri-mp2 cc-pvtz cc-pvtz/c TightSCF  NoKeepInts
|  2>
|  3> %scf
|  4>   MaxCore 4096
|  5> end
|  6> *xyz  0  1
|  7>     C       14.9506312   15.9396927   17.2381974
|  8>     C       15.6004631   14.9390543   16.2621181
|  9>     O       16.8969290   15.2952169   15.7133517
| 10>     C       18.0128982   15.6848025   16.4131181
| 11>     O       18.9663333   14.9290766   16.4576592
| 12>     C       17.9011334   16.8306731   17.3687126
| 13>     C       17.3516569   18.0224862   17.0269180
| 14>     C       16.7937945   18.4407578   15.6809840
| 15>     N       17.3852870   19.0877859   17.9297594
| 16>     C       18.0878585   19.0932245   19.1058345
| 17>     S       18.1608790   20.4352156   20.0691378
| 18>     N       18.7346466   17.9299483   19.4406613
| 19>     C       18.6087347   16.6482726   18.7185767
| 20>     C       17.9302320   15.5863697   19.5848589
| 21>     C       18.3670324   14.2494100   19.5308994
| 22>     C       17.7513446   13.2587693   20.3135985
| 23>     C       16.6882124   13.6052552   21.1638419
| 24>     C       16.2507101   14.9346633   21.2259762
| 25>     O       15.2195858   15.2721757   22.0404703
| 26>     C       16.8659484   15.9189335   20.4458333
| 27>     H       15.5364196   16.0678175   18.1501593
| 28>     H       13.9686937   15.5608674   17.5472261
| 29>     H       14.7834507   16.9115134   16.7653776
| 30>     H       15.7061800   13.9804406   16.7878024
| 31>     H       14.9082588   14.7669932   15.4277748
| 32>     H       16.7962147   17.6327508   14.9423499
| 33>     H       17.3954042   19.2534453   15.2543866
| 34>     H       15.7627674   18.8029274   15.7712469
| 35>     H       16.9380160   19.9586742   17.6903505
| 36>     H       19.2356516   17.9580689   20.3197323
| 37>     H       19.6291489   16.2951494   18.5079185
| 38>     H       19.1862821   13.9737816   18.8702079
| 39>     H       18.0992257   12.2286624   20.2568069
| 40>     H       16.2090295   12.8428416   21.7691363
| 41>     H       14.9644137   14.4767194   22.5317272
| 42>     H       16.5035322   16.9395634   20.5112893
| 43> *
| 44>
| 45>                          ****END OF INPUT****

CARTESIAN COORDINATES (ANGSTROEM)
---------------------------------
  C     14.950631   15.939693   17.238197
  C     15.600463   14.939054   16.262118
  O     16.896929   15.295217   15.713352
  C     18.012898   15.684802   16.413118
  O     18.966333   14.929077   16.457659
  C     17.901133   16.830673   17.368713
  C     17.351657   18.022486   17.026918
  C     16.793795   18.440758   15.680984
  N     17.385287   19.087786   17.929759
  C     18.087858   19.093225   19.105835
  S     18.160879   20.435216   20.069138
  N     18.734647   17.929948   19.440661
  C     18.608735   16.648273   18.718577
  C     17.930232   15.586370   19.584859
  C     18.367032   14.249410   19.530899
  C     17.751345   13.258769   20.313599
  C     16.688212   13.605255   21.163842
  C     16.250710   14.934663   21.225976
  O     15.219586   15.272176   22.040470
  C     16.865948   15.918933   20.445833
  H     15.536420   16.067818   18.150159
  H     13.968694   15.560867   17.547226
  H     14.783451   16.911513   16.765378
  H     15.706180   13.980441   16.787802
  H     14.908259   14.766993   15.427775
  H     16.796215   17.632751   14.942350
  H     17.395404   19.253445   15.254387
  H     15.762767   18.802927   15.771247
  H     16.938016   19.958674   17.690351
  H     19.235652   17.958069   20.319732
  H     19.629149   16.295149   18.507918
  H     19.186282   13.973782   18.870208
  H     18.099226   12.228662   20.256807
  H     16.209029   12.842842   21.769136
  H     14.964414   14.476719   22.531727
  H     16.503532   16.939563   20.511289

 Total Charge           Charge          ....    0
 Multiplicity           Mult            ....    1
 Number of Electrons    NEL             ....  154
 Basis Dimension        Dim             ....  828

ORBITAL ENERGIES
----------------

  NO   OCC          E(Eh)            E(eV)
   0   2.0000     -91.890778     -2500.4752
   1   2.0000     -20.598187      -560.5052
   2   2.0000     -20.587438      -560.2127
   3   2.0000     -20.551607      -559.2376
   4   2.0000     -15.628844      -425.2825
   5   2.0000     -15.610855      -424.7930
   6   2.0000     -11.397670      -310.1464
   7   2.0000     -11.386800      -309.8506
   8   2.0000     -11.333911      -308.4114
   9   2.0000     -11.315027      -307.8975
  10   2.0000     -11.312950      -307.8410
  11   2.0000     -11.309569      -307.7490
  12   2.0000     -11.264466      -306.5217
  13   2.0000     -11.264132      -306.5126
  14   2.0000     -11.262710      -306.4739
  15   2.0000     -11.255101      -306.2669
  16   2.0000     -11.244375      -305.9750
  17   2.0000     -11.240622      -305.8729
  18   2.0000     -11.236622      -305.7640
  19   2.0000     -11.232993      -305.6653
  20   2.0000      -8.895865      -242.0688
  21   2.0000      -6.577448      -178.9814
  22   2.0000      -6.575429      -178.9265
  23   2.0000      -6.574847      -178.9107
  24   2.0000      -1.443315       -39.2746
  25   2.0000      -1.418004       -38.5859
  26   2.0000      -1.353503       -36.8307
  27   2.0000      -1.341620       -36.5073
  28   2.0000      -1.240432       -33.7539
  29   2.0000      -1.158980       -31.5375
  30   2.0000      -1.123676       -30.5768
  31   2.0000      -1.046499       -28.4767
  32   2.0000      -1.038520       -28.2596
  33   2.0000      -1.017400       -27.6849
  34   2.0000      -1.004372       -27.3304
  35   2.0000      -0.989671       -26.9303
  36   2.0000      -0.927141       -25.2288
  37   2.0000      -0.897141       -24.4124
  38   2.0000      -0.852461       -23.1966
  39   2.0000      -0.841101       -22.8875
  40   2.0000      -0.835003       -22.7216
  41   2.0000      -0.826327       -22.4855
  42   2.0000      -0.749295       -20.3893
  43   2.0000      -0.734030       -19.9740
  44   2.0000      -0.729515       -19.8511
  45   2.0000      -0.696157       -18.9434
  46   2.0000      -0.687367       -18.7042
  47   2.0000      -0.675696       -18.3866
  48   2.0000      -0.674302       -18.3487
  49   2.0000      -0.663329       -18.0501
  50   2.0000      -0.653375       -17.7792
  51   2.0000      -0.649586       -17.6761
  52   2.0000      -0.641160       -17.4468
  53   2.0000      -0.613261       -16.6877
  54   2.0000      -0.605999       -16.4901
  55   2.0000      -0.602243       -16.3879
  56   2.0000      -0.601263       -16.3612
  57   2.0000      -0.594262       -16.1707
  58   2.0000      -0.575469       -15.6593
  59   2.0000      -0.572838       -15.5877
  60   2.0000      -0.564333       -15.3563
  61   2.0000      -0.555859       -15.1257
  62   2.0000      -0.544101       -14.8057
  63   2.0000      -0.530464       -14.4347
  64   2.0000      -0.521747       -14.1974
  65   2.0000      -0.513806       -13.9814
  66   2.0000      -0.501537       -13.6475
  67   2.0000      -0.488131       -13.2827
  68   2.0000      -0.484600       -13.1866
  69   2.0000      -0.466436       -12.6924
  70   2.0000      -0.459855       -12.5133
  71   2.0000      -0.448513       -12.2047
  72   2.0000      -0.356839        -9.7101
  73   2.0000      -0.349232        -9.5031
  74   2.0000      -0.330225        -8.9859
  75   2.0000      -0.323090        -8.7917
  76   2.0000      -0.319336        -8.6896
  77   0.0000       0.078469         2.1353
  78   0.0000       0.105435         2.8690
  79   0.0000       0.117849         3.2068
  80   0.0000       0.127585         3.4718
  81   0.0000       0.130843         3.5604

MULLIKEN ATOMIC CHARGES
-----------------------
   0 C :   -0.340050
   1 C :    0.051332
   2 O :   -0.366637
   3 C :    0.440802
   4 O :   -0.381373
   5 C :   -0.240159
   6 C :    0.173404
   7 C :   -0.325254
   8 N :   -0.135479
   9 C :    0.197534
  10 S :   -0.438273
  11 N :   -0.223049
  12 C :    0.092147
  13 C :    0.021653
  14 C :   -0.215180
  15 C :   -0.136509
  16 C :   -0.275703
  17 C :    0.324720
  18 O :   -0.356707
  19 C :   -0.281484
  20 H :    0.125673
  21 H :    0.127675
  22 H :    0.092656
  23 H :    0.104916
  24 H :    0.113619
  25 H :    0.135741
  26 H :    0.142308
  27 H :    0.113374
  28 H :    0.197366
  29 H :    0.200588
  30 H :    0.165781
  31 H :    0.177698
  32 H :    0.164459
  33 H :    0.131835
  34 H :    0.240871
  35 H :    0.179703
Sum of atomic charges:    0.0000000

LOEWDIN ATOMIC CHARGES
----------------------
   0 C :    0.105950
   1 C :   -0.012551
   2 O :    0.277954
   3 C :   -0.414428
   4 O :    0.129519
   5 C :   -0.086099
   6 C :   -0.083605
   7 C :    0.124034
   8 N :    0.404913
   9 C :   -0.458201
  10 S :   -0.035870
  11 N :    0.397626
  12 C :   -0.043332
  13 C :   -0.042951
  14 C :    0.019954
  15 C :    0.042641
  16 C :   -0.001552
  17 C :   -0.193667
  18 O :    0.395133
  19 C :    0.026135
  20 H :   -0.033797
  21 H :   -0.019503
  22 H :   -0.033449
  23 H :   -0.026140
  24 H :   -0.019984
  25 H :   -0.011887
  26 H :   -0.009947
  27 H :   -0.019563
  28 H :   -0.056274
  29 H :   -0.063567
  30 H :   -0.002616
  31 H :   -0.022391
  32 H :   -0.018925
  33 H :   -0.035076
  34 H :   -0.153494
  35 H :   -0.024990

  Mayer bond orders larger than 0.100000
B(  0-C ,  1-C ) :   0.9619 B(  0-C , 20-H ) :   0.9659 B(  0-C , 21-H ) :   0.9779
B(  0-C , 22-H ) :   0.9754 B(  1-C ,  2-O ) :   0.9021 B(  1-C , 23-H ) :   0.9790
B(  1-C , 24-H ) :   0.9815 B(  2-O ,  3-C ) :   1.1271 B(  3-C ,  4-O ) :   2.0699
B(  3-C ,  5-C ) :   0.9720 B(  5-C ,  6-C ) :   1.6562 B(  5-C , 12-C ) :   0.9476
B(  6-C ,  7-C ) :   0.9503 B(  6-C ,  8-N ) :   1.1259 B(  7-C , 25-H ) :   0.9738
B(  7-C , 26-H ) :   0.9676 B(  7-C , 27-H ) :   0.9668 B(  8-N ,  9-C ) :   1.1912
B(  8-N , 28-H ) :   0.9513 B(  9-C , 10-S ) :   1.6121 B(  9-C , 11-N ) :   1.2901
B( 11-N , 12-C ) :   0.9846 B( 11-N , 29-H ) :   0.9491 B( 12-C , 13-C ) :   0.9511
B( 12-C , 30-H ) :   0.9966 B( 13-C , 14-C ) :   1.3900 B( 13-C , 19-C ) :   1.3389
B( 14-C , 15-C ) :   1.4017 B( 14-C , 31-H ) :   0.9565 B( 15-C , 16-C ) :   1.3589
B( 15-C , 32-H ) :   0.9699 B( 16-C , 17-C ) :   1.3320 B( 16-C , 33-H ) :   0.9846
B( 17-C , 18-O ) :   1.1101 B( 17-C , 19-C ) :   1.3674 B( 18-O , 34-H ) :   0.9797
B( 19-C , 35-H ) :   0.9584

MP2 TOTAL ENERGY:    -1274.323716411 Eh
FINAL SINGLE POINT ENERGY     -1274.323716411438

DIPOLE MOMENT
-------------
                                X             Y             Z
Electronic contribution:      9.64755       5.86485       6.35798
Nuclear contribution   :    -11.13552      -7.02009      -6.86331
                        -----------------------------------------
Total Dipole Moment    :     -1.48798      -1.15523      -0.50532
                        -----------------------------------------
Magnitude (a.u.)       :      1.95038
Magnitude (Debye)      :      4.95748

Rotational constants in cm-1:     0.011564     0.009644     0.006783
Rotational constants in MHz :   346.685699   289.107324   203.359273

                             ****ORCA TERMINATED NORMALLY****
TOTAL RUN TIME: 0 days 1 hours 56 minutes 17 seconds 556 msec
