                         Program Version 5.0.0 -  RELEASE  -
|  1> ! ri-mp2 cc-pvtz cc-pvtz/c TightSCF NoKeepInts
|  2>
|  3> %scf
|  4>   MaxCore 4096
|  5> end
|  6> *xyz  0  1
|  7>     C       15.4409161   14.0054559   16.8054576
|  8>     C       15.3782956   15.1305008   15.7463239
|  9>     O       16.5154439   16.0310344   15.7429784
| 10>     C       17.6193388   15.8832249   16.5351047
| 11>     O       18.2283751   14.8306173   16.6264673
| 12>     C       17.8722461   17.0386926   17.4588652
| 13>     C       17.4231383   18.3055543   17.2628219
| 14>     C       16.6271053   18.8403737   16.0901704
| 15>     N       17.7527843   19.3084564   18.1803780
| 16>     C       18.6194722   19.1575005   19.2305219
| 17>     S       19.0373427   20.4272740   20.2044502
| 18>     N       19.1212548   17.8970299   19.4335570
| 19>     C       18.6908266   16.6885985   18.7056374
| 20>     C       17.8995166   15.7608674   19.6240489
| 21>     C       18.2792385   14.4146107   19.7764461
| 22>     C       17.5424378   13.5515339   20.6046221
| 23>     C       16.4146407   14.0376891   21.2874280
| 24>     C       16.0307782   15.3769174   21.1357766
| 25>     O       14.9369094   15.8471953   21.7864374
| 26>     C       16.7655385   16.2333103   20.3098920
| 27>     H       16.2299274   13.2802856   16.5702642
| 28>     H       14.4910167   13.4583558   16.8314869
| 29>     H       15.6212594   14.4108779   17.8094321
| 30>     H       15.2865804   14.6706770   14.7537758
| 31>     H       14.4681016   15.7200580   15.9152140
| 32>     H       15.5890346   18.4887763   16.1336697
| 33>     H       17.0589474   18.5035308   15.1393064
| 34>     H       16.6053798   19.9365337   16.0597922
| 35>     H       17.3959033   20.2413560   18.0486192
| 36>     H       19.7344692   17.8059225   20.2333385
| 37>     H       19.5959714   16.1587086   18.3749367
| 38>     H       19.1391046   14.0309357   19.2324437
| 39>     H       17.8433898   12.5105506   20.7081697
| 40>     H       15.8415401   13.3738322   21.9260606
| 41>     H       14.5993728   15.1288213   22.3423063
| 42>     H       16.4514019   17.2663410   20.2077992
| 43> *
| 44>
| 45>                          ****END OF INPUT****

CARTESIAN COORDINATES (ANGSTROEM)
---------------------------------
  C     15.440916   14.005456   16.805458
  C     15.378296   15.130501   15.746324
  O     16.515444   16.031034   15.742978
  C     17.619339   15.883225   16.535105
  O     18.228375   14.830617   16.626467
  C     17.872246   17.038693   17.458865
  C     17.423138   18.305554   17.262822
  C     16.627105   18.840374   16.090170
  N     17.752784   19.308456   18.180378
  C     18.619472   19.157501   19.230522
  S     19.037343   20.427274   20.204450
  N     19.121255   17.897030   19.433557
  C     18.690827   16.688599   18.705637
  C     17.899517   15.760867   19.624049
  C     18.279239   14.414611   19.776446
  C     17.542438   13.551534   20.604622
  C     16.414641   14.037689   21.287428
  C     16.030778   15.376917   21.135777
  O     14.936909   15.847195   21.786437
  C     16.765539   16.233310   20.309892
  H     16.229927   13.280286   16.570264
  H     14.491017   13.458356   16.831487
  H     15.621259   14.410878   17.809432
  H     15.286580   14.670677   14.753776
  H     14.468102   15.720058   15.915214
  H     15.589035   18.488776   16.133670
  H     17.058947   18.503531   15.139306
  H     16.605380   19.936534   16.059792
  H     17.395903   20.241356   18.048619
  H     19.734469   17.805923   20.233338
  H     19.595971   16.158709   18.374937
  H     19.139105   14.030936   19.232444
  H     17.843390   12.510551   20.708170
  H     15.841540   13.373832   21.926061
  H     14.599373   15.128821   22.342306
  H     16.451402   17.266341   20.207799

 Total Charge           Charge          ....    0
 Multiplicity           Mult            ....    1
 Number of Electrons    NEL             ....  154
 Basis Dimension        Dim             ....  828

ORBITAL ENERGIES
----------------

  NO   OCC          E(Eh)            E(eV)
   0   2.0000     -91.888522     -2500.4138
   1   2.0000     -20.594791      -560.4128
   2   2.0000     -20.589364      -560.2651
   3   2.0000     -20.548772      -559.1605
   4   2.0000     -15.628465      -425.2722
   5   2.0000     -15.607544      -424.7029
   6   2.0000     -11.396110      -310.1039
   7   2.0000     -11.383630      -309.7643
   8   2.0000     -11.335367      -308.4510
   9   2.0000     -11.310973      -307.7872
  10   2.0000     -11.306614      -307.6686
  11   2.0000     -11.306092      -307.6544
  12   2.0000     -11.259474      -306.3859
  13   2.0000     -11.259079      -306.3751
  14   2.0000     -11.256279      -306.2989
  15   2.0000     -11.250923      -306.1532
  16   2.0000     -11.240717      -305.8755
  17   2.0000     -11.236681      -305.7656
  18   2.0000     -11.233401      -305.6764
  19   2.0000     -11.225425      -305.4593
  20   2.0000      -8.893591      -242.0069
  21   2.0000      -6.575169      -178.9194
  22   2.0000      -6.573160      -178.8648
  23   2.0000      -6.572576      -178.8489
  24   2.0000      -1.445394       -39.3312
  25   2.0000      -1.414588       -38.4929
  26   2.0000      -1.354936       -36.8697
  27   2.0000      -1.339516       -36.4501
  28   2.0000      -1.237495       -33.6740
  29   2.0000      -1.155109       -31.4321
  30   2.0000      -1.120105       -30.4796
  31   2.0000      -1.043118       -28.3847
  32   2.0000      -1.032650       -28.0998
  33   2.0000      -1.012562       -27.5532
  34   2.0000      -0.998765       -27.1778
  35   2.0000      -0.984107       -26.7789
  36   2.0000      -0.922982       -25.1156
  37   2.0000      -0.896238       -24.3879
  38   2.0000      -0.848678       -23.0937
  39   2.0000      -0.837622       -22.7928
  40   2.0000      -0.831028       -22.6134
  41   2.0000      -0.818933       -22.2843
  42   2.0000      -0.743085       -20.2204
  43   2.0000      -0.728065       -19.8117
  44   2.0000      -0.726061       -19.7571
  45   2.0000      -0.692477       -18.8433
  46   2.0000      -0.685210       -18.6455
  47   2.0000      -0.675790       -18.3892
  48   2.0000      -0.674403       -18.3514
  49   2.0000      -0.663579       -18.0569
  50   2.0000      -0.650435       -17.6992
  51   2.0000      -0.645154       -17.5555
  52   2.0000      -0.634693       -17.2709
  53   2.0000      -0.620618       -16.8879
  54   2.0000      -0.603236       -16.4149
  55   2.0000      -0.601533       -16.3686
  56   2.0000      -0.598463       -16.2850
  57   2.0000      -0.576670       -15.6920
  58   2.0000      -0.574916       -15.6443
  59   2.0000      -0.564652       -15.3650
  60   2.0000      -0.552233       -15.0270
  61   2.0000      -0.545645       -14.8478
  62   2.0000      -0.536909       -14.6100
  63   2.0000      -0.525794       -14.3076
  64   2.0000      -0.518323       -14.1043
  65   2.0000      -0.510822       -13.9002
  66   2.0000      -0.500490       -13.6190
  67   2.0000      -0.495996       -13.4967
  68   2.0000      -0.479923       -13.0594
  69   2.0000      -0.464062       -12.6278
  70   2.0000      -0.455591       -12.3973
  71   2.0000      -0.448775       -12.2118
  72   2.0000      -0.354033        -9.6337
  73   2.0000      -0.346984        -9.4419
  74   2.0000      -0.327781        -8.9194
  75   2.0000      -0.318083        -8.6555
  76   2.0000      -0.315460        -8.5841
  77   0.0000       0.073757         2.0070
  78   0.0000       0.108538         2.9535
  79   0.0000       0.121123         3.2959
  80   0.0000       0.133199         3.6245
  81   0.0000       0.139603         3.7988

MULLIKEN ATOMIC CHARGES
-----------------------
   0 C :   -0.317027
   1 C :    0.062515
   2 O :   -0.375565
   3 C :    0.447707
   4 O :   -0.407814
   5 C :   -0.185024
   6 C :    0.141261
   7 C :   -0.282457
   8 N :   -0.122876
   9 C :    0.202316
  10 S :   -0.439564
  11 N :   -0.201552
  12 C :    0.052174
  13 C :    0.027940
  14 C :   -0.156759
  15 C :   -0.137287
  16 C :   -0.275527
  17 C :    0.306821
  18 O :   -0.359630
  19 C :   -0.262100
  20 H :    0.122930
  21 H :    0.103341
  22 H :    0.112005
  23 H :    0.099499
  24 H :    0.087290
  25 H :    0.122842
  26 H :    0.129517
  27 H :    0.103360
  28 H :    0.197003
  29 H :    0.194427
  30 H :    0.154616
  31 H :    0.157350
  32 H :    0.160421
  33 H :    0.130241
  34 H :    0.240511
  35 H :    0.167093
Sum of atomic charges:   -0.0000000

LOEWDIN ATOMIC CHARGES
----------------------
   0 C :    0.106123
   1 C :   -0.009221
   2 O :    0.286885
   3 C :   -0.417404
   4 O :    0.119915
   5 C :   -0.093741
   6 C :   -0.068576
   7 C :    0.125485
   8 N :    0.404561
   9 C :   -0.458336
  10 S :   -0.036227
  11 N :    0.397609
  12 C :   -0.046163
  13 C :   -0.041272
  14 C :    0.022310
  15 C :    0.041158
  16 C :   -0.002496
  17 C :   -0.194082
  18 O :    0.393620
  19 C :    0.027129
  20 H :   -0.023545
  21 H :   -0.025659
  22 H :   -0.024378
  23 H :   -0.027184
  24 H :   -0.030692
  25 H :   -0.010545
  26 H :   -0.006922
  27 H :   -0.020601
  28 H :   -0.058987
  29 H :   -0.063862
  30 H :   -0.004994
  31 H :   -0.024598
  32 H :   -0.020602
  33 H :   -0.035854
  34 H :   -0.154349
  35 H :   -0.024507

  Mayer bond orders larger than 0.100000
B(  0-C ,  1-C ) :   0.9703 B(  0-C , 20-H ) :   0.9713 B(  0-C , 21-H ) :   0.9741
B(  0-C , 22-H ) :   0.9665 B(  1-C ,  2-O ) :   0.9013 B(  1-C , 23-H ) :   0.9819
B(  1-C , 24-H ) :   0.9779 B(  2-O ,  3-C ) :   1.1064 B(  3-C ,  4-O ) :   2.0176
B(  3-C ,  5-C ) :   1.0289 B(  5-C ,  6-C ) :   1.6608 B(  5-C , 12-C ) :   0.9611
B(  6-C ,  7-C ) :   0.9527 B(  6-C ,  8-N ) :   1.1462 B(  7-C , 25-H ) :   0.9655
B(  7-C , 26-H ) :   0.9664 B(  7-C , 27-H ) :   0.9901 B(  8-N ,  9-C ) :   1.1815
B(  8-N , 28-H ) :   0.9490 B(  9-C , 10-S ) :   1.6104 B(  9-C , 11-N ) :   1.3027
B( 11-N , 12-C ) :   0.9913 B( 11-N , 29-H ) :   0.9517 B( 12-C , 13-C ) :   0.9442
B( 12-C , 30-H ) :   0.9997 B( 13-C , 14-C ) :   1.3819 B( 13-C , 19-C ) :   1.3697
B( 14-C , 15-C ) :   1.3945 B( 14-C , 31-H ) :   0.9629 B( 15-C , 16-C ) :   1.3615
B( 15-C , 32-H ) :   0.9712 B( 16-C , 17-C ) :   1.3316 B( 16-C , 33-H ) :   0.9852
B( 17-C , 18-O ) :   1.1099 B( 17-C , 19-C ) :   1.3750 B( 18-O , 34-H ) :   0.9801
B( 19-C , 35-H ) :   0.9579

MP2 TOTAL ENERGY:    -1274.333297068 Eh
FINAL SINGLE POINT ENERGY     -1274.333297067887

DIPOLE MOMENT
-------------
                                X             Y             Z
Electronic contribution:      9.83017      10.02164       7.45681
Nuclear contribution   :    -11.37670     -11.26862      -8.24852
                        -----------------------------------------
Total Dipole Moment    :     -1.54653      -1.24699      -0.79171
                        -----------------------------------------
Magnitude (a.u.)       :      2.13858
Magnitude (Debye)      :      5.43585

Rotational constants in cm-1:     0.011706     0.009244     0.006423
Rotational constants in MHz :   350.923778   277.114701   192.545849

                             ****ORCA TERMINATED NORMALLY****
TOTAL RUN TIME: 0 days 2 hours 0 minutes 26 seconds 344 msec
