                         Program Version 4.2.0 -  RELEASE  -
|  1> ! ri-mp2 cc-pvtz cc-pvtz/c TightSCF  NoKeepInts
|  2>
|  3> %scf
|  4>   MaxCore 4096
|  5> end
|  6> *xyz  0  1
|  7>     C       14.7335190   14.2170544   16.4842806
|  8>     C       15.5267556   15.5126802   16.7177902
|  9>     O       16.7491639   15.4028285   15.9634070
| 10>     C       17.9489425   15.6326007   16.5769482
| 11>     O       18.7810996   14.7475100   16.6547522
| 12>     C       18.0236159   16.8718242   17.4160900
| 13>     C       17.5200680   18.0712425   17.0342848
| 14>     C       16.8627316   18.4203352   15.7152586
| 15>     N       17.6733512   19.1844725   17.8647919
| 16>     C       18.4236349   19.2065198   19.0114727
| 17>     S       18.6286541   20.5927283   19.8891271
| 18>     N       18.9932947   18.0181967   19.3964244
| 19>     C       18.7523391   16.7125435   18.7515582
| 20>     C       17.9711330   15.7803563   19.6735873
| 21>     C       18.3800011   14.4450169   19.8435315
| 22>     C       17.6510461   13.5714411   20.6674477
| 23>     C       16.5002089   14.0351781   21.3268683
| 24>     C       16.0859639   15.3628032   21.1564881
| 25>     O       14.9674957   15.8107161   21.7800359
| 26>     C       16.8131470   16.2301883   20.3351888
| 27>     H       15.3092182   13.3475655   16.8267638
| 28>     H       14.5108888   14.0853420   15.4180582
| 29>     H       13.7854535   14.2395238   17.0351528
| 30>     H       14.9387964   16.3751658   16.3819874
| 31>     H       15.7235791   15.6148390   17.7933259
| 32>     H       17.1186405   17.7037894   14.9251020
| 33>     H       17.1914215   19.4036066   15.3554273
| 34>     H       15.7711162   18.4481723   15.8099371
| 35>     H       17.2727624   20.0690523   17.5943830
| 36>     H       19.5234742   18.0584553   20.2577997
| 37>     H       19.7316544   16.2545905   18.5478896
| 38>     H       19.2587655   14.0772945   19.3179052
| 39>     H       17.9760729   12.5390390   20.7852963
| 40>     H       15.9327483   13.3622781   21.9613020
| 41>     H       14.6436185   15.0935095   22.3460124
| 42>     H       16.4726238   17.2535401   20.2183237
| 43> *
| 44>
| 45>                          ****END OF INPUT****

CARTESIAN COORDINATES (ANGSTROEM)
---------------------------------
  C     14.733519   14.217054   16.484281
  C     15.526756   15.512680   16.717790
  O     16.749164   15.402828   15.963407
  C     17.948943   15.632601   16.576948
  O     18.781100   14.747510   16.654752
  C     18.023616   16.871824   17.416090
  C     17.520068   18.071243   17.034285
  C     16.862732   18.420335   15.715259
  N     17.673351   19.184472   17.864792
  C     18.423635   19.206520   19.011473
  S     18.628654   20.592728   19.889127
  N     18.993295   18.018197   19.396424
  C     18.752339   16.712543   18.751558
  C     17.971133   15.780356   19.673587
  C     18.380001   14.445017   19.843532
  C     17.651046   13.571441   20.667448
  C     16.500209   14.035178   21.326868
  C     16.085964   15.362803   21.156488
  O     14.967496   15.810716   21.780036
  C     16.813147   16.230188   20.335189
  H     15.309218   13.347565   16.826764
  H     14.510889   14.085342   15.418058
  H     13.785453   14.239524   17.035153
  H     14.938796   16.375166   16.381987
  H     15.723579   15.614839   17.793326
  H     17.118640   17.703789   14.925102
  H     17.191422   19.403607   15.355427
  H     15.771116   18.448172   15.809937
  H     17.272762   20.069052   17.594383
  H     19.523474   18.058455   20.257800
  H     19.731654   16.254590   18.547890
  H     19.258765   14.077295   19.317905
  H     17.976073   12.539039   20.785296
  H     15.932748   13.362278   21.961302
  H     14.643619   15.093509   22.346012
  H     16.472624   17.253540   20.218324

 Total Charge           Charge          ....    0
 Multiplicity           Mult            ....    1
 Number of Electrons    NEL             ....  154
 Basis Dimension        Dim             ....  828

ORBITAL ENERGIES
----------------

  NO   OCC          E(Eh)            E(eV)
   0   2.0000     -91.891002     -2500.4813
   1   2.0000     -20.599092      -560.5298
   2   2.0000     -20.592282      -560.3445
   3   2.0000     -20.552860      -559.2717
   4   2.0000     -15.629834      -425.3094
   5   2.0000     -15.611002      -424.7970
   6   2.0000     -11.395913      -310.0985
   7   2.0000     -11.387036      -309.8570
   8   2.0000     -11.335638      -308.4584
   9   2.0000     -11.315838      -307.9196
  10   2.0000     -11.311860      -307.8114
  11   2.0000     -11.303467      -307.5830
  12   2.0000     -11.265809      -306.5583
  13   2.0000     -11.263881      -306.5058
  14   2.0000     -11.261841      -306.4503
  15   2.0000     -11.255640      -306.2815
  16   2.0000     -11.245171      -305.9967
  17   2.0000     -11.241422      -305.8946
  18   2.0000     -11.237944      -305.8000
  19   2.0000     -11.229156      -305.5609
  20   2.0000      -8.896089      -242.0749
  21   2.0000      -6.577668      -178.9874
  22   2.0000      -6.575653      -178.9326
  23   2.0000      -6.575069      -178.9167
  24   2.0000      -1.449646       -39.4469
  25   2.0000      -1.418919       -38.6107
  26   2.0000      -1.360019       -37.0080
  27   2.0000      -1.341992       -36.5175
  28   2.0000      -1.240566       -33.7575
  29   2.0000      -1.160188       -31.5703
  30   2.0000      -1.124520       -30.5997
  31   2.0000      -1.047653       -28.5081
  32   2.0000      -1.036860       -28.2144
  33   2.0000      -1.017753       -27.6945
  34   2.0000      -1.004296       -27.3283
  35   2.0000      -0.988752       -26.9053
  36   2.0000      -0.927060       -25.2266
  37   2.0000      -0.879447       -23.9310
  38   2.0000      -0.855555       -23.2808
  39   2.0000      -0.842946       -22.9377
  40   2.0000      -0.836181       -22.7536
  41   2.0000      -0.835161       -22.7259
  42   2.0000      -0.755300       -20.5527
  43   2.0000      -0.738468       -20.0947
  44   2.0000      -0.731135       -19.8952
  45   2.0000      -0.697061       -18.9680
  46   2.0000      -0.688228       -18.7276
  47   2.0000      -0.680197       -18.5091
  48   2.0000      -0.677473       -18.4350
  49   2.0000      -0.663250       -18.0479
  50   2.0000      -0.654754       -17.8168
  51   2.0000      -0.649601       -17.6765
  52   2.0000      -0.641529       -17.4569
  53   2.0000      -0.610371       -16.6090
  54   2.0000      -0.607327       -16.5262
  55   2.0000      -0.603013       -16.4088
  56   2.0000      -0.594292       -16.1715
  57   2.0000      -0.584202       -15.8970
  58   2.0000      -0.577961       -15.7271
  59   2.0000      -0.569228       -15.4895
  60   2.0000      -0.564222       -15.3533
  61   2.0000      -0.558546       -15.1988
  62   2.0000      -0.545143       -14.8341
  63   2.0000      -0.525303       -14.2942
  64   2.0000      -0.515887       -14.0380
  65   2.0000      -0.515268       -14.0211
  66   2.0000      -0.502333       -13.6692
  67   2.0000      -0.498606       -13.5677
  68   2.0000      -0.488661       -13.2971
  69   2.0000      -0.470814       -12.8115
  70   2.0000      -0.457434       -12.4474
  71   2.0000      -0.451618       -12.2891
  72   2.0000      -0.358095        -9.7443
  73   2.0000      -0.351158        -9.5555
  74   2.0000      -0.330414        -8.9910
  75   2.0000      -0.323368        -8.7993
  76   2.0000      -0.319255        -8.6874
  77   0.0000       0.075326         2.0497
  78   0.0000       0.104320         2.8387
  79   0.0000       0.117443         3.1958
  80   0.0000       0.129695         3.5292
  81   0.0000       0.134841         3.6692

MULLIKEN ATOMIC CHARGES
-----------------------
   0 C :   -0.254290
   1 C :    0.018150
   2 O :   -0.339983
   3 C :    0.438869
   4 O :   -0.382652
   5 C :   -0.232392
   6 C :    0.162887
   7 C :   -0.321549
   8 N :   -0.132702
   9 C :    0.198565
  10 S :   -0.437656
  11 N :   -0.206965
  12 C :    0.067941
  13 C :    0.028094
  14 C :   -0.182064
  15 C :   -0.133292
  16 C :   -0.276330
  17 C :    0.323359
  18 O :   -0.358751
  19 C :   -0.293051
  20 H :    0.107498
  21 H :    0.099325
  22 H :    0.088016
  23 H :    0.088587
  24 H :    0.109373
  25 H :    0.139523
  26 H :    0.125941
  27 H :    0.121470
  28 H :    0.197705
  29 H :    0.196310
  30 H :    0.161228
  31 H :    0.167046
  32 H :    0.163422
  33 H :    0.132227
  34 H :    0.241449
  35 H :    0.174693
Sum of atomic charges:   -0.0000000

LOEWDIN ATOMIC CHARGES
----------------------
   0 C :    0.110462
   1 C :   -0.020804
   2 O :    0.297364
   3 C :   -0.419754
   4 O :    0.127844
   5 C :   -0.090280
   6 C :   -0.083240
   7 C :    0.126941
   8 N :    0.403512
   9 C :   -0.458060
  10 S :   -0.034962
  11 N :    0.397104
  12 C :   -0.045468
  13 C :   -0.044372
  14 C :    0.021928
  15 C :    0.044308
  16 C :   -0.000610
  17 C :   -0.194943
  18 O :    0.394226
  19 C :    0.026073
  20 H :   -0.021271
  21 H :   -0.026351
  22 H :   -0.026702
  23 H :   -0.036807
  24 H :   -0.030624
  25 H :   -0.007077
  26 H :   -0.013395
  27 H :   -0.017701
  28 H :   -0.057215
  29 H :   -0.063558
  30 H :   -0.002960
  31 H :   -0.022251
  32 H :   -0.018914
  33 H :   -0.034814
  34 H :   -0.153106
  35 H :   -0.024526

  Mayer bond orders larger than 0.100000
B(  0-C ,  1-C ) :   0.9891 B(  0-C , 20-H ) :   0.9773 B(  0-C , 21-H ) :   0.9794
B(  0-C , 22-H ) :   0.9763 B(  1-C ,  2-O ) :   0.8906 B(  1-C , 23-H ) :   0.9762
B(  1-C , 24-H ) :   0.9621 B(  2-O ,  3-C ) :   1.1556 B(  3-C ,  4-O ) :   2.0794
B(  3-C ,  5-C ) :   0.9582 B(  5-C ,  6-C ) :   1.6629 B(  5-C , 12-C ) :   0.9574
B(  6-C ,  7-C ) :   0.9458 B(  6-C ,  8-N ) :   1.1326 B(  7-C , 25-H ) :   0.9719
B(  7-C , 26-H ) :   0.9784 B(  7-C , 27-H ) :   0.9659 B(  8-N ,  9-C ) :   1.1872
B(  8-N , 28-H ) :   0.9510 B(  9-C , 10-S ) :   1.6139 B(  9-C , 11-N ) :   1.2943
B( 11-N , 12-C ) :   0.9954 B( 11-N , 29-H ) :   0.9508 B( 12-C , 13-C ) :   0.9419
B( 12-C , 30-H ) :   0.9981 B( 13-C , 14-C ) :   1.3870 B( 13-C , 19-C ) :   1.3476
B( 14-C , 15-C ) :   1.3964 B( 14-C , 31-H ) :   0.9597 B( 15-C , 16-C ) :   1.3638
B( 15-C , 32-H ) :   0.9701 B( 16-C , 17-C ) :   1.3305 B( 16-C , 33-H ) :   0.9843
B( 17-C , 18-O ) :   1.1104 B( 17-C , 19-C ) :   1.3657 B( 18-O , 34-H ) :   0.9794
B( 19-C , 35-H ) :   0.9594

MP2 TOTAL ENERGY:    -1274.333976089 Eh
FINAL SINGLE POINT ENERGY     -1274.333976088542

DIPOLE MOMENT
-------------
                                X             Y             Z
Electronic contribution:     10.79240       8.91703       7.14332
Nuclear contribution   :    -12.26788      -9.88726      -7.49281
                        -----------------------------------------
Total Dipole Moment    :     -1.47549      -0.97023      -0.34949
                        -----------------------------------------
Magnitude (a.u.)       :      1.80015
Magnitude (Debye)      :      4.57562

Rotational constants in cm-1:     0.011670     0.009226     0.006662
Rotational constants in MHz :   349.857005   276.581404   199.709831

                             ****ORCA TERMINATED NORMALLY****
TOTAL RUN TIME: 0 days 1 hours 50 minutes 27 seconds 901 msec
