                         Program Version 5.0.0 -  RELEASE  -
|  1> ! ri-mp2 cc-pvtz cc-pvtz/c TightSCF NoKeepInts
|  2>
|  3> %scf
|  4>   MaxCore 4096
|  5> end
|  6> *xyz  0  1
|  7>     C       16.0888763   13.0731031   16.1486478
|  8>     C       15.5904994   14.5278779   16.1439523
|  9>     O       16.6815459   15.3599513   16.5678194
| 10>     C       16.5135166   16.7156946   16.5574134
| 11>     O       15.6155882   17.2521502   15.9302467
| 12>     C       17.4386276   17.4249875   17.5073847
| 13>     C       17.4602019   18.7766376   17.6287316
| 14>     C       16.6070177   19.7776953   16.8794709
| 15>     N       18.3690381   19.3882328   18.4974316
| 16>     C       19.3518719   18.7340316   19.1910599
| 17>     S       20.4512664   19.5440884   20.1243803
| 18>     N       19.3815527   17.3682641   19.0691861
| 19>     C       18.3720417   16.5556854   18.3661895
| 20>     C       17.5991063   15.7111857   19.3753059
| 21>     C       17.7624780   14.3135790   19.4078743
| 22>     C       17.0501894   13.5315756   20.3326458
| 23>     C       16.1699951   14.1522843   21.2353404
| 24>     C       16.0093808   15.5444918   21.2096710
| 25>     O       15.1616472   16.1468551   22.0811774
| 26>     C       16.7191730   16.3199697   20.2877554
| 27>     H       16.3911016   12.7721912   17.1592147
| 28>     H       16.9492164   12.9564155   15.4780448
| 29>     H       15.2956977   12.3947031   15.8117771
| 30>     H       15.2688842   14.8034353   15.1301699
| 31>     H       14.7370086   14.6402075   16.8260163
| 32>     H       15.5442576   19.6225108   17.1056954
| 33>     H       16.7314732   19.6573637   15.7957950
| 34>     H       16.8498010   20.8179740   17.1258392
| 35>     H       18.3631767   20.3906831   18.5980389
| 36>     H       20.0940352   16.9108408   19.6232114
| 37>     H       18.9116960   15.8788089   17.6889224
| 38>     H       18.4386725   13.8310710   18.7072699
| 39>     H       17.1815293   12.4510747   20.3482198
| 40>     H       15.6180332   13.5529583   21.9518625
| 41>     H       14.7925365   15.4570054   22.6527055
| 42>     H       16.5862661   17.3964158   20.2895328
| 43> *
| 44>
| 45>                          ****END OF INPUT****

CARTESIAN COORDINATES (ANGSTROEM)
---------------------------------
  C     16.088876   13.073103   16.148648
  C     15.590499   14.527878   16.143952
  O     16.681546   15.359951   16.567819
  C     16.513517   16.715695   16.557413
  O     15.615588   17.252150   15.930247
  C     17.438628   17.424988   17.507385
  C     17.460202   18.776638   17.628732
  C     16.607018   19.777695   16.879471
  N     18.369038   19.388233   18.497432
  C     19.351872   18.734032   19.191060
  S     20.451266   19.544088   20.124380
  N     19.381553   17.368264   19.069186
  C     18.372042   16.555685   18.366189
  C     17.599106   15.711186   19.375306
  C     17.762478   14.313579   19.407874
  C     17.050189   13.531576   20.332646
  C     16.169995   14.152284   21.235340
  C     16.009381   15.544492   21.209671
  O     15.161647   16.146855   22.081177
  C     16.719173   16.319970   20.287755
  H     16.391102   12.772191   17.159215
  H     16.949216   12.956416   15.478045
  H     15.295698   12.394703   15.811777
  H     15.268884   14.803435   15.130170
  H     14.737009   14.640208   16.826016
  H     15.544258   19.622511   17.105695
  H     16.731473   19.657364   15.795795
  H     16.849801   20.817974   17.125839
  H     18.363177   20.390683   18.598039
  H     20.094035   16.910841   19.623211
  H     18.911696   15.878809   17.688922
  H     18.438672   13.831071   18.707270
  H     17.181529   12.451075   20.348220
  H     15.618033   13.552958   21.951863
  H     14.792537   15.457005   22.652705
  H     16.586266   17.396416   20.289533

 Total Charge           Charge          ....    0
 Multiplicity           Mult            ....    1
 Number of Electrons    NEL             ....  154
 Basis Dimension        Dim             ....  828

ORBITAL ENERGIES
----------------

  NO   OCC          E(Eh)            E(eV)
   0   2.0000     -91.888944     -2500.4253
   1   2.0000     -20.600736      -560.5745
   2   2.0000     -20.596755      -560.4662
   3   2.0000     -20.541967      -558.9753
   4   2.0000     -15.629107      -425.2896
   5   2.0000     -15.608383      -424.7257
   6   2.0000     -11.393813      -310.0414
   7   2.0000     -11.384078      -309.7765
   8   2.0000     -11.335907      -308.4657
   9   2.0000     -11.313989      -307.8693
  10   2.0000     -11.309269      -307.7409
  11   2.0000     -11.295487      -307.3658
  12   2.0000     -11.259872      -306.3967
  13   2.0000     -11.258809      -306.3678
  14   2.0000     -11.255565      -306.2795
  15   2.0000     -11.251981      -306.1820
  16   2.0000     -11.243356      -305.9473
  17   2.0000     -11.238661      -305.8195
  18   2.0000     -11.238360      -305.8113
  19   2.0000     -11.230093      -305.5864
  20   2.0000      -8.894003      -242.0181
  21   2.0000      -6.575577      -178.9305
  22   2.0000      -6.573573      -178.8760
  23   2.0000      -6.572986      -178.8600
  24   2.0000      -1.452513       -39.5249
  25   2.0000      -1.416408       -38.5424
  26   2.0000      -1.354549       -36.8592
  27   2.0000      -1.340099       -36.4660
  28   2.0000      -1.238624       -33.7047
  29   2.0000      -1.157885       -31.5077
  30   2.0000      -1.120531       -30.4912
  31   2.0000      -1.043386       -28.3920
  32   2.0000      -1.039656       -28.2905
  33   2.0000      -1.015499       -27.6331
  34   2.0000      -0.995856       -27.0986
  35   2.0000      -0.984507       -26.7898
  36   2.0000      -0.922691       -25.1077
  37   2.0000      -0.887678       -24.1549
  38   2.0000      -0.846799       -23.0426
  39   2.0000      -0.837606       -22.7924
  40   2.0000      -0.834175       -22.6991
  41   2.0000      -0.818019       -22.2594
  42   2.0000      -0.765132       -20.8203
  43   2.0000      -0.732484       -19.9319
  44   2.0000      -0.721251       -19.6262
  45   2.0000      -0.696009       -18.9394
  46   2.0000      -0.685854       -18.6630
  47   2.0000      -0.679423       -18.4881
  48   2.0000      -0.678305       -18.4576
  49   2.0000      -0.663743       -18.0614
  50   2.0000      -0.646085       -17.5809
  51   2.0000      -0.645587       -17.5673
  52   2.0000      -0.636281       -17.3141
  53   2.0000      -0.607302       -16.5255
  54   2.0000      -0.600485       -16.3400
  55   2.0000      -0.599316       -16.3082
  56   2.0000      -0.593607       -16.1529
  57   2.0000      -0.577756       -15.7216
  58   2.0000      -0.570808       -15.5325
  59   2.0000      -0.567835       -15.4516
  60   2.0000      -0.561207       -15.2712
  61   2.0000      -0.550127       -14.9697
  62   2.0000      -0.539612       -14.6836
  63   2.0000      -0.525380       -14.2963
  64   2.0000      -0.518033       -14.0964
  65   2.0000      -0.513197       -13.9648
  66   2.0000      -0.507219       -13.8021
  67   2.0000      -0.499737       -13.5985
  68   2.0000      -0.485619       -13.2144
  69   2.0000      -0.465519       -12.6674
  70   2.0000      -0.458357       -12.4725
  71   2.0000      -0.446930       -12.1616
  72   2.0000      -0.354344        -9.6422
  73   2.0000      -0.349737        -9.5168
  74   2.0000      -0.328316        -8.9339
  75   2.0000      -0.321428        -8.7465
  76   2.0000      -0.316160        -8.6031
  77   0.0000       0.075944         2.0665
  78   0.0000       0.105078         2.8593
  79   0.0000       0.125081         3.4036
  80   0.0000       0.132416         3.6032
  81   0.0000       0.137528         3.7423

MULLIKEN ATOMIC CHARGES
-----------------------
   0 C :   -0.275499
   1 C :    0.042168
   2 O :   -0.346657
   3 C :    0.449356
   4 O :   -0.429178
   5 C :   -0.222366
   6 C :    0.153936
   7 C :   -0.272773
   8 N :   -0.122004
   9 C :    0.212178
  10 S :   -0.439913
  11 N :   -0.204417
  12 C :    0.056263
  13 C :    0.069301
  14 C :   -0.199029
  15 C :   -0.125209
  16 C :   -0.280620
  17 C :    0.316483
  18 O :   -0.356530
  19 C :   -0.270218
  20 H :    0.093827
  21 H :    0.096336
  22 H :    0.098253
  23 H :    0.110705
  24 H :    0.091339
  25 H :    0.132448
  26 H :    0.130630
  27 H :    0.095097
  28 H :    0.197439
  29 H :    0.194702
  30 H :    0.149848
  31 H :    0.155454
  32 H :    0.162468
  33 H :    0.130301
  34 H :    0.240763
  35 H :    0.165116
Sum of atomic charges:    0.0000000

LOEWDIN ATOMIC CHARGES
----------------------
   0 C :    0.107206
   1 C :   -0.017166
   2 O :    0.307894
   3 C :   -0.414350
   4 O :    0.097655
   5 C :   -0.095219
   6 C :   -0.059096
   7 C :    0.131618
   8 N :    0.406598
   9 C :   -0.456183
  10 S :   -0.035368
  11 N :    0.396380
  12 C :   -0.052403
  13 C :   -0.038369
  14 C :    0.014369
  15 C :    0.038574
  16 C :   -0.001741
  17 C :   -0.189442
  18 O :    0.395293
  19 C :    0.031660
  20 H :   -0.029895
  21 H :   -0.027368
  22 H :   -0.024306
  23 H :   -0.027585
  24 H :   -0.028533
  25 H :   -0.004428
  26 H :   -0.003969
  27 H :   -0.023389
  28 H :   -0.057542
  29 H :   -0.064663
  30 H :   -0.010733
  31 H :   -0.030663
  32 H :   -0.021668
  33 H :   -0.035514
  34 H :   -0.153894
  35 H :   -0.023760

  Mayer bond orders larger than 0.100000
B(  0-C ,  1-C ) :   0.9715 B(  0-C , 20-H ) :   0.9762 B(  0-C , 21-H ) :   0.9766
B(  0-C , 22-H ) :   0.9791 B(  1-C ,  2-O ) :   0.8965 B(  1-C , 23-H ) :   0.9812
B(  1-C , 24-H ) :   0.9730 B(  2-O ,  3-C ) :   1.1719 B(  3-C ,  4-O ) :   1.9790
B(  3-C ,  5-C ) :   1.0573 B(  5-C ,  6-C ) :   1.6569 B(  5-C , 12-C ) :   0.9728
B(  6-C ,  7-C ) :   0.9673 B(  6-C ,  8-N ) :   1.1635 B(  7-C , 25-H ) :   0.9597
B(  7-C , 26-H ) :   0.9608 B(  7-C , 27-H ) :   0.9904 B(  8-N ,  9-C ) :   1.1831
B(  8-N , 28-H ) :   0.9478 B(  9-C , 10-S ) :   1.6070 B(  9-C , 11-N ) :   1.3053
B( 11-N , 12-C ) :   0.9858 B( 11-N , 29-H ) :   0.9517 B( 12-C , 13-C ) :   0.9358
B( 12-C , 30-H ) :   1.0031 B( 13-C , 14-C ) :   1.3572 B( 13-C , 19-C ) :   1.3814
B( 14-C , 15-C ) :   1.3849 B( 14-C , 31-H ) :   0.9692 B( 15-C , 16-C ) :   1.3663
B( 15-C , 32-H ) :   0.9695 B( 16-C , 17-C ) :   1.3309 B( 16-C , 33-H ) :   0.9848
B( 17-C , 18-O ) :   1.1101 B( 17-C , 19-C ) :   1.3726 B( 18-O , 34-H ) :   0.9798
B( 19-C , 35-H ) :   0.9583

MP2 TOTAL ENERGY:    -1274.350608652 Eh
FINAL SINGLE POINT ENERGY     -1274.350608652328

DIPOLE MOMENT
-------------
                                X             Y             Z
Electronic contribution:      8.68877      11.25890       7.85131
Nuclear contribution   :     -9.82756     -12.86271      -8.23104
                        -----------------------------------------
Total Dipole Moment    :     -1.13879      -1.60381      -0.37973
                        -----------------------------------------
Magnitude (a.u.)       :      2.00331
Magnitude (Debye)      :      5.09200

Rotational constants in cm-1:     0.011922     0.008456     0.006212
Rotational constants in MHz :   357.413579   253.518460   186.228848

                             ****ORCA TERMINATED NORMALLY****
TOTAL RUN TIME: 0 days 2 hours 2 minutes 21 seconds 874 msec
