                         Program Version 5.0.0 -  RELEASE  -
|  1> ! ri-mp2 cc-pvtz cc-pvtz/c TightSCF NoKeepInts
|  2>
|  3> %scf
|  4>   MaxCore 4096
|  5> end
|  6> *xyz  0  1
|  7>     C       14.5738157   14.4153720   16.8283844
|  8>     C       15.6040350   15.5553037   16.8595162
|  9>     O       16.8802987   14.9772821   16.5324920
| 10>     C       18.0736402   15.6536227   16.5744655
| 11>     O       19.1072744   15.0266287   16.4363643
| 12>     C       18.0644765   16.8921209   17.4069234
| 13>     C       17.5744971   18.0673473   16.9523798
| 14>     C       16.9997075   18.3424020   15.5798398
| 15>     N       17.6416964   19.2059837   17.7578091
| 16>     C       18.2648491   19.2612064   18.9779268
| 17>     S       18.3431925   20.6646650   19.8484933
| 18>     N       18.8159834   18.0923212   19.4445909
| 19>     C       18.7109826   16.7743477   18.7860531
| 20>     C       17.9550229   15.7693495   19.6506039
| 21>     C       18.3891190   14.4326702   19.7157087
| 22>     C       17.6853655   13.4866746   20.4791702
| 23>     C       16.5340023   13.8784285   21.1827413
| 24>     C       16.0941621   15.2070540   21.1160043
| 25>     O       14.9741721   15.5856375   21.7813807
| 26>     C       16.7968129   16.1473795   20.3558061
| 27>     H       14.8357465   13.6424916   17.5623228
| 28>     H       14.5391725   13.9506488   15.8350726
| 29>     H       13.5723810   14.7920236   17.0692402
| 30>     H       15.3201060   16.3199621   16.1277698
| 31>     H       15.6154281   16.0006923   17.8624323
| 32>     H       17.0924598   17.4813659   14.9064894
| 33>     H       17.5284576   19.1753068   15.0985464
| 34>     H       15.9376161   18.6098112   15.6414790
| 35>     H       17.2587757   20.0781223   17.4275814
| 36>     H       19.2524571   18.1597812   20.3555106
| 37>     H       19.7328288   16.3936876   18.6397902
| 38>     H       19.2674646   14.1212733   19.1538900
| 39>     H       18.0293257   12.4543325   20.5150283
| 40>     H       15.9853242   13.1493554   21.7697786
| 41>     H       14.6636143   14.8187571   22.2863499
| 42>     H       16.4327364   17.1685911   20.3160646
| 43> *
| 44>
| 45>                          ****END OF INPUT****

CARTESIAN COORDINATES (ANGSTROEM)
---------------------------------
  C     14.573816   14.415372   16.828384
  C     15.604035   15.555304   16.859516
  O     16.880299   14.977282   16.532492
  C     18.073640   15.653623   16.574465
  O     19.107274   15.026629   16.436364
  C     18.064476   16.892121   17.406923
  C     17.574497   18.067347   16.952380
  C     16.999707   18.342402   15.579840
  N     17.641696   19.205984   17.757809
  C     18.264849   19.261206   18.977927
  S     18.343193   20.664665   19.848493
  N     18.815983   18.092321   19.444591
  C     18.710983   16.774348   18.786053
  C     17.955023   15.769349   19.650604
  C     18.389119   14.432670   19.715709
  C     17.685365   13.486675   20.479170
  C     16.534002   13.878429   21.182741
  C     16.094162   15.207054   21.116004
  O     14.974172   15.585638   21.781381
  C     16.796813   16.147379   20.355806
  H     14.835747   13.642492   17.562323
  H     14.539172   13.950649   15.835073
  H     13.572381   14.792024   17.069240
  H     15.320106   16.319962   16.127770
  H     15.615428   16.000692   17.862432
  H     17.092460   17.481366   14.906489
  H     17.528458   19.175307   15.098546
  H     15.937616   18.609811   15.641479
  H     17.258776   20.078122   17.427581
  H     19.252457   18.159781   20.355511
  H     19.732829   16.393688   18.639790
  H     19.267465   14.121273   19.153890
  H     18.029326   12.454332   20.515028
  H     15.985324   13.149355   21.769779
  H     14.663614   14.818757   22.286350
  H     16.432736   17.168591   20.316065

 Total Charge           Charge          ....    0
 Multiplicity           Mult            ....    1
 Number of Electrons    NEL             ....  154
 Basis Dimension        Dim             ....  828

ORBITAL ENERGIES
----------------

  NO   OCC          E(Eh)            E(eV)
   0   2.0000     -91.889486     -2500.4400
   1   2.0000     -20.602413      -560.6202
   2   2.0000     -20.599751      -560.5477
   3   2.0000     -20.551817      -559.2434
   4   2.0000     -15.625578      -425.1936
   5   2.0000     -15.611737      -424.8170
   6   2.0000     -11.397353      -310.1378
   7   2.0000     -11.386474      -309.8417
   8   2.0000     -11.326735      -308.2161
   9   2.0000     -11.316608      -307.9406
  10   2.0000     -11.316177      -307.9288
  11   2.0000     -11.302650      -307.5607
  12   2.0000     -11.270879      -306.6962
  13   2.0000     -11.264970      -306.5354
  14   2.0000     -11.263764      -306.5026
  15   2.0000     -11.256473      -306.3042
  16   2.0000     -11.245724      -306.0117
  17   2.0000     -11.242051      -305.9118
  18   2.0000     -11.238812      -305.8236
  19   2.0000     -11.232095      -305.6408
  20   2.0000      -8.894614      -242.0348
  21   2.0000      -6.576207      -178.9477
  22   2.0000      -6.574176      -178.8924
  23   2.0000      -6.573605      -178.8769
  24   2.0000      -1.450585       -39.4724
  25   2.0000      -1.419566       -38.6284
  26   2.0000      -1.360777       -37.0286
  27   2.0000      -1.339431       -36.4478
  28   2.0000      -1.239606       -33.7314
  29   2.0000      -1.161141       -31.5963
  30   2.0000      -1.125571       -30.6283
  31   2.0000      -1.049192       -28.5500
  32   2.0000      -1.040364       -28.3097
  33   2.0000      -1.018875       -27.7250
  34   2.0000      -1.005237       -27.3539
  35   2.0000      -0.989153       -26.9162
  36   2.0000      -0.927987       -25.2518
  37   2.0000      -0.880655       -23.9638
  38   2.0000      -0.855658       -23.2836
  39   2.0000      -0.841639       -22.9022
  40   2.0000      -0.837132       -22.7795
  41   2.0000      -0.836512       -22.7626
  42   2.0000      -0.757324       -20.6078
  43   2.0000      -0.739569       -20.1247
  44   2.0000      -0.731574       -19.9071
  45   2.0000      -0.697832       -18.9890
  46   2.0000      -0.688553       -18.7365
  47   2.0000      -0.681802       -18.5528
  48   2.0000      -0.677557       -18.4373
  49   2.0000      -0.662079       -18.0161
  50   2.0000      -0.658135       -17.9088
  51   2.0000      -0.650654       -17.7052
  52   2.0000      -0.639738       -17.4082
  53   2.0000      -0.612320       -16.6621
  54   2.0000      -0.608028       -16.5453
  55   2.0000      -0.603446       -16.4206
  56   2.0000      -0.596431       -16.2297
  57   2.0000      -0.584043       -15.8926
  58   2.0000      -0.577165       -15.7055
  59   2.0000      -0.570877       -15.5343
  60   2.0000      -0.563899       -15.3445
  61   2.0000      -0.557066       -15.1585
  62   2.0000      -0.552629       -15.0378
  63   2.0000      -0.527244       -14.3470
  64   2.0000      -0.518087       -14.0979
  65   2.0000      -0.515416       -14.0252
  66   2.0000      -0.507434       -13.8080
  67   2.0000      -0.502246       -13.6668
  68   2.0000      -0.487666       -13.2701
  69   2.0000      -0.469599       -12.7784
  70   2.0000      -0.453645       -12.3443
  71   2.0000      -0.451420       -12.2838
  72   2.0000      -0.356690        -9.7060
  73   2.0000      -0.351391        -9.5618
  74   2.0000      -0.329248        -8.9593
  75   2.0000      -0.324154        -8.8207
  76   2.0000      -0.318084        -8.6555
  77   0.0000       0.088997         2.4217
  78   0.0000       0.104187         2.8351
  79   0.0000       0.110090         2.9957
  80   0.0000       0.128082         3.4853
  81   0.0000       0.131217         3.5706

MULLIKEN ATOMIC CHARGES
-----------------------
   0 C :   -0.260749
   1 C :    0.013711
   2 O :   -0.300728
   3 C :    0.390589
   4 O :   -0.378507
   5 C :   -0.183328
   6 C :    0.146616
   7 C :   -0.332211
   8 N :   -0.140299
   9 C :    0.207328
  10 S :   -0.442252
  11 N :   -0.220012
  12 C :    0.074670
  13 C :    0.031264
  14 C :   -0.193938
  15 C :   -0.131155
  16 C :   -0.276145
  17 C :    0.323821
  18 O :   -0.357412
  19 C :   -0.296655
  20 H :    0.107905
  21 H :    0.102369
  22 H :    0.087823
  23 H :    0.088738
  24 H :    0.106454
  25 H :    0.121626
  26 H :    0.141265
  27 H :    0.121631
  28 H :    0.195694
  29 H :    0.200148
  30 H :    0.166022
  31 H :    0.166299
  32 H :    0.163677
  33 H :    0.132456
  34 H :    0.241592
  35 H :    0.181693
Sum of atomic charges:   -0.0000000

LOEWDIN ATOMIC CHARGES
----------------------
   0 C :    0.112863
   1 C :   -0.027051
   2 O :    0.314606
   3 C :   -0.418236
   4 O :    0.126927
   5 C :   -0.079521
   6 C :   -0.106838
   7 C :    0.122158
   8 N :    0.400575
   9 C :   -0.455525
  10 S :   -0.038938
  11 N :    0.397390
  12 C :   -0.043016
  13 C :   -0.042297
  14 C :    0.024321
  15 C :    0.046278
  16 C :   -0.000191
  17 C :   -0.193982
  18 O :    0.394719
  19 C :    0.026278
  20 H :   -0.022571
  21 H :   -0.025597
  22 H :   -0.025197
  23 H :   -0.038551
  24 H :   -0.035039
  25 H :   -0.009808
  26 H :   -0.009357
  27 H :   -0.017431
  28 H :   -0.058356
  29 H :   -0.063661
  30 H :   -0.002087
  31 H :   -0.021815
  32 H :   -0.018384
  33 H :   -0.034724
  34 H :   -0.152985
  35 H :   -0.024958

  Mayer bond orders larger than 0.100000
B(  0-C ,  1-C ) :   0.9849 B(  0-C , 20-H ) :   0.9787 B(  0-C , 21-H ) :   0.9791
B(  0-C , 22-H ) :   0.9769 B(  1-C ,  2-O ) :   0.9168 B(  1-C , 23-H ) :   0.9743
B(  1-C , 24-H ) :   0.9568 B(  2-O ,  3-C ) :   1.1706 B(  3-C ,  4-O ) :   2.0934
B(  3-C ,  5-C ) :   0.9176 B(  5-C ,  6-C ) :   1.6906 B(  5-C , 12-C ) :   0.9590
B(  6-C ,  7-C ) :   0.9439 B(  6-C ,  8-N ) :   1.1141 B(  7-C , 25-H ) :   0.9823
B(  7-C , 26-H ) :   0.9683 B(  7-C , 27-H ) :   0.9669 B(  8-N ,  9-C ) :   1.1986
B(  8-N , 28-H ) :   0.9530 B(  9-C , 10-S ) :   1.6090 B(  9-C , 11-N ) :   1.2855
B( 11-N , 12-C ) :   0.9945 B( 11-N , 29-H ) :   0.9480 B( 12-C , 13-C ) :   0.9442
B( 12-C , 30-H ) :   0.9973 B( 13-C , 14-C ) :   1.3880 B( 13-C , 19-C ) :   1.3388
B( 14-C , 15-C ) :   1.3984 B( 14-C , 31-H ) :   0.9622 B( 15-C , 16-C ) :   1.3623
B( 15-C , 32-H ) :   0.9699 B( 16-C , 17-C ) :   1.3305 B( 16-C , 33-H ) :   0.9843
B( 17-C , 18-O ) :   1.1100 B( 17-C , 19-C ) :   1.3625 B( 18-O , 34-H ) :   0.9793
B( 19-C , 35-H ) :   0.9567

MP2 TOTAL ENERGY:    -1274.329490241 Eh
FINAL SINGLE POINT ENERGY     -1274.329490240656

DIPOLE MOMENT
-------------
                                X             Y             Z
Electronic contribution:     10.62705       8.26597       7.00721
Nuclear contribution   :    -12.17906      -9.31484      -7.52203
                        -----------------------------------------
Total Dipole Moment    :     -1.55201      -1.04887      -0.51482
                        -----------------------------------------
Magnitude (a.u.)       :      1.94265
Magnitude (Debye)      :      4.93783

Rotational constants in cm-1:     0.012190     0.009021     0.006784
Rotational constants in MHz :   365.439161   270.428583   203.385242

                             ****ORCA TERMINATED NORMALLY****
TOTAL RUN TIME: 0 days 2 hours 7 minutes 6 seconds 68 msec
