                         Program Version 4.2.0 -  RELEASE  -
|  1> ! ri-mp2 cc-pvtz cc-pvtz/c TightSCF  NoKeepInts
|  2>
|  3> %scf
|  4>   MaxCore 4096
|  5> end
|  6> *xyz  0  1
|  7>     C       15.0817364   15.6381704   17.2716555
|  8>     C       15.6432304   15.0531641   15.9598584
|  9>     O       16.9811714   15.4597416   15.5650652
| 10>     C       18.0426373   15.7316940   16.3920283
| 11>     O       18.9334190   14.9088456   16.4996954
| 12>     C       17.8877561   16.8418777   17.3873401
| 13>     C       17.3078445   18.0245104   17.0639605
| 14>     C       16.7464852   18.4272567   15.7136318
| 15>     N       17.3130412   19.0766712   17.9836073
| 16>     C       18.0540130   19.0978385   19.1358612
| 17>     S       18.1180315   20.4362110   20.1048543
| 18>     N       18.7461521   17.9522916   19.4409087
| 19>     C       18.6035292   16.6636308   18.7339897
| 20>     C       17.9200690   15.6239037   19.6208031
| 21>     C       18.3561113   14.2859595   19.6011558
| 22>     C       17.7344565   13.3151710   20.4038005
| 23>     C       16.6658411   13.6830543   21.2382149
| 24>     C       16.2274574   15.0134981   21.2638330
| 25>     O       15.1898440   15.3705072   22.0616433
| 26>     C       16.8478949   15.9780858   20.4634679
| 27>     H       15.6915647   15.3327581   18.1253523
| 28>     H       14.0744855   15.2408466   17.4468079
| 29>     H       14.9943876   16.7273466   17.2502638
| 30>     H       15.6473351   13.9603655   16.0683375
| 31>     H       14.9506556   15.2845427   15.1403988
| 32>     H       15.7130002   18.0884350   15.5845666
| 33>     H       17.3414257   18.0013796   14.8957661
| 34>     H       16.7588669   19.5151057   15.5718512
| 35>     H       16.8259127   19.9321398   17.7682290
| 36>     H       19.2741167   17.9900770   20.3036464
| 37>     H       19.6184508   16.2965655   18.5211200
| 38>     H       19.1778310   13.9941935   18.9505237
| 39>     H       18.0812192   12.2835996   20.3738699
| 40>     H       16.1819752   12.9358637   21.8585157
| 41>     H       14.9310425   14.5871941   22.5700997
| 42>     H       16.4840093   16.9995039   20.4992767
| 43> *
| 44>
| 45>                          ****END OF INPUT****

CARTESIAN COORDINATES (ANGSTROEM)
---------------------------------
  C     15.081736   15.638170   17.271655
  C     15.643230   15.053164   15.959858
  O     16.981171   15.459742   15.565065
  C     18.042637   15.731694   16.392028
  O     18.933419   14.908846   16.499695
  C     17.887756   16.841878   17.387340
  C     17.307845   18.024510   17.063961
  C     16.746485   18.427257   15.713632
  N     17.313041   19.076671   17.983607
  C     18.054013   19.097839   19.135861
  S     18.118032   20.436211   20.104854
  N     18.746152   17.952292   19.440909
  C     18.603529   16.663631   18.733990
  C     17.920069   15.623904   19.620803
  C     18.356111   14.285959   19.601156
  C     17.734456   13.315171   20.403800
  C     16.665841   13.683054   21.238215
  C     16.227457   15.013498   21.263833
  O     15.189844   15.370507   22.061643
  C     16.847895   15.978086   20.463468
  H     15.691565   15.332758   18.125352
  H     14.074485   15.240847   17.446808
  H     14.994388   16.727347   17.250264
  H     15.647335   13.960365   16.068337
  H     14.950656   15.284543   15.140399
  H     15.713000   18.088435   15.584567
  H     17.341426   18.001380   14.895766
  H     16.758867   19.515106   15.571851
  H     16.825913   19.932140   17.768229
  H     19.274117   17.990077   20.303646
  H     19.618451   16.296565   18.521120
  H     19.177831   13.994193   18.950524
  H     18.081219   12.283600   20.373870
  H     16.181975   12.935864   21.858516
  H     14.931043   14.587194   22.570100
  H     16.484009   16.999504   20.499277

 Total Charge           Charge          ....    0
 Multiplicity           Mult            ....    1
 Number of Electrons    NEL             ....  154
 Basis Dimension        Dim             ....  828

ORBITAL ENERGIES
----------------

  NO   OCC          E(Eh)            E(eV)
   0   2.0000     -91.891293     -2500.4892
   1   2.0000     -20.596904      -560.4702
   2   2.0000     -20.585140      -560.1501
   3   2.0000     -20.551135      -559.2248
   4   2.0000     -15.630735      -425.3339
   5   2.0000     -15.610313      -424.7782
   6   2.0000     -11.396738      -310.1210
   7   2.0000     -11.386761      -309.8495
   8   2.0000     -11.335645      -308.4586
   9   2.0000     -11.313608      -307.8589
  10   2.0000     -11.311400      -307.7988
  11   2.0000     -11.310309      -307.7692
  12   2.0000     -11.264899      -306.5335
  13   2.0000     -11.262677      -306.4730
  14   2.0000     -11.260571      -306.4157
  15   2.0000     -11.253921      -306.2348
  16   2.0000     -11.243178      -305.9424
  17   2.0000     -11.238842      -305.8244
  18   2.0000     -11.235228      -305.7261
  19   2.0000     -11.233568      -305.6809
  20   2.0000      -8.896359      -242.0822
  21   2.0000      -6.577936      -178.9947
  22   2.0000      -6.575925      -178.9400
  23   2.0000      -6.575337      -178.9240
  24   2.0000      -1.442320       -39.2475
  25   2.0000      -1.416736       -38.5513
  26   2.0000      -1.352653       -36.8076
  27   2.0000      -1.342184       -36.5227
  28   2.0000      -1.240213       -33.7479
  29   2.0000      -1.157617       -31.5004
  30   2.0000      -1.123409       -30.5695
  31   2.0000      -1.045884       -28.4600
  32   2.0000      -1.038346       -28.2548
  33   2.0000      -1.015906       -27.6442
  34   2.0000      -1.003106       -27.2959
  35   2.0000      -0.989820       -26.9344
  36   2.0000      -0.926646       -25.2153
  37   2.0000      -0.898136       -24.4395
  38   2.0000      -0.852440       -23.1961
  39   2.0000      -0.840753       -22.8780
  40   2.0000      -0.833557       -22.6822
  41   2.0000      -0.823808       -22.4170
  42   2.0000      -0.746876       -20.3235
  43   2.0000      -0.732526       -19.9330
  44   2.0000      -0.728812       -19.8320
  45   2.0000      -0.694630       -18.9018
  46   2.0000      -0.687485       -18.7074
  47   2.0000      -0.674877       -18.3643
  48   2.0000      -0.674112       -18.3435
  49   2.0000      -0.662785       -18.0353
  50   2.0000      -0.652855       -17.7651
  51   2.0000      -0.650910       -17.7121
  52   2.0000      -0.642642       -17.4872
  53   2.0000      -0.616238       -16.7687
  54   2.0000      -0.604140       -16.4395
  55   2.0000      -0.602752       -16.4017
  56   2.0000      -0.601260       -16.3611
  57   2.0000      -0.587713       -15.9925
  58   2.0000      -0.575397       -15.6573
  59   2.0000      -0.567766       -15.4497
  60   2.0000      -0.563861       -15.3434
  61   2.0000      -0.554719       -15.0947
  62   2.0000      -0.545318       -14.8388
  63   2.0000      -0.530650       -14.4397
  64   2.0000      -0.521557       -14.1923
  65   2.0000      -0.513674       -13.9778
  66   2.0000      -0.500715       -13.6251
  67   2.0000      -0.486246       -13.2314
  68   2.0000      -0.484471       -13.1831
  69   2.0000      -0.468667       -12.7531
  70   2.0000      -0.457857       -12.4589
  71   2.0000      -0.447499       -12.1771
  72   2.0000      -0.356919        -9.7123
  73   2.0000      -0.347885        -9.4664
  74   2.0000      -0.330574        -8.9954
  75   2.0000      -0.322180        -8.7670
  76   2.0000      -0.318883        -8.6773
  77   0.0000       0.073127         1.9899
  78   0.0000       0.106825         2.9069
  79   0.0000       0.117162         3.1881
  80   0.0000       0.129185         3.5153
  81   0.0000       0.131874         3.5885

MULLIKEN ATOMIC CHARGES
-----------------------
   0 C :   -0.349264
   1 C :    0.041590
   2 O :   -0.372380
   3 C :    0.449901
   4 O :   -0.383296
   5 C :   -0.223477
   6 C :    0.149789
   7 C :   -0.296367
   8 N :   -0.133603
   9 C :    0.193578
  10 S :   -0.435783
  11 N :   -0.217172
  12 C :    0.082370
  13 C :    0.017400
  14 C :   -0.200646
  15 C :   -0.138845
  16 C :   -0.275316
  17 C :    0.316012
  18 O :   -0.357579
  19 C :   -0.266042
  20 H :    0.133097
  21 H :    0.126477
  22 H :    0.100820
  23 H :    0.113019
  24 H :    0.110495
  25 H :    0.116686
  26 H :    0.137959
  27 H :    0.114658
  28 H :    0.197957
  29 H :    0.199152
  30 H :    0.163335
  31 H :    0.174973
  32 H :    0.163328
  33 H :    0.131797
  34 H :    0.240783
  35 H :    0.174593
Sum of atomic charges:   -0.0000000

LOEWDIN ATOMIC CHARGES
----------------------
   0 C :    0.105408
   1 C :   -0.013794
   2 O :    0.276463
   3 C :   -0.416925
   4 O :    0.127126
   5 C :   -0.089608
   6 C :   -0.078035
   7 C :    0.128204
   8 N :    0.404961
   9 C :   -0.459049
  10 S :   -0.034337
  11 N :    0.397471
  12 C :   -0.043325
  13 C :   -0.043303
  14 C :    0.018955
  15 C :    0.042409
  16 C :   -0.001958
  17 C :   -0.194126
  18 O :    0.395133
  19 C :    0.027200
  20 H :   -0.026671
  21 H :   -0.019626
  22 H :   -0.035795
  23 H :   -0.023858
  24 H :   -0.024125
  25 H :   -0.016689
  26 H :   -0.005498
  27 H :   -0.016242
  28 H :   -0.058509
  29 H :   -0.063614
  30 H :   -0.002445
  31 H :   -0.022656
  32 H :   -0.019179
  33 H :   -0.035263
  34 H :   -0.153825
  35 H :   -0.024874

  Mayer bond orders larger than 0.100000
B(  0-C ,  1-C ) :   0.9634 B(  0-C , 20-H ) :   0.9621 B(  0-C , 21-H ) :   0.9776
B(  0-C , 22-H ) :   0.9723 B(  1-C ,  2-O ) :   0.8974 B(  1-C , 23-H ) :   0.9821
B(  1-C , 24-H ) :   0.9811 B(  2-O ,  3-C ) :   1.1152 B(  3-C ,  4-O ) :   2.0584
B(  3-C ,  5-C ) :   0.9801 B(  5-C ,  6-C ) :   1.6745 B(  5-C , 12-C ) :   0.9473
B(  6-C ,  7-C ) :   0.9479 B(  6-C ,  8-N ) :   1.1156 B(  7-C , 25-H ) :   0.9653
B(  7-C , 26-H ) :   0.9677 B(  7-C , 27-H ) :   0.9866 B(  8-N ,  9-C ) :   1.1859
B(  8-N , 28-H ) :   0.9495 B(  9-C , 10-S ) :   1.6138 B(  9-C , 11-N ) :   1.2931
B( 11-N , 12-C ) :   0.9813 B( 11-N , 29-H ) :   0.9500 B( 12-C , 13-C ) :   0.9519
B( 12-C , 30-H ) :   0.9957 B( 13-C , 14-C ) :   1.3916 B( 13-C , 19-C ) :   1.3449
B( 14-C , 15-C ) :   1.3993 B( 14-C , 31-H ) :   0.9571 B( 15-C , 16-C ) :   1.3609
B( 15-C , 32-H ) :   0.9705 B( 16-C , 17-C ) :   1.3307 B( 16-C , 33-H ) :   0.9846
B( 17-C , 18-O ) :   1.1109 B( 17-C , 19-C ) :   1.3703 B( 18-O , 34-H ) :   0.9798
B( 19-C , 35-H ) :   0.9592

MP2 TOTAL ENERGY:    -1274.322129978 Eh
FINAL SINGLE POINT ENERGY     -1274.322129977535

DIPOLE MOMENT
-------------
                                X             Y             Z
Electronic contribution:      9.41917       6.66639       6.57749
Nuclear contribution   :    -10.90241      -7.79084      -7.15326
                        -----------------------------------------
Total Dipole Moment    :     -1.48324      -1.12445      -0.57577
                        -----------------------------------------
Magnitude (a.u.)       :      1.94831
Magnitude (Debye)      :      4.95221

Rotational constants in cm-1:     0.011259     0.009871     0.006732
Rotational constants in MHz :   337.547093   295.933656   201.820753

                             ****ORCA TERMINATED NORMALLY****
TOTAL RUN TIME: 0 days 1 hours 49 minutes 41 seconds 440 msec
