                         Program Version 4.2.0 -  RELEASE  -
|  1> ! ri-mp2 cc-pvtz cc-pvtz/c TightSCF  NoKeepInts
|  2>
|  3> %scf
|  4>   MaxCore 4096
|  5> end
|  6> *xyz  0  1
|  7>     C       14.9890542   15.6847259   17.4816962
|  8>     C       15.6586178   15.1133682   16.2139893
|  9>     O       17.0508391   14.7927969   16.4187463
| 10>     C       18.1074046   15.6687388   16.4658381
| 11>     O       19.2223096   15.1998813   16.3311750
| 12>     C       17.9461009   16.8321980   17.3820389
| 13>     C       17.4060552   17.9962058   16.9564614
| 14>     C       16.8492924   18.2845023   15.5789798
| 15>     N       17.3761382   19.1024844   17.8081677
| 16>     C       17.9934234   19.1583746   19.0308599
| 17>     S       17.9766034   20.5336348   19.9488536
| 18>     N       18.6267868   18.0157861   19.4557859
| 19>     C       18.5881240   16.7100348   18.7653031
| 20>     C       17.9020514   15.6396942   19.6110468
| 21>     C       18.3514405   14.3076948   19.5486129
| 22>     C       17.7304533   13.3036371   20.3096201
| 23>     C       16.6488323   13.6322830   21.1437880
| 24>     C       16.1952140   14.9563864   21.2082615
| 25>     O       15.1427451   15.2746269   22.0030458
| 26>     C       16.8141487   15.9543124   20.4485058
| 27>     H       15.2013482   15.0401305   18.3431899
| 28>     H       13.9005342   15.7072103   17.3498707
| 29>     H       15.3043289   16.7022477   17.7210898
| 30>     H       15.1357086   14.1852607   15.9484877
| 31>     H       15.5396025   15.8040668   15.3704349
| 32>     H       17.2133941   17.5721015   14.8286363
| 33>     H       17.1507020   19.2815442   15.2328231
| 34>     H       15.7531773   18.2479491   15.5821779
| 35>     H       16.9308966   19.9556850   17.5088072
| 36>     H       19.0624452   18.0824391   20.3669691
| 37>     H       19.6297034   16.3898071   18.6137390
| 38>     H       19.1799807   14.0474249   18.8928405
| 39>     H       18.0861095   12.2767089   20.2458176
| 40>     H       16.1649579   12.8591279   21.7312904
| 41>     H       14.8824420   14.4697569   22.4758614
| 42>     H       16.4360339   16.9691730   20.5111885
| 43> *
| 44>
| 45>                          ****END OF INPUT****

CARTESIAN COORDINATES (ANGSTROEM)
---------------------------------
  C     14.989054   15.684726   17.481696
  C     15.658618   15.113368   16.213989
  O     17.050839   14.792797   16.418746
  C     18.107405   15.668739   16.465838
  O     19.222310   15.199881   16.331175
  C     17.946101   16.832198   17.382039
  C     17.406055   17.996206   16.956461
  C     16.849292   18.284502   15.578980
  N     17.376138   19.102484   17.808168
  C     17.993423   19.158375   19.030860
  S     17.976603   20.533635   19.948854
  N     18.626787   18.015786   19.455786
  C     18.588124   16.710035   18.765303
  C     17.902051   15.639694   19.611047
  C     18.351440   14.307695   19.548613
  C     17.730453   13.303637   20.309620
  C     16.648832   13.632283   21.143788
  C     16.195214   14.956386   21.208261
  O     15.142745   15.274627   22.003046
  C     16.814149   15.954312   20.448506
  H     15.201348   15.040130   18.343190
  H     13.900534   15.707210   17.349871
  H     15.304329   16.702248   17.721090
  H     15.135709   14.185261   15.948488
  H     15.539602   15.804067   15.370435
  H     17.213394   17.572101   14.828636
  H     17.150702   19.281544   15.232823
  H     15.753177   18.247949   15.582178
  H     16.930897   19.955685   17.508807
  H     19.062445   18.082439   20.366969
  H     19.629703   16.389807   18.613739
  H     19.179981   14.047425   18.892840
  H     18.086109   12.276709   20.245818
  H     16.164958   12.859128   21.731290
  H     14.882442   14.469757   22.475861
  H     16.436034   16.969173   20.511188

 Total Charge           Charge          ....    0
 Multiplicity           Mult            ....    1
 Number of Electrons    NEL             ....  154
 Basis Dimension        Dim             ....  828

ORBITAL ENERGIES
----------------

  NO   OCC          E(Eh)            E(eV)
   0   2.0000     -91.888628     -2500.4167
   1   2.0000     -20.599080      -560.5295
   2   2.0000     -20.596874      -560.4694
   3   2.0000     -20.555778      -559.3511
   4   2.0000     -15.624871      -425.1743
   5   2.0000     -15.610612      -424.7863
   6   2.0000     -11.398227      -310.1615
   7   2.0000     -11.385406      -309.8126
   8   2.0000     -11.323987      -308.1414
   9   2.0000     -11.315260      -307.9039
  10   2.0000     -11.313232      -307.8487
  11   2.0000     -11.309740      -307.7537
  12   2.0000     -11.271351      -306.7090
  13   2.0000     -11.264572      -306.5246
  14   2.0000     -11.261152      -306.4315
  15   2.0000     -11.253869      -306.2333
  16   2.0000     -11.243042      -305.9387
  17   2.0000     -11.238614      -305.8182
  18   2.0000     -11.235990      -305.7468
  19   2.0000     -11.229804      -305.5785
  20   2.0000      -8.893749      -242.0112
  21   2.0000      -6.575344      -178.9242
  22   2.0000      -6.573311      -178.8689
  23   2.0000      -6.572742      -178.8534
  24   2.0000      -1.450894       -39.4808
  25   2.0000      -1.416715       -38.5508
  26   2.0000      -1.359732       -37.0002
  27   2.0000      -1.338541       -36.4235
  28   2.0000      -1.238495       -33.7012
  29   2.0000      -1.158230       -31.5170
  30   2.0000      -1.124461       -30.5981
  31   2.0000      -1.047469       -28.5031
  32   2.0000      -1.039049       -28.2740
  33   2.0000      -1.016313       -27.6553
  34   2.0000      -1.004335       -27.3293
  35   2.0000      -0.989069       -26.9139
  36   2.0000      -0.926944       -25.2234
  37   2.0000      -0.896304       -24.3897
  38   2.0000      -0.852778       -23.2053
  39   2.0000      -0.839418       -22.8417
  40   2.0000      -0.833637       -22.6844
  41   2.0000      -0.829814       -22.5804
  42   2.0000      -0.751704       -20.4549
  43   2.0000      -0.737680       -20.0733
  44   2.0000      -0.730049       -19.8656
  45   2.0000      -0.694350       -18.8942
  46   2.0000      -0.687325       -18.7031
  47   2.0000      -0.680277       -18.5113
  48   2.0000      -0.675206       -18.3733
  49   2.0000      -0.664799       -18.0901
  50   2.0000      -0.651515       -17.7286
  51   2.0000      -0.646757       -17.5992
  52   2.0000      -0.640071       -17.4172
  53   2.0000      -0.613329       -16.6895
  54   2.0000      -0.607955       -16.5433
  55   2.0000      -0.603998       -16.4356
  56   2.0000      -0.601472       -16.3669
  57   2.0000      -0.590734       -16.0747
  58   2.0000      -0.584240       -15.8980
  59   2.0000      -0.574129       -15.6229
  60   2.0000      -0.564922       -15.3723
  61   2.0000      -0.557720       -15.1763
  62   2.0000      -0.542783       -14.7699
  63   2.0000      -0.527272       -14.3478
  64   2.0000      -0.515915       -14.0387
  65   2.0000      -0.512327       -13.9411
  66   2.0000      -0.502682       -13.6787
  67   2.0000      -0.500464       -13.6183
  68   2.0000      -0.486210       -13.2305
  69   2.0000      -0.462805       -12.5936
  70   2.0000      -0.456571       -12.4239
  71   2.0000      -0.452977       -12.3261
  72   2.0000      -0.354766        -9.6537
  73   2.0000      -0.347675        -9.4607
  74   2.0000      -0.328375        -8.9355
  75   2.0000      -0.321533        -8.7494
  76   2.0000      -0.316614        -8.6155
  77   0.0000       0.089149         2.4259
  78   0.0000       0.101528         2.7627
  79   0.0000       0.112078         3.0498
  80   0.0000       0.128801         3.5048
  81   0.0000       0.131111         3.5677

MULLIKEN ATOMIC CHARGES
-----------------------
   0 C :   -0.322003
   1 C :    0.012571
   2 O :   -0.319818
   3 C :    0.387271
   4 O :   -0.366386
   5 C :   -0.151111
   6 C :    0.123307
   7 C :   -0.332185
   8 N :   -0.136917
   9 C :    0.208517
  10 S :   -0.443533
  11 N :   -0.228392
  12 C :    0.073635
  13 C :    0.041048
  14 C :   -0.204064
  15 C :   -0.135659
  16 C :   -0.275519
  17 C :    0.314742
  18 O :   -0.359703
  19 C :   -0.278361
  20 H :    0.127666
  21 H :    0.113497
  22 H :    0.104231
  23 H :    0.131131
  24 H :    0.088723
  25 H :    0.122354
  26 H :    0.133917
  27 H :    0.124836
  28 H :    0.195478
  29 H :    0.202398
  30 H :    0.169505
  31 H :    0.166759
  32 H :    0.162783
  33 H :    0.131825
  34 H :    0.240938
  35 H :    0.176519
Sum of atomic charges:    0.0000000

LOEWDIN ATOMIC CHARGES
----------------------
   0 C :    0.104796
   1 C :   -0.022403
   2 O :    0.308637
   3 C :   -0.419979
   4 O :    0.137062
   5 C :   -0.076896
   6 C :   -0.110092
   7 C :    0.123340
   8 N :    0.400553
   9 C :   -0.455898
  10 S :   -0.039996
  11 N :    0.398599
  12 C :   -0.041360
  13 C :   -0.040917
  14 C :    0.023659
  15 C :    0.044271
  16 C :   -0.002404
  17 C :   -0.194763
  18 O :    0.395120
  19 C :    0.028815
  20 H :   -0.020190
  21 H :   -0.025461
  22 H :   -0.038568
  23 H :   -0.017740
  24 H :   -0.039490
  25 H :   -0.010966
  26 H :   -0.010303
  27 H :   -0.017226
  28 H :   -0.059455
  29 H :   -0.063797
  30 H :   -0.001600
  31 H :   -0.022060
  32 H :   -0.018904
  33 H :   -0.035268
  34 H :   -0.153747
  35 H :   -0.025367

  Mayer bond orders larger than 0.100000
B(  0-C ,  1-C ) :   0.9562 B(  0-C , 20-H ) :   0.9702 B(  0-C , 21-H ) :   0.9773
B(  0-C , 22-H ) :   0.9743 B(  1-C ,  2-O ) :   0.9157 B(  1-C , 23-H ) :   0.9831
B(  1-C , 24-H ) :   0.9791 B(  2-O ,  3-C ) :   1.1180 B(  3-C ,  4-O ) :   2.0914
B(  3-C ,  5-C ) :   0.9166 B(  5-C ,  6-C ) :   1.7176 B(  5-C , 12-C ) :   0.9577
B(  6-C ,  7-C ) :   0.9382 B(  6-C ,  8-N ) :   1.0953 B(  7-C , 25-H ) :   0.9812
B(  7-C , 26-H ) :   0.9760 B(  7-C , 27-H ) :   0.9645 B(  8-N ,  9-C ) :   1.2000
B(  8-N , 28-H ) :   0.9533 B(  9-C , 10-S ) :   1.6055 B(  9-C , 11-N ) :   1.2852
B( 11-N , 12-C ) :   0.9848 B( 11-N , 29-H ) :   0.9470 B( 12-C , 13-C ) :   0.9501
B( 12-C , 30-H ) :   0.9959 B( 13-C , 14-C ) :   1.3846 B( 13-C , 19-C ) :   1.3406
B( 14-C , 15-C ) :   1.4025 B( 14-C , 31-H ) :   0.9627 B( 15-C , 16-C ) :   1.3575
B( 15-C , 32-H ) :   0.9703 B( 16-C , 17-C ) :   1.3314 B( 16-C , 33-H ) :   0.9850
B( 17-C , 18-O ) :   1.1082 B( 17-C , 19-C ) :   1.3676 B( 18-O , 34-H ) :   0.9797
B( 19-C , 35-H ) :   0.9582

MP2 TOTAL ENERGY:    -1274.316868669 Eh
FINAL SINGLE POINT ENERGY     -1274.316868668987

DIPOLE MOMENT
-------------
                                X             Y             Z
Electronic contribution:      9.50915       5.96395       6.54787
Nuclear contribution   :    -11.06937      -7.18020      -7.40047
                        -----------------------------------------
Total Dipole Moment    :     -1.56022      -1.21625      -0.85261
                        -----------------------------------------
Magnitude (a.u.)       :      2.15418
Magnitude (Debye)      :      5.47548

Rotational constants in cm-1:     0.012053     0.009529     0.006881
Rotational constants in MHz :   361.336674   285.667638   206.287183

                             ****ORCA TERMINATED NORMALLY****
TOTAL RUN TIME: 0 days 1 hours 54 minutes 29 seconds 18 msec
