                         Program Version 4.2.0 -  RELEASE  -
|  1> ! ri-mp2 cc-pvtz cc-pvtz/c TightSCF  NoKeepInts
|  2>
|  3> %scf
|  4>   MaxCore 4096
|  5> end
|  6> *xyz  0  1
|  7>     C       14.1621069   15.2368957   16.2657084
|  8>     C       15.4344357   15.5029311   17.0862878
|  9>     O       16.5579235   15.3089887   16.2027448
| 10>     C       17.8256289   15.7417910   16.4973461
| 11>     O       18.7801917   15.0192738   16.2779961
| 12>     C       17.9348210   16.9069479   17.4270142
| 13>     C       17.3509686   18.1025238   17.1774050
| 14>     C       16.5392117   18.4828769   15.9569892
| 15>     N       17.5324074   19.1636976   18.0669400
| 16>     C       18.3590779   19.1313675   19.1602149
| 17>     S       18.5628881   20.4525798   20.1331583
| 18>     N       19.0046405   17.9450439   19.4116127
| 19>     C       18.8037029   16.6880582   18.6631911
| 20>     C       18.1877869   15.6074915   19.5459923
| 21>     C       18.7013962   14.2981124   19.5244002
| 22>     C       18.1189493   13.2875702   20.3073074
| 23>     C       17.0096399   13.5867075   21.1163471
| 24>     C       16.4898599   14.8877889   21.1345404
| 25>     O       15.4086745   15.1769696   21.9011277
| 26>     C       17.0711724   15.8919045   20.3538827
| 27>     H       13.2688218   15.3459133   16.8927541
| 28>     H       14.1730415   14.2178136   15.8586713
| 29>     H       14.0849113   15.9420081   15.4289070
| 30>     H       15.3791008   16.5177256   17.4922844
| 31>     H       15.4968429   14.8007288   17.9288389
| 32>     H       16.6550872   17.7591032   15.1406743
| 33>     H       16.8566610   19.4553542   15.5596287
| 34>     H       15.4709376   18.5489748   16.1962013
| 35>     H       17.0782617   20.0468485   17.8934652
| 36>     H       19.5906234   17.9449328   20.2370873
| 37>     H       19.7894285   16.3370126   18.3233415
| 38>     H       19.5461055   14.0586791   18.8817262
| 39>     H       18.5234590   12.2771260   20.2775744
| 40>     H       16.5548444   12.8075286   21.7192202
| 41>     H       15.1926914   14.3811310   22.4108353
| 42>     H       16.6506978   16.8915993   20.3825833
| 43> *
| 44>
| 45>                          ****END OF INPUT****

CARTESIAN COORDINATES (ANGSTROEM)
---------------------------------
  C     14.162107   15.236896   16.265708
  C     15.434436   15.502931   17.086288
  O     16.557924   15.308989   16.202745
  C     17.825629   15.741791   16.497346
  O     18.780192   15.019274   16.277996
  C     17.934821   16.906948   17.427014
  C     17.350969   18.102524   17.177405
  C     16.539212   18.482877   15.956989
  N     17.532407   19.163698   18.066940
  C     18.359078   19.131367   19.160215
  S     18.562888   20.452580   20.133158
  N     19.004640   17.945044   19.411613
  C     18.803703   16.688058   18.663191
  C     18.187787   15.607492   19.545992
  C     18.701396   14.298112   19.524400
  C     18.118949   13.287570   20.307307
  C     17.009640   13.586707   21.116347
  C     16.489860   14.887789   21.134540
  O     15.408675   15.176970   21.901128
  C     17.071172   15.891905   20.353883
  H     13.268822   15.345913   16.892754
  H     14.173042   14.217814   15.858671
  H     14.084911   15.942008   15.428907
  H     15.379101   16.517726   17.492284
  H     15.496843   14.800729   17.928839
  H     16.655087   17.759103   15.140674
  H     16.856661   19.455354   15.559629
  H     15.470938   18.548975   16.196201
  H     17.078262   20.046848   17.893465
  H     19.590623   17.944933   20.237087
  H     19.789428   16.337013   18.323342
  H     19.546105   14.058679   18.881726
  H     18.523459   12.277126   20.277574
  H     16.554844   12.807529   21.719220
  H     15.192691   14.381131   22.410835
  H     16.650698   16.891599   20.382583

 Total Charge           Charge          ....    0
 Multiplicity           Mult            ....    1
 Number of Electrons    NEL             ....  154
 Basis Dimension        Dim             ....  828

ORBITAL ENERGIES
----------------

  NO   OCC          E(Eh)            E(eV)
   0   2.0000     -91.890665     -2500.4721
   1   2.0000     -20.599970      -560.5537
   2   2.0000     -20.597780      -560.4941
   3   2.0000     -20.551334      -559.2302
   4   2.0000     -15.628616      -425.2763
   5   2.0000     -15.611657      -424.8148
   6   2.0000     -11.396762      -310.1217
   7   2.0000     -11.387306      -309.8644
   8   2.0000     -11.331666      -308.3503
   9   2.0000     -11.316559      -307.9392
  10   2.0000     -11.313659      -307.8603
  11   2.0000     -11.303224      -307.5764
  12   2.0000     -11.268501      -306.6315
  13   2.0000     -11.263868      -306.5054
  14   2.0000     -11.262809      -306.4766
  15   2.0000     -11.256596      -306.3076
  16   2.0000     -11.246192      -306.0244
  17   2.0000     -11.242126      -305.9138
  18   2.0000     -11.239254      -305.8357
  19   2.0000     -11.234749      -305.7131
  20   2.0000      -8.895769      -242.0662
  21   2.0000      -6.577353      -178.9789
  22   2.0000      -6.575332      -178.9239
  23   2.0000      -6.574753      -178.9081
  24   2.0000      -1.447987       -39.4017
  25   2.0000      -1.419787       -38.6344
  26   2.0000      -1.359508       -36.9941
  27   2.0000      -1.341168       -36.4950
  28   2.0000      -1.240416       -33.7534
  29   2.0000      -1.161380       -31.6028
  30   2.0000      -1.125799       -30.6345
  31   2.0000      -1.048937       -28.5430
  32   2.0000      -1.040822       -28.3222
  33   2.0000      -1.018647       -27.7188
  34   2.0000      -1.005071       -27.3494
  35   2.0000      -0.989733       -26.9320
  36   2.0000      -0.927843       -25.2479
  37   2.0000      -0.881132       -23.9768
  38   2.0000      -0.855245       -23.2724
  39   2.0000      -0.842751       -22.9324
  40   2.0000      -0.837201       -22.7814
  41   2.0000      -0.836311       -22.7572
  42   2.0000      -0.757935       -20.6245
  43   2.0000      -0.739989       -20.1361
  44   2.0000      -0.732160       -19.9231
  45   2.0000      -0.697561       -18.9816
  46   2.0000      -0.688201       -18.7269
  47   2.0000      -0.682499       -18.5717
  48   2.0000      -0.676701       -18.4140
  49   2.0000      -0.664132       -18.0720
  50   2.0000      -0.652769       -17.7627
  51   2.0000      -0.646855       -17.6018
  52   2.0000      -0.640932       -17.4406
  53   2.0000      -0.612655       -16.6712
  54   2.0000      -0.608220       -16.5505
  55   2.0000      -0.604776       -16.4568
  56   2.0000      -0.603477       -16.4214
  57   2.0000      -0.586487       -15.9591
  58   2.0000      -0.578295       -15.7362
  59   2.0000      -0.568236       -15.4625
  60   2.0000      -0.561248       -15.2723
  61   2.0000      -0.558407       -15.1950
  62   2.0000      -0.543210       -14.7815
  63   2.0000      -0.530067       -14.4239
  64   2.0000      -0.524830       -14.2813
  65   2.0000      -0.516143       -14.0450
  66   2.0000      -0.502658       -13.6780
  67   2.0000      -0.500685       -13.6243
  68   2.0000      -0.490218       -13.3395
  69   2.0000      -0.469756       -12.7827
  70   2.0000      -0.457823       -12.4580
  71   2.0000      -0.449751       -12.2383
  72   2.0000      -0.357530        -9.7289
  73   2.0000      -0.351947        -9.5770
  74   2.0000      -0.330227        -8.9859
  75   2.0000      -0.324456        -8.8289
  76   2.0000      -0.318790        -8.6747
  77   0.0000       0.080120         2.1802
  78   0.0000       0.104310         2.8384
  79   0.0000       0.114057         3.1036
  80   0.0000       0.128567         3.4985
  81   0.0000       0.132123         3.5952

MULLIKEN ATOMIC CHARGES
-----------------------
   0 C :   -0.261635
   1 C :    0.013845
   2 O :   -0.324009
   3 C :    0.412260
   4 O :   -0.381157
   5 C :   -0.206558
   6 C :    0.139893
   7 C :   -0.318921
   8 N :   -0.133334
   9 C :    0.203311
  10 S :   -0.439382
  11 N :   -0.209344
  12 C :    0.062233
  13 C :    0.030190
  14 C :   -0.187229
  15 C :   -0.131131
  16 C :   -0.277152
  17 C :    0.316574
  18 O :   -0.358979
  19 C :   -0.282333
  20 H :    0.091647
  21 H :    0.109138
  22 H :    0.092417
  23 H :    0.092076
  24 H :    0.126103
  25 H :    0.133731
  26 H :    0.133937
  27 H :    0.119932
  28 H :    0.196873
  29 H :    0.197028
  30 H :    0.162578
  31 H :    0.166618
  32 H :    0.163560
  33 H :    0.132682
  34 H :    0.241896
  35 H :    0.172642
Sum of atomic charges:   -0.0000000

LOEWDIN ATOMIC CHARGES
----------------------
   0 C :    0.109930
   1 C :   -0.020685
   2 O :    0.301340
   3 C :   -0.416153
   4 O :    0.126849
   5 C :   -0.086296
   6 C :   -0.097495
   7 C :    0.126684
   8 N :    0.401986
   9 C :   -0.456227
  10 S :   -0.036370
  11 N :    0.397139
  12 C :   -0.045138
  13 C :   -0.044330
  14 C :    0.022398
  15 C :    0.044988
  16 C :   -0.000659
  17 C :   -0.195031
  18 O :    0.394200
  19 C :    0.028141
  20 H :   -0.024256
  21 H :   -0.022855
  22 H :   -0.029512
  23 H :   -0.040461
  24 H :   -0.026199
  25 H :   -0.007291
  26 H :   -0.011308
  27 H :   -0.016808
  28 H :   -0.057525
  29 H :   -0.063621
  30 H :   -0.002827
  31 H :   -0.022002
  32 H :   -0.018562
  33 H :   -0.034569
  34 H :   -0.152883
  35 H :   -0.024594

  Mayer bond orders larger than 0.100000
B(  0-C ,  1-C ) :   0.9786 B(  0-C , 20-H ) :   0.9763 B(  0-C , 21-H ) :   0.9793
B(  0-C , 22-H ) :   0.9783 B(  1-C ,  2-O ) :   0.9002 B(  1-C , 23-H ) :   0.9659
B(  1-C , 24-H ) :   0.9734 B(  2-O ,  3-C ) :   1.1775 B(  3-C ,  4-O ) :   2.1003
B(  3-C ,  5-C ) :   0.9305 B(  5-C ,  6-C ) :   1.6826 B(  5-C , 12-C ) :   0.9611
B(  6-C ,  7-C ) :   0.9443 B(  6-C ,  8-N ) :   1.1204 B(  7-C , 25-H ) :   0.9767
B(  7-C , 26-H ) :   0.9752 B(  7-C , 27-H ) :   0.9642 B(  8-N ,  9-C ) :   1.1904
B(  8-N , 28-H ) :   0.9514 B(  9-C , 10-S ) :   1.6128 B(  9-C , 11-N ) :   1.2905
B( 11-N , 12-C ) :   1.0002 B( 11-N , 29-H ) :   0.9499 B( 12-C , 13-C ) :   0.9436
B( 12-C , 30-H ) :   0.9976 B( 13-C , 14-C ) :   1.3860 B( 13-C , 19-C ) :   1.3507
B( 14-C , 15-C ) :   1.3950 B( 14-C , 31-H ) :   0.9610 B( 15-C , 16-C ) :   1.3646
B( 15-C , 32-H ) :   0.9702 B( 16-C , 17-C ) :   1.3274 B( 16-C , 33-H ) :   0.9843
B( 17-C , 18-O ) :   1.1101 B( 17-C , 19-C ) :   1.3702 B( 18-O , 34-H ) :   0.9790
B( 19-C , 35-H ) :   0.9588

MP2 TOTAL ENERGY:    -1274.334198051 Eh
FINAL SINGLE POINT ENERGY     -1274.334198051499

DIPOLE MOMENT
-------------
                                X             Y             Z
Electronic contribution:     11.99484       6.53234       7.44907
Nuclear contribution   :    -13.51044      -7.52692      -7.69564
                        -----------------------------------------
Total Dipole Moment    :     -1.51560      -0.99458      -0.24657
                        -----------------------------------------
Magnitude (a.u.)       :      1.82949
Magnitude (Debye)      :      4.65019

Rotational constants in cm-1:     0.011333     0.009219     0.006800
Rotational constants in MHz :   339.752244   276.383553   203.850307

                             ****ORCA TERMINATED NORMALLY****
TOTAL RUN TIME: 0 days 2 hours 0 minutes 35 seconds 716 msec
