                         Program Version 4.2.0 -  RELEASE  -
|  1> ! ri-mp2 cc-pvtz cc-pvtz/c TightSCF  NoKeepInts
|  2>
|  3> %scf
|  4>   MaxCore 4096
|  5> end
|  6> *xyz  0  1
|  7>     C       14.9437965   15.4130611   16.9014875
|  8>     C       16.1300318   14.4259001   16.8795820
|  9>     O       17.1863551   14.8996052   16.0183397
| 10>     C       17.7567560   16.1478203   16.0088348
| 11>     O       18.1325740   16.6187919   14.9515564
| 12>     C       17.7624975   16.9663298   17.2660169
| 13>     C       17.3208729   18.2465228   17.2352074
| 14>     C       16.5816141   18.9132375   16.0960842
| 15>     N       17.5959803   19.1092833   18.2991842
| 16>     C       18.5356390   18.8552603   19.2641948
| 17>     S       18.9853251   19.9975940   20.3722556
| 18>     N       19.1000432   17.6030083   19.2500809
| 19>     C       18.5855512   16.4640882   18.4652288
| 20>     C       17.8380382   15.5364713   19.4125484
| 21>     C       18.3594289   14.2641517   19.7158740
| 22>     C       17.6749401   13.4017703   20.5888178
| 23>     C       16.4640494   13.8165743   21.1691118
| 24>     C       15.9501866   15.0882411   20.8816526
| 25>     O       14.7812524   15.4922534   21.4386002
| 26>     C       16.6329109   15.9446362   20.0127408
| 27>     H       15.1698539   16.3131632   17.4821031
| 28>     H       14.0695944   14.9381883   17.3635016
| 29>     H       14.6673592   15.7104883   15.8820033
| 30>     H       16.4792023   14.2176259   17.8900381
| 31>     H       15.7734673   13.4690578   16.4768403
| 32>     H       15.8906136   18.2147168   15.6083659
| 33>     H       17.2915264   19.2536279   15.3306430
| 34>     H       15.9950789   19.7787070   16.4261561
| 35>     H       17.2190700   20.0439366   18.2952255
| 36>     H       19.7825038   17.4418256   19.9797860
| 37>     H       19.4501693   15.9180020   18.0615723
| 38>     H       19.2958855   13.9389178   19.2695363
| 39>     H       18.0840319   12.4182001   20.8151034
| 40>     H       15.9323483   13.1532880   21.8438419
| 41>     H       14.5048955   14.8086146   22.0679276
| 42>     H       16.2235566   16.9290391   19.8139566
| 43> *
| 44>
| 45>                          ****END OF INPUT****

CARTESIAN COORDINATES (ANGSTROEM)
---------------------------------
  C     14.943796   15.413061   16.901488
  C     16.130032   14.425900   16.879582
  O     17.186355   14.899605   16.018340
  C     17.756756   16.147820   16.008835
  O     18.132574   16.618792   14.951556
  C     17.762497   16.966330   17.266017
  C     17.320873   18.246523   17.235207
  C     16.581614   18.913237   16.096084
  N     17.595980   19.109283   18.299184
  C     18.535639   18.855260   19.264195
  S     18.985325   19.997594   20.372256
  N     19.100043   17.603008   19.250081
  C     18.585551   16.464088   18.465229
  C     17.838038   15.536471   19.412548
  C     18.359429   14.264152   19.715874
  C     17.674940   13.401770   20.588818
  C     16.464049   13.816574   21.169112
  C     15.950187   15.088241   20.881653
  O     14.781252   15.492253   21.438600
  C     16.632911   15.944636   20.012741
  H     15.169854   16.313163   17.482103
  H     14.069594   14.938188   17.363502
  H     14.667359   15.710488   15.882003
  H     16.479202   14.217626   17.890038
  H     15.773467   13.469058   16.476840
  H     15.890614   18.214717   15.608366
  H     17.291526   19.253628   15.330643
  H     15.995079   19.778707   16.426156
  H     17.219070   20.043937   18.295225
  H     19.782504   17.441826   19.979786
  H     19.450169   15.918002   18.061572
  H     19.295886   13.938918   19.269536
  H     18.084032   12.418200   20.815103
  H     15.932348   13.153288   21.843842
  H     14.504895   14.808615   22.067928
  H     16.223557   16.929039   19.813957

 Total Charge           Charge          ....    0
 Multiplicity           Mult            ....    1
 Number of Electrons    NEL             ....  154
 Basis Dimension        Dim             ....  828

ORBITAL ENERGIES
----------------

  NO   OCC          E(Eh)            E(eV)
   0   2.0000     -91.890525     -2500.4683
   1   2.0000     -20.606237      -560.7242
   2   2.0000     -20.592684      -560.3554
   3   2.0000     -20.547209      -559.1180
   4   2.0000     -15.628122      -425.2628
   5   2.0000     -15.611371      -424.8070
   6   2.0000     -11.395373      -310.0839
   7   2.0000     -11.385693      -309.8204
   8   2.0000     -11.329276      -308.2853
   9   2.0000     -11.324673      -308.1600
  10   2.0000     -11.319843      -308.0286
  11   2.0000     -11.298700      -307.4532
  12   2.0000     -11.269530      -306.6595
  13   2.0000     -11.266114      -306.5665
  14   2.0000     -11.259270      -306.3803
  15   2.0000     -11.255599      -306.2804
  16   2.0000     -11.254016      -306.2373
  17   2.0000     -11.248957      -306.0997
  18   2.0000     -11.247756      -306.0670
  19   2.0000     -11.231128      -305.6145
  20   2.0000      -8.895557      -242.0604
  21   2.0000      -6.577126      -178.9727
  22   2.0000      -6.575127      -178.9183
  23   2.0000      -6.574536      -178.9022
  24   2.0000      -1.442422       -39.2503
  25   2.0000      -1.425892       -38.8005
  26   2.0000      -1.354344       -36.8536
  27   2.0000      -1.341249       -36.4972
  28   2.0000      -1.241237       -33.7758
  29   2.0000      -1.167345       -31.7651
  30   2.0000      -1.123723       -30.5781
  31   2.0000      -1.051250       -28.6060
  32   2.0000      -1.034070       -28.1385
  33   2.0000      -1.025760       -27.9124
  34   2.0000      -1.002972       -27.2923
  35   2.0000      -0.988550       -26.8998
  36   2.0000      -0.928930       -25.2775
  37   2.0000      -0.896860       -24.4048
  38   2.0000      -0.851507       -23.1707
  39   2.0000      -0.848244       -23.0819
  40   2.0000      -0.843396       -22.9500
  41   2.0000      -0.829595       -22.5744
  42   2.0000      -0.751901       -20.4603
  43   2.0000      -0.739758       -20.1298
  44   2.0000      -0.718476       -19.5507
  45   2.0000      -0.705653       -19.2018
  46   2.0000      -0.694280       -18.8923
  47   2.0000      -0.680289       -18.5116
  48   2.0000      -0.674338       -18.3497
  49   2.0000      -0.663889       -18.0653
  50   2.0000      -0.654217       -17.8021
  51   2.0000      -0.648559       -17.6482
  52   2.0000      -0.637787       -17.3551
  53   2.0000      -0.622806       -16.9474
  54   2.0000      -0.616126       -16.7656
  55   2.0000      -0.608647       -16.5621
  56   2.0000      -0.603579       -16.4242
  57   2.0000      -0.585877       -15.9425
  58   2.0000      -0.577789       -15.7224
  59   2.0000      -0.567112       -15.4319
  60   2.0000      -0.558167       -15.1885
  61   2.0000      -0.546224       -14.8635
  62   2.0000      -0.539989       -14.6938
  63   2.0000      -0.537031       -14.6134
  64   2.0000      -0.532793       -14.4980
  65   2.0000      -0.518770       -14.1164
  66   2.0000      -0.508731       -13.8433
  67   2.0000      -0.501520       -13.6470
  68   2.0000      -0.484486       -13.1835
  69   2.0000      -0.466283       -12.6882
  70   2.0000      -0.449571       -12.2334
  71   2.0000      -0.445907       -12.1337
  72   2.0000      -0.358266        -9.7489
  73   2.0000      -0.357637        -9.7318
  74   2.0000      -0.334861        -9.1120
  75   2.0000      -0.328767        -8.9462
  76   2.0000      -0.317357        -8.6357
  77   0.0000       0.076665         2.0862
  78   0.0000       0.101159         2.7527
  79   0.0000       0.118735         3.2309
  80   0.0000       0.125909         3.4262
  81   0.0000       0.130571         3.5530

MULLIKEN ATOMIC CHARGES
-----------------------
   0 C :   -0.336996
   1 C :    0.031670
   2 O :   -0.322004
   3 C :    0.400810
   4 O :   -0.370620
   5 C :   -0.247187
   6 C :    0.159287
   7 C :   -0.286765
   8 N :   -0.129980
   9 C :    0.207482
  10 S :   -0.436515
  11 N :   -0.190563
  12 C :    0.039898
  13 C :    0.055616
  14 C :   -0.194915
  15 C :   -0.128999
  16 C :   -0.273739
  17 C :    0.317819
  18 O :   -0.356029
  19 C :   -0.284001
  20 H :    0.102676
  21 H :    0.116207
  22 H :    0.117896
  23 H :    0.102874
  24 H :    0.125779
  25 H :    0.118735
  26 H :    0.150064
  27 H :    0.096847
  28 H :    0.197699
  29 H :    0.190352
  30 H :    0.152682
  31 H :    0.151587
  32 H :    0.164297
  33 H :    0.135348
  34 H :    0.242766
  35 H :    0.179921
Sum of atomic charges:    0.0000000

LOEWDIN ATOMIC CHARGES
----------------------
   0 C :    0.102997
   1 C :   -0.016010
   2 O :    0.297239
   3 C :   -0.419847
   4 O :    0.127831
   5 C :   -0.089243
   6 C :   -0.082054
   7 C :    0.129155
   8 N :    0.404970
   9 C :   -0.455649
  10 S :   -0.033258
  11 N :    0.396815
  12 C :   -0.052006
  13 C :   -0.044436
  14 C :    0.009769
  15 C :    0.044042
  16 C :    0.001510
  17 C :   -0.189993
  18 O :    0.397774
  19 C :    0.035460
  20 H :   -0.037971
  21 H :   -0.022352
  22 H :   -0.026686
  23 H :   -0.040090
  24 H :   -0.020350
  25 H :   -0.009788
  26 H :   -0.002056
  27 H :   -0.021096
  28 H :   -0.057899
  29 H :   -0.065605
  30 H :   -0.004860
  31 H :   -0.029119
  32 H :   -0.018450
  33 H :   -0.033072
  34 H :   -0.151637
  35 H :   -0.024034

  Mayer bond orders larger than 0.100000
B(  0-C ,  1-C ) :   0.9577 B(  0-C , 20-H ) :   0.9694 B(  0-C , 21-H ) :   0.9766
B(  0-C , 22-H ) :   0.9760 B(  1-C ,  2-O ) :   0.9082 B(  1-C , 23-H ) :   0.9632
B(  1-C , 24-H ) :   0.9838 B(  2-O ,  3-C ) :   1.1978 B(  3-C ,  4-O ) :   2.1053
B(  3-C ,  5-C ) :   0.9323 B(  5-C ,  6-C ) :   1.7089 B(  5-C , 12-C ) :   0.9706
B(  6-C ,  7-C ) :   0.9543 B(  6-C ,  8-N ) :   1.1274 B(  7-C , 25-H ) :   0.9739
B(  7-C , 26-H ) :   0.9577 B(  7-C , 27-H ) :   0.9830 B(  8-N ,  9-C ) :   1.1879
B(  8-N , 28-H ) :   0.9506 B(  9-C , 10-S ) :   1.6168 B(  9-C , 11-N ) :   1.2878
B( 11-N , 12-C ) :   0.9792 B( 11-N , 29-H ) :   0.9545 B( 12-C , 13-C ) :   0.9484
B( 12-C , 30-H ) :   1.0065 B( 13-C , 14-C ) :   1.3539 B( 13-C , 19-C ) :   1.3592
B( 14-C , 15-C ) :   1.3885 B( 14-C , 31-H ) :   0.9734 B( 15-C , 16-C ) :   1.3723
B( 15-C , 32-H ) :   0.9697 B( 16-C , 17-C ) :   1.3240 B( 16-C , 33-H ) :   0.9827
B( 17-C , 18-O ) :   1.1155 B( 17-C , 19-C ) :   1.3741 B( 18-O , 34-H ) :   0.9785
B( 19-C , 35-H ) :   0.9521

MP2 TOTAL ENERGY:    -1274.328042854 Eh
FINAL SINGLE POINT ENERGY     -1274.328042853629

DIPOLE MOMENT
-------------
                                X             Y             Z
Electronic contribution:     10.12594       6.72517       5.22404
Nuclear contribution   :    -11.56796      -8.47343      -4.59802
                        -----------------------------------------
Total Dipole Moment    :     -1.44202      -1.74825       0.62602
                        -----------------------------------------
Magnitude (a.u.)       :      2.35111
Magnitude (Debye)      :      5.97605

Rotational constants in cm-1:     0.011590     0.009868     0.006780
Rotational constants in MHz :   347.466101   295.848830   203.249220

                             ****ORCA TERMINATED NORMALLY****
TOTAL RUN TIME: 0 days 1 hours 58 minutes 31 seconds 344 msec
