                         Program Version 4.2.0 -  RELEASE  -
|  1> ! ri-mp2 cc-pvtz cc-pvtz/c TightSCF  NoKeepInts
|  2>
|  3> %scf
|  4>   MaxCore 4096
|  5> end
|  6> *xyz  0  1
|  7>     C       14.3412360   14.6488832   16.9152352
|  8>     C       15.3953696   15.7627281   17.0148079
|  9>     O       16.6292993   15.2211480   16.5137363
| 10>     C       17.7812696   15.9513256   16.3754693
| 11>     O       18.7776375   15.3898066   15.9604911
| 12>     C       17.9246410   17.0456028   17.3788907
| 13>     C       17.4087472   18.2787090   17.1788930
| 14>     C       16.6471862   18.7573536   15.9620903
| 15>     N       17.6178178   19.2814958   18.1277826
| 16>     C       18.4043628   19.1465125   19.2428067
| 17>     S       18.6393968   20.4004520   20.2945806
| 18>     N       18.9823540   17.9168289   19.4472510
| 19>     C       18.7530029   16.7151235   18.6194454
| 20>     C       18.1037070   15.5920279   19.4229284
| 21>     C       18.5146648   14.2607905   19.2272058
| 22>     C       17.9051390   13.2111334   19.9341556
| 23>     C       16.8722303   13.4931015   20.8439727
| 24>     C       16.4553314   14.8167024   21.0376263
| 25>     O       15.4478651   15.0912686   21.9037108
| 26>     C       17.0641948   15.8603129   20.3333878
| 27>     H       13.3688079   15.0024632   17.2786825
| 28>     H       14.6404184   13.7837630   17.5207254
| 29>     H       14.2229294   14.3182467   15.8757399
| 30>     H       15.0692749   16.6152637   16.4083047
| 31>     H       15.4987041   16.0814127   18.0599879
| 32>     H       16.6493600   18.0198668   15.1500336
| 33>     H       17.0995080   19.6714719   15.5561845
| 34>     H       15.6029480   18.9818443   16.2121428
| 35>     H       17.2159677   20.1956578   17.9896451
| 36>     H       19.5412995   17.8421284   20.2879577
| 37>     H       19.7345117   16.3586182   18.2731311
| 38>     H       19.2983185   14.0372533   18.5061793
| 39>     H       18.2286761   12.1850824   19.7674149
| 40>     H       16.3959341   12.6843415   21.3882274
| 41>     H       15.1948908   14.2572731   22.3279411
| 42>     H       16.7199982   16.8760062   20.4972347
| 43> *
| 44>
| 45>                          ****END OF INPUT****

CARTESIAN COORDINATES (ANGSTROEM)
---------------------------------
  C     14.341236   14.648883   16.915235
  C     15.395370   15.762728   17.014808
  O     16.629299   15.221148   16.513736
  C     17.781270   15.951326   16.375469
  O     18.777638   15.389807   15.960491
  C     17.924641   17.045603   17.378891
  C     17.408747   18.278709   17.178893
  C     16.647186   18.757354   15.962090
  N     17.617818   19.281496   18.127783
  C     18.404363   19.146513   19.242807
  S     18.639397   20.400452   20.294581
  N     18.982354   17.916829   19.447251
  C     18.753003   16.715124   18.619445
  C     18.103707   15.592028   19.422928
  C     18.514665   14.260791   19.227206
  C     17.905139   13.211133   19.934156
  C     16.872230   13.493101   20.843973
  C     16.455331   14.816702   21.037626
  O     15.447865   15.091269   21.903711
  C     17.064195   15.860313   20.333388
  H     13.368808   15.002463   17.278682
  H     14.640418   13.783763   17.520725
  H     14.222929   14.318247   15.875740
  H     15.069275   16.615264   16.408305
  H     15.498704   16.081413   18.059988
  H     16.649360   18.019867   15.150034
  H     17.099508   19.671472   15.556184
  H     15.602948   18.981844   16.212143
  H     17.215968   20.195658   17.989645
  H     19.541300   17.842128   20.287958
  H     19.734512   16.358618   18.273131
  H     19.298318   14.037253   18.506179
  H     18.228676   12.185082   19.767415
  H     16.395934   12.684342   21.388227
  H     15.194891   14.257273   22.327941
  H     16.719998   16.876006   20.497235

 Total Charge           Charge          ....    0
 Multiplicity           Mult            ....    1
 Number of Electrons    NEL             ....  154
 Basis Dimension        Dim             ....  828

ORBITAL ENERGIES
----------------

  NO   OCC          E(Eh)            E(eV)
   0   2.0000     -91.888815     -2500.4218
   1   2.0000     -20.602345      -560.6183
   2   2.0000     -20.599459      -560.5398
   3   2.0000     -20.553946      -559.3013
   4   2.0000     -15.624439      -425.1626
   5   2.0000     -15.611407      -424.8080
   6   2.0000     -11.396924      -310.1261
   7   2.0000     -11.385858      -309.8249
   8   2.0000     -11.324873      -308.1655
   9   2.0000     -11.316472      -307.9368
  10   2.0000     -11.316217      -307.9299
  11   2.0000     -11.302714      -307.5625
  12   2.0000     -11.270718      -306.6918
  13   2.0000     -11.264786      -306.5304
  14   2.0000     -11.263379      -306.4921
  15   2.0000     -11.256093      -306.2939
  16   2.0000     -11.245377      -306.0023
  17   2.0000     -11.241646      -305.9008
  18   2.0000     -11.238561      -305.8168
  19   2.0000     -11.232457      -305.6507
  20   2.0000      -8.893951      -242.0167
  21   2.0000      -6.575546      -178.9297
  22   2.0000      -6.573513      -178.8744
  23   2.0000      -6.572944      -178.8589
  24   2.0000      -1.452448       -39.5231
  25   2.0000      -1.419273       -38.6204
  26   2.0000      -1.361819       -37.0570
  27   2.0000      -1.338601       -36.4252
  28   2.0000      -1.239010       -33.7152
  29   2.0000      -1.160681       -31.5837
  30   2.0000      -1.125096       -30.6154
  31   2.0000      -1.048842       -28.5404
  32   2.0000      -1.040594       -28.3160
  33   2.0000      -1.018474       -27.7141
  34   2.0000      -1.004807       -27.3422
  35   2.0000      -0.988573       -26.9004
  36   2.0000      -0.927623       -25.2419
  37   2.0000      -0.880847       -23.9691
  38   2.0000      -0.855149       -23.2698
  39   2.0000      -0.841134       -22.8884
  40   2.0000      -0.836941       -22.7743
  41   2.0000      -0.836199       -22.7541
  42   2.0000      -0.757695       -20.6179
  43   2.0000      -0.738867       -20.1056
  44   2.0000      -0.731355       -19.9012
  45   2.0000      -0.697584       -18.9822
  46   2.0000      -0.688460       -18.7339
  47   2.0000      -0.681937       -18.5565
  48   2.0000      -0.677587       -18.4381
  49   2.0000      -0.662685       -18.0326
  50   2.0000      -0.657774       -17.8990
  51   2.0000      -0.650525       -17.7017
  52   2.0000      -0.639419       -17.3995
  53   2.0000      -0.612111       -16.6564
  54   2.0000      -0.607947       -16.5431
  55   2.0000      -0.603131       -16.4120
  56   2.0000      -0.596759       -16.2386
  57   2.0000      -0.585117       -15.9219
  58   2.0000      -0.576978       -15.7004
  59   2.0000      -0.569382       -15.4937
  60   2.0000      -0.563727       -15.3398
  61   2.0000      -0.558036       -15.1849
  62   2.0000      -0.551546       -15.0083
  63   2.0000      -0.526837       -14.3360
  64   2.0000      -0.518054       -14.0970
  65   2.0000      -0.514800       -14.0084
  66   2.0000      -0.508758       -13.8440
  67   2.0000      -0.501865       -13.6564
  68   2.0000      -0.487205       -13.2575
  69   2.0000      -0.468570       -12.7504
  70   2.0000      -0.454320       -12.3627
  71   2.0000      -0.452035       -12.3005
  72   2.0000      -0.356204        -9.6928
  73   2.0000      -0.350934        -9.5494
  74   2.0000      -0.328645        -8.9429
  75   2.0000      -0.323604        -8.8057
  76   2.0000      -0.317390        -8.6366
  77   0.0000       0.091098         2.4789
  78   0.0000       0.103161         2.8071
  79   0.0000       0.108666         2.9569
  80   0.0000       0.128008         3.4833
  81   0.0000       0.130284         3.5452

MULLIKEN ATOMIC CHARGES
-----------------------
   0 C :   -0.260610
   1 C :    0.012499
   2 O :   -0.299397
   3 C :    0.386512
   4 O :   -0.374009
   5 C :   -0.171846
   6 C :    0.141595
   7 C :   -0.331987
   8 N :   -0.140303
   9 C :    0.208635
  10 S :   -0.443483
  11 N :   -0.219794
  12 C :    0.068347
  13 C :    0.035265
  14 C :   -0.189662
  15 C :   -0.131317
  16 C :   -0.276561
  17 C :    0.324147
  18 O :   -0.357614
  19 C :   -0.298142
  20 H :    0.087509
  21 H :    0.107562
  22 H :    0.102054
  23 H :    0.087797
  24 H :    0.106849
  25 H :    0.119688
  26 H :    0.139416
  27 H :    0.122410
  28 H :    0.195192
  29 H :    0.200155
  30 H :    0.166204
  31 H :    0.163774
  32 H :    0.163192
  33 H :    0.132349
  34 H :    0.241542
  35 H :    0.182033
Sum of atomic charges:   -0.0000000

LOEWDIN ATOMIC CHARGES
----------------------
   0 C :    0.112710
   1 C :   -0.028450
   2 O :    0.318090
   3 C :   -0.419926
   4 O :    0.130931
   5 C :   -0.078417
   6 C :   -0.109816
   7 C :    0.121701
   8 N :    0.400022
   9 C :   -0.455300
  10 S :   -0.039945
  11 N :    0.397455
  12 C :   -0.042411
  13 C :   -0.041686
  14 C :    0.024869
  15 C :    0.046236
  16 C :   -0.000354
  17 C :   -0.194035
  18 O :    0.394615
  19 C :    0.026593
  20 H :   -0.025404
  21 H :   -0.022930
  22 H :   -0.025277
  23 H :   -0.038287
  24 H :   -0.034954
  25 H :   -0.010667
  26 H :   -0.009687
  27 H :   -0.017377
  28 H :   -0.058797
  29 H :   -0.063672
  30 H :   -0.002210
  31 H :   -0.022200
  32 H :   -0.018562
  33 H :   -0.034817
  34 H :   -0.153068
  35 H :   -0.024970

  Mayer bond orders larger than 0.100000
B(  0-C ,  1-C ) :   0.9846 B(  0-C , 20-H ) :   0.9768 B(  0-C , 21-H ) :   0.9791
B(  0-C , 22-H ) :   0.9787 B(  1-C ,  2-O ) :   0.9182 B(  1-C , 23-H ) :   0.9755
B(  1-C , 24-H ) :   0.9571 B(  2-O ,  3-C ) :   1.1542 B(  3-C ,  4-O ) :   2.0966
B(  3-C ,  5-C ) :   0.9186 B(  5-C ,  6-C ) :   1.6978 B(  5-C , 12-C ) :   0.9618
B(  6-C ,  7-C ) :   0.9425 B(  6-C ,  8-N ) :   1.1119 B(  7-C , 25-H ) :   0.9827
B(  7-C , 26-H ) :   0.9693 B(  7-C , 27-H ) :   0.9667 B(  8-N ,  9-C ) :   1.2003
B(  8-N , 28-H ) :   0.9534 B(  9-C , 10-S ) :   1.6077 B(  9-C , 11-N ) :   1.2847
B( 11-N , 12-C ) :   0.9944 B( 11-N , 29-H ) :   0.9477 B( 12-C , 13-C ) :   0.9443
B( 12-C , 30-H ) :   0.9976 B( 13-C , 14-C ) :   1.3871 B( 13-C , 19-C ) :   1.3384
B( 14-C , 15-C ) :   1.3985 B( 14-C , 31-H ) :   0.9634 B( 15-C , 16-C ) :   1.3620
B( 15-C , 32-H ) :   0.9700 B( 16-C , 17-C ) :   1.3309 B( 16-C , 33-H ) :   0.9844
B( 17-C , 18-O ) :   1.1096 B( 17-C , 19-C ) :   1.3615 B( 18-O , 34-H ) :   0.9794
B( 19-C , 35-H ) :   0.9565

MP2 TOTAL ENERGY:    -1274.326080696 Eh
FINAL SINGLE POINT ENERGY     -1274.326080696310

DIPOLE MOMENT
-------------
                                X             Y             Z
Electronic contribution:     11.70229       7.15052       6.67111
Nuclear contribution   :    -13.36250      -8.15227      -7.15984
                        -----------------------------------------
Total Dipole Moment    :     -1.66021      -1.00175      -0.48872
                        -----------------------------------------
Magnitude (a.u.)       :      1.99966
Magnitude (Debye)      :      5.08274

Rotational constants in cm-1:     0.012253     0.009002     0.006774
Rotational constants in MHz :   367.322099   269.884191   203.075077

                             ****ORCA TERMINATED NORMALLY****
TOTAL RUN TIME: 0 days 2 hours 0 minutes 17 seconds 244 msec
