                         Program Version 4.2.0 -  RELEASE  -
|  1> ! ri-mp2 cc-pvtz cc-pvtz/c TightSCF  NoKeepInts
|  2>
|  3> %scf
|  4>   MaxCore 4096
|  5> end
|  6> *xyz  0  1
|  7>     C       14.2523795   14.9260796   15.0946492
|  8>     C       15.7278077   14.6136559   15.3957979
|  9>     O       16.3011711   15.7889172   15.9927961
| 10>     C       17.3835479   15.6589017   16.8130123
| 11>     O       17.9972345   14.6089621   16.9164326
| 12>     C       17.7026513   16.8693135   17.6458807
| 13>     C       17.1587116   18.1050569   17.4824017
| 14>     C       16.1332991   18.5527043   16.4603895
| 15>     N       17.5926826   19.1654524   18.2855770
| 16>     C       18.6534722   19.1121311   19.1504936
| 17>     S       19.1864194   20.4518340   19.9609403
| 18>     N       19.2503129   17.8876560   19.3086658
| 19>     C       18.7346836   16.6227260   18.7530437
| 20>     C       18.1536251   15.7502361   19.8629646
| 21>     C       18.6102790   14.4317232   20.0451506
| 22>     C       18.0783168   13.6231742   21.0635854
| 23>     C       17.0801134   14.1364554   21.9089806
| 24>     C       16.6197341   15.4478185   21.7289439
| 25>     O       15.6516768   15.9444673   22.5398854
| 26>     C       17.1508423   16.2500341   20.7141184
| 27>     H       13.7157036   15.1835613   16.0163176
| 28>     H       13.7601581   14.0563304   14.6426395
| 29>     H       14.1698103   15.7687642   14.3971083
| 30>     H       15.7711026   13.7638044   16.0913662
| 31>     H       16.2691200   14.3436886   14.4795143
| 32>     H       16.4702402   18.3184980   15.4428768
| 33>     H       15.9408649   19.6317824   16.4957577
| 34>     H       15.1750182   18.0443674   16.6253250
| 35>     H       17.1673929   20.0730118   18.1839967
| 36>     H       20.0098343   17.8667271   19.9769391
| 37>     H       19.5847142   16.0877752   18.3052604
| 38>     H       19.3700107   14.0264438   19.3812261
| 39>     H       18.4359549   12.6028618   21.1894093
| 40>     H       16.6651284   13.5148147   22.6952531
| 41>     H       15.4404038   15.2591380   23.1913527
| 42>     H       16.7825820   17.2631314   20.5959480
| 43> *
| 44>
| 45>                          ****END OF INPUT****

CARTESIAN COORDINATES (ANGSTROEM)
---------------------------------
  C     14.252379   14.926080   15.094649
  C     15.727808   14.613656   15.395798
  O     16.301171   15.788917   15.992796
  C     17.383548   15.658902   16.813012
  O     17.997235   14.608962   16.916433
  C     17.702651   16.869314   17.645881
  C     17.158712   18.105057   17.482402
  C     16.133299   18.552704   16.460390
  N     17.592683   19.165452   18.285577
  C     18.653472   19.112131   19.150494
  S     19.186419   20.451834   19.960940
  N     19.250313   17.887656   19.308666
  C     18.734684   16.622726   18.753044
  C     18.153625   15.750236   19.862965
  C     18.610279   14.431723   20.045151
  C     18.078317   13.623174   21.063585
  C     17.080113   14.136455   21.908981
  C     16.619734   15.447818   21.728944
  O     15.651677   15.944467   22.539885
  C     17.150842   16.250034   20.714118
  H     13.715704   15.183561   16.016318
  H     13.760158   14.056330   14.642639
  H     14.169810   15.768764   14.397108
  H     15.771103   13.763804   16.091366
  H     16.269120   14.343689   14.479514
  H     16.470240   18.318498   15.442877
  H     15.940865   19.631782   16.495758
  H     15.175018   18.044367   16.625325
  H     17.167393   20.073012   18.183997
  H     20.009834   17.866727   19.976939
  H     19.584714   16.087775   18.305260
  H     19.370011   14.026444   19.381226
  H     18.435955   12.602862   21.189409
  H     16.665128   13.514815   22.695253
  H     15.440404   15.259138   23.191353
  H     16.782582   17.263131   20.595948

 Total Charge           Charge          ....    0
 Multiplicity           Mult            ....    1
 Number of Electrons    NEL             ....  154
 Basis Dimension        Dim             ....  828

ORBITAL ENERGIES
----------------

  NO   OCC          E(Eh)            E(eV)
   0   2.0000     -91.888083     -2500.4018
   1   2.0000     -20.605046      -560.6918
   2   2.0000     -20.591025      -560.3103
   3   2.0000     -20.544652      -559.0484
   4   2.0000     -15.628660      -425.2775
   5   2.0000     -15.606519      -424.6750
   6   2.0000     -11.395309      -310.0821
   7   2.0000     -11.382826      -309.7424
   8   2.0000     -11.337219      -308.5014
   9   2.0000     -11.306743      -307.6721
  10   2.0000     -11.304996      -307.6246
  11   2.0000     -11.299522      -307.4756
  12   2.0000     -11.260851      -306.4233
  13   2.0000     -11.259031      -306.3738
  14   2.0000     -11.252688      -306.2012
  15   2.0000     -11.246809      -306.0412
  16   2.0000     -11.236508      -305.7609
  17   2.0000     -11.235362      -305.7297
  18   2.0000     -11.232707      -305.6575
  19   2.0000     -11.229536      -305.5712
  20   2.0000      -8.893142      -241.9947
  21   2.0000      -6.574719      -178.9072
  22   2.0000      -6.572713      -178.8526
  23   2.0000      -6.572127      -178.8367
  24   2.0000      -1.455388       -39.6031
  25   2.0000      -1.410759       -38.3887
  26   2.0000      -1.357106       -36.9287
  27   2.0000      -1.339490       -36.4494
  28   2.0000      -1.236937       -33.6588
  29   2.0000      -1.151454       -31.3327
  30   2.0000      -1.119269       -30.4568
  31   2.0000      -1.045023       -28.4365
  32   2.0000      -1.036919       -28.2160
  33   2.0000      -1.008819       -27.4514
  34   2.0000      -0.997551       -27.1448
  35   2.0000      -0.983185       -26.7538
  36   2.0000      -0.920750       -25.0549
  37   2.0000      -0.889535       -24.2055
  38   2.0000      -0.847017       -23.0485
  39   2.0000      -0.834438       -22.7062
  40   2.0000      -0.827054       -22.5053
  41   2.0000      -0.817040       -22.2328
  42   2.0000      -0.762668       -20.7533
  43   2.0000      -0.735904       -20.0250
  44   2.0000      -0.724256       -19.7080
  45   2.0000      -0.690781       -18.7971
  46   2.0000      -0.684846       -18.6356
  47   2.0000      -0.680420       -18.5152
  48   2.0000      -0.675393       -18.3784
  49   2.0000      -0.660118       -17.9627
  50   2.0000      -0.648643       -17.6505
  51   2.0000      -0.643494       -17.5104
  52   2.0000      -0.634770       -17.2730
  53   2.0000      -0.600796       -16.3485
  54   2.0000      -0.599652       -16.3174
  55   2.0000      -0.594803       -16.1854
  56   2.0000      -0.590459       -16.0672
  57   2.0000      -0.585410       -15.9298
  58   2.0000      -0.572600       -15.5812
  59   2.0000      -0.564067       -15.3490
  60   2.0000      -0.561943       -15.2913
  61   2.0000      -0.556212       -15.1353
  62   2.0000      -0.538867       -14.6633
  63   2.0000      -0.522672       -14.2226
  64   2.0000      -0.516834       -14.0638
  65   2.0000      -0.510531       -13.8923
  66   2.0000      -0.502189       -13.6653
  67   2.0000      -0.495238       -13.4761
  68   2.0000      -0.480645       -13.0790
  69   2.0000      -0.465601       -12.6696
  70   2.0000      -0.458709       -12.4821
  71   2.0000      -0.455619       -12.3980
  72   2.0000      -0.354371        -9.6429
  73   2.0000      -0.343391        -9.3441
  74   2.0000      -0.327157        -8.9024
  75   2.0000      -0.315470        -8.5844
  76   2.0000      -0.313013        -8.5175
  77   0.0000       0.076012         2.0684
  78   0.0000       0.114141         3.1059
  79   0.0000       0.120396         3.2761
  80   0.0000       0.136182         3.7057
  81   0.0000       0.138760         3.7759

MULLIKEN ATOMIC CHARGES
-----------------------
   0 C :   -0.274011
   1 C :    0.039310
   2 O :   -0.333848
   3 C :    0.436813
   4 O :   -0.431443
   5 C :   -0.171689
   6 C :    0.143567
   7 C :   -0.287182
   8 N :   -0.120346
   9 C :    0.201075
  10 S :   -0.438896
  11 N :   -0.196540
  12 C :    0.033534
  13 C :    0.060034
  14 C :   -0.160037
  15 C :   -0.134134
  16 C :   -0.278933
  17 C :    0.311572
  18 O :   -0.359374
  19 C :   -0.273520
  20 H :    0.097675
  21 H :    0.102151
  22 H :    0.093027
  23 H :    0.100869
  24 H :    0.094339
  25 H :    0.127488
  26 H :    0.103988
  27 H :    0.127417
  28 H :    0.196609
  29 H :    0.193454
  30 H :    0.153340
  31 H :    0.152946
  32 H :    0.158813
  33 H :    0.127749
  34 H :    0.240000
  35 H :    0.164184
Sum of atomic charges:    0.0000000

LOEWDIN ATOMIC CHARGES
----------------------
   0 C :    0.105908
   1 C :   -0.015744
   2 O :    0.308081
   3 C :   -0.415265
   4 O :    0.101847
   5 C :   -0.091441
   6 C :   -0.064497
   7 C :    0.124828
   8 N :    0.404973
   9 C :   -0.459136
  10 S :   -0.035703
  11 N :    0.398045
  12 C :   -0.046719
  13 C :   -0.038664
  14 C :    0.022569
  15 C :    0.040907
  16 C :   -0.002396
  17 C :   -0.192698
  18 O :    0.392837
  19 C :    0.028153
  20 H :   -0.026659
  21 H :   -0.022970
  22 H :   -0.029379
  23 H :   -0.025753
  24 H :   -0.029977
  25 H :   -0.008656
  26 H :   -0.021220
  27 H :   -0.009906
  28 H :   -0.059270
  29 H :   -0.063578
  30 H :   -0.005065
  31 H :   -0.025301
  32 H :   -0.021303
  33 H :   -0.036502
  34 H :   -0.154990
  35 H :   -0.025354

  Mayer bond orders larger than 0.100000
B(  0-C ,  1-C ) :   0.9714 B(  0-C , 20-H ) :   0.9765 B(  0-C , 21-H ) :   0.9788
B(  0-C , 22-H ) :   0.9782 B(  1-C ,  2-O ) :   0.9011 B(  1-C , 23-H ) :   0.9743
B(  1-C , 24-H ) :   0.9810 B(  2-O ,  3-C ) :   1.1776 B(  3-C ,  4-O ) :   1.9741
B(  3-C ,  5-C ) :   1.0641 B(  5-C ,  6-C ) :   1.6400 B(  5-C , 12-C ) :   0.9668
B(  6-C ,  7-C ) :   0.9551 B(  6-C ,  8-N ) :   1.1524 B(  7-C , 25-H ) :   0.9645
B(  7-C , 26-H ) :   0.9921 B(  7-C , 27-H ) :   0.9642 B(  8-N ,  9-C ) :   1.1766
B(  8-N , 28-H ) :   0.9487 B(  9-C , 10-S ) :   1.6111 B(  9-C , 11-N ) :   1.3052
B( 11-N , 12-C ) :   0.9927 B( 11-N , 29-H ) :   0.9521 B( 12-C , 13-C ) :   0.9477
B( 12-C , 30-H ) :   1.0004 B( 13-C , 14-C ) :   1.3754 B( 13-C , 19-C ) :   1.3689
B( 14-C , 15-C ) :   1.3947 B( 14-C , 31-H ) :   0.9651 B( 15-C , 16-C ) :   1.3623
B( 15-C , 32-H ) :   0.9715 B( 16-C , 17-C ) :   1.3316 B( 16-C , 33-H ) :   0.9861
B( 17-C , 18-O ) :   1.1078 B( 17-C , 19-C ) :   1.3796 B( 18-O , 34-H ) :   0.9807
B( 19-C , 35-H ) :   0.9586

MP2 TOTAL ENERGY:    -1274.349779931 Eh
FINAL SINGLE POINT ENERGY     -1274.349779931401

DIPOLE MOMENT
-------------
                                X             Y             Z
Electronic contribution:     11.91679       8.66426      11.11033
Nuclear contribution   :    -13.42308      -9.97802     -12.10969
                        -----------------------------------------
Total Dipole Moment    :     -1.50629      -1.31376      -0.99936
                        -----------------------------------------
Magnitude (a.u.)       :      2.23463
Magnitude (Debye)      :      5.67999

Rotational constants in cm-1:     0.010318     0.008805     0.005843
Rotational constants in MHz :   309.312173   263.958200   175.165110

                             ****ORCA TERMINATED NORMALLY****
TOTAL RUN TIME: 0 days 1 hours 41 minutes 27 seconds 136 msec
