                         Program Version 4.2.0 -  RELEASE  -
|  1> ! ri-mp2 cc-pvtz cc-pvtz/c TightSCF  NoKeepInts
|  2>
|  3> %scf
|  4>   MaxCore 4096
|  5> end
|  6> *xyz  0  1
|  7>     C       14.2783826   15.2123307   16.5974523
|  8>     C       15.7092099   14.6915927   16.3829002
|  9>     O       16.5169141   15.8093999   15.9779912
| 10>     C       17.7889252   15.8747340   16.4623979
| 11>     O       18.4796044   14.8723919   16.5434299
| 12>     C       17.9512506   17.0129277   17.4219677
| 13>     C       17.3724823   18.2276488   17.2523392
| 14>     C       16.5221118   18.6834319   16.0851252
| 15>     N       17.5981952   19.2418416   18.1876811
| 16>     C       18.4736269   19.1556769   19.2385387
| 17>     S       18.7564178   20.4386268   20.2432863
| 18>     N       19.1039634   17.9491580   19.4153689
| 19>     C       18.8101738   16.7196640   18.6545533
| 20>     C       18.1250212   15.6882751   19.5466516
| 21>     C       18.6810081   14.4067519   19.7140925
| 22>     C       18.0408768   13.4479456   20.5171294
| 23>     C       16.8324852   13.7716638   21.1573031
| 24>     C       16.2731220   15.0455586   20.9892685
| 25>     O       15.1009223   15.3580792   21.5969793
| 26>     C       16.9128742   15.9979027   20.1900797
| 27>     H       14.2604148   15.9787622   17.3824590
| 28>     H       13.6144421   14.3944744   16.9028166
| 29>     H       13.8824856   15.6499941   15.6726858
| 30>     H       16.0752794   14.2653325   17.3282852
| 31>     H       15.7312962   13.9067067   15.6156080
| 32>     H       16.9255932   18.3108194   15.1352979
| 33>     H       16.4719105   19.7761459   16.0049345
| 34>     H       15.4967381   18.3057001   16.1835004
| 35>     H       17.1452061   20.1348259   18.0752654
| 36>     H       19.7202309   17.9044622   20.2167503
| 37>     H       19.7659627   16.3011109   18.3074567
| 38>     H       19.6046457   14.1472835   19.2024616
| 39>     H       18.4786217   12.4581259   20.6340586
| 40>     H       16.3335423   13.0329695   21.7757498
| 41>     H       14.8488667   14.6011303   22.1470940
| 42>     H       16.4641960   16.9785546   20.0750403
| 43> *
| 44>
| 45>                          ****END OF INPUT****

CARTESIAN COORDINATES (ANGSTROEM)
---------------------------------
  C     14.278383   15.212331   16.597452
  C     15.709210   14.691593   16.382900
  O     16.516914   15.809400   15.977991
  C     17.788925   15.874734   16.462398
  O     18.479604   14.872392   16.543430
  C     17.951251   17.012928   17.421968
  C     17.372482   18.227649   17.252339
  C     16.522112   18.683432   16.085125
  N     17.598195   19.241842   18.187681
  C     18.473627   19.155677   19.238539
  S     18.756418   20.438627   20.243286
  N     19.103963   17.949158   19.415369
  C     18.810174   16.719664   18.654553
  C     18.125021   15.688275   19.546652
  C     18.681008   14.406752   19.714092
  C     18.040877   13.447946   20.517129
  C     16.832485   13.771664   21.157303
  C     16.273122   15.045559   20.989269
  O     15.100922   15.358079   21.596979
  C     16.912874   15.997903   20.190080
  H     14.260415   15.978762   17.382459
  H     13.614442   14.394474   16.902817
  H     13.882486   15.649994   15.672686
  H     16.075279   14.265332   17.328285
  H     15.731296   13.906707   15.615608
  H     16.925593   18.310819   15.135298
  H     16.471910   19.776146   16.004935
  H     15.496738   18.305700   16.183500
  H     17.145206   20.134826   18.075265
  H     19.720231   17.904462   20.216750
  H     19.765963   16.301111   18.307457
  H     19.604646   14.147284   19.202462
  H     18.478622   12.458126   20.634059
  H     16.333542   13.032969   21.775750
  H     14.848867   14.601130   22.147094
  H     16.464196   16.978555   20.075040

 Total Charge           Charge          ....    0
 Multiplicity           Mult            ....    1
 Number of Electrons    NEL             ....  154
 Basis Dimension        Dim             ....  828

ORBITAL ENERGIES
----------------

  NO   OCC          E(Eh)            E(eV)
   0   2.0000     -91.888472     -2500.4124
   1   2.0000     -20.596500      -560.4592
   2   2.0000     -20.588271      -560.2353
   3   2.0000     -20.553604      -559.2920
   4   2.0000     -15.627786      -425.2537
   5   2.0000     -15.608259      -424.7223
   6   2.0000     -11.393961      -310.0455
   7   2.0000     -11.384053      -309.7758
   8   2.0000     -11.332091      -308.3619
   9   2.0000     -11.312652      -307.8329
  10   2.0000     -11.308826      -307.7288
  11   2.0000     -11.297907      -307.4317
  12   2.0000     -11.259693      -306.3918
  13   2.0000     -11.259467      -306.3857
  14   2.0000     -11.257952      -306.3445
  15   2.0000     -11.252740      -306.2026
  16   2.0000     -11.242385      -305.9209
  17   2.0000     -11.238191      -305.8067
  18   2.0000     -11.235522      -305.7341
  19   2.0000     -11.231696      -305.6300
  20   2.0000      -8.893551      -242.0058
  21   2.0000      -6.575131      -178.9184
  22   2.0000      -6.573120      -178.8637
  23   2.0000      -6.572537      -178.8478
  24   2.0000      -1.453856       -39.5614
  25   2.0000      -1.416256       -38.5383
  26   2.0000      -1.356576       -36.9143
  27   2.0000      -1.339094       -36.4386
  28   2.0000      -1.237600       -33.6768
  29   2.0000      -1.156725       -31.4761
  30   2.0000      -1.121386       -30.5145
  31   2.0000      -1.045161       -28.4403
  32   2.0000      -1.035826       -28.1863
  33   2.0000      -1.014099       -27.5950
  34   2.0000      -0.999266       -27.1914
  35   2.0000      -0.984921       -26.8011
  36   2.0000      -0.923356       -25.1258
  37   2.0000      -0.884786       -24.0763
  38   2.0000      -0.847505       -23.0618
  39   2.0000      -0.838217       -22.8090
  40   2.0000      -0.832682       -22.6584
  41   2.0000      -0.822131       -22.3713
  42   2.0000      -0.758175       -20.6310
  43   2.0000      -0.736109       -20.0305
  44   2.0000      -0.728298       -19.8180
  45   2.0000      -0.694574       -18.9003
  46   2.0000      -0.685040       -18.6409
  47   2.0000      -0.681081       -18.5332
  48   2.0000      -0.676582       -18.4107
  49   2.0000      -0.658599       -17.9214
  50   2.0000      -0.652835       -17.7646
  51   2.0000      -0.644615       -17.5409
  52   2.0000      -0.636428       -17.3181
  53   2.0000      -0.605290       -16.4708
  54   2.0000      -0.603315       -16.4170
  55   2.0000      -0.600184       -16.3318
  56   2.0000      -0.599388       -16.3102
  57   2.0000      -0.577098       -15.7036
  58   2.0000      -0.575175       -15.6513
  59   2.0000      -0.567822       -15.4512
  60   2.0000      -0.559101       -15.2139
  61   2.0000      -0.553175       -15.0527
  62   2.0000      -0.543806       -14.7977
  63   2.0000      -0.521870       -14.2008
  64   2.0000      -0.513534       -13.9740
  65   2.0000      -0.510685       -13.8964
  66   2.0000      -0.505123       -13.7451
  67   2.0000      -0.498386       -13.5618
  68   2.0000      -0.483128       -13.1466
  69   2.0000      -0.464798       -12.6478
  70   2.0000      -0.456925       -12.4336
  71   2.0000      -0.455353       -12.3908
  72   2.0000      -0.353601        -9.6220
  73   2.0000      -0.348404        -9.4806
  74   2.0000      -0.327866        -8.9217
  75   2.0000      -0.319777        -8.7016
  76   2.0000      -0.315289        -8.5794
  77   0.0000       0.072757         1.9798
  78   0.0000       0.104348         2.8395
  79   0.0000       0.118700         3.2300
  80   0.0000       0.131685         3.5833
  81   0.0000       0.138011         3.7555

MULLIKEN ATOMIC CHARGES
-----------------------
   0 C :   -0.285206
   1 C :    0.049558
   2 O :   -0.366443
   3 C :    0.433210
   4 O :   -0.400491
   5 C :   -0.182317
   6 C :    0.136841
   7 C :   -0.283284
   8 N :   -0.125886
   9 C :    0.205699
  10 S :   -0.440809
  11 N :   -0.201793
  12 C :    0.059572
  13 C :    0.039623
  14 C :   -0.154846
  15 C :   -0.133250
  16 C :   -0.281432
  17 C :    0.313609
  18 O :   -0.359405
  19 C :   -0.283294
  20 H :    0.097888
  21 H :    0.103919
  22 H :    0.096419
  23 H :    0.099699
  24 H :    0.105139
  25 H :    0.123361
  26 H :    0.105651
  27 H :    0.125652
  28 H :    0.197070
  29 H :    0.194391
  30 H :    0.154386
  31 H :    0.154729
  32 H :    0.160999
  33 H :    0.130872
  34 H :    0.241153
  35 H :    0.169015
Sum of atomic charges:    0.0000000

LOEWDIN ATOMIC CHARGES
----------------------
   0 C :    0.105984
   1 C :   -0.014751
   2 O :    0.295245
   3 C :   -0.417988
   4 O :    0.124256
   5 C :   -0.093311
   6 C :   -0.075954
   7 C :    0.126334
   8 N :    0.403828
   9 C :   -0.456872
  10 S :   -0.037046
  11 N :    0.397009
  12 C :   -0.045213
  13 C :   -0.040814
  14 C :    0.021679
  15 C :    0.041798
  16 C :   -0.002273
  17 C :   -0.194227
  18 O :    0.393453
  19 C :    0.028045
  20 H :   -0.028042
  21 H :   -0.023129
  22 H :   -0.028942
  23 H :   -0.024867
  24 H :   -0.029133
  25 H :   -0.008179
  26 H :   -0.019499
  27 H :   -0.010399
  28 H :   -0.058841
  29 H :   -0.064141
  30 H :   -0.004827
  31 H :   -0.024749
  32 H :   -0.020237
  33 H :   -0.035569
  34 H :   -0.153990
  35 H :   -0.024638

  Mayer bond orders larger than 0.100000
B(  0-C ,  1-C ) :   0.9702 B(  0-C , 20-H ) :   0.9762 B(  0-C , 21-H ) :   0.9786
B(  0-C , 22-H ) :   0.9769 B(  1-C ,  2-O ) :   0.8955 B(  1-C , 23-H ) :   0.9685
B(  1-C , 24-H ) :   0.9851 B(  2-O ,  3-C ) :   1.1005 B(  3-C ,  4-O ) :   2.0251
B(  3-C ,  5-C ) :   1.0265 B(  5-C ,  6-C ) :   1.6690 B(  5-C , 12-C ) :   0.9655
B(  6-C ,  7-C ) :   0.9527 B(  6-C ,  8-N ) :   1.1382 B(  7-C , 25-H ) :   0.9708
B(  7-C , 26-H ) :   0.9881 B(  7-C , 27-H ) :   0.9629 B(  8-N ,  9-C ) :   1.1858
B(  8-N , 28-H ) :   0.9499 B(  9-C , 10-S ) :   1.6093 B(  9-C , 11-N ) :   1.2999
B( 11-N , 12-C ) :   0.9931 B( 11-N , 29-H ) :   0.9516 B( 12-C , 13-C ) :   0.9431
B( 12-C , 30-H ) :   0.9979 B( 13-C , 14-C ) :   1.3768 B( 13-C , 19-C ) :   1.3694
B( 14-C , 15-C ) :   1.3939 B( 14-C , 31-H ) :   0.9647 B( 15-C , 16-C ) :   1.3638
B( 15-C , 32-H ) :   0.9710 B( 16-C , 17-C ) :   1.3303 B( 16-C , 33-H ) :   0.9850
B( 17-C , 18-O ) :   1.1090 B( 17-C , 19-C ) :   1.3736 B( 18-O , 34-H ) :   0.9799
B( 19-C , 35-H ) :   0.9577

MP2 TOTAL ENERGY:    -1274.328618117 Eh
FINAL SINGLE POINT ENERGY     -1274.328618116749

DIPOLE MOMENT
-------------
                                X             Y             Z
Electronic contribution:     11.54578       8.07693       7.06627
Nuclear contribution   :    -12.84410      -9.40589      -7.72069
                        -----------------------------------------
Total Dipole Moment    :     -1.29832      -1.32896      -0.65443
                        -----------------------------------------
Magnitude (a.u.)       :      1.96978
Magnitude (Debye)      :      5.00679

Rotational constants in cm-1:     0.011619     0.009155     0.006752
Rotational constants in MHz :   348.315269   274.469038   202.425257

                             ****ORCA TERMINATED NORMALLY****
TOTAL RUN TIME: 0 days 1 hours 42 minutes 8 seconds 805 msec
