                         Program Version 5.0.0 -  RELEASE  -
|  1> ! ri-mp2 cc-pvtz cc-pvtz/c TightSCF NoKeepInts
|  2>
|  3> %scf
|  4>   MaxCore 4096
|  5> end
|  6> *xyz  0  1
|  7>     C       14.9680339   16.1580317   17.3968628
|  8>     C       15.6291761   14.7779926   17.1817352
|  9>     O       16.9231264   14.7831163   16.5206078
| 10>     C       17.8802718   15.7635678   16.4015255
| 11>     O       18.6519647   15.7463846   15.4610792
| 12>     C       17.8490617   16.9275755   17.3325075
| 13>     C       17.5750736   18.1680447   16.8690396
| 14>     C       17.1744639   18.5259221   15.4544945
| 15>     N       17.6525535   19.2692725   17.7242757
| 16>     C       17.9957475   19.2042692   19.0493430
| 17>     S       17.9974013   20.5447142   20.0174590
| 18>     N       18.3286500   17.9659507   19.5408184
| 19>     C       18.3844398   16.7156671   18.7571771
| 20>     C       17.7793054   15.5369388   19.5179543
| 21>     C       18.3369217   14.2526130   19.3693247
| 22>     C       17.8064649   13.1540347   20.0657119
| 23>     C       16.7125654   13.3392115   20.9274631
| 24>     C       16.1598882   14.6163704   21.0886846
| 25>     O       15.1006972   14.7989869   21.9159262
| 26>     C       16.6885106   15.7084313   20.3928915
| 27>     H       15.4364971   16.7334296   18.1999288
| 28>     H       13.9187597   16.0185242   17.6844402
| 29>     H       14.9771303   16.7469184   16.4727430
| 30>     H       15.7244658   14.2828543   18.1556550
| 31>     H       14.9497422   14.1559739   16.5848621
| 32>     H       16.6459824   17.7013641   14.9605126
| 33>     H       18.0658120   18.7417311   14.8514500
| 34>     H       16.5162451   19.4022770   15.4198003
| 35>     H       17.4324295   20.1889804   17.3757131
| 36>     H       18.5601133   17.9468620   20.5263176
| 37>     H       19.4525660   16.4821599   18.6384386
| 38>     H       19.1811260   14.1019186   18.7001758
| 39>     H       18.2435256   12.1651349   19.9351996
| 40>     H       16.2997910   12.4928421   21.4670203
| 41>     H       14.9112496   13.9488852   22.3417266
| 42>     H       16.2372471   16.6850487   20.5351349
| 43> *
| 44>
| 45>                          ****END OF INPUT****

CARTESIAN COORDINATES (ANGSTROEM)
---------------------------------
  C     14.968034   16.158032   17.396863
  C     15.629176   14.777993   17.181735
  O     16.923126   14.783116   16.520608
  C     17.880272   15.763568   16.401526
  O     18.651965   15.746385   15.461079
  C     17.849062   16.927575   17.332507
  C     17.575074   18.168045   16.869040
  C     17.174464   18.525922   15.454494
  N     17.652553   19.269272   17.724276
  C     17.995748   19.204269   19.049343
  S     17.997401   20.544714   20.017459
  N     18.328650   17.965951   19.540818
  C     18.384440   16.715667   18.757177
  C     17.779305   15.536939   19.517954
  C     18.336922   14.252613   19.369325
  C     17.806465   13.154035   20.065712
  C     16.712565   13.339211   20.927463
  C     16.159888   14.616370   21.088685
  O     15.100697   14.798987   21.915926
  C     16.688511   15.708431   20.392892
  H     15.436497   16.733430   18.199929
  H     13.918760   16.018524   17.684440
  H     14.977130   16.746918   16.472743
  H     15.724466   14.282854   18.155655
  H     14.949742   14.155974   16.584862
  H     16.645982   17.701364   14.960513
  H     18.065812   18.741731   14.851450
  H     16.516245   19.402277   15.419800
  H     17.432430   20.188980   17.375713
  H     18.560113   17.946862   20.526318
  H     19.452566   16.482160   18.638439
  H     19.181126   14.101919   18.700176
  H     18.243526   12.165135   19.935200
  H     16.299791   12.492842   21.467020
  H     14.911250   13.948885   22.341727
  H     16.237247   16.685049   20.535135

 Total Charge           Charge          ....    0
 Multiplicity           Mult            ....    1
 Number of Electrons    NEL             ....  154
 Basis Dimension        Dim             ....  828

ORBITAL ENERGIES
----------------

  NO   OCC          E(Eh)            E(eV)
   0   2.0000     -91.889972     -2500.4533
   1   2.0000     -20.605810      -560.7126
   2   2.0000     -20.593294      -560.3720
   3   2.0000     -20.549025      -559.1674
   4   2.0000     -15.625434      -425.1897
   5   2.0000     -15.612714      -424.8435
   6   2.0000     -11.397205      -310.1337
   7   2.0000     -11.386710      -309.8481
   8   2.0000     -11.323949      -308.1403
   9   2.0000     -11.323822      -308.1369
  10   2.0000     -11.319884      -308.0297
  11   2.0000     -11.305379      -307.6350
  12   2.0000     -11.273398      -306.7648
  13   2.0000     -11.264712      -306.5284
  14   2.0000     -11.259054      -306.3744
  15   2.0000     -11.257911      -306.3433
  16   2.0000     -11.253262      -306.2168
  17   2.0000     -11.249366      -306.1108
  18   2.0000     -11.248463      -306.0862
  19   2.0000     -11.235163      -305.7243
  20   2.0000      -8.895091      -242.0477
  21   2.0000      -6.576681      -178.9606
  22   2.0000      -6.574653      -178.9054
  23   2.0000      -6.574079      -178.8898
  24   2.0000      -1.439878       -39.1811
  25   2.0000      -1.425662       -38.7942
  26   2.0000      -1.353672       -36.8353
  27   2.0000      -1.338983       -36.4356
  28   2.0000      -1.240295       -33.7502
  29   2.0000      -1.167349       -31.7652
  30   2.0000      -1.124252       -30.5924
  31   2.0000      -1.051628       -28.6162
  32   2.0000      -1.037374       -28.2284
  33   2.0000      -1.025689       -27.9104
  34   2.0000      -1.003886       -27.3171
  35   2.0000      -0.989956       -26.9381
  36   2.0000      -0.928650       -25.2699
  37   2.0000      -0.900576       -24.5059
  38   2.0000      -0.852257       -23.1911
  39   2.0000      -0.845836       -23.0164
  40   2.0000      -0.841052       -22.8862
  41   2.0000      -0.830690       -22.6042
  42   2.0000      -0.748408       -20.3652
  43   2.0000      -0.739007       -20.1094
  44   2.0000      -0.723188       -19.6789
  45   2.0000      -0.704376       -19.1670
  46   2.0000      -0.690743       -18.7961
  47   2.0000      -0.677278       -18.4297
  48   2.0000      -0.675929       -18.3930
  49   2.0000      -0.660059       -17.9611
  50   2.0000      -0.657208       -17.8835
  51   2.0000      -0.653168       -17.7736
  52   2.0000      -0.638496       -17.3744
  53   2.0000      -0.617377       -16.7997
  54   2.0000      -0.613848       -16.7037
  55   2.0000      -0.609058       -16.5733
  56   2.0000      -0.605104       -16.4657
  57   2.0000      -0.583842       -15.8871
  58   2.0000      -0.579190       -15.7606
  59   2.0000      -0.572489       -15.5782
  60   2.0000      -0.568310       -15.4645
  61   2.0000      -0.556034       -15.1305
  62   2.0000      -0.541195       -14.7267
  63   2.0000      -0.533656       -14.5215
  64   2.0000      -0.525340       -14.2952
  65   2.0000      -0.516131       -14.0446
  66   2.0000      -0.506217       -13.7749
  67   2.0000      -0.498302       -13.5595
  68   2.0000      -0.490613       -13.3503
  69   2.0000      -0.467955       -12.7337
  70   2.0000      -0.450918       -12.2701
  71   2.0000      -0.446524       -12.1505
  72   2.0000      -0.360237        -9.8025
  73   2.0000      -0.349559        -9.5120
  74   2.0000      -0.331534        -9.0215
  75   2.0000      -0.329594        -8.9687
  76   2.0000      -0.318246        -8.6599
  77   0.0000       0.090860         2.4724
  78   0.0000       0.097329         2.6485
  79   0.0000       0.119754         3.2587
  80   0.0000       0.123489         3.3603
  81   0.0000       0.126813         3.4508

MULLIKEN ATOMIC CHARGES
-----------------------
   0 C :   -0.337237
   1 C :    0.036301
   2 O :   -0.326286
   3 C :    0.378546
   4 O :   -0.372809
   5 C :   -0.204228
   6 C :    0.153060
   7 C :   -0.299658
   8 N :   -0.138337
   9 C :    0.215094
  10 S :   -0.443936
  11 N :   -0.237545
  12 C :    0.108199
  13 C :   -0.015757
  14 C :   -0.193740
  15 C :   -0.129483
  16 C :   -0.277991
  17 C :    0.321708
  18 O :   -0.355984
  19 C :   -0.275789
  20 H :    0.112200
  21 H :    0.126697
  22 H :    0.104796
  23 H :    0.102397
  24 H :    0.128561
  25 H :    0.115463
  26 H :    0.147626
  27 H :    0.102943
  28 H :    0.196600
  29 H :    0.207091
  30 H :    0.163183
  31 H :    0.156638
  32 H :    0.165261
  33 H :    0.134852
  34 H :    0.242790
  35 H :    0.188775
Sum of atomic charges:    0.0000000

LOEWDIN ATOMIC CHARGES
----------------------
   0 C :    0.103019
   1 C :   -0.011354
   2 O :    0.293944
   3 C :   -0.421680
   4 O :    0.126913
   5 C :   -0.084858
   6 C :   -0.091555
   7 C :    0.128068
   8 N :    0.404006
   9 C :   -0.454568
  10 S :   -0.038855
  11 N :    0.395725
  12 C :   -0.050728
  13 C :   -0.041118
  14 C :    0.021928
  15 C :    0.046091
  16 C :    0.000161
  17 C :   -0.194385
  18 O :    0.397246
  19 C :    0.026797
  20 H :   -0.034738
  21 H :   -0.020221
  22 H :   -0.030313
  23 H :   -0.029397
  24 H :   -0.021471
  25 H :   -0.010984
  26 H :   -0.004380
  27 H :   -0.019640
  28 H :   -0.057803
  29 H :   -0.065575
  30 H :   -0.009104
  31 H :   -0.024370
  32 H :   -0.017124
  33 H :   -0.033196
  34 H :   -0.151633
  35 H :   -0.024846

  Mayer bond orders larger than 0.100000
B(  0-C ,  1-C ) :   0.9588 B(  0-C , 20-H ) :   0.9685 B(  0-C , 21-H ) :   0.9759
B(  0-C , 22-H ) :   0.9759 B(  1-C ,  2-O ) :   0.9054 B(  1-C , 23-H ) :   0.9679
B(  1-C , 24-H ) :   0.9819 B(  2-O ,  3-C ) :   1.1900 B(  3-C ,  4-O ) :   2.1129
B(  3-C ,  5-C ) :   0.8980 B(  5-C ,  6-C ) :   1.7214 B(  5-C , 12-C ) :   0.9493
B(  6-C ,  7-C ) :   0.9482 B(  6-C ,  8-N ) :   1.1275 B(  7-C , 25-H ) :   0.9764
B(  7-C , 26-H ) :   0.9610 B(  7-C , 27-H ) :   0.9819 B(  8-N ,  9-C ) :   1.2076
B(  8-N , 28-H ) :   0.9512 B(  9-C , 10-S ) :   1.6031 B(  9-C , 11-N ) :   1.2878
B( 11-N , 12-C ) :   0.9816 B( 11-N , 29-H ) :   0.9412 B( 12-C , 13-C ) :   0.9480
B( 12-C , 30-H ) :   0.9980 B( 13-C , 14-C ) :   1.3789 B( 13-C , 19-C ) :   1.3383
B( 14-C , 15-C ) :   1.4054 B( 14-C , 31-H ) :   0.9715 B( 15-C , 16-C ) :   1.3542
B( 15-C , 32-H ) :   0.9694 B( 16-C , 17-C ) :   1.3344 B( 16-C , 33-H ) :   0.9841
B( 17-C , 18-O ) :   1.1115 B( 17-C , 19-C ) :   1.3600 B( 18-O , 34-H ) :   0.9780
B( 19-C , 35-H ) :   0.9503

MP2 TOTAL ENERGY:    -1274.322332847 Eh
FINAL SINGLE POINT ENERGY     -1274.322332847196

DIPOLE MOMENT
-------------
                                X             Y             Z
Electronic contribution:      8.26479       5.32373       5.75137
Nuclear contribution   :     -9.47243      -6.90771      -5.61704
                        -----------------------------------------
Total Dipole Moment    :     -1.20764      -1.58398       0.13434
                        -----------------------------------------
Magnitude (a.u.)       :      1.99635
Magnitude (Debye)      :      5.07432

Rotational constants in cm-1:     0.013025     0.009001     0.006527
Rotational constants in MHz :   390.465919   269.840862   195.687530

                             ****ORCA TERMINATED NORMALLY****
TOTAL RUN TIME: 0 days 2 hours 14 minutes 16 seconds 83 msec
