                         Program Version 4.2.0 -  RELEASE  -
|  1> ! ri-mp2 cc-pvtz cc-pvtz/c TightSCF  NoKeepInts
|  2>
|  3> %scf
|  4>   MaxCore 4096
|  5> end
|  6> *xyz  0  1
|  7>     C       14.1743648   15.1360996   16.2772876
|  8>     C       15.4573142   15.4782861   17.0516769
|  9>     O       16.5527937   15.3996858   16.1179419
| 10>     C       17.8248106   15.7466103   16.4878748
| 11>     O       18.7425914   14.9626853   16.3306776
| 12>     C       17.9408945   16.9131612   17.4168547
| 13>     C       17.3515667   18.1086651   17.1770125
| 14>     C       16.5340805   18.4952203   15.9621459
| 15>     N       17.5371772   19.1663057   18.0703028
| 16>     C       18.3791462   19.1346781   19.1517477
| 17>     S       18.5947977   20.4554556   20.1227496
| 18>     N       19.0301045   17.9492906   19.3924570
| 19>     C       18.8115760   16.6908012   18.6518956
| 20>     C       18.1838554   15.6253720   19.5450788
| 21>     C       18.6942766   14.3145756   19.5509845
| 22>     C       18.1010245   13.3186620   20.3444756
| 23>     C       16.9842354   13.6340024   21.1368887
| 24>     C       16.4679940   14.9365788   21.1282299
| 25>     O       15.3800055   15.2413880   21.8789779
| 26>     C       17.0600310   15.9259859   20.3369572
| 27>     H       13.3039876   15.1571536   16.9443856
| 28>     H       14.2459995   14.1328244   15.8383937
| 29>     H       14.0060902   15.8562507   15.4670691
| 30>     H       15.3518923   16.4749727   17.4937808
| 31>     H       15.6072065   14.7550039   17.8651276
| 32>     H       16.7319236   17.8350160   15.1083975
| 33>     H       16.7713958   19.5136240   15.6293742
| 34>     H       15.4595191   18.4532441   16.1765979
| 35>     H       17.0775492   20.0482331   17.9055055
| 36>     H       19.6272978   17.9491093   20.2098310
| 37>     H       19.7918534   16.3250449   18.3119303
| 38>     H       19.5448726   14.0623042   18.9212023
| 39>     H       18.5031811   12.3068865   20.3357975
| 40>     H       16.5211923   12.8661706   21.7479859
| 41>     H       15.1577044   14.4553160   22.4009652
| 42>     H       16.6426940   16.9273368   20.3454389
| 43> *
| 44>
| 45>                          ****END OF INPUT****

CARTESIAN COORDINATES (ANGSTROEM)
---------------------------------
  C     14.174365   15.136100   16.277288
  C     15.457314   15.478286   17.051677
  O     16.552794   15.399686   16.117942
  C     17.824811   15.746610   16.487875
  O     18.742591   14.962685   16.330678
  C     17.940894   16.913161   17.416855
  C     17.351567   18.108665   17.177012
  C     16.534081   18.495220   15.962146
  N     17.537177   19.166306   18.070303
  C     18.379146   19.134678   19.151748
  S     18.594798   20.455456   20.122750
  N     19.030105   17.949291   19.392457
  C     18.811576   16.690801   18.651896
  C     18.183855   15.625372   19.545079
  C     18.694277   14.314576   19.550984
  C     18.101025   13.318662   20.344476
  C     16.984235   13.634002   21.136889
  C     16.467994   14.936579   21.128230
  O     15.380005   15.241388   21.878978
  C     17.060031   15.925986   20.336957
  H     13.303988   15.157154   16.944386
  H     14.245999   14.132824   15.838394
  H     14.006090   15.856251   15.467069
  H     15.351892   16.474973   17.493781
  H     15.607206   14.755004   17.865128
  H     16.731924   17.835016   15.108397
  H     16.771396   19.513624   15.629374
  H     15.459519   18.453244   16.176598
  H     17.077549   20.048233   17.905506
  H     19.627298   17.949109   20.209831
  H     19.791853   16.325045   18.311930
  H     19.544873   14.062304   18.921202
  H     18.503181   12.306886   20.335798
  H     16.521192   12.866171   21.747986
  H     15.157704   14.455316   22.400965
  H     16.642694   16.927337   20.345439

 Total Charge           Charge          ....    0
 Multiplicity           Mult            ....    1
 Number of Electrons    NEL             ....  154
 Basis Dimension        Dim             ....  828

ORBITAL ENERGIES
----------------

  NO   OCC          E(Eh)            E(eV)
   0   2.0000     -91.890841     -2500.4769
   1   2.0000     -20.599571      -560.5428
   2   2.0000     -20.594897      -560.4156
   3   2.0000     -20.552763      -559.2691
   4   2.0000     -15.629308      -425.2951
   5   2.0000     -15.611390      -424.8075
   6   2.0000     -11.395826      -310.0962
   7   2.0000     -11.387247      -309.8627
   8   2.0000     -11.333013      -308.3870
   9   2.0000     -11.316086      -307.9263
  10   2.0000     -11.312793      -307.8367
  11   2.0000     -11.303174      -307.5750
  12   2.0000     -11.267417      -306.6020
  13   2.0000     -11.263166      -306.4863
  14   2.0000     -11.262093      -306.4571
  15   2.0000     -11.256092      -306.2938
  16   2.0000     -11.245760      -306.0127
  17   2.0000     -11.241660      -305.9011
  18   2.0000     -11.238688      -305.8203
  19   2.0000     -11.234445      -305.7048
  20   2.0000      -8.895936      -242.0707
  21   2.0000      -6.577518      -178.9834
  22   2.0000      -6.575500      -178.9284
  23   2.0000      -6.574918      -178.9126
  24   2.0000      -1.448839       -39.4249
  25   2.0000      -1.419389       -38.6235
  26   2.0000      -1.359789       -37.0017
  27   2.0000      -1.341461       -36.5030
  28   2.0000      -1.240402       -33.7530
  29   2.0000      -1.160817       -31.5874
  30   2.0000      -1.125325       -30.6217
  31   2.0000      -1.048381       -28.5279
  32   2.0000      -1.039944       -28.2983
  33   2.0000      -1.018092       -27.7037
  34   2.0000      -1.004524       -27.3345
  35   2.0000      -0.989440       -26.9240
  36   2.0000      -0.927422       -25.2364
  37   2.0000      -0.879703       -23.9379
  38   2.0000      -0.855062       -23.2674
  39   2.0000      -0.842894       -22.9363
  40   2.0000      -0.836753       -22.7692
  41   2.0000      -0.835814       -22.7437
  42   2.0000      -0.757749       -20.6194
  43   2.0000      -0.739488       -20.1225
  44   2.0000      -0.731878       -19.9154
  45   2.0000      -0.697232       -18.9726
  46   2.0000      -0.688072       -18.7234
  47   2.0000      -0.683120       -18.5886
  48   2.0000      -0.676518       -18.4090
  49   2.0000      -0.662903       -18.0385
  50   2.0000      -0.652427       -17.7534
  51   2.0000      -0.646588       -17.5946
  52   2.0000      -0.641289       -17.4504
  53   2.0000      -0.613019       -16.6811
  54   2.0000      -0.607862       -16.5408
  55   2.0000      -0.605610       -16.4795
  56   2.0000      -0.603291       -16.4164
  57   2.0000      -0.585245       -15.9253
  58   2.0000      -0.577913       -15.7258
  59   2.0000      -0.567466       -15.4415
  60   2.0000      -0.560330       -15.2474
  61   2.0000      -0.556944       -15.1552
  62   2.0000      -0.542590       -14.7646
  63   2.0000      -0.527985       -14.3672
  64   2.0000      -0.524980       -14.2854
  65   2.0000      -0.515973       -14.0403
  66   2.0000      -0.502509       -13.6740
  67   2.0000      -0.499082       -13.5807
  68   2.0000      -0.490444       -13.3457
  69   2.0000      -0.468974       -12.7614
  70   2.0000      -0.459627       -12.5071
  71   2.0000      -0.450545       -12.2600
  72   2.0000      -0.357611        -9.7311
  73   2.0000      -0.351532        -9.5657
  74   2.0000      -0.330322        -8.9885
  75   2.0000      -0.323919        -8.8143
  76   2.0000      -0.318818        -8.6755
  77   0.0000       0.077199         2.1007
  78   0.0000       0.104238         2.8365
  79   0.0000       0.114847         3.1251
  80   0.0000       0.129091         3.5127
  81   0.0000       0.132921         3.6170

MULLIKEN ATOMIC CHARGES
-----------------------
   0 C :   -0.261221
   1 C :    0.012129
   2 O :   -0.330953
   3 C :    0.422863
   4 O :   -0.379894
   5 C :   -0.212008
   6 C :    0.140247
   7 C :   -0.311864
   8 N :   -0.131446
   9 C :    0.201855
  10 S :   -0.438543
  11 N :   -0.207319
  12 C :    0.058198
  13 C :    0.029936
  14 C :   -0.181881
  15 C :   -0.132311
  16 C :   -0.277829
  17 C :    0.315157
  18 O :   -0.358822
  19 C :   -0.280120
  20 H :    0.092092
  21 H :    0.108718
  22 H :    0.093082
  23 H :    0.092454
  24 H :    0.123441
  25 H :    0.136356
  26 H :    0.127887
  27 H :    0.119074
  28 H :    0.197151
  29 H :    0.196408
  30 H :    0.161606
  31 H :    0.165841
  32 H :    0.163292
  33 H :    0.132519
  34 H :    0.241826
  35 H :    0.172078
Sum of atomic charges:   -0.0000000

LOEWDIN ATOMIC CHARGES
----------------------
   0 C :    0.111091
   1 C :   -0.022661
   2 O :    0.297948
   3 C :   -0.416975
   4 O :    0.129251
   5 C :   -0.088420
   6 C :   -0.092214
   7 C :    0.127471
   8 N :    0.402548
   9 C :   -0.456704
  10 S :   -0.035664
  11 N :    0.397120
  12 C :   -0.045390
  13 C :   -0.044233
  14 C :    0.022128
  15 C :    0.044360
  16 C :   -0.000972
  17 C :   -0.195221
  18 O :    0.394068
  19 C :    0.028121
  20 H :   -0.024014
  21 H :   -0.022526
  22 H :   -0.029237
  23 H :   -0.040395
  24 H :   -0.025928
  25 H :   -0.006800
  26 H :   -0.012781
  27 H :   -0.016364
  28 H :   -0.057638
  29 H :   -0.063628
  30 H :   -0.003010
  31 H :   -0.022232
  32 H :   -0.018757
  33 H :   -0.034669
  34 H :   -0.152976
  35 H :   -0.024698

  Mayer bond orders larger than 0.100000
B(  0-C ,  1-C ) :   0.9795 B(  0-C , 20-H ) :   0.9764 B(  0-C , 21-H ) :   0.9791
B(  0-C , 22-H ) :   0.9782 B(  1-C ,  2-O ) :   0.8977 B(  1-C , 23-H ) :   0.9665
B(  1-C , 24-H ) :   0.9736 B(  2-O ,  3-C ) :   1.1643 B(  3-C ,  4-O ) :   2.0992
B(  3-C ,  5-C ) :   0.9369 B(  5-C ,  6-C ) :   1.6768 B(  5-C , 12-C ) :   0.9627
B(  6-C ,  7-C ) :   0.9457 B(  6-C ,  8-N ) :   1.1242 B(  7-C , 25-H ) :   0.9745
B(  7-C , 26-H ) :   0.9786 B(  7-C , 27-H ) :   0.9636 B(  8-N ,  9-C ) :   1.1883
B(  8-N , 28-H ) :   0.9510 B(  9-C , 10-S ) :   1.6133 B(  9-C , 11-N ) :   1.2923
B( 11-N , 12-C ) :   0.9991 B( 11-N , 29-H ) :   0.9505 B( 12-C , 13-C ) :   0.9431
B( 12-C , 30-H ) :   0.9978 B( 13-C , 14-C ) :   1.3857 B( 13-C , 19-C ) :   1.3527
B( 14-C , 15-C ) :   1.3951 B( 14-C , 31-H ) :   0.9609 B( 15-C , 16-C ) :   1.3644
B( 15-C , 32-H ) :   0.9703 B( 16-C , 17-C ) :   1.3276 B( 16-C , 33-H ) :   0.9844
B( 17-C , 18-O ) :   1.1108 B( 17-C , 19-C ) :   1.3716 B( 18-O , 34-H ) :   0.9791
B( 19-C , 35-H ) :   0.9588

MP2 TOTAL ENERGY:    -1274.333902101 Eh
FINAL SINGLE POINT ENERGY     -1274.333902100883

DIPOLE MOMENT
-------------
                                X             Y             Z
Electronic contribution:     11.99850       6.87232       7.30031
Nuclear contribution   :    -13.48422      -7.87125      -7.55544
                        -----------------------------------------
Total Dipole Moment    :     -1.48572      -0.99893      -0.25513
                        -----------------------------------------
Magnitude (a.u.)       :      1.80840
Magnitude (Debye)      :      4.59659

Rotational constants in cm-1:     0.011333     0.009244     0.006796
Rotational constants in MHz :   339.753148   277.133158   203.729280

                             ****ORCA TERMINATED NORMALLY****
TOTAL RUN TIME: 0 days 2 hours 26 minutes 31 seconds 787 msec
