                         Program Version 4.2.0 -  RELEASE  -
|  1> ! ri-mp2 cc-pvtz cc-pvtz/c TightSCF  NoKeepInts
|  2>
|  3> %scf
|  4>   MaxCore 4096
|  5> end
|  6> *xyz  0  1
|  7>     C       14.2429429   15.1462132   16.1348494
|  8>     C       15.5596673   15.2500768   16.9219509
|  9>     O       16.6022647   15.5636656   15.9811378
| 10>     C       17.8537027   15.7951734   16.4723901
| 11>     O       18.6850485   14.9056224   16.4659062
| 12>     C       17.9365138   16.9495673   17.4238531
| 13>     C       17.2909389   18.1252551   17.2290422
| 14>     C       16.4324940   18.5117470   16.0433353
| 15>     N       17.4490605   19.1652978   18.1490437
| 16>     C       18.3262844   19.1488393   19.2021509
| 17>     S       18.5238541   20.4605427   20.1893439
| 18>     N       19.0292124   17.9857833   19.3988057
| 19>     C       18.8132022   16.7281039   18.6571723
| 20>     C       18.1919101   15.6645286   19.5582051
| 21>     C       18.7506425   14.3753187   19.6272442
| 22>     C       18.1666677   13.3835246   20.4327867
| 23>     C       17.0112374   13.6813012   21.1749689
| 24>     C       16.4481463   14.9624378   21.1049247
| 25>     O       15.3244185   15.2501772   21.8083895
| 26>     C       17.0312728   15.9475700   20.3019133
| 27>     H       13.4113973   14.9013406   16.8068795
| 28>     H       14.3116607   14.3586462   15.3737907
| 29>     H       14.0123603   16.0930753   15.6318659
| 30>     H       15.4633038   16.0285808   17.6896996
| 31>     H       15.7773983   14.2961080   17.4219164
| 32>     H       15.3917558   18.2025479   16.1954615
| 33>     H       16.7916051   18.0405038   15.1196071
| 34>     H       16.4394772   19.5944864   15.8665128
| 35>     H       16.9468709   20.0294428   18.0189263
| 36>     H       19.6505334   17.9931845   20.1978290
| 37>     H       19.7937317   16.3655393   18.3150534
| 38>     H       19.6319010   14.1356034   19.0363311
| 39>     H       18.6062638   12.3882583   20.4722385
| 40>     H       16.5554434   12.9166682   21.7953903
| 41>     H       15.1145177   14.4743307   22.3503176
| 42>     H       16.5792979   16.9329379   20.2647665
| 43> *
| 44>
| 45>                          ****END OF INPUT****

CARTESIAN COORDINATES (ANGSTROEM)
---------------------------------
  C     14.242943   15.146213   16.134849
  C     15.559667   15.250077   16.921951
  O     16.602265   15.563666   15.981138
  C     17.853703   15.795173   16.472390
  O     18.685049   14.905622   16.465906
  C     17.936514   16.949567   17.423853
  C     17.290939   18.125255   17.229042
  C     16.432494   18.511747   16.043335
  N     17.449061   19.165298   18.149044
  C     18.326284   19.148839   19.202151
  S     18.523854   20.460543   20.189344
  N     19.029212   17.985783   19.398806
  C     18.813202   16.728104   18.657172
  C     18.191910   15.664529   19.558205
  C     18.750643   14.375319   19.627244
  C     18.166668   13.383525   20.432787
  C     17.011237   13.681301   21.174969
  C     16.448146   14.962438   21.104925
  O     15.324419   15.250177   21.808390
  C     17.031273   15.947570   20.301913
  H     13.411397   14.901341   16.806880
  H     14.311661   14.358646   15.373791
  H     14.012360   16.093075   15.631866
  H     15.463304   16.028581   17.689700
  H     15.777398   14.296108   17.421916
  H     15.391756   18.202548   16.195462
  H     16.791605   18.040504   15.119607
  H     16.439477   19.594486   15.866513
  H     16.946871   20.029443   18.018926
  H     19.650533   17.993185   20.197829
  H     19.793732   16.365539   18.315053
  H     19.631901   14.135603   19.036331
  H     18.606264   12.388258   20.472238
  H     16.555443   12.916668   21.795390
  H     15.114518   14.474331   22.350318
  H     16.579298   16.932938   20.264766

 Total Charge           Charge          ....    0
 Multiplicity           Mult            ....    1
 Number of Electrons    NEL             ....  154
 Basis Dimension        Dim             ....  828

ORBITAL ENERGIES
----------------

  NO   OCC          E(Eh)            E(eV)
   0   2.0000     -91.890878     -2500.4779
   1   2.0000     -20.598152      -560.5042
   2   2.0000     -20.586926      -560.1987
   3   2.0000     -20.555656      -559.3478
   4   2.0000     -15.630453      -425.3263
   5   2.0000     -15.610483      -424.7828
   6   2.0000     -11.393978      -310.0459
   7   2.0000     -11.386682      -309.8474
   8   2.0000     -11.335254      -308.4479
   9   2.0000     -11.314335      -307.8787
  10   2.0000     -11.310756      -307.7813
  11   2.0000     -11.302375      -307.5533
  12   2.0000     -11.265042      -306.5374
  13   2.0000     -11.261605      -306.4439
  14   2.0000     -11.259968      -306.3993
  15   2.0000     -11.254170      -306.2415
  16   2.0000     -11.243942      -305.9632
  17   2.0000     -11.240050      -305.8573
  18   2.0000     -11.236761      -305.7678
  19   2.0000     -11.234756      -305.7133
  20   2.0000      -8.895951      -242.0711
  21   2.0000      -6.577528      -178.9836
  22   2.0000      -6.575517      -178.9289
  23   2.0000      -6.574931      -178.9130
  24   2.0000      -1.451163       -39.4882
  25   2.0000      -1.417947       -38.5843
  26   2.0000      -1.359079       -36.9824
  27   2.0000      -1.341775       -36.5116
  28   2.0000      -1.240029       -33.7429
  29   2.0000      -1.158768       -31.5317
  30   2.0000      -1.123831       -30.5810
  31   2.0000      -1.046716       -28.4826
  32   2.0000      -1.038318       -28.2541
  33   2.0000      -1.016167       -27.6513
  34   2.0000      -1.002817       -27.2880
  35   2.0000      -0.988311       -26.8933
  36   2.0000      -0.925980       -25.1972
  37   2.0000      -0.879174       -23.9235
  38   2.0000      -0.853167       -23.2158
  39   2.0000      -0.842517       -22.9261
  40   2.0000      -0.834720       -22.7139
  41   2.0000      -0.833784       -22.6884
  42   2.0000      -0.757771       -20.6200
  43   2.0000      -0.737633       -20.0720
  44   2.0000      -0.730697       -19.8833
  45   2.0000      -0.696119       -18.9424
  46   2.0000      -0.688001       -18.7215
  47   2.0000      -0.683156       -18.5896
  48   2.0000      -0.675883       -18.3917
  49   2.0000      -0.659450       -17.9446
  50   2.0000      -0.651356       -17.7243
  51   2.0000      -0.642836       -17.4925
  52   2.0000      -0.637715       -17.3531
  53   2.0000      -0.621188       -16.9034
  54   2.0000      -0.606647       -16.5077
  55   2.0000      -0.605916       -16.4878
  56   2.0000      -0.601767       -16.3749
  57   2.0000      -0.582205       -15.8426
  58   2.0000      -0.577140       -15.7048
  59   2.0000      -0.566393       -15.4123
  60   2.0000      -0.559505       -15.2249
  61   2.0000      -0.552636       -15.0380
  62   2.0000      -0.539158       -14.6712
  63   2.0000      -0.527481       -14.3535
  64   2.0000      -0.523910       -14.2563
  65   2.0000      -0.515087       -14.0162
  66   2.0000      -0.502332       -13.6692
  67   2.0000      -0.497682       -13.5426
  68   2.0000      -0.485295       -13.2055
  69   2.0000      -0.466976       -12.7071
  70   2.0000      -0.462291       -12.5796
  71   2.0000      -0.452316       -12.3081
  72   2.0000      -0.357121        -9.7178
  73   2.0000      -0.350002        -9.5240
  74   2.0000      -0.330164        -8.9842
  75   2.0000      -0.321761        -8.7556
  76   2.0000      -0.318398        -8.6640
  77   0.0000       0.071607         1.9485
  78   0.0000       0.104004         2.8301
  79   0.0000       0.117498         3.1973
  80   0.0000       0.130678         3.5559
  81   0.0000       0.134876         3.6702

MULLIKEN ATOMIC CHARGES
-----------------------
   0 C :   -0.261943
   1 C :    0.006304
   2 O :   -0.355584
   3 C :    0.463020
   4 O :   -0.381952
   5 C :   -0.240554
   6 C :    0.150237
   7 C :   -0.298364
   8 N :   -0.126708
   9 C :    0.198903
  10 S :   -0.437122
  11 N :   -0.202885
  12 C :    0.054100
  13 C :    0.049008
  14 C :   -0.172196
  15 C :   -0.132272
  16 C :   -0.279841
  17 C :    0.315144
  18 O :   -0.358824
  19 C :   -0.297474
  20 H :    0.094345
  21 H :    0.108336
  22 H :    0.091297
  23 H :    0.099494
  24 H :    0.121759
  25 H :    0.118565
  26 H :    0.135354
  27 H :    0.117750
  28 H :    0.197538
  29 H :    0.195050
  30 H :    0.158990
  31 H :    0.161752
  32 H :    0.162200
  33 H :    0.131517
  34 H :    0.241607
  35 H :    0.173448
Sum of atomic charges:   -0.0000000

LOEWDIN ATOMIC CHARGES
----------------------
   0 C :    0.111028
   1 C :   -0.022400
   2 O :    0.291696
   3 C :   -0.419801
   4 O :    0.134496
   5 C :   -0.093842
   6 C :   -0.081196
   7 C :    0.127827
   8 N :    0.403894
   9 C :   -0.457694
  10 S :   -0.034468
  11 N :    0.397141
  12 C :   -0.045849
  13 C :   -0.042247
  14 C :    0.022355
  15 C :    0.043273
  16 C :   -0.001466
  17 C :   -0.195088
  18 O :    0.393437
  19 C :    0.027825
  20 H :   -0.023489
  21 H :   -0.022863
  22 H :   -0.031219
  23 H :   -0.038929
  24 H :   -0.024559
  25 H :   -0.013815
  26 H :   -0.006067
  27 H :   -0.016194
  28 H :   -0.058157
  29 H :   -0.063686
  30 H :   -0.003479
  31 H :   -0.023187
  32 H :   -0.019439
  33 H :   -0.035113
  34 H :   -0.153284
  35 H :   -0.025438

  Mayer bond orders larger than 0.100000
B(  0-C ,  1-C ) :   0.9776 B(  0-C , 20-H ) :   0.9760 B(  0-C , 21-H ) :   0.9790
B(  0-C , 22-H ) :   0.9779 B(  1-C ,  2-O ) :   0.8931 B(  1-C , 23-H ) :   0.9642
B(  1-C , 24-H ) :   0.9765 B(  2-O ,  3-C ) :   1.1250 B(  3-C ,  4-O ) :   2.0826
B(  3-C ,  5-C ) :   0.9692 B(  5-C ,  6-C ) :   1.6635 B(  5-C , 12-C ) :   0.9639
B(  6-C ,  7-C ) :   0.9504 B(  6-C ,  8-N ) :   1.1338 B(  7-C , 25-H ) :   0.9628
B(  7-C , 26-H ) :   0.9703 B(  7-C , 27-H ) :   0.9852 B(  8-N ,  9-C ) :   1.1841
B(  8-N , 28-H ) :   0.9500 B(  9-C , 10-S ) :   1.6144 B(  9-C , 11-N ) :   1.2967
B( 11-N , 12-C ) :   0.9960 B( 11-N , 29-H ) :   0.9516 B( 12-C , 13-C ) :   0.9440
B( 12-C , 30-H ) :   0.9985 B( 13-C , 14-C ) :   1.3838 B( 13-C , 19-C ) :   1.3494
B( 14-C , 15-C ) :   1.3954 B( 14-C , 31-H ) :   0.9614 B( 15-C , 16-C ) :   1.3644
B( 15-C , 32-H ) :   0.9705 B( 16-C , 17-C ) :   1.3294 B( 16-C , 33-H ) :   0.9846
B( 17-C , 18-O ) :   1.1114 B( 17-C , 19-C ) :   1.3729 B( 18-O , 34-H ) :   0.9795
B( 19-C , 35-H ) :   0.9582

MP2 TOTAL ENERGY:    -1274.329294128 Eh
FINAL SINGLE POINT ENERGY     -1274.329294127891

DIPOLE MOMENT
-------------
                                X             Y             Z
Electronic contribution:     11.80974       7.38028       7.48189
Nuclear contribution   :    -13.18796      -8.45449      -7.83896
                        -----------------------------------------
Total Dipole Moment    :     -1.37822      -1.07421      -0.35707
                        -----------------------------------------
Magnitude (a.u.)       :      1.78351
Magnitude (Debye)      :      4.53332

Rotational constants in cm-1:     0.011214     0.009362     0.006794
Rotational constants in MHz :   336.201691   280.656041   203.678515

                             ****ORCA TERMINATED NORMALLY****
TOTAL RUN TIME: 0 days 2 hours 17 minutes 50 seconds 934 msec
