                         Program Version 5.0.0 -  RELEASE  -
|  1> ! ri-mp2 cc-pvtz cc-pvtz/c TightSCF NoKeepInts
|  2>
|  3> %scf
|  4>   MaxCore 4096
|  5> end
|  6> *xyz  0  1
|  7>     C       14.3540108   15.7930738   16.4710165
|  8>     C       15.6373995   15.0708632   16.9161827
|  9>     O       16.6942011   15.3550580   15.9757862
| 10>     C       17.9245318   15.7653099   16.4141380
| 11>     O       18.8687071   14.9998058   16.3458909
| 12>     C       17.9088494   16.8933152   17.3974051
| 13>     C       17.2754745   18.0679434   17.1631157
| 14>     C       16.5545423   18.4988727   15.9029092
| 15>     N       17.3701124   19.1049156   18.0944230
| 16>     C       18.1828934   19.0923700   19.1978033
| 17>     S       18.3109537   20.4026280   20.1982077
| 18>     N       18.8877165   17.9371927   19.4294161
| 19>     C       18.7322926   16.6805082   18.6706305
| 20>     C       18.1185440   15.5846592   19.5383820
| 21>     C       18.6299640   14.2748951   19.4889182
| 22>     C       18.0579422   13.2516424   20.2628199
| 23>     C       16.9623921   13.5383257   21.0945006
| 24>     C       16.4465933   14.8400824   21.1447476
| 25>     O       15.3805306   15.1179907   21.9362756
| 26>     C       17.0169699   15.8565813   20.3719344
| 27>     H       14.4263115   16.8715494   16.6394850
| 28>     H       13.4946603   15.4243071   17.0444090
| 29>     H       14.1557144   15.6133999   15.4068399
| 30>     H       15.8922794   15.3796673   17.9364316
| 31>     H       15.4612507   13.9873078   16.9344848
| 32>     H       16.4481577   17.6921428   15.1697707
| 33>     H       17.1079302   19.3044788   15.4038281
| 34>     H       15.5497869   18.8759538   16.1279637
| 35>     H       16.8780042   19.9692297   17.9306402
| 36>     H       19.4662638   17.9496520   20.2599427
| 37>     H       19.7370648   16.3507444   18.3673269
| 38>     H       19.4676948   14.0457136   18.8333593
| 39>     H       18.4620620   12.2419160   20.2111393
| 40>     H       16.5166080   12.7500333   21.6922506
| 41>     H       15.1715121   14.3142484   22.4361319
| 42>     H       16.5970779   16.8556222   20.4254931
| 43> *
| 44>
| 45>                          ****END OF INPUT****

CARTESIAN COORDINATES (ANGSTROEM)
---------------------------------
  C     14.354011   15.793074   16.471017
  C     15.637400   15.070863   16.916183
  O     16.694201   15.355058   15.975786
  C     17.924532   15.765310   16.414138
  O     18.868707   14.999806   16.345891
  C     17.908849   16.893315   17.397405
  C     17.275475   18.067943   17.163116
  C     16.554542   18.498873   15.902909
  N     17.370112   19.104916   18.094423
  C     18.182893   19.092370   19.197803
  S     18.310954   20.402628   20.198208
  N     18.887716   17.937193   19.429416
  C     18.732293   16.680508   18.670630
  C     18.118544   15.584659   19.538382
  C     18.629964   14.274895   19.488918
  C     18.057942   13.251642   20.262820
  C     16.962392   13.538326   21.094501
  C     16.446593   14.840082   21.144748
  O     15.380531   15.117991   21.936276
  C     17.016970   15.856581   20.371934
  H     14.426312   16.871549   16.639485
  H     13.494660   15.424307   17.044409
  H     14.155714   15.613400   15.406840
  H     15.892279   15.379667   17.936432
  H     15.461251   13.987308   16.934485
  H     16.448158   17.692143   15.169771
  H     17.107930   19.304479   15.403828
  H     15.549787   18.875954   16.127964
  H     16.878004   19.969230   17.930640
  H     19.466264   17.949652   20.259943
  H     19.737065   16.350744   18.367327
  H     19.467695   14.045714   18.833359
  H     18.462062   12.241916   20.211139
  H     16.516608   12.750033   21.692251
  H     15.171512   14.314248   22.436132
  H     16.597078   16.855622   20.425493

 Total Charge           Charge          ....    0
 Multiplicity           Mult            ....    1
 Number of Electrons    NEL             ....  154
 Basis Dimension        Dim             ....  828

ORBITAL ENERGIES
----------------

  NO   OCC          E(Eh)            E(eV)
   0   2.0000     -91.890928     -2500.4793
   1   2.0000     -20.599678      -560.5457
   2   2.0000     -20.586797      -560.1952
   3   2.0000     -20.555395      -559.3407
   4   2.0000     -15.628821      -425.2818
   5   2.0000     -15.611388      -424.8075
   6   2.0000     -11.396344      -310.1103
   7   2.0000     -11.387119      -309.8593
   8   2.0000     -11.334059      -308.4154
   9   2.0000     -11.316752      -307.9445
  10   2.0000     -11.313586      -307.8583
  11   2.0000     -11.300812      -307.5107
  12   2.0000     -11.265258      -306.5433
  13   2.0000     -11.264383      -306.5194
  14   2.0000     -11.263033      -306.4827
  15   2.0000     -11.256705      -306.3105
  16   2.0000     -11.246045      -306.0204
  17   2.0000     -11.241978      -305.9098
  18   2.0000     -11.238646      -305.8191
  19   2.0000     -11.234078      -305.6948
  20   2.0000      -8.896018      -242.0729
  21   2.0000      -6.577599      -178.9856
  22   2.0000      -6.575582      -178.9307
  23   2.0000      -6.574999      -178.9148
  24   2.0000      -1.448227       -39.4083
  25   2.0000      -1.419512       -38.6269
  26   2.0000      -1.357687       -36.9445
  27   2.0000      -1.341818       -36.5127
  28   2.0000      -1.240790       -33.7636
  29   2.0000      -1.160845       -31.5882
  30   2.0000      -1.124768       -30.6065
  31   2.0000      -1.047974       -28.5168
  32   2.0000      -1.037687       -28.2369
  33   2.0000      -1.018561       -27.7165
  34   2.0000      -1.004426       -27.3318
  35   2.0000      -0.989368       -26.9221
  36   2.0000      -0.927468       -25.2377
  37   2.0000      -0.884288       -24.0627
  38   2.0000      -0.852797       -23.2058
  39   2.0000      -0.842692       -22.9308
  40   2.0000      -0.836659       -22.7666
  41   2.0000      -0.834620       -22.7112
  42   2.0000      -0.757276       -20.6065
  43   2.0000      -0.736626       -20.0446
  44   2.0000      -0.731816       -19.9137
  45   2.0000      -0.697781       -18.9876
  46   2.0000      -0.688341       -18.7307
  47   2.0000      -0.681792       -18.5525
  48   2.0000      -0.675961       -18.3938
  49   2.0000      -0.662039       -18.0150
  50   2.0000      -0.653528       -17.7834
  51   2.0000      -0.640841       -17.4382
  52   2.0000      -0.631084       -17.1727
  53   2.0000      -0.624124       -16.9833
  54   2.0000      -0.609493       -16.5852
  55   2.0000      -0.607223       -16.5234
  56   2.0000      -0.603369       -16.4185
  57   2.0000      -0.583724       -15.8839
  58   2.0000      -0.576902       -15.6983
  59   2.0000      -0.571104       -15.5405
  60   2.0000      -0.564445       -15.3593
  61   2.0000      -0.556396       -15.1403
  62   2.0000      -0.542753       -14.7691
  63   2.0000      -0.528087       -14.3700
  64   2.0000      -0.522783       -14.2256
  65   2.0000      -0.515713       -14.0333
  66   2.0000      -0.502609       -13.6767
  67   2.0000      -0.495866       -13.4932
  68   2.0000      -0.485066       -13.1993
  69   2.0000      -0.468383       -12.7454
  70   2.0000      -0.459994       -12.5171
  71   2.0000      -0.449402       -12.2288
  72   2.0000      -0.358651        -9.7594
  73   2.0000      -0.351581        -9.5670
  74   2.0000      -0.330405        -8.9908
  75   2.0000      -0.324399        -8.8273
  76   2.0000      -0.319794        -8.7020
  77   0.0000       0.077779         2.1165
  78   0.0000       0.102655         2.7934
  79   0.0000       0.117179         3.1886
  80   0.0000       0.129423         3.5218
  81   0.0000       0.130242         3.5441

MULLIKEN ATOMIC CHARGES
-----------------------
   0 C :   -0.289129
   1 C :    0.024737
   2 O :   -0.355585
   3 C :    0.442265
   4 O :   -0.376109
   5 C :   -0.221090
   6 C :    0.158302
   7 C :   -0.346077
   8 N :   -0.130401
   9 C :    0.195371
  10 S :   -0.437972
  11 N :   -0.211368
  12 C :    0.069072
  13 C :    0.013872
  14 C :   -0.187271
  15 C :   -0.135817
  16 C :   -0.273976
  17 C :    0.314471
  18 O :   -0.357276
  19 C :   -0.269691
  20 H :    0.086524
  21 H :    0.109406
  22 H :    0.109172
  23 H :    0.101096
  24 H :    0.121214
  25 H :    0.138008
  26 H :    0.149142
  27 H :    0.115049
  28 H :    0.197200
  29 H :    0.197485
  30 H :    0.163733
  31 H :    0.170736
  32 H :    0.164054
  33 H :    0.132856
  34 H :    0.241317
  35 H :    0.176678
Sum of atomic charges:    0.0000000

LOEWDIN ATOMIC CHARGES
----------------------
   0 C :    0.106894
   1 C :   -0.013130
   2 O :    0.287151
   3 C :   -0.416652
   4 O :    0.133578
   5 C :   -0.087260
   6 C :   -0.088147
   7 C :    0.123867
   8 N :    0.403727
   9 C :   -0.457988
  10 S :   -0.035525
  11 N :    0.397094
  12 C :   -0.044363
  13 C :   -0.044417
  14 C :    0.021118
  15 C :    0.044681
  16 C :   -0.000465
  17 C :   -0.194473
  18 O :    0.395000
  19 C :    0.025632
  20 H :   -0.033985
  21 H :   -0.022555
  22 H :   -0.024475
  23 H :   -0.034750
  24 H :   -0.024839
  25 H :   -0.011351
  26 H :   -0.009783
  27 H :   -0.019089
  28 H :   -0.056606
  29 H :   -0.063573
  30 H :   -0.002670
  31 H :   -0.022067
  32 H :   -0.018575
  33 H :   -0.034640
  34 H :   -0.153033
  35 H :   -0.024329

  Mayer bond orders larger than 0.100000
B(  0-C ,  1-C ) :   0.9757 B(  0-C , 20-H ) :   0.9773 B(  0-C , 21-H ) :   0.9785
B(  0-C , 22-H ) :   0.9758 B(  1-C ,  2-O ) :   0.8964 B(  1-C , 23-H ) :   0.9591
B(  1-C , 24-H ) :   0.9851 B(  2-O ,  3-C ) :   1.1336 B(  3-C ,  4-O ) :   2.0851
B(  3-C ,  5-C ) :   0.9503 B(  5-C ,  6-C ) :   1.6624 B(  5-C , 12-C ) :   0.9567
B(  6-C ,  7-C ) :   0.9528 B(  6-C ,  8-N ) :   1.1241 B(  7-C , 25-H ) :   0.9740
B(  7-C , 26-H ) :   0.9649 B(  7-C , 27-H ) :   0.9689 B(  8-N ,  9-C ) :   1.1905
B(  8-N , 28-H ) :   0.9514 B(  9-C , 10-S ) :   1.6144 B(  9-C , 11-N ) :   1.2918
B( 11-N , 12-C ) :   0.9934 B( 11-N , 29-H ) :   0.9502 B( 12-C , 13-C ) :   0.9479
B( 12-C , 30-H ) :   0.9983 B( 13-C , 14-C ) :   1.3890 B( 13-C , 19-C ) :   1.3422
B( 14-C , 15-C ) :   1.3979 B( 14-C , 31-H ) :   0.9587 B( 15-C , 16-C ) :   1.3637
B( 15-C , 32-H ) :   0.9699 B( 16-C , 17-C ) :   1.3298 B( 16-C , 33-H ) :   0.9841
B( 17-C , 18-O ) :   1.1120 B( 17-C , 19-C ) :   1.3694 B( 18-O , 34-H ) :   0.9794
B( 19-C , 35-H ) :   0.9594

MP2 TOTAL ENERGY:    -1274.327021124 Eh
FINAL SINGLE POINT ENERGY     -1274.327021124001

DIPOLE MOMENT
-------------
                                X             Y             Z
Electronic contribution:     11.12316       5.88990       7.13142
Nuclear contribution   :    -12.47021      -7.01989      -7.45106
                        -----------------------------------------
Total Dipole Moment    :     -1.34705      -1.12999      -0.31964
                        -----------------------------------------
Magnitude (a.u.)       :      1.78706
Magnitude (Debye)      :      4.54235

Rotational constants in cm-1:     0.011375     0.009431     0.006897
Rotational constants in MHz :   341.013142   282.734390   206.768562

                             ****ORCA TERMINATED NORMALLY****
TOTAL RUN TIME: 0 days 2 hours 4 minutes 24 seconds 863 msec
