                         Program Version 4.2.0 -  RELEASE  -
|  1> ! ri-mp2 cc-pvtz cc-pvtz/c TightSCF  NoKeepInts
|  2>
|  3> %scf
|  4>   MaxCore 4096
|  5> end
|  6> *xyz  0  1
|  7>     C       15.3118574   14.1457832   16.8727933
|  8>     C       15.4864522   15.0142596   15.6040222
|  9>     O       16.4837606   16.0514656   15.7579848
| 10>     C       17.5939678   15.9013976   16.5393566
| 11>     O       18.2026760   14.8470519   16.6153951
| 12>     C       17.8562646   17.0512417   17.4671218
| 13>     C       17.3986942   18.3174521   17.2875534
| 14>     C       16.5818789   18.8569672   16.1315429
| 15>     N       17.7368494   19.3145160   18.2083776
| 16>     C       18.6166905   19.1583271   19.2467861
| 17>     S       19.0421744   20.4218229   20.2256241
| 18>     N       19.1252881   17.8980824   19.4338242
| 19>     C       18.6916705   16.6940974   18.7004840
| 20>     C       17.9152163   15.7547839   19.6198406
| 21>     C       18.3072247   14.4109457   19.7621958
| 22>     C       17.5835873   13.5373441   20.5909655
| 23>     C       16.4565724   14.0103742   21.2842091
| 24>     C       16.0604796   15.3471291   21.1424492
| 25>     O       14.9672756   15.8047088   21.8032228
| 26>     C       16.7824365   16.2141408   20.3163929
| 27>     H       16.1567622   13.4614162   17.0170741
| 28>     H       14.4076288   13.5314361   16.7874355
| 29>     H       15.2112950   14.7716027   17.7687425
| 30>     H       15.7758361   14.3570585   14.7734158
| 31>     H       14.5271085   15.4779184   15.3410844
| 32>     H       15.5491977   18.4903526   16.1830266
| 33>     H       17.0064378   18.5377882   15.1714306
| 34>     H       16.5445105   19.9529769   16.1159339
| 35>     H       17.3743350   20.2468698   18.0888143
| 36>     H       19.7476592   17.8027853   20.2259850
| 37>     H       19.5949991   16.1712587   18.3540909
| 38>     H       19.1663268   14.0374335   19.2100884
| 39>     H       17.8938598   12.4983935   20.6868619
| 40>     H       15.8934208   13.3383549   21.9231243
| 41>     H       14.6376412   15.0794581   22.3548374
| 42>     H       16.4589646   17.2450051   20.2219125
| 43> *
| 44>
| 45>                          ****END OF INPUT****

CARTESIAN COORDINATES (ANGSTROEM)
---------------------------------
  C     15.311857   14.145783   16.872793
  C     15.486452   15.014260   15.604022
  O     16.483761   16.051466   15.757985
  C     17.593968   15.901398   16.539357
  O     18.202676   14.847052   16.615395
  C     17.856265   17.051242   17.467122
  C     17.398694   18.317452   17.287553
  C     16.581879   18.856967   16.131543
  N     17.736849   19.314516   18.208378
  C     18.616691   19.158327   19.246786
  S     19.042174   20.421823   20.225624
  N     19.125288   17.898082   19.433824
  C     18.691670   16.694097   18.700484
  C     17.915216   15.754784   19.619841
  C     18.307225   14.410946   19.762196
  C     17.583587   13.537344   20.590965
  C     16.456572   14.010374   21.284209
  C     16.060480   15.347129   21.142449
  O     14.967276   15.804709   21.803223
  C     16.782436   16.214141   20.316393
  H     16.156762   13.461416   17.017074
  H     14.407629   13.531436   16.787436
  H     15.211295   14.771603   17.768742
  H     15.775836   14.357058   14.773416
  H     14.527108   15.477918   15.341084
  H     15.549198   18.490353   16.183027
  H     17.006438   18.537788   15.171431
  H     16.544511   19.952977   16.115934
  H     17.374335   20.246870   18.088814
  H     19.747659   17.802785   20.225985
  H     19.594999   16.171259   18.354091
  H     19.166327   14.037433   19.210088
  H     17.893860   12.498393   20.686862
  H     15.893421   13.338355   21.923124
  H     14.637641   15.079458   22.354837
  H     16.458965   17.245005   20.221912

 Total Charge           Charge          ....    0
 Multiplicity           Mult            ....    1
 Number of Electrons    NEL             ....  154
 Basis Dimension        Dim             ....  828

ORBITAL ENERGIES
----------------

  NO   OCC          E(Eh)            E(eV)
   0   2.0000     -91.888341     -2500.4089
   1   2.0000     -20.594182      -560.3962
   2   2.0000     -20.593062      -560.3657
   3   2.0000     -20.547771      -559.1333
   4   2.0000     -15.628275      -425.2670
   5   2.0000     -15.607408      -424.6992
   6   2.0000     -11.395910      -310.0985
   7   2.0000     -11.383472      -309.7600
   8   2.0000     -11.335254      -308.4479
   9   2.0000     -11.310198      -307.7661
  10   2.0000     -11.306540      -307.6666
  11   2.0000     -11.304080      -307.5997
  12   2.0000     -11.259690      -306.3918
  13   2.0000     -11.258697      -306.3647
  14   2.0000     -11.255640      -306.2815
  15   2.0000     -11.250287      -306.1359
  16   2.0000     -11.239987      -305.8556
  17   2.0000     -11.235900      -305.7444
  18   2.0000     -11.232834      -305.6609
  19   2.0000     -11.224808      -305.4426
  20   2.0000      -8.893409      -242.0020
  21   2.0000      -6.574987      -178.9145
  22   2.0000      -6.572979      -178.8599
  23   2.0000      -6.572394      -178.8439
  24   2.0000      -1.448085       -39.4044
  25   2.0000      -1.413977       -38.4763
  26   2.0000      -1.355330       -36.8804
  27   2.0000      -1.339323       -36.4448
  28   2.0000      -1.237305       -33.6688
  29   2.0000      -1.154513       -31.4159
  30   2.0000      -1.120090       -30.4792
  31   2.0000      -1.042739       -28.3744
  32   2.0000      -1.032136       -28.0859
  33   2.0000      -1.011894       -27.5350
  34   2.0000      -0.998366       -27.1669
  35   2.0000      -0.983872       -26.7725
  36   2.0000      -0.922624       -25.1059
  37   2.0000      -0.896388       -24.3920
  38   2.0000      -0.848139       -23.0790
  39   2.0000      -0.836918       -22.7737
  40   2.0000      -0.830392       -22.5961
  41   2.0000      -0.816964       -22.2307
  42   2.0000      -0.744700       -20.2643
  43   2.0000      -0.731802       -19.9133
  44   2.0000      -0.726390       -19.7661
  45   2.0000      -0.692115       -18.8334
  46   2.0000      -0.685397       -18.6506
  47   2.0000      -0.676808       -18.4169
  48   2.0000      -0.672097       -18.2887
  49   2.0000      -0.659473       -17.9452
  50   2.0000      -0.652742       -17.7620
  51   2.0000      -0.644934       -17.5495
  52   2.0000      -0.633323       -17.2336
  53   2.0000      -0.619969       -16.8702
  54   2.0000      -0.602470       -16.3941
  55   2.0000      -0.601145       -16.3580
  56   2.0000      -0.597801       -16.2670
  57   2.0000      -0.577457       -15.7134
  58   2.0000      -0.574992       -15.6463
  59   2.0000      -0.564014       -15.3476
  60   2.0000      -0.553619       -15.0647
  61   2.0000      -0.545131       -14.8338
  62   2.0000      -0.536370       -14.5954
  63   2.0000      -0.526027       -14.3139
  64   2.0000      -0.518264       -14.1027
  65   2.0000      -0.509938       -13.8761
  66   2.0000      -0.500747       -13.6260
  67   2.0000      -0.496106       -13.4997
  68   2.0000      -0.479529       -13.0487
  69   2.0000      -0.464019       -12.6266
  70   2.0000      -0.456997       -12.4355
  71   2.0000      -0.449487       -12.2312
  72   2.0000      -0.353823        -9.6280
  73   2.0000      -0.346275        -9.4226
  74   2.0000      -0.327579        -8.9139
  75   2.0000      -0.317387        -8.6366
  76   2.0000      -0.315145        -8.5755
  77   0.0000       0.074552         2.0287
  78   0.0000       0.109253         2.9729
  79   0.0000       0.121086         3.2949
  80   0.0000       0.133469         3.6319
  81   0.0000       0.141287         3.8446

MULLIKEN ATOMIC CHARGES
-----------------------
   0 C :   -0.324027
   1 C :    0.057039
   2 O :   -0.369655
   3 C :    0.454825
   4 O :   -0.419969
   5 C :   -0.184323
   6 C :    0.143008
   7 C :   -0.281911
   8 N :   -0.122736
   9 C :    0.203133
  10 S :   -0.439700
  11 N :   -0.201270
  12 C :    0.050087
  13 C :    0.047923
  14 C :   -0.163816
  15 C :   -0.135183
  16 C :   -0.277349
  17 C :    0.314008
  18 O :   -0.360220
  19 C :   -0.279324
  20 H :    0.128095
  21 H :    0.103361
  22 H :    0.103788
  23 H :    0.099526
  24 H :    0.099799
  25 H :    0.124013
  26 H :    0.128070
  27 H :    0.102508
  28 H :    0.196903
  29 H :    0.194380
  30 H :    0.154145
  31 H :    0.156936
  32 H :    0.160776
  33 H :    0.129777
  34 H :    0.240430
  35 H :    0.166955
Sum of atomic charges:   -0.0000000

LOEWDIN ATOMIC CHARGES
----------------------
   0 C :    0.105613
   1 C :   -0.011010
   2 O :    0.291701
   3 C :   -0.416162
   4 O :    0.113857
   5 C :   -0.092716
   6 C :   -0.068307
   7 C :    0.125466
   8 N :    0.404578
   9 C :   -0.458142
  10 S :   -0.036304
  11 N :    0.397663
  12 C :   -0.046017
  13 C :   -0.040150
  14 C :    0.022716
  15 C :    0.041235
  16 C :   -0.002327
  17 C :   -0.193766
  18 O :    0.393487
  19 C :    0.027922
  20 H :   -0.024198
  21 H :   -0.026201
  22 H :   -0.026696
  23 H :   -0.028667
  24 H :   -0.026426
  25 H :   -0.010178
  26 H :   -0.007403
  27 H :   -0.020802
  28 H :   -0.059005
  29 H :   -0.063834
  30 H :   -0.005064
  31 H :   -0.024873
  32 H :   -0.020813
  33 H :   -0.035994
  34 H :   -0.154455
  35 H :   -0.024729

  Mayer bond orders larger than 0.100000
B(  0-C ,  1-C ) :   0.9598 B(  0-C , 20-H ) :   0.9713 B(  0-C , 21-H ) :   0.9761
B(  0-C , 22-H ) :   0.9692 B(  1-C ,  2-O ) :   0.8999 B(  1-C , 23-H ) :   0.9843
B(  1-C , 24-H ) :   0.9822 B(  2-O ,  3-C ) :   1.1179 B(  3-C ,  4-O ) :   2.0021
B(  3-C ,  5-C ) :   1.0381 B(  5-C ,  6-C ) :   1.6570 B(  5-C , 12-C ) :   0.9619
B(  6-C ,  7-C ) :   0.9534 B(  6-C ,  8-N ) :   1.1474 B(  7-C , 25-H ) :   0.9643
B(  7-C , 26-H ) :   0.9666 B(  7-C , 27-H ) :   0.9904 B(  8-N ,  9-C ) :   1.1813
B(  8-N , 28-H ) :   0.9490 B(  9-C , 10-S ) :   1.6102 B(  9-C , 11-N ) :   1.3029
B( 11-N , 12-C ) :   0.9920 B( 11-N , 29-H ) :   0.9516 B( 12-C , 13-C ) :   0.9446
B( 12-C , 30-H ) :   0.9996 B( 13-C , 14-C ) :   1.3784 B( 13-C , 19-C ) :   1.3662
B( 14-C , 15-C ) :   1.3934 B( 14-C , 31-H ) :   0.9632 B( 15-C , 16-C ) :   1.3622
B( 15-C , 32-H ) :   0.9709 B( 16-C , 17-C ) :   1.3318 B( 16-C , 33-H ) :   0.9852
B( 17-C , 18-O ) :   1.1086 B( 17-C , 19-C ) :   1.3730 B( 18-O , 34-H ) :   0.9802
B( 19-C , 35-H ) :   0.9587

MP2 TOTAL ENERGY:    -1274.338352007 Eh
FINAL SINGLE POINT ENERGY     -1274.338352006656

DIPOLE MOMENT
-------------
                                X             Y             Z
Electronic contribution:      9.86541       9.96751       7.50233
Nuclear contribution   :    -11.38367     -11.24059      -8.37205
                        -----------------------------------------
Total Dipole Moment    :     -1.51827      -1.27307      -0.86973
                        -----------------------------------------
Magnitude (a.u.)       :      2.16386
Magnitude (Debye)      :      5.50008

Rotational constants in cm-1:     0.011659     0.009253     0.006406
Rotational constants in MHz :   349.513937   277.383594   192.059140

                             ****ORCA TERMINATED NORMALLY****
TOTAL RUN TIME: 0 days 1 hours 39 minutes 56 seconds 714 msec
