                         Program Version 4.2.0 -  RELEASE  -
|  1> ! ri-mp2 cc-pvtz cc-pvtz/c TightSCF  NoKeepInts
|  2>
|  3> %scf
|  4>   MaxCore 4096
|  5> end
|  6> *xyz  0  1
|  7>     C       15.1533663   14.6259925   17.0317180
|  8>     C       16.4353173   13.9951587   16.4411417
|  9>     O       17.5656875   14.8982915   16.4439679
| 10>     C       17.4118956   16.2236397   16.1536396
| 11>     O       16.7791837   16.5776143   15.1738993
| 12>     C       17.7671409   17.1248040   17.3060637
| 13>     C       17.4811375   18.4522233   17.3069246
| 14>     C       16.7197227   19.2298356   16.2547991
| 15>     N       17.9569404   19.2689896   18.3378355
| 16>     C       18.8786906   18.8812617   19.2742448
| 17>     S       19.5305723   19.9481214   20.3569460
| 18>     N       19.2390279   17.5574562   19.2623065
| 19>     C       18.5619061   16.5120707   18.4725613
| 20>     C       17.6962017   15.6601648   19.3963848
| 21>     C       17.9583936   14.2856790   19.5509099
| 22>     C       17.1680338   13.4976453   20.4043415
| 23>     C       16.1108190   14.0895429   21.1160981
| 24>     C       15.8532138   15.4598363   20.9739001
| 25>     O       14.8328906   16.0342292   21.6590706
| 26>     C       16.6399497   16.2410597   20.1218608
| 27>     H       15.3266167   15.0065951   18.0426845
| 28>     H       14.3590873   13.8724630   17.0922489
| 29>     H       14.7798045   15.4460978   16.4065096
| 30>     H       16.6942344   13.0915647   17.0076529
| 31>     H       16.2251705   13.6905709   15.4072787
| 32>     H       17.2436935   19.1897690   15.2912562
| 33>     H       16.5846050   20.2859707   16.5156808
| 34>     H       15.7224279   18.7977196   16.1027322
| 35>     H       17.7096087   20.2455982   18.3527325
| 36>     H       19.8989895   17.2932902   19.9824387
| 37>     H       19.3428146   15.8691791   18.0424933
| 38>     H       18.7742556   13.8247828   19.0002207
| 39>     H       17.3774346   12.4349627   20.5142869
| 40>     H       15.4982308   13.4854249   21.7773335
| 41>     H       14.4436178   15.3539179   22.2288269
| 42>     H       16.4263174   17.3004770   20.0310100
| 43> *
| 44>
| 45>                          ****END OF INPUT****

CARTESIAN COORDINATES (ANGSTROEM)
---------------------------------
  C     15.153366   14.625993   17.031718
  C     16.435317   13.995159   16.441142
  O     17.565687   14.898291   16.443968
  C     17.411896   16.223640   16.153640
  O     16.779184   16.577614   15.173899
  C     17.767141   17.124804   17.306064
  C     17.481137   18.452223   17.306925
  C     16.719723   19.229836   16.254799
  N     17.956940   19.268990   18.337836
  C     18.878691   18.881262   19.274245
  S     19.530572   19.948121   20.356946
  N     19.239028   17.557456   19.262306
  C     18.561906   16.512071   18.472561
  C     17.696202   15.660165   19.396385
  C     17.958394   14.285679   19.550910
  C     17.168034   13.497645   20.404341
  C     16.110819   14.089543   21.116098
  C     15.853214   15.459836   20.973900
  O     14.832891   16.034229   21.659071
  C     16.639950   16.241060   20.121861
  H     15.326617   15.006595   18.042685
  H     14.359087   13.872463   17.092249
  H     14.779804   15.446098   16.406510
  H     16.694234   13.091565   17.007653
  H     16.225171   13.690571   15.407279
  H     17.243693   19.189769   15.291256
  H     16.584605   20.285971   16.515681
  H     15.722428   18.797720   16.102732
  H     17.709609   20.245598   18.352732
  H     19.898989   17.293290   19.982439
  H     19.342815   15.869179   18.042493
  H     18.774256   13.824783   19.000221
  H     17.377435   12.434963   20.514287
  H     15.498231   13.485425   21.777333
  H     14.443618   15.353918   22.228827
  H     16.426317   17.300477   20.031010

 Total Charge           Charge          ....    0
 Multiplicity           Mult            ....    1
 Number of Electrons    NEL             ....  154
 Basis Dimension        Dim             ....  828

ORBITAL ENERGIES
----------------

  NO   OCC          E(Eh)            E(eV)
   0   2.0000     -91.890640     -2500.4714
   1   2.0000     -20.599199      -560.5327
   2   2.0000     -20.586069      -560.1754
   3   2.0000     -20.545060      -559.0595
   4   2.0000     -15.630951      -425.3398
   5   2.0000     -15.609256      -424.7495
   6   2.0000     -11.394217      -310.0524
   7   2.0000     -11.385217      -309.8075
   8   2.0000     -11.337282      -308.5031
   9   2.0000     -11.316744      -307.9443
  10   2.0000     -11.310987      -307.7876
  11   2.0000     -11.299324      -307.4702
  12   2.0000     -11.262174      -306.4593
  13   2.0000     -11.259810      -306.3950
  14   2.0000     -11.258479      -306.3588
  15   2.0000     -11.253175      -306.2145
  16   2.0000     -11.246314      -306.0278
  17   2.0000     -11.241013      -305.8835
  18   2.0000     -11.240813      -305.8781
  19   2.0000     -11.222153      -305.3703
  20   2.0000      -8.895664      -242.0633
  21   2.0000      -6.577230      -178.9755
  22   2.0000      -6.575236      -178.9213
  23   2.0000      -6.574640      -178.9050
  24   2.0000      -1.446185       -39.3527
  25   2.0000      -1.418948       -38.6115
  26   2.0000      -1.350983       -36.7621
  27   2.0000      -1.341828       -36.5130
  28   2.0000      -1.239951       -33.7408
  29   2.0000      -1.160003       -31.5653
  30   2.0000      -1.121060       -30.5056
  31   2.0000      -1.044521       -28.4229
  32   2.0000      -1.031650       -28.0726
  33   2.0000      -1.018252       -27.7080
  34   2.0000      -0.997657       -27.1476
  35   2.0000      -0.986077       -26.8325
  36   2.0000      -0.924356       -25.1530
  37   2.0000      -0.896511       -24.3953
  38   2.0000      -0.848246       -23.0820
  39   2.0000      -0.841590       -22.9008
  40   2.0000      -0.837003       -22.7760
  41   2.0000      -0.816802       -22.2263
  42   2.0000      -0.747089       -20.3293
  43   2.0000      -0.734117       -19.9763
  44   2.0000      -0.722434       -19.6584
  45   2.0000      -0.698449       -19.0058
  46   2.0000      -0.691247       -18.8098
  47   2.0000      -0.674494       -18.3539
  48   2.0000      -0.669525       -18.2187
  49   2.0000      -0.663166       -18.0457
  50   2.0000      -0.650805       -17.7093
  51   2.0000      -0.643327       -17.5058
  52   2.0000      -0.636000       -17.3064
  53   2.0000      -0.621745       -16.9186
  54   2.0000      -0.609424       -16.5833
  55   2.0000      -0.602304       -16.3895
  56   2.0000      -0.600230       -16.3331
  57   2.0000      -0.579971       -15.7818
  58   2.0000      -0.571522       -15.5519
  59   2.0000      -0.565526       -15.3888
  60   2.0000      -0.549377       -14.9493
  61   2.0000      -0.544434       -14.8148
  62   2.0000      -0.533342       -14.5130
  63   2.0000      -0.530698       -14.4410
  64   2.0000      -0.526989       -14.3401
  65   2.0000      -0.515310       -14.0223
  66   2.0000      -0.503286       -13.6951
  67   2.0000      -0.500071       -13.6076
  68   2.0000      -0.479607       -13.0508
  69   2.0000      -0.464197       -12.6314
  70   2.0000      -0.454144       -12.3579
  71   2.0000      -0.443569       -12.0701
  72   2.0000      -0.356614        -9.7040
  73   2.0000      -0.351574        -9.5668
  74   2.0000      -0.329914        -8.9774
  75   2.0000      -0.325062        -8.8454
  76   2.0000      -0.317488        -8.6393
  77   0.0000       0.069685         1.8962
  78   0.0000       0.104027         2.8307
  79   0.0000       0.122800         3.3415
  80   0.0000       0.129757         3.5309
  81   0.0000       0.135223         3.6796

MULLIKEN ATOMIC CHARGES
-----------------------
   0 C :   -0.333739
   1 C :    0.033603
   2 O :   -0.392259
   3 C :    0.494192
   4 O :   -0.422814
   5 C :   -0.226445
   6 C :    0.146351
   7 C :   -0.271296
   8 N :   -0.123066
   9 C :    0.201551
  10 S :   -0.434578
  11 N :   -0.196119
  12 C :    0.037370
  13 C :    0.038876
  14 C :   -0.177196
  15 C :   -0.136600
  16 C :   -0.270042
  17 C :    0.304128
  18 O :   -0.359001
  19 C :   -0.254387
  20 H :    0.114069
  21 H :    0.106926
  22 H :    0.119699
  23 H :    0.112411
  24 H :    0.121614
  25 H :    0.134312
  26 H :    0.094972
  27 H :    0.129852
  28 H :    0.198493
  29 H :    0.191916
  30 H :    0.152741
  31 H :    0.160017
  32 H :    0.163161
  33 H :    0.132652
  34 H :    0.240838
  35 H :    0.167795
Sum of atomic charges:   -0.0000000

LOEWDIN ATOMIC CHARGES
----------------------
   0 C :    0.107204
   1 C :   -0.013072
   2 O :    0.285507
   3 C :   -0.419114
   4 O :    0.110103
   5 C :   -0.096758
   6 C :   -0.057516
   7 C :    0.131348
   8 N :    0.406787
   9 C :   -0.458460
  10 S :   -0.032166
  11 N :    0.396678
  12 C :   -0.052230
  13 C :   -0.040041
  14 C :    0.016993
  15 C :    0.039498
  16 C :   -0.001522
  17 C :   -0.191456
  18 O :    0.396551
  19 C :    0.031247
  20 H :   -0.030041
  21 H :   -0.024076
  22 H :   -0.027597
  23 H :   -0.026034
  24 H :   -0.028381
  25 H :   -0.003127
  26 H :   -0.023279
  27 H :   -0.005658
  28 H :   -0.057581
  29 H :   -0.064871
  30 H :   -0.007320
  31 H :   -0.028524
  32 H :   -0.020764
  33 H :   -0.034925
  34 H :   -0.153337
  35 H :   -0.024065

  Mayer bond orders larger than 0.100000
B(  0-C ,  1-C ) :   0.9555 B(  0-C , 20-H ) :   0.9681 B(  0-C , 21-H ) :   0.9778
B(  0-C , 22-H ) :   0.9731 B(  1-C ,  2-O ) :   0.8824 B(  1-C , 23-H ) :   0.9800
B(  1-C , 24-H ) :   0.9864 B(  2-O ,  3-C ) :   1.1116 B(  3-C ,  4-O ) :   1.9941
B(  3-C ,  5-C ) :   1.0636 B(  5-C ,  6-C ) :   1.6542 B(  5-C , 12-C ) :   0.9685
B(  6-C ,  7-C ) :   0.9692 B(  6-C ,  8-N ) :   1.1515 B(  7-C , 25-H ) :   0.9579
B(  7-C , 26-H ) :   0.9894 B(  7-C , 27-H ) :   0.9632 B(  8-N ,  9-C ) :   1.1785
B(  8-N , 28-H ) :   0.9482 B(  9-C , 10-S ) :   1.6175 B(  9-C , 11-N ) :   1.3004
B( 11-N , 12-C ) :   0.9864 B( 11-N , 29-H ) :   0.9535 B( 12-C , 13-C ) :   0.9373
B( 12-C , 30-H ) :   1.0030 B( 13-C , 14-C ) :   1.3629 B( 13-C , 19-C ) :   1.3754
B( 14-C , 15-C ) :   1.3819 B( 14-C , 31-H ) :   0.9685 B( 15-C , 16-C ) :   1.3663
B( 15-C , 32-H ) :   0.9703 B( 16-C , 17-C ) :   1.3305 B( 16-C , 33-H ) :   0.9839
B( 17-C , 18-O ) :   1.1127 B( 17-C , 19-C ) :   1.3761 B( 18-O , 34-H ) :   0.9796
B( 19-C , 35-H ) :   0.9581

MP2 TOTAL ENERGY:    -1274.336328414 Eh
FINAL SINGLE POINT ENERGY     -1274.336328414139

DIPOLE MOMENT
-------------
                                X             Y             Z
Electronic contribution:     10.07551       8.92602       5.94553
Nuclear contribution   :    -11.15002     -10.57126      -5.97219
                        -----------------------------------------
Total Dipole Moment    :     -1.07451      -1.64524      -0.02666
                        -----------------------------------------
Magnitude (a.u.)       :      1.96522
Magnitude (Debye)      :      4.99520

Rotational constants in cm-1:     0.012104     0.009478     0.006569
Rotational constants in MHz :   362.869987   284.136166   196.938860

                             ****ORCA TERMINATED NORMALLY****
TOTAL RUN TIME: 0 days 1 hours 46 minutes 55 seconds 960 msec
