                         Program Version 5.0.0 -  RELEASE  -
|  1> ! ri-mp2 cc-pvtz cc-pvtz/c TightSCF NoKeepInts
|  2>
|  3> %scf
|  4>   MaxCore 4096
|  5> end
|  6> *xyz  0  1
|  7>     C       15.0400208   14.8304608   16.7624073
|  8>     C       16.4163817   14.1263753   16.7897429
|  9>     O       17.5029272   14.9497625   16.2924480
| 10>     C       17.3739793   16.2963773   16.0962918
| 11>     O       16.8326141   16.7193203   15.0905573
| 12>     C       17.7224209   17.1419742   17.2928708
| 13>     C       17.4009786   18.4599154   17.3640012
| 14>     C       16.5860919   19.2640493   16.3736773
| 15>     N       17.8774966   19.2395565   18.4227272
| 16>     C       18.8443149   18.8387844   19.3063920
| 17>     S       19.5052569   19.8742100   20.4139698
| 18>     N       19.2512999   17.5323130   19.2102307
| 19>     C       18.5659484   16.5017794   18.4098623
| 20>     C       17.7650247   15.6115844   19.3531494
| 21>     C       18.2928259   14.3744125   19.7694024
| 22>     C       17.5687720   13.5455522   20.6428634
| 23>     C       16.3104914   13.9601803   21.1113648
| 24>     C       15.7902243   15.1992661   20.7140287
| 25>     O       14.5776324   15.6050531   21.1668835
| 26>     C       16.5130412   16.0224708   19.8454621
| 27>     H       15.0293317   15.7230055   17.3990999
| 28>     H       14.2622388   14.1509534   17.1311212
| 29>     H       14.7696731   15.1235645   15.7398111
| 30>     H       16.6261620   13.8040099   17.8146797
| 31>     H       16.3599508   13.2164670   16.1785287
| 32>     H       15.6221640   18.7769252   16.1789764
| 33>     H       17.1131822   19.3397077   15.4138051
| 34>     H       16.3750314   20.2828562   16.7190286
| 35>     H       17.6017299   20.2061614   18.4924178
| 36>     H       19.9503192   17.2590978   19.8887821
| 37>     H       19.3376316   15.8846615   17.9279218
| 38>     H       19.2662606   14.0511833   19.4095520
| 39>     H       17.9838913   12.5888913   20.9562708
| 40>     H       15.7477902   13.3236485   21.7866091
| 41>     H       14.2675486   14.9443412   21.8047620
| 42>     H       16.0963517   16.9831279   19.5643007
| 43> *
| 44>
| 45>                          ****END OF INPUT****

CARTESIAN COORDINATES (ANGSTROEM)
---------------------------------
  C     15.040021   14.830461   16.762407
  C     16.416382   14.126375   16.789743
  O     17.502927   14.949762   16.292448
  C     17.373979   16.296377   16.096292
  O     16.832614   16.719320   15.090557
  C     17.722421   17.141974   17.292871
  C     17.400979   18.459915   17.364001
  C     16.586092   19.264049   16.373677
  N     17.877497   19.239556   18.422727
  C     18.844315   18.838784   19.306392
  S     19.505257   19.874210   20.413970
  N     19.251300   17.532313   19.210231
  C     18.565948   16.501779   18.409862
  C     17.765025   15.611584   19.353149
  C     18.292826   14.374412   19.769402
  C     17.568772   13.545552   20.642863
  C     16.310491   13.960180   21.111365
  C     15.790224   15.199266   20.714029
  O     14.577632   15.605053   21.166883
  C     16.513041   16.022471   19.845462
  H     15.029332   15.723005   17.399100
  H     14.262239   14.150953   17.131121
  H     14.769673   15.123565   15.739811
  H     16.626162   13.804010   17.814680
  H     16.359951   13.216467   16.178529
  H     15.622164   18.776925   16.178976
  H     17.113182   19.339708   15.413805
  H     16.375031   20.282856   16.719029
  H     17.601730   20.206161   18.492418
  H     19.950319   17.259098   19.888782
  H     19.337632   15.884661   17.927922
  H     19.266261   14.051183   19.409552
  H     17.983891   12.588891   20.956271
  H     15.747790   13.323648   21.786609
  H     14.267549   14.944341   21.804762
  H     16.096352   16.983128   19.564301

 Total Charge           Charge          ....    0
 Multiplicity           Mult            ....    1
 Number of Electrons    NEL             ....  154
 Basis Dimension        Dim             ....  828

ORBITAL ENERGIES
----------------

  NO   OCC          E(Eh)            E(eV)
   0   2.0000     -91.891010     -2500.4815
   1   2.0000     -20.603636      -560.6534
   2   2.0000     -20.579202      -559.9885
   3   2.0000     -20.546108      -559.0880
   4   2.0000     -15.631521      -425.3553
   5   2.0000     -15.610015      -424.7701
   6   2.0000     -11.392857      -310.0154
   7   2.0000     -11.385593      -309.8177
   8   2.0000     -11.337762      -308.5162
   9   2.0000     -11.321207      -308.0657
  10   2.0000     -11.312633      -307.8324
  11   2.0000     -11.297301      -307.4152
  12   2.0000     -11.265795      -306.5579
  13   2.0000     -11.262473      -306.4675
  14   2.0000     -11.259263      -306.3801
  15   2.0000     -11.253801      -306.2315
  16   2.0000     -11.250002      -306.1281
  17   2.0000     -11.244541      -305.9795
  18   2.0000     -11.244487      -305.9780
  19   2.0000     -11.225817      -305.4700
  20   2.0000      -8.896031      -242.0733
  21   2.0000      -6.577596      -178.9855
  22   2.0000      -6.575603      -178.9312
  23   2.0000      -6.575007      -178.9150
  24   2.0000      -1.441006       -39.2118
  25   2.0000      -1.423243       -38.7284
  26   2.0000      -1.349078       -36.7103
  27   2.0000      -1.342722       -36.5373
  28   2.0000      -1.241247       -33.7760
  29   2.0000      -1.163783       -31.6682
  30   2.0000      -1.121804       -30.5259
  31   2.0000      -1.047356       -28.5000
  32   2.0000      -1.030047       -28.0290
  33   2.0000      -1.022253       -27.8169
  34   2.0000      -0.999746       -27.2045
  35   2.0000      -0.986803       -26.8523
  36   2.0000      -0.926319       -25.2064
  37   2.0000      -0.894616       -24.3437
  38   2.0000      -0.850003       -23.1298
  39   2.0000      -0.844909       -22.9912
  40   2.0000      -0.839960       -22.8565
  41   2.0000      -0.822666       -22.3859
  42   2.0000      -0.745776       -20.2936
  43   2.0000      -0.736242       -20.0342
  44   2.0000      -0.716903       -19.5079
  45   2.0000      -0.702202       -19.1079
  46   2.0000      -0.692282       -18.8380
  47   2.0000      -0.673569       -18.3288
  48   2.0000      -0.670463       -18.2442
  49   2.0000      -0.660431       -17.9712
  50   2.0000      -0.655345       -17.8328
  51   2.0000      -0.647390       -17.6164
  52   2.0000      -0.637899       -17.3581
  53   2.0000      -0.626060       -17.0360
  54   2.0000      -0.614166       -16.7123
  55   2.0000      -0.605206       -16.4685
  56   2.0000      -0.602131       -16.3848
  57   2.0000      -0.583310       -15.8727
  58   2.0000      -0.572967       -15.5912
  59   2.0000      -0.567239       -15.4354
  60   2.0000      -0.544779       -14.8242
  61   2.0000      -0.541448       -14.7335
  62   2.0000      -0.536642       -14.6028
  63   2.0000      -0.532026       -14.4772
  64   2.0000      -0.527853       -14.3636
  65   2.0000      -0.516227       -14.0472
  66   2.0000      -0.506627       -13.7860
  67   2.0000      -0.493433       -13.4270
  68   2.0000      -0.484423       -13.1818
  69   2.0000      -0.464881       -12.6501
  70   2.0000      -0.452671       -12.3178
  71   2.0000      -0.441408       -12.0113
  72   2.0000      -0.358099        -9.7444
  73   2.0000      -0.356336        -9.6964
  74   2.0000      -0.331865        -9.0305
  75   2.0000      -0.327575        -8.9138
  76   2.0000      -0.318109        -8.6562
  77   0.0000       0.069475         1.8905
  78   0.0000       0.101530         2.7628
  79   0.0000       0.120587         3.2813
  80   0.0000       0.126560         3.4439
  81   0.0000       0.130753         3.5580

MULLIKEN ATOMIC CHARGES
-----------------------
   0 C :   -0.325842
   1 C :    0.035023
   2 O :   -0.397125
   3 C :    0.516291
   4 O :   -0.406394
   5 C :   -0.292285
   6 C :    0.159470
   7 C :   -0.271530
   8 N :   -0.123549
   9 C :    0.215351
  10 S :   -0.437626
  11 N :   -0.204119
  12 C :    0.055735
  13 C :    0.059953
  14 C :   -0.188070
  15 C :   -0.130710
  16 C :   -0.274777
  17 C :    0.320755
  18 O :   -0.358028
  19 C :   -0.285540
  20 H :    0.096975
  21 H :    0.110381
  22 H :    0.127735
  23 H :    0.108736
  24 H :    0.118870
  25 H :    0.127600
  26 H :    0.137810
  27 H :    0.094742
  28 H :    0.198378
  29 H :    0.192618
  30 H :    0.151322
  31 H :    0.149756
  32 H :    0.163501
  33 H :    0.133734
  34 H :    0.242733
  35 H :    0.178127
Sum of atomic charges:   -0.0000000

LOEWDIN ATOMIC CHARGES
----------------------
   0 C :    0.105099
   1 C :   -0.008761
   2 O :    0.276803
   3 C :   -0.422372
   4 O :    0.120819
   5 C :   -0.099802
   6 C :   -0.059177
   7 C :    0.130917
   8 N :    0.407605
   9 C :   -0.455205
  10 S :   -0.032773
  11 N :    0.396259
  12 C :   -0.052978
  13 C :   -0.037129
  14 C :    0.011847
  15 C :    0.042146
  16 C :   -0.001194
  17 C :   -0.189344
  18 O :    0.396669
  19 C :    0.032721
  20 H :   -0.033034
  21 H :   -0.022752
  22 H :   -0.024183
  23 H :   -0.033838
  24 H :   -0.025691
  25 H :   -0.006278
  26 H :   -0.002431
  27 H :   -0.023188
  28 H :   -0.057310
  29 H :   -0.065962
  30 H :   -0.006248
  31 H :   -0.029445
  32 H :   -0.019344
  33 H :   -0.034075
  34 H :   -0.152017
  35 H :   -0.026354

  Mayer bond orders larger than 0.100000
B(  0-C ,  1-C ) :   0.9676 B(  0-C , 20-H ) :   0.9716 B(  0-C , 21-H ) :   0.9748
B(  0-C , 22-H ) :   0.9710 B(  1-C ,  2-O ) :   0.8894 B(  1-C , 23-H ) :   0.9690
B(  1-C , 24-H ) :   0.9838 B(  2-O ,  3-C ) :   1.0957 B(  3-C ,  4-O ) :   2.0209
B(  3-C ,  5-C ) :   1.0542 B(  5-C ,  6-C ) :   1.6471 B(  5-C , 12-C ) :   0.9726
B(  6-C ,  7-C ) :   0.9705 B(  6-C ,  8-N ) :   1.1589 B(  7-C , 25-H ) :   0.9642
B(  7-C , 26-H ) :   0.9563 B(  7-C , 27-H ) :   0.9883 B(  8-N ,  9-C ) :   1.1804
B(  8-N , 28-H ) :   0.9482 B(  9-C , 10-S ) :   1.6094 B(  9-C , 11-N ) :   1.3046
B( 11-N , 12-C ) :   0.9615 B( 11-N , 29-H ) :   0.9537 B( 12-C , 13-C ) :   0.9518
B( 12-C , 30-H ) :   1.0009 B( 13-C , 14-C ) :   1.3435 B( 13-C , 19-C ) :   1.3600
B( 14-C , 15-C ) :   1.3971 B( 14-C , 31-H ) :   0.9749 B( 15-C , 16-C ) :   1.3630
B( 15-C , 32-H ) :   0.9699 B( 16-C , 17-C ) :   1.3302 B( 16-C , 33-H ) :   0.9836
B( 17-C , 18-O ) :   1.1134 B( 17-C , 19-C ) :   1.3669 B( 18-O , 34-H ) :   0.9789
B( 19-C , 35-H ) :   0.9531

MP2 TOTAL ENERGY:    -1274.329960189 Eh
FINAL SINGLE POINT ENERGY     -1274.329960189342

DIPOLE MOMENT
-------------
                                X             Y             Z
Electronic contribution:      9.97059       8.15664       5.35440
Nuclear contribution   :    -11.06276      -9.73541      -4.97952
                        -----------------------------------------
Total Dipole Moment    :     -1.09217      -1.57877       0.37488
                        -----------------------------------------
Magnitude (a.u.)       :      1.95599
Magnitude (Debye)      :      4.97172

Rotational constants in cm-1:     0.012061     0.009482     0.006719
Rotational constants in MHz :   361.577083   284.269011   201.420109

                             ****ORCA TERMINATED NORMALLY****
TOTAL RUN TIME: 0 days 2 hours 28 minutes 44 seconds 233 msec
