                         Program Version 5.0.0 -  RELEASE  -
|  1> ! ri-mp2 cc-pvtz cc-pvtz/c TightSCF NoKeepInts
|  2>
|  3> %scf
|  4>   MaxCore 4096
|  5> end
|  6> *xyz  0  1
|  7>     C       14.5024367   14.5178110   16.3883174
|  8>     C       15.6017780   15.4472899   16.9267040
|  9>     O       16.8364217   15.0481529   16.3009819
| 10>     C       18.0579716   15.5819224   16.6271504
| 11>     O       19.0535526   14.8836719   16.5787461
| 12>     C       18.0403394   16.8386415   17.4355343
| 13>     C       17.5269247   18.0011156   16.9695420
| 14>     C       16.9362009   18.2557015   15.5985871
| 15>     N       17.6047730   19.1571430   17.7490349
| 16>     C       18.2741585   19.2492423   18.9418588
| 17>     S       18.3735287   20.6748911   19.7732986
| 18>     N       18.8561541   18.0979486   19.4137649
| 19>     C       18.7283575   16.7619539   18.7975560
| 20>     C       17.9883930   15.7910144   19.7127416
| 21>     C       18.4328157   14.4618873   19.8355598
| 22>     C       17.7436947   13.5481158   20.6499605
| 23>     C       16.5969065   13.9648052   21.3467427
| 24>     C       16.1465304   15.2857513   21.2224490
| 25>     O       15.0308831   15.6877513   21.8812092
| 26>     C       16.8337296   16.1934509   20.4101741
| 27>     H       14.7380804   13.4706979   16.6171993
| 28>     H       14.4065674   14.6200241   15.3001916
| 29>     H       13.5347311   14.7592665   16.8445563
| 30>     H       15.3389999   16.4847829   16.6976196
| 31>     H       15.6719875   15.3305225   18.0161124
| 32>     H       16.9742954   17.3700414   14.9526127
| 33>     H       17.4917213   19.0472551   15.0793673
| 34>     H       15.8882730   18.5720506   15.6695881
| 35>     H       17.2021033   20.0175045   17.4114291
| 36>     H       19.3280595   18.1923581   20.3044083
| 37>     H       19.7440064   16.3708279   18.6361597
| 38>     H       19.3092580   14.1309746   19.2818339
| 39>     H       18.0963082   12.5212483   20.7319588
| 40>     H       16.0601779   13.2606751   21.9740461
| 41>     H       14.7342960   14.9459383   22.4302293
| 42>     H       16.4625841   17.2095703   20.3267743
| 43> *
| 44>
| 45>                          ****END OF INPUT****

CARTESIAN COORDINATES (ANGSTROEM)
---------------------------------
  C     14.502437   14.517811   16.388317
  C     15.601778   15.447290   16.926704
  O     16.836422   15.048153   16.300982
  C     18.057972   15.581922   16.627150
  O     19.053553   14.883672   16.578746
  C     18.040339   16.838642   17.435534
  C     17.526925   18.001116   16.969542
  C     16.936201   18.255702   15.598587
  N     17.604773   19.157143   17.749035
  C     18.274158   19.249242   18.941859
  S     18.373529   20.674891   19.773299
  N     18.856154   18.097949   19.413765
  C     18.728358   16.761954   18.797556
  C     17.988393   15.791014   19.712742
  C     18.432816   14.461887   19.835560
  C     17.743695   13.548116   20.649960
  C     16.596906   13.964805   21.346743
  C     16.146530   15.285751   21.222449
  O     15.030883   15.687751   21.881209
  C     16.833730   16.193451   20.410174
  H     14.738080   13.470698   16.617199
  H     14.406567   14.620024   15.300192
  H     13.534731   14.759267   16.844556
  H     15.339000   16.484783   16.697620
  H     15.671987   15.330523   18.016112
  H     16.974295   17.370041   14.952613
  H     17.491721   19.047255   15.079367
  H     15.888273   18.572051   15.669588
  H     17.202103   20.017505   17.411429
  H     19.328059   18.192358   20.304408
  H     19.744006   16.370828   18.636160
  H     19.309258   14.130975   19.281834
  H     18.096308   12.521248   20.731959
  H     16.060178   13.260675   21.974046
  H     14.734296   14.945938   22.430229
  H     16.462584   17.209570   20.326774

 Total Charge           Charge          ....    0
 Multiplicity           Mult            ....    1
 Number of Electrons    NEL             ....  154
 Basis Dimension        Dim             ....  828

ORBITAL ENERGIES
----------------

  NO   OCC          E(Eh)            E(eV)
   0   2.0000     -91.890520     -2500.4682
   1   2.0000     -20.600079      -560.5566
   2   2.0000     -20.599497      -560.5408
   3   2.0000     -20.550874      -559.2177
   4   2.0000     -15.627793      -425.2539
   5   2.0000     -15.611820      -424.8192
   6   2.0000     -11.397454      -310.1405
   7   2.0000     -11.387228      -309.8622
   8   2.0000     -11.331153      -308.3364
   9   2.0000     -11.317043      -307.9524
  10   2.0000     -11.314705      -307.8888
  11   2.0000     -11.302535      -307.5576
  12   2.0000     -11.269493      -306.6585
  13   2.0000     -11.264931      -306.5344
  14   2.0000     -11.263761      -306.5025
  15   2.0000     -11.257146      -306.3225
  16   2.0000     -11.246393      -306.0299
  17   2.0000     -11.242302      -305.9186
  18   2.0000     -11.239374      -305.8389
  19   2.0000     -11.232891      -305.6625
  20   2.0000      -8.895629      -242.0624
  21   2.0000      -6.577215      -178.9751
  22   2.0000      -6.575191      -178.9200
  23   2.0000      -6.574614      -178.9043
  24   2.0000      -1.448487       -39.4153
  25   2.0000      -1.419911       -38.6377
  26   2.0000      -1.360023       -37.0081
  27   2.0000      -1.340933       -36.4886
  28   2.0000      -1.240463       -33.7547
  29   2.0000      -1.161668       -31.6106
  30   2.0000      -1.125908       -30.6375
  31   2.0000      -1.049305       -28.5530
  32   2.0000      -1.039977       -28.2992
  33   2.0000      -1.019264       -27.7356
  34   2.0000      -1.005553       -27.3625
  35   2.0000      -0.989704       -26.9312
  36   2.0000      -0.928199       -25.2576
  37   2.0000      -0.879704       -23.9380
  38   2.0000      -0.856133       -23.2966
  39   2.0000      -0.842690       -22.9308
  40   2.0000      -0.837608       -22.7925
  41   2.0000      -0.836638       -22.7661
  42   2.0000      -0.757191       -20.6042
  43   2.0000      -0.740109       -20.1394
  44   2.0000      -0.732218       -19.9247
  45   2.0000      -0.697652       -18.9841
  46   2.0000      -0.688496       -18.7349
  47   2.0000      -0.681985       -18.5578
  48   2.0000      -0.677279       -18.4297
  49   2.0000      -0.664170       -18.0730
  50   2.0000      -0.655070       -17.8254
  51   2.0000      -0.650990       -17.7143
  52   2.0000      -0.640315       -17.4239
  53   2.0000      -0.612085       -16.6557
  54   2.0000      -0.608034       -16.5454
  55   2.0000      -0.603998       -16.4356
  56   2.0000      -0.596405       -16.2290
  57   2.0000      -0.586426       -15.9575
  58   2.0000      -0.578249       -15.7350
  59   2.0000      -0.569372       -15.4934
  60   2.0000      -0.563318       -15.3287
  61   2.0000      -0.557775       -15.1778
  62   2.0000      -0.550400       -14.9771
  63   2.0000      -0.526474       -14.3261
  64   2.0000      -0.521413       -14.1884
  65   2.0000      -0.515910       -14.0386
  66   2.0000      -0.503668       -13.7055
  67   2.0000      -0.502699       -13.6791
  68   2.0000      -0.489763       -13.3271
  69   2.0000      -0.469529       -12.7765
  70   2.0000      -0.455749       -12.4016
  71   2.0000      -0.450677       -12.2635
  72   2.0000      -0.357984        -9.7412
  73   2.0000      -0.351926        -9.5764
  74   2.0000      -0.330141        -8.9836
  75   2.0000      -0.325022        -8.8443
  76   2.0000      -0.319117        -8.6836
  77   0.0000       0.083293         2.2665
  78   0.0000       0.104587         2.8460
  79   0.0000       0.113428         3.0865
  80   0.0000       0.128630         3.5002
  81   0.0000       0.130859         3.5609

MULLIKEN ATOMIC CHARGES
-----------------------
   0 C :   -0.260679
   1 C :    0.019230
   2 O :   -0.310870
   3 C :    0.399122
   4 O :   -0.381225
   5 C :   -0.185866
   6 C :    0.132410
   7 C :   -0.323900
   8 N :   -0.135969
   9 C :    0.202190
  10 S :   -0.439933
  11 N :   -0.215234
  12 C :    0.073453
  13 C :    0.020123
  14 C :   -0.195536
  15 C :   -0.132973
  16 C :   -0.274764
  17 C :    0.323857
  18 O :   -0.358637
  19 C :   -0.284655
  20 H :    0.107562
  21 H :    0.098419
  22 H :    0.089711
  23 H :    0.084054
  24 H :    0.117236
  25 H :    0.128507
  26 H :    0.141445
  27 H :    0.118252
  28 H :    0.195960
  29 H :    0.198767
  30 H :    0.164730
  31 H :    0.170564
  32 H :    0.164205
  33 H :    0.132818
  34 H :    0.241574
  35 H :    0.176052
Sum of atomic charges:    0.0000000

LOEWDIN ATOMIC CHARGES
----------------------
   0 C :    0.112041
   1 C :   -0.024362
   2 O :    0.303514
   3 C :   -0.415265
   4 O :    0.124739
   5 C :   -0.082566
   6 C :   -0.099823
   7 C :    0.123460
   8 N :    0.401988
   9 C :   -0.456313
  10 S :   -0.036899
  11 N :    0.397262
  12 C :   -0.044185
  13 C :   -0.044633
  14 C :    0.021672
  15 C :    0.045483
  16 C :   -0.000348
  17 C :   -0.194801
  18 O :    0.394874
  19 C :    0.026417
  20 H :   -0.022460
  21 H :   -0.026994
  22 H :   -0.024862
  23 H :   -0.038681
  24 H :   -0.029008
  25 H :   -0.008075
  26 H :   -0.009359
  27 H :   -0.018025
  28 H :   -0.057297
  29 H :   -0.063640
  30 H :   -0.002317
  31 H :   -0.021603
  32 H :   -0.018265
  33 H :   -0.034519
  34 H :   -0.152872
  35 H :   -0.024275

  Mayer bond orders larger than 0.100000
B(  0-C ,  1-C ) :   0.9852 B(  0-C , 20-H ) :   0.9785 B(  0-C , 21-H ) :   0.9790
B(  0-C , 22-H ) :   0.9769 B(  1-C ,  2-O ) :   0.9074 B(  1-C , 23-H ) :   0.9682
B(  1-C , 24-H ) :   0.9657 B(  2-O ,  3-C ) :   1.1887 B(  3-C ,  4-O ) :   2.0953
B(  3-C ,  5-C ) :   0.9229 B(  5-C ,  6-C ) :   1.6835 B(  5-C , 12-C ) :   0.9591
B(  6-C ,  7-C ) :   0.9422 B(  6-C ,  8-N ) :   1.1198 B(  7-C , 25-H ) :   0.9797
B(  7-C , 26-H ) :   0.9678 B(  7-C , 27-H ) :   0.9671 B(  8-N ,  9-C ) :   1.1940
B(  8-N , 28-H ) :   0.9522 B(  9-C , 10-S ) :   1.6118 B(  9-C , 11-N ) :   1.2890
B( 11-N , 12-C ) :   0.9953 B( 11-N , 29-H ) :   0.9490 B( 12-C , 13-C ) :   0.9416
B( 12-C , 30-H ) :   0.9974 B( 13-C , 14-C ) :   1.3881 B( 13-C , 19-C ) :   1.3471
B( 14-C , 15-C ) :   1.3966 B( 14-C , 31-H ) :   0.9598 B( 15-C , 16-C ) :   1.3639
B( 15-C , 32-H ) :   0.9698 B( 16-C , 17-C ) :   1.3291 B( 16-C , 33-H ) :   0.9843
B( 17-C , 18-O ) :   1.1092 B( 17-C , 19-C ) :   1.3642 B( 18-O , 34-H ) :   0.9791
B( 19-C , 35-H ) :   0.9592

MP2 TOTAL ENERGY:    -1274.334738630 Eh
FINAL SINGLE POINT ENERGY     -1274.334738630331

DIPOLE MOMENT
-------------
                                X             Y             Z
Electronic contribution:     10.81894       8.31566       7.53388
Nuclear contribution   :    -12.32776      -9.34594      -7.88160
                        -----------------------------------------
Total Dipole Moment    :     -1.50883      -1.03029      -0.34772
                        -----------------------------------------
Magnitude (a.u.)       :      1.85983
Magnitude (Debye)      :      4.72731

Rotational constants in cm-1:     0.011563     0.009146     0.006708
Rotational constants in MHz :   346.653016   274.201591   201.091916

                             ****ORCA TERMINATED NORMALLY****
TOTAL RUN TIME: 0 days 2 hours 14 minutes 32 seconds 419 msec
