                         Program Version 4.2.0 -  RELEASE  -
|  1> ! ri-mp2 cc-pvtz cc-pvtz/c TightSCF  NoKeepInts
|  2>
|  3> %scf
|  4>   MaxCore 4096
|  5> end
|  6> *xyz  0  1
|  7>     C       15.0527339   13.8193072   15.9149835
|  8>     C       15.3289231   15.0755810   16.7596696
|  9>     O       16.3305754   15.8565353   16.0841970
| 10>     C       17.6064420   15.7904180   16.5602279
| 11>     O       18.1508437   14.7126063   16.7307726
| 12>     C       17.9289432   16.9657152   17.4312719
| 13>     C       17.5254957   18.2320120   17.1615082
| 14>     C       16.7396136   18.7063126   15.9570928
| 15>     N       17.9017672   19.2771993   18.0103460
| 16>     C       18.7764485   19.1560884   19.0584701
| 17>     S       19.2536268   20.4649626   19.9497034
| 18>     N       19.2354625   17.8915844   19.3319629
| 19>     C       18.7523849   16.6568167   18.6844158
| 20>     C       17.9367464   15.8186725   19.6653413
| 21>     C       18.2682351   14.4716150   19.9000212
| 22>     C       17.5076615   13.6904133   20.7860058
| 23>     C       16.4041323   14.2599190   21.4436164
| 24>     C       16.0678556   15.6000147   21.2096057
| 25>     O       14.9964648   16.1502079   21.8342905
| 26>     C       16.8260198   16.3746855   20.3262185
| 27>     H       15.9567888   13.2021789   15.8345307
| 28>     H       14.7307358   14.0946489   14.9031677
| 29>     H       14.2644827   13.2114713   16.3750727
| 30>     H       14.4042431   15.6605658   16.8441985
| 31>     H       15.6524197   14.7962216   17.7728590
| 32>     H       17.0769405   18.2013609   15.0431656
| 33>     H       16.8478503   19.7841647   15.7849291
| 34>     H       15.6711641   18.4913829   16.0828075
| 35>     H       17.5765487   20.2128306   17.8254144
| 36>     H       19.8562628   17.8270273   20.1285497
| 37>     H       19.6315147   16.0730630   18.3750278
| 38>     H       19.1090272   14.0229709   19.3762461
| 39>     H       17.7716833   12.6477113   20.9538706
| 40>     H       15.8128862   13.6592323   22.1268253
| 41>     H       14.6448626   15.4861800   22.4464176
| 42>     H       16.5492133   17.4103229   20.1611966
| 43> *
| 44>
| 45>                          ****END OF INPUT****

CARTESIAN COORDINATES (ANGSTROEM)
---------------------------------
  C     15.052734   13.819307   15.914983
  C     15.328923   15.075581   16.759670
  O     16.330575   15.856535   16.084197
  C     17.606442   15.790418   16.560228
  O     18.150844   14.712606   16.730773
  C     17.928943   16.965715   17.431272
  C     17.525496   18.232012   17.161508
  C     16.739614   18.706313   15.957093
  N     17.901767   19.277199   18.010346
  C     18.776449   19.156088   19.058470
  S     19.253627   20.464963   19.949703
  N     19.235462   17.891584   19.331963
  C     18.752385   16.656817   18.684416
  C     17.936746   15.818672   19.665341
  C     18.268235   14.471615   19.900021
  C     17.507662   13.690413   20.786006
  C     16.404132   14.259919   21.443616
  C     16.067856   15.600015   21.209606
  O     14.996465   16.150208   21.834291
  C     16.826020   16.374685   20.326218
  H     15.956789   13.202179   15.834531
  H     14.730736   14.094649   14.903168
  H     14.264483   13.211471   16.375073
  H     14.404243   15.660566   16.844199
  H     15.652420   14.796222   17.772859
  H     17.076940   18.201361   15.043166
  H     16.847850   19.784165   15.784929
  H     15.671164   18.491383   16.082808
  H     17.576549   20.212831   17.825414
  H     19.856263   17.827027   20.128550
  H     19.631515   16.073063   18.375028
  H     19.109027   14.022971   19.376246
  H     17.771683   12.647711   20.953871
  H     15.812886   13.659232   22.126825
  H     14.644863   15.486180   22.446418
  H     16.549213   17.410323   20.161197

 Total Charge           Charge          ....    0
 Multiplicity           Mult            ....    1
 Number of Electrons    NEL             ....  154
 Basis Dimension        Dim             ....  828

ORBITAL ENERGIES
----------------

  NO   OCC          E(Eh)            E(eV)
   0   2.0000     -91.889093     -2500.4293
   1   2.0000     -20.596556      -560.4608
   2   2.0000     -20.583166      -560.0964
   3   2.0000     -20.556873      -559.3810
   4   2.0000     -15.628595      -425.2757
   5   2.0000     -15.608719      -424.7348
   6   2.0000     -11.395431      -310.0854
   7   2.0000     -11.384632      -309.7916
   8   2.0000     -11.333150      -308.3907
   9   2.0000     -11.312971      -307.8416
  10   2.0000     -11.309224      -307.7396
  11   2.0000     -11.299061      -307.4631
  12   2.0000     -11.260421      -306.4116
  13   2.0000     -11.259620      -306.3898
  14   2.0000     -11.258432      -306.3575
  15   2.0000     -11.253136      -306.2134
  16   2.0000     -11.242814      -305.9325
  17   2.0000     -11.238555      -305.8166
  18   2.0000     -11.235855      -305.7432
  19   2.0000     -11.220603      -305.3281
  20   2.0000      -8.894168      -242.0226
  21   2.0000      -6.575746      -178.9351
  22   2.0000      -6.573736      -178.8805
  23   2.0000      -6.573152      -178.8646
  24   2.0000      -1.453159       -39.5425
  25   2.0000      -1.416353       -38.5409
  26   2.0000      -1.357217       -36.9318
  27   2.0000      -1.339757       -36.4566
  28   2.0000      -1.238126       -33.6911
  29   2.0000      -1.157107       -31.4865
  30   2.0000      -1.121738       -30.5240
  31   2.0000      -1.044953       -28.4346
  32   2.0000      -1.030946       -28.0535
  33   2.0000      -1.014527       -27.6067
  34   2.0000      -0.999246       -27.1909
  35   2.0000      -0.984511       -26.7899
  36   2.0000      -0.923820       -25.1384
  37   2.0000      -0.881744       -23.9935
  38   2.0000      -0.849251       -23.1093
  39   2.0000      -0.839462       -22.8429
  40   2.0000      -0.833122       -22.6704
  41   2.0000      -0.826969       -22.5030
  42   2.0000      -0.752728       -20.4828
  43   2.0000      -0.733631       -19.9631
  44   2.0000      -0.728900       -19.8344
  45   2.0000      -0.694849       -18.9078
  46   2.0000      -0.686893       -18.6913
  47   2.0000      -0.680892       -18.5280
  48   2.0000      -0.673297       -18.3213
  49   2.0000      -0.663575       -18.0568
  50   2.0000      -0.647555       -17.6209
  51   2.0000      -0.642882       -17.4937
  52   2.0000      -0.635292       -17.2872
  53   2.0000      -0.606064       -16.4918
  54   2.0000      -0.604079       -16.4378
  55   2.0000      -0.600466       -16.3395
  56   2.0000      -0.595157       -16.1951
  57   2.0000      -0.584618       -15.9083
  58   2.0000      -0.576992       -15.7008
  59   2.0000      -0.568672       -15.4743
  60   2.0000      -0.562930       -15.3181
  61   2.0000      -0.549798       -14.9608
  62   2.0000      -0.534582       -14.5467
  63   2.0000      -0.522163       -14.2088
  64   2.0000      -0.513308       -13.9678
  65   2.0000      -0.510401       -13.8887
  66   2.0000      -0.504112       -13.7176
  67   2.0000      -0.498317       -13.5599
  68   2.0000      -0.481749       -13.1091
  69   2.0000      -0.465634       -12.6706
  70   2.0000      -0.454599       -12.3703
  71   2.0000      -0.451361       -12.2822
  72   2.0000      -0.354437        -9.6447
  73   2.0000      -0.348745        -9.4898
  74   2.0000      -0.328427        -8.9370
  75   2.0000      -0.320254        -8.7146
  76   2.0000      -0.315995        -8.5987
  77   0.0000       0.070590         1.9208
  78   0.0000       0.104587         2.8460
  79   0.0000       0.119275         3.2456
  80   0.0000       0.131766         3.5855
  81   0.0000       0.135453         3.6859

MULLIKEN ATOMIC CHARGES
-----------------------
   0 C :   -0.265919
   1 C :    0.044060
   2 O :   -0.376706
   3 C :    0.438557
   4 O :   -0.400702
   5 C :   -0.174853
   6 C :    0.132569
   7 C :   -0.279046
   8 N :   -0.123833
   9 C :    0.202624
  10 S :   -0.439350
  11 N :   -0.201454
  12 C :    0.056486
  13 C :    0.025564
  14 C :   -0.155137
  15 C :   -0.135881
  16 C :   -0.279361
  17 C :    0.310210
  18 O :   -0.358578
  19 C :   -0.269420
  20 H :    0.113075
  21 H :    0.091460
  22 H :    0.085933
  23 H :    0.095905
  24 H :    0.103991
  25 H :    0.123216
  26 H :    0.103844
  27 H :    0.125683
  28 H :    0.197186
  29 H :    0.194247
  30 H :    0.155344
  31 H :    0.157540
  32 H :    0.161342
  33 H :    0.131394
  34 H :    0.240926
  35 H :    0.169079
Sum of atomic charges:   -0.0000000

LOEWDIN ATOMIC CHARGES
----------------------
   0 C :    0.105531
   1 C :   -0.014615
   2 O :    0.289002
   3 C :   -0.417670
   4 O :    0.130288
   5 C :   -0.093671
   6 C :   -0.074486
   7 C :    0.126616
   8 N :    0.404107
   9 C :   -0.457427
  10 S :   -0.036089
  11 N :    0.396996
  12 C :   -0.045345
  13 C :   -0.041976
  14 C :    0.020722
  15 C :    0.041386
  16 C :   -0.002200
  17 C :   -0.194422
  18 O :    0.393841
  19 C :    0.028121
  20 H :   -0.023442
  21 H :   -0.029020
  22 H :   -0.029867
  23 H :   -0.028744
  24 H :   -0.025275
  25 H :   -0.007894
  26 H :   -0.019352
  27 H :   -0.009604
  28 H :   -0.058619
  29 H :   -0.064102
  30 H :   -0.004706
  31 H :   -0.024459
  32 H :   -0.020107
  33 H :   -0.035393
  34 H :   -0.153899
  35 H :   -0.024229

  Mayer bond orders larger than 0.100000
B(  0-C ,  1-C ) :   0.9810 B(  0-C , 20-H ) :   0.9741 B(  0-C , 21-H ) :   0.9781
B(  0-C , 22-H ) :   0.9762 B(  1-C ,  2-O ) :   0.8848 B(  1-C , 23-H ) :   0.9816
B(  1-C , 24-H ) :   0.9675 B(  2-O ,  3-C ) :   1.0786 B(  3-C ,  4-O ) :   2.0095
B(  3-C ,  5-C ) :   1.0358 B(  5-C ,  6-C ) :   1.6695 B(  5-C , 12-C ) :   0.9616
B(  6-C ,  7-C ) :   0.9514 B(  6-C ,  8-N ) :   1.1378 B(  7-C , 25-H ) :   0.9708
B(  7-C , 26-H ) :   0.9881 B(  7-C , 27-H ) :   0.9629 B(  8-N ,  9-C ) :   1.1845
B(  8-N , 28-H ) :   0.9499 B(  9-C , 10-S ) :   1.6114 B(  9-C , 11-N ) :   1.2991
B( 11-N , 12-C ) :   0.9933 B( 11-N , 29-H ) :   0.9516 B( 12-C , 13-C ) :   0.9430
B( 12-C , 30-H ) :   0.9985 B( 13-C , 14-C ) :   1.3795 B( 13-C , 19-C ) :   1.3696
B( 14-C , 15-C ) :   1.3946 B( 14-C , 31-H ) :   0.9633 B( 15-C , 16-C ) :   1.3636
B( 15-C , 32-H ) :   0.9709 B( 16-C , 17-C ) :   1.3300 B( 16-C , 33-H ) :   0.9848
B( 17-C , 18-O ) :   1.1106 B( 17-C , 19-C ) :   1.3750 B( 18-O , 34-H ) :   0.9797
B( 19-C , 35-H ) :   0.9576

MP2 TOTAL ENERGY:    -1274.323352400 Eh
FINAL SINGLE POINT ENERGY     -1274.323352399675

DIPOLE MOMENT
-------------
                                X             Y             Z
Electronic contribution:     10.76961      10.47441       7.93720
Nuclear contribution   :    -12.18675     -11.61420      -8.42550
                        -----------------------------------------
Total Dipole Moment    :     -1.41714      -1.13979      -0.48831
                        -----------------------------------------
Magnitude (a.u.)       :      1.88304
Magnitude (Debye)      :      4.78631

Rotational constants in cm-1:     0.011853     0.009024     0.006380
Rotational constants in MHz :   355.333943   270.526292   191.274654

                             ****ORCA TERMINATED NORMALLY****
TOTAL RUN TIME: 0 days 1 hours 37 minutes 8 seconds 797 msec
