                         Program Version 4.2.0 -  RELEASE  -
|  1> ! ri-mp2 cc-pvtz cc-pvtz/c TightSCF  NoKeepInts
|  2>
|  3> %scf
|  4>   MaxCore 4096
|  5> end
|  6> *xyz  0  1
|  7>     C       15.1079021   15.6093721   17.4380962
|  8>     C       15.5294033   15.3114789   15.9831908
|  9>     O       16.9543839   15.1317332   15.7689871
| 10>     C       18.0489138   15.5775566   16.4765504
| 11>     O       19.0504236   14.8859350   16.5041780
| 12>     C       17.9228369   16.7604765   17.3862780
| 13>     C       17.3897323   17.9420320   16.9888281
| 14>     C       16.8362380   18.2932776   15.6242351
| 15>     N       17.4123622   19.0421143   17.8495917
| 16>     C       18.0993824   19.0917504   19.0337049
| 17>     S       18.1607935   20.4695644   19.9457935
| 18>     N       18.7372424   17.9402215   19.4218980
| 19>     C       18.6145982   16.6319445   18.7483612
| 20>     C       17.9094940   15.6127113   19.6400696
| 21>     C       18.3440244   14.2744108   19.6565915
| 22>     C       17.6980006   13.3195853   20.4591247
| 23>     C       16.6057291   13.7041765   21.2546862
| 24>     C       16.1673981   15.0349094   21.2412526
| 25>     O       15.1057657   15.4073050   21.9994135
| 26>     C       16.8120198   15.9836652   20.4411128
| 27>     H       15.6222837   14.9349140   18.1327086
| 28>     H       14.0319850   15.4294599   17.5521835
| 29>     H       15.2832868   16.6462269   17.7363103
| 30>     H       15.0263793   14.3906633   15.6599942
| 31>     H       15.1552331   16.1121608   15.3344498
| 32>     H       17.1387198   17.5721304   14.8554571
| 33>     H       17.2070968   19.2706939   15.2898624
| 34>     H       15.7410975   18.3409850   15.6418849
| 35>     H       16.9675882   19.9031677   17.5728117
| 36>     H       19.2257202   17.9999620   20.3064387
| 37>     H       19.6349076   16.2624646   18.5670746
| 38>     H       19.1820125   13.9699401   19.0327105
| 39>     H       18.0432099   12.2870214   20.4579178
| 40>     H       16.1026760   12.9689947   21.8740888
| 41>     H       14.8301729   14.6333632   22.5134934
| 42>     H       16.4479863   17.0056316   20.4446697
| 43> *
| 44>
| 45>                          ****END OF INPUT****

CARTESIAN COORDINATES (ANGSTROEM)
---------------------------------
  C     15.107902   15.609372   17.438096
  C     15.529403   15.311479   15.983191
  O     16.954384   15.131733   15.768987
  C     18.048914   15.577557   16.476550
  O     19.050424   14.885935   16.504178
  C     17.922837   16.760476   17.386278
  C     17.389732   17.942032   16.988828
  C     16.836238   18.293278   15.624235
  N     17.412362   19.042114   17.849592
  C     18.099382   19.091750   19.033705
  S     18.160794   20.469564   19.945793
  N     18.737242   17.940221   19.421898
  C     18.614598   16.631944   18.748361
  C     17.909494   15.612711   19.640070
  C     18.344024   14.274411   19.656591
  C     17.698001   13.319585   20.459125
  C     16.605729   13.704177   21.254686
  C     16.167398   15.034909   21.241253
  O     15.105766   15.407305   21.999413
  C     16.812020   15.983665   20.441113
  H     15.622284   14.934914   18.132709
  H     14.031985   15.429460   17.552184
  H     15.283287   16.646227   17.736310
  H     15.026379   14.390663   15.659994
  H     15.155233   16.112161   15.334450
  H     17.138720   17.572130   14.855457
  H     17.207097   19.270694   15.289862
  H     15.741097   18.340985   15.641885
  H     16.967588   19.903168   17.572812
  H     19.225720   17.999962   20.306439
  H     19.634908   16.262465   18.567075
  H     19.182012   13.969940   19.032711
  H     18.043210   12.287021   20.457918
  H     16.102676   12.968995   21.874089
  H     14.830173   14.633363   22.513493
  H     16.447986   17.005632   20.444670

 Total Charge           Charge          ....    0
 Multiplicity           Mult            ....    1
 Number of Electrons    NEL             ....  154
 Basis Dimension        Dim             ....  828

ORBITAL ENERGIES
----------------

  NO   OCC          E(Eh)            E(eV)
   0   2.0000     -91.891015     -2500.4817
   1   2.0000     -20.597655      -560.4907
   2   2.0000     -20.596289      -560.4535
   3   2.0000     -20.546485      -559.0983
   4   2.0000     -15.629695      -425.3056
   5   2.0000     -15.610969      -424.7961
   6   2.0000     -11.400163      -310.2142
   7   2.0000     -11.387065      -309.8578
   8   2.0000     -11.333903      -308.4112
   9   2.0000     -11.314230      -307.8758
  10   2.0000     -11.312435      -307.8270
  11   2.0000     -11.312325      -307.8240
  12   2.0000     -11.269178      -306.6499
  13   2.0000     -11.266040      -306.5645
  14   2.0000     -11.261145      -306.4313
  15   2.0000     -11.254698      -306.2559
  16   2.0000     -11.243985      -305.9644
  17   2.0000     -11.239366      -305.8387
  18   2.0000     -11.236214      -305.7529
  19   2.0000     -11.234167      -305.6972
  20   2.0000      -8.896103      -242.0753
  21   2.0000      -6.577687      -178.9880
  22   2.0000      -6.575667      -178.9330
  23   2.0000      -6.575086      -178.9172
  24   2.0000      -1.441696       -39.2306
  25   2.0000      -1.417469       -38.5713
  26   2.0000      -1.354313       -36.8527
  27   2.0000      -1.342269       -36.5250
  28   2.0000      -1.240762       -33.7629
  29   2.0000      -1.158935       -31.5362
  30   2.0000      -1.124856       -30.6089
  31   2.0000      -1.047314       -28.4989
  32   2.0000      -1.040387       -28.3104
  33   2.0000      -1.017051       -27.6754
  34   2.0000      -1.005700       -27.3665
  35   2.0000      -0.990265       -26.9465
  36   2.0000      -0.928083       -25.2544
  37   2.0000      -0.900646       -24.5078
  38   2.0000      -0.854791       -23.2601
  39   2.0000      -0.841065       -22.8865
  40   2.0000      -0.834503       -22.7080
  41   2.0000      -0.827436       -22.5157
  42   2.0000      -0.745026       -20.2732
  43   2.0000      -0.735146       -20.0043
  44   2.0000      -0.730590       -19.8804
  45   2.0000      -0.695112       -18.9150
  46   2.0000      -0.686832       -18.6897
  47   2.0000      -0.679335       -18.4857
  48   2.0000      -0.674482       -18.3536
  49   2.0000      -0.659652       -17.9500
  50   2.0000      -0.658841       -17.9280
  51   2.0000      -0.651960       -17.7407
  52   2.0000      -0.641655       -17.4603
  53   2.0000      -0.617900       -16.8139
  54   2.0000      -0.608577       -16.5602
  55   2.0000      -0.605436       -16.4748
  56   2.0000      -0.602170       -16.3859
  57   2.0000      -0.589700       -16.0465
  58   2.0000      -0.576803       -15.6956
  59   2.0000      -0.569765       -15.5041
  60   2.0000      -0.565498       -15.3880
  61   2.0000      -0.555600       -15.1186
  62   2.0000      -0.543631       -14.7930
  63   2.0000      -0.531019       -14.4498
  64   2.0000      -0.522180       -14.2092
  65   2.0000      -0.513679       -13.9779
  66   2.0000      -0.501185       -13.6379
  67   2.0000      -0.496140       -13.5007
  68   2.0000      -0.483123       -13.1464
  69   2.0000      -0.469132       -12.7657
  70   2.0000      -0.455766       -12.4020
  71   2.0000      -0.448168       -12.1953
  72   2.0000      -0.356890        -9.7115
  73   2.0000      -0.348817        -9.4918
  74   2.0000      -0.330474        -8.9926
  75   2.0000      -0.322987        -8.7889
  76   2.0000      -0.319146        -8.6844
  77   0.0000       0.079568         2.1651
  78   0.0000       0.107798         2.9333
  79   0.0000       0.114784         3.1234
  80   0.0000       0.130928         3.5627
  81   0.0000       0.131220         3.5707

MULLIKEN ATOMIC CHARGES
-----------------------
   0 C :   -0.343310
   1 C :    0.040970
   2 O :   -0.335930
   3 C :    0.432768
   4 O :   -0.387210
   5 C :   -0.210322
   6 C :    0.142843
   7 C :   -0.338698
   8 N :   -0.135432
   9 C :    0.197578
  10 S :   -0.438480
  11 N :   -0.217477
  12 C :    0.074458
  13 C :    0.020150
  14 C :   -0.206287
  15 C :   -0.135159
  16 C :   -0.277630
  17 C :    0.316854
  18 O :   -0.358154
  19 C :   -0.269132
  20 H :    0.130418
  21 H :    0.121220
  22 H :    0.109964
  23 H :    0.131505
  24 H :    0.085682
  25 H :    0.138457
  26 H :    0.136291
  27 H :    0.121401
  28 H :    0.197592
  29 H :    0.200109
  30 H :    0.166441
  31 H :    0.175856
  32 H :    0.163742
  33 H :    0.131959
  34 H :    0.241093
  35 H :    0.175868
Sum of atomic charges:   -0.0000000

LOEWDIN ATOMIC CHARGES
----------------------
   0 C :    0.104469
   1 C :   -0.015190
   2 O :    0.289998
   3 C :   -0.415613
   4 O :    0.120192
   5 C :   -0.082850
   6 C :   -0.091030
   7 C :    0.125702
   8 N :    0.403400
   9 C :   -0.458825
  10 S :   -0.035939
  11 N :    0.398250
  12 C :   -0.043352
  13 C :   -0.043771
  14 C :    0.019506
  15 C :    0.043105
  16 C :   -0.001765
  17 C :   -0.194134
  18 O :    0.395110
  19 C :    0.028766
  20 H :   -0.020250
  21 H :   -0.021853
  22 H :   -0.035985
  23 H :   -0.018005
  24 H :   -0.037501
  25 H :   -0.006789
  26 H :   -0.010287
  27 H :   -0.018243
  28 H :   -0.057326
  29 H :   -0.063234
  30 H :   -0.001972
  31 H :   -0.021821
  32 H :   -0.018759
  33 H :   -0.035032
  34 H :   -0.153617
  35 H :   -0.025354

  Mayer bond orders larger than 0.100000
B(  0-C ,  1-C ) :   0.9584 B(  0-C , 20-H ) :   0.9664 B(  0-C , 21-H ) :   0.9770
B(  0-C , 22-H ) :   0.9726 B(  1-C ,  2-O ) :   0.9039 B(  1-C , 23-H ) :   0.9794
B(  1-C , 24-H ) :   0.9742 B(  2-O ,  3-C ) :   1.1778 B(  3-C ,  4-O ) :   2.0721
B(  3-C ,  5-C ) :   0.9364 B(  5-C ,  6-C ) :   1.6907 B(  5-C , 12-C ) :   0.9570
B(  6-C ,  7-C ) :   0.9431 B(  6-C ,  8-N ) :   1.1087 B(  7-C , 25-H ) :   0.9766
B(  7-C , 26-H ) :   0.9756 B(  7-C , 27-H ) :   0.9641 B(  8-N ,  9-C ) :   1.1903
B(  8-N , 28-H ) :   0.9513 B(  9-C , 10-S ) :   1.6123 B(  9-C , 11-N ) :   1.2909
B( 11-N , 12-C ) :   0.9892 B( 11-N , 29-H ) :   0.9494 B( 12-C , 13-C ) :   0.9462
B( 12-C , 30-H ) :   0.9958 B( 13-C , 14-C ) :   1.3916 B( 13-C , 19-C ) :   1.3446
B( 14-C , 15-C ) :   1.3978 B( 14-C , 31-H ) :   0.9574 B( 15-C , 16-C ) :   1.3605
B( 15-C , 32-H ) :   0.9703 B( 16-C , 17-C ) :   1.3295 B( 16-C , 33-H ) :   0.9848
B( 17-C , 18-O ) :   1.1111 B( 17-C , 19-C ) :   1.3712 B( 18-O , 34-H ) :   0.9797
B( 19-C , 35-H ) :   0.9575

MP2 TOTAL ENERGY:    -1274.328254335 Eh
FINAL SINGLE POINT ENERGY     -1274.328254334666

DIPOLE MOMENT
-------------
                                X             Y             Z
Electronic contribution:      9.48804       5.92674       6.36235
Nuclear contribution   :    -11.11702      -6.92279      -6.93226
                        -----------------------------------------
Total Dipole Moment    :     -1.62898      -0.99605      -0.56991
                        -----------------------------------------
Magnitude (a.u.)       :      1.99261
Magnitude (Debye)      :      5.06480

Rotational constants in cm-1:     0.011513     0.009705     0.006816
Rotational constants in MHz :   345.154596   290.934771   204.348150

                             ****ORCA TERMINATED NORMALLY****
TOTAL RUN TIME: 0 days 2 hours 57 minutes 37 seconds 926 msec
