                         Program Version 4.2.0 -  RELEASE  -
|  1> ! ri-mp2 cc-pvtz cc-pvtz/c TightSCF  NoKeepInts
|  2>
|  3> %scf
|  4>   MaxCore 4096
|  5> end
|  6> *xyz  0  1
|  7>     C       14.1709912   14.9613866   15.6433421
|  8>     C       15.5653234   14.6588878   16.2169245
|  9>     O       16.3677322   15.8372180   16.0448693
| 10>     C       17.6182238   15.8372994   16.5877494
| 11>     O       18.2736223   14.8110912   16.6658561
| 12>     C       17.8472814   16.9908162   17.5187708
| 13>     C       17.2722016   18.2125219   17.3771369
| 14>     C       16.3379198   18.6734338   16.2774443
| 15>     N       17.5899317   19.2379636   18.2733558
| 16>     C       18.5660431   19.1649231   19.2321175
| 17>     S       18.9618492   20.4659894   20.1734267
| 18>     N       19.1991270   17.9553768   19.3703532
| 19>     C       18.8039843   16.7116203   18.6824379
| 20>     C       18.1834656   15.7281259   19.6713169
| 21>     C       18.7032631   14.4273594   19.8045105
| 22>     C       18.1303553   13.5156883   20.7070320
| 23>     C       17.0267992   13.9067979   21.4841047
| 24>     C       16.5033778   15.2000559   21.3517053
| 25>     O       15.4331127   15.5784474   22.0950652
| 26>     C       17.0753468   16.1049829   20.4520747
| 27>     H       13.7084739   15.8030103   16.1735655
| 28>     H       13.5155230   14.0881131   15.7470449
| 29>     H       14.2382780   15.2157649   14.5782282
| 30>     H       15.4838703   14.4049767   17.2828494
| 31>     H       16.0154420   13.8077955   15.6877677
| 32>     H       16.6938075   18.3388242   15.2949862
| 33>     H       16.2491054   19.7655959   16.2304768
| 34>     H       15.3317565   18.2625367   16.4276508
| 35>     H       17.1366803   20.1336809   18.1874447
| 36>     H       19.8932207   17.9197290   20.1058402
| 37>     H       19.7143663   16.2559439   18.2667799
| 38>     H       19.5453886   14.1166114   19.1908807
| 39>     H       18.5387571   12.5106097   20.7961596
| 40>     H       16.5802870   13.2052755   22.1808745
| 41>     H       15.2155287   14.8416905   22.6856181
| 42>     H       16.6565631   17.1018560   20.3682390
| 43> *
| 44>
| 45>                          ****END OF INPUT****

CARTESIAN COORDINATES (ANGSTROEM)
---------------------------------
  C     14.170991   14.961387   15.643342
  C     15.565323   14.658888   16.216925
  O     16.367732   15.837218   16.044869
  C     17.618224   15.837299   16.587749
  O     18.273622   14.811091   16.665856
  C     17.847281   16.990816   17.518771
  C     17.272202   18.212522   17.377137
  C     16.337920   18.673434   16.277444
  N     17.589932   19.237964   18.273356
  C     18.566043   19.164923   19.232118
  S     18.961849   20.465989   20.173427
  N     19.199127   17.955377   19.370353
  C     18.803984   16.711620   18.682438
  C     18.183466   15.728126   19.671317
  C     18.703263   14.427359   19.804510
  C     18.130355   13.515688   20.707032
  C     17.026799   13.906798   21.484105
  C     16.503378   15.200056   21.351705
  O     15.433113   15.578447   22.095065
  C     17.075347   16.104983   20.452075
  H     13.708474   15.803010   16.173565
  H     13.515523   14.088113   15.747045
  H     14.238278   15.215765   14.578228
  H     15.483870   14.404977   17.282849
  H     16.015442   13.807795   15.687768
  H     16.693807   18.338824   15.294986
  H     16.249105   19.765596   16.230477
  H     15.331756   18.262537   16.427651
  H     17.136680   20.133681   18.187445
  H     19.893221   17.919729   20.105840
  H     19.714366   16.255944   18.266780
  H     19.545389   14.116611   19.190881
  H     18.538757   12.510610   20.796160
  H     16.580287   13.205276   22.180875
  H     15.215529   14.841690   22.685618
  H     16.656563   17.101856   20.368239

 Total Charge           Charge          ....    0
 Multiplicity           Mult            ....    1
 Number of Electrons    NEL             ....  154
 Basis Dimension        Dim             ....  828

ORBITAL ENERGIES
----------------

  NO   OCC          E(Eh)            E(eV)
   0   2.0000     -91.888321     -2500.4083
   1   2.0000     -20.593871      -560.3877
   2   2.0000     -20.593778      -560.3852
   3   2.0000     -20.550917      -559.2189
   4   2.0000     -15.628246      -425.2662
   5   2.0000     -15.607427      -424.6997
   6   2.0000     -11.394400      -310.0574
   7   2.0000     -11.383548      -309.7621
   8   2.0000     -11.334283      -308.4215
   9   2.0000     -11.309750      -307.7539
  10   2.0000     -11.307174      -307.6838
  11   2.0000     -11.298569      -307.4497
  12   2.0000     -11.260020      -306.4007
  13   2.0000     -11.259538      -306.3876
  14   2.0000     -11.255430      -306.2758
  15   2.0000     -11.249791      -306.1224
  16   2.0000     -11.239484      -305.8419
  17   2.0000     -11.235509      -305.7337
  18   2.0000     -11.233966      -305.6918
  19   2.0000     -11.232557      -305.6534
  20   2.0000      -8.893390      -242.0014
  21   2.0000      -6.574968      -178.9140
  22   2.0000      -6.572960      -178.8593
  23   2.0000      -6.572375      -178.8434
  24   2.0000      -1.454789       -39.5868
  25   2.0000      -1.413533       -38.4642
  26   2.0000      -1.357124       -36.9292
  27   2.0000      -1.339276       -36.4436
  28   2.0000      -1.237266       -33.6677
  29   2.0000      -1.154039       -31.4030
  30   2.0000      -1.120428       -30.4884
  31   2.0000      -1.044410       -28.4198
  32   2.0000      -1.036868       -28.2146
  33   2.0000      -1.011444       -27.5228
  34   2.0000      -0.998369       -27.1670
  35   2.0000      -0.984029       -26.7768
  36   2.0000      -0.922071       -25.0908
  37   2.0000      -0.885311       -24.0905
  38   2.0000      -0.847296       -23.0561
  39   2.0000      -0.836562       -22.7640
  40   2.0000      -0.829923       -22.5834
  41   2.0000      -0.821389       -22.3511
  42   2.0000      -0.759587       -20.6694
  43   2.0000      -0.735947       -20.0261
  44   2.0000      -0.726489       -19.7688
  45   2.0000      -0.692052       -18.8317
  46   2.0000      -0.684215       -18.6184
  47   2.0000      -0.681521       -18.5451
  48   2.0000      -0.676110       -18.3979
  49   2.0000      -0.655905       -17.8481
  50   2.0000      -0.652139       -17.7456
  51   2.0000      -0.643521       -17.5111
  52   2.0000      -0.635138       -17.2830
  53   2.0000      -0.607656       -16.5352
  54   2.0000      -0.602225       -16.3874
  55   2.0000      -0.601596       -16.3702
  56   2.0000      -0.597183       -16.2502
  57   2.0000      -0.576297       -15.6818
  58   2.0000      -0.574851       -15.6425
  59   2.0000      -0.563843       -15.3430
  60   2.0000      -0.559902       -15.2357
  61   2.0000      -0.548196       -14.9172
  62   2.0000      -0.543558       -14.7910
  63   2.0000      -0.520249       -14.1567
  64   2.0000      -0.518146       -14.0995
  65   2.0000      -0.510352       -13.8874
  66   2.0000      -0.506195       -13.7743
  67   2.0000      -0.496779       -13.5180
  68   2.0000      -0.481816       -13.1109
  69   2.0000      -0.463930       -12.6242
  70   2.0000      -0.460328       -12.5262
  71   2.0000      -0.452868       -12.3232
  72   2.0000      -0.353951        -9.6315
  73   2.0000      -0.345852        -9.4111
  74   2.0000      -0.327545        -8.9130
  75   2.0000      -0.316869        -8.6224
  76   2.0000      -0.315083        -8.5738
  77   0.0000       0.073526         2.0007
  78   0.0000       0.108893         2.9631
  79   0.0000       0.119682         3.2567
  80   0.0000       0.134198         3.6517
  81   0.0000       0.138182         3.7601

MULLIKEN ATOMIC CHARGES
-----------------------
   0 C :   -0.276342
   1 C :    0.051573
   2 O :   -0.354018
   3 C :    0.436296
   4 O :   -0.408666
   5 C :   -0.178996
   6 C :    0.140170
   7 C :   -0.285165
   8 N :   -0.124303
   9 C :    0.202832
  10 S :   -0.439851
  11 N :   -0.199481
  12 C :    0.047216
  13 C :    0.051523
  14 C :   -0.161247
  15 C :   -0.133095
  16 C :   -0.280785
  17 C :    0.311726
  18 O :   -0.358836
  19 C :   -0.276580
  20 H :    0.091364
  21 H :    0.099160
  22 H :    0.098551
  23 H :    0.090947
  24 H :    0.104979
  25 H :    0.125165
  26 H :    0.104335
  27 H :    0.125972
  28 H :    0.197126
  29 H :    0.194000
  30 H :    0.154307
  31 H :    0.154391
  32 H :    0.159945
  33 H :    0.129274
  34 H :    0.240411
  35 H :    0.166101
Sum of atomic charges:   -0.0000000

LOEWDIN ATOMIC CHARGES
----------------------
   0 C :    0.107988
   1 C :   -0.018161
   2 O :    0.298421
   3 C :   -0.415136
   4 O :    0.117517
   5 C :   -0.092620
   6 C :   -0.070975
   7 C :    0.125688
   8 N :    0.404330
   9 C :   -0.457980
  10 S :   -0.036403
  11 N :    0.397363
  12 C :   -0.045713
  13 C :   -0.039606
  14 C :    0.021853
  15 C :    0.041235
  16 C :   -0.002494
  17 C :   -0.193541
  18 O :    0.393120
  19 C :    0.027800
  20 H :   -0.029635
  21 H :   -0.023121
  22 H :   -0.026189
  23 H :   -0.028204
  24 H :   -0.027856
  25 H :   -0.008163
  26 H :   -0.020103
  27 H :   -0.010584
  28 H :   -0.058899
  29 H :   -0.063923
  30 H :   -0.004748
  31 H :   -0.025012
  32 H :   -0.020818
  33 H :   -0.036095
  34 H :   -0.154580
  35 H :   -0.024754

  Mayer bond orders larger than 0.100000
B(  0-C ,  1-C ) :   0.9713 B(  0-C , 20-H ) :   0.9785 B(  0-C , 21-H ) :   0.9779
B(  0-C , 22-H ) :   0.9770 B(  1-C ,  2-O ) :   0.9032 B(  1-C , 23-H ) :   0.9712
B(  1-C , 24-H ) :   0.9801 B(  2-O ,  3-C ) :   1.1163 B(  3-C ,  4-O ) :   2.0101
B(  3-C ,  5-C ) :   1.0361 B(  5-C ,  6-C ) :   1.6604 B(  5-C , 12-C ) :   0.9655
B(  6-C ,  7-C ) :   0.9525 B(  6-C ,  8-N ) :   1.1394 B(  7-C , 25-H ) :   0.9688
B(  7-C , 26-H ) :   0.9899 B(  7-C , 27-H ) :   0.9626 B(  8-N ,  9-C ) :   1.1825
B(  8-N , 28-H ) :   0.9494 B(  9-C , 10-S ) :   1.6103 B(  9-C , 11-N ) :   1.3018
B( 11-N , 12-C ) :   0.9915 B( 11-N , 29-H ) :   0.9518 B( 12-C , 13-C ) :   0.9459
B( 12-C , 30-H ) :   0.9988 B( 13-C , 14-C ) :   1.3770 B( 13-C , 19-C ) :   1.3684
B( 14-C , 15-C ) :   1.3948 B( 14-C , 31-H ) :   0.9645 B( 15-C , 16-C ) :   1.3631
B( 15-C , 32-H ) :   0.9712 B( 16-C , 17-C ) :   1.3310 B( 16-C , 33-H ) :   0.9855
B( 17-C , 18-O ) :   1.1088 B( 17-C , 19-C ) :   1.3774 B( 18-O , 34-H ) :   0.9802
B( 19-C , 35-H ) :   0.9582

MP2 TOTAL ENERGY:    -1274.335542106 Eh
FINAL SINGLE POINT ENERGY     -1274.335542106128

DIPOLE MOMENT
-------------
                                X             Y             Z
Electronic contribution:     12.10183       8.70214       9.20356
Nuclear contribution   :    -13.52078     -10.03381      -9.96999
                        -----------------------------------------
Total Dipole Moment    :     -1.41895      -1.33167      -0.76643
                        -----------------------------------------
Magnitude (a.u.)       :      2.09146
Magnitude (Debye)      :      5.31606

Rotational constants in cm-1:     0.010664     0.009165     0.006261
Rotational constants in MHz :   319.711388   274.758464   187.694811

                             ****ORCA TERMINATED NORMALLY****
TOTAL RUN TIME: 0 days 1 hours 53 minutes 59 seconds 859 msec
