                         Program Version 5.0.0 -  RELEASE  -
|  1> ! ri-mp2 cc-pvtz cc-pvtz/c TightSCF NoKeepInts
|  2>
|  3> %scf
|  4>   MaxCore 4096
|  5> end
|  6> *xyz  0  1
|  7>     C       15.0727645   13.8496661   15.5398522
|  8>     C       15.2594899   14.9472664   16.6022408
|  9>     O       16.2611794   15.8629991   16.1255541
| 10>     C       17.5209809   15.7599489   16.6386155
| 11>     O       18.0398435   14.6707753   16.8194414
| 12>     C       17.8832344   16.9443642   17.4825509
| 13>     C       17.4956697   18.2153806   17.2082734
| 14>     C       16.6849574   18.6945481   16.0221239
| 15>     N       17.9172891   19.2636346   18.0319450
| 16>     C       18.8243905   19.1405920   19.0516745
| 17>     S       19.3554886   20.4522512   19.9077382
| 18>     N       19.2695833   17.8717433   19.3265207
| 19>     C       18.7400425   16.6381033   18.7144672
| 20>     C       17.9437851   15.8312422   19.7367775
| 21>     C       18.2649550   14.4848012   19.9891845
| 22>     C       17.5261311   13.7340120   20.9188419
| 23>     C       16.4551874   14.3337303   21.6029653
| 24>     C       16.1291906   15.6732914   21.3515471
| 25>     O       15.0900800   16.2529135   22.0037447
| 26>     C       16.8657412   16.4176654   20.4248476
| 27>     H       16.0027371   13.2828487   15.4038487
| 28>     H       14.7895033   14.2871938   14.5746592
| 29>     H       14.2870860   13.1481264   15.8449777
| 30>     H       14.3100007   15.4815036   16.7344736
| 31>     H       15.5427772   14.5081136   17.5697181
| 32>     H       17.0039806   18.1929931   15.0998307
| 33>     H       16.7884703   19.7730611   15.8514262
| 34>     H       15.6193628   18.4789529   16.1693378
| 35>     H       17.6025400   20.2025081   17.8456720
| 36>     H       19.9148496   17.8058676   20.1032608
| 37>     H       19.5970243   16.0323055   18.3860342
| 38>     H       19.0807815   14.0131407   19.4466097
| 39>     H       17.7817358   12.6915585   21.1004151
| 40>     H       15.8809570   13.7568569   22.3202875
| 41>     H       14.7471454   15.6044041   22.6369030
| 42>     H       16.5980643   17.4536362   20.2476395
| 43> *
| 44>
| 45>                          ****END OF INPUT****

CARTESIAN COORDINATES (ANGSTROEM)
---------------------------------
  C     15.072764   13.849666   15.539852
  C     15.259490   14.947266   16.602241
  O     16.261179   15.862999   16.125554
  C     17.520981   15.759949   16.638616
  O     18.039843   14.670775   16.819441
  C     17.883234   16.944364   17.482551
  C     17.495670   18.215381   17.208273
  C     16.684957   18.694548   16.022124
  N     17.917289   19.263635   18.031945
  C     18.824390   19.140592   19.051675
  S     19.355489   20.452251   19.907738
  N     19.269583   17.871743   19.326521
  C     18.740043   16.638103   18.714467
  C     17.943785   15.831242   19.736777
  C     18.264955   14.484801   19.989185
  C     17.526131   13.734012   20.918842
  C     16.455187   14.333730   21.602965
  C     16.129191   15.673291   21.351547
  O     15.090080   16.252913   22.003745
  C     16.865741   16.417665   20.424848
  H     16.002737   13.282849   15.403849
  H     14.789503   14.287194   14.574659
  H     14.287086   13.148126   15.844978
  H     14.310001   15.481504   16.734474
  H     15.542777   14.508114   17.569718
  H     17.003981   18.192993   15.099831
  H     16.788470   19.773061   15.851426
  H     15.619363   18.478953   16.169338
  H     17.602540   20.202508   17.845672
  H     19.914850   17.805868   20.103261
  H     19.597024   16.032305   18.386034
  H     19.080781   14.013141   19.446610
  H     17.781736   12.691558   21.100415
  H     15.880957   13.756857   22.320287
  H     14.747145   15.604404   22.636903
  H     16.598064   17.453636   20.247639

 Total Charge           Charge          ....    0
 Multiplicity           Mult            ....    1
 Number of Electrons    NEL             ....  154
 Basis Dimension        Dim             ....  828

ORBITAL ENERGIES
----------------

  NO   OCC          E(Eh)            E(eV)
   0   2.0000     -91.888578     -2500.4153
   1   2.0000     -20.595104      -560.4213
   2   2.0000     -20.588124      -560.2313
   3   2.0000     -20.554514      -559.3167
   4   2.0000     -15.628202      -425.2650
   5   2.0000     -15.608034      -424.7162
   6   2.0000     -11.395877      -310.0976
   7   2.0000     -11.383998      -309.7743
   8   2.0000     -11.333341      -308.3959
   9   2.0000     -11.311345      -307.7974
  10   2.0000     -11.308270      -307.7137
  11   2.0000     -11.299508      -307.4752
  12   2.0000     -11.259789      -306.3944
  13   2.0000     -11.259754      -306.3935
  14   2.0000     -11.257007      -306.3187
  15   2.0000     -11.251537      -306.1699
  16   2.0000     -11.241170      -305.8878
  17   2.0000     -11.237062      -305.7760
  18   2.0000     -11.234301      -305.7009
  19   2.0000     -11.221977      -305.3655
  20   2.0000      -8.893654      -242.0086
  21   2.0000      -6.575232      -178.9212
  22   2.0000      -6.573223      -178.8665
  23   2.0000      -6.572639      -178.8506
  24   2.0000      -1.453605       -39.5546
  25   2.0000      -1.414868       -38.5005
  26   2.0000      -1.357422       -36.9373
  27   2.0000      -1.339350       -36.4456
  28   2.0000      -1.237589       -33.6765
  29   2.0000      -1.155574       -31.4448
  30   2.0000      -1.121055       -30.5055
  31   2.0000      -1.043971       -28.4079
  32   2.0000      -1.032357       -28.0919
  33   2.0000      -1.012979       -27.5646
  34   2.0000      -0.998461       -27.1695
  35   2.0000      -0.983739       -26.7689
  36   2.0000      -0.922930       -25.1142
  37   2.0000      -0.884140       -24.0587
  38   2.0000      -0.848453       -23.0876
  39   2.0000      -0.838195       -22.8085
  40   2.0000      -0.831582       -22.6285
  41   2.0000      -0.824455       -22.4346
  42   2.0000      -0.753755       -20.5107
  43   2.0000      -0.734231       -19.9794
  44   2.0000      -0.727760       -19.8034
  45   2.0000      -0.693524       -18.8717
  46   2.0000      -0.686275       -18.6745
  47   2.0000      -0.680894       -18.5281
  48   2.0000      -0.672879       -18.3100
  49   2.0000      -0.661915       -18.0116
  50   2.0000      -0.646931       -17.6039
  51   2.0000      -0.641640       -17.4599
  52   2.0000      -0.633063       -17.2265
  53   2.0000      -0.606515       -16.5041
  54   2.0000      -0.602994       -16.4083
  55   2.0000      -0.600395       -16.3376
  56   2.0000      -0.597863       -16.2687
  57   2.0000      -0.584208       -15.8971
  58   2.0000      -0.575879       -15.6705
  59   2.0000      -0.567518       -15.4430
  60   2.0000      -0.562244       -15.2994
  61   2.0000      -0.548484       -14.9250
  62   2.0000      -0.534332       -14.5399
  63   2.0000      -0.520653       -14.1677
  64   2.0000      -0.514079       -13.9888
  65   2.0000      -0.511501       -13.9186
  66   2.0000      -0.503415       -13.6986
  67   2.0000      -0.497504       -13.5378
  68   2.0000      -0.481826       -13.1112
  69   2.0000      -0.464151       -12.6302
  70   2.0000      -0.455988       -12.4081
  71   2.0000      -0.452442       -12.3116
  72   2.0000      -0.353863        -9.6291
  73   2.0000      -0.347322        -9.4511
  74   2.0000      -0.327876        -8.9220
  75   2.0000      -0.318527        -8.6676
  76   2.0000      -0.315457        -8.5840
  77   0.0000       0.072247         1.9659
  78   0.0000       0.106841         2.9073
  79   0.0000       0.120041         3.2665
  80   0.0000       0.133166         3.6236
  81   0.0000       0.137146         3.7319

MULLIKEN ATOMIC CHARGES
-----------------------
   0 C :   -0.270008
   1 C :    0.046252
   2 O :   -0.369675
   3 C :    0.428162
   4 O :   -0.406894
   5 C :   -0.162591
   6 C :    0.136635
   7 C :   -0.280633
   8 N :   -0.123946
   9 C :    0.203041
  10 S :   -0.439865
  11 N :   -0.200801
  12 C :    0.051317
  13 C :    0.043217
  14 C :   -0.163285
  15 C :   -0.134385
  16 C :   -0.280826
  17 C :    0.311059
  18 O :   -0.358266
  19 C :   -0.273058
  20 H :    0.112493
  21 H :    0.090534
  22 H :    0.087313
  23 H :    0.096126
  24 H :    0.104117
  25 H :    0.123467
  26 H :    0.102996
  27 H :    0.126331
  28 H :    0.197103
  29 H :    0.194142
  30 H :    0.154712
  31 H :    0.156114
  32 H :    0.160837
  33 H :    0.130299
  34 H :    0.240595
  35 H :    0.167370
Sum of atomic charges:   -0.0000000

LOEWDIN ATOMIC CHARGES
----------------------
   0 C :    0.104852
   1 C :   -0.014671
   2 O :    0.293891
   3 C :   -0.415930
   4 O :    0.123413
   5 C :   -0.092721
   6 C :   -0.072840
   7 C :    0.126132
   8 N :    0.404156
   9 C :   -0.457642
  10 S :   -0.036447
  11 N :    0.397142
  12 C :   -0.045478
  13 C :   -0.040604
  14 C :    0.020814
  15 C :    0.040709
  16 C :   -0.002387
  17 C :   -0.193545
  18 O :    0.393500
  19 C :    0.028293
  20 H :   -0.023436
  21 H :   -0.029417
  22 H :   -0.029399
  23 H :   -0.028481
  24 H :   -0.025043
  25 H :   -0.008212
  26 H :   -0.019739
  27 H :   -0.009556
  28 H :   -0.058749
  29 H :   -0.064031
  30 H :   -0.004846
  31 H :   -0.024841
  32 H :   -0.020540
  33 H :   -0.035773
  34 H :   -0.154275
  35 H :   -0.024300

  Mayer bond orders larger than 0.100000
B(  0-C ,  1-C ) :   0.9769 B(  0-C , 20-H ) :   0.9750 B(  0-C , 21-H ) :   0.9777
B(  0-C , 22-H ) :   0.9764 B(  1-C ,  2-O ) :   0.8889 B(  1-C , 23-H ) :   0.9821
B(  1-C , 24-H ) :   0.9699 B(  2-O ,  3-C ) :   1.0862 B(  3-C ,  4-O ) :   1.9997
B(  3-C ,  5-C ) :   1.0418 B(  5-C ,  6-C ) :   1.6641 B(  5-C , 12-C ) :   0.9640
B(  6-C ,  7-C ) :   0.9522 B(  6-C ,  8-N ) :   1.1384 B(  7-C , 25-H ) :   0.9701
B(  7-C , 26-H ) :   0.9887 B(  7-C , 27-H ) :   0.9630 B(  8-N ,  9-C ) :   1.1839
B(  8-N , 28-H ) :   0.9497 B(  9-C , 10-S ) :   1.6105 B(  9-C , 11-N ) :   1.3002
B( 11-N , 12-C ) :   0.9927 B( 11-N , 29-H ) :   0.9516 B( 12-C , 13-C ) :   0.9443
B( 12-C , 30-H ) :   0.9985 B( 13-C , 14-C ) :   1.3773 B( 13-C , 19-C ) :   1.3692
B( 14-C , 15-C ) :   1.3945 B( 14-C , 31-H ) :   0.9640 B( 15-C , 16-C ) :   1.3633
B( 15-C , 32-H ) :   0.9710 B( 16-C , 17-C ) :   1.3305 B( 16-C , 33-H ) :   0.9852
B( 17-C , 18-O ) :   1.1096 B( 17-C , 19-C ) :   1.3767 B( 18-O , 34-H ) :   0.9800
B( 19-C , 35-H ) :   0.9578

MP2 TOTAL ENERGY:    -1274.328127699 Eh
FINAL SINGLE POINT ENERGY     -1274.328127699478

DIPOLE MOMENT
-------------
                                X             Y             Z
Electronic contribution:     10.81547      10.53057       8.91790
Nuclear contribution   :    -12.29750     -11.71297      -9.49124
                        -----------------------------------------
Total Dipole Moment    :     -1.48203      -1.18240      -0.57335
                        -----------------------------------------
Magnitude (a.u.)       :      1.98071
Magnitude (Debye)      :      5.03456

Rotational constants in cm-1:     0.011395     0.009008     0.006204
Rotational constants in MHz :   341.628361   270.053245   185.998559

                             ****ORCA TERMINATED NORMALLY****
TOTAL RUN TIME: 0 days 1 hours 34 minutes 12 seconds 671 msec
