                         Program Version 4.2.0 -  RELEASE  -
|  1> ! ri-mp2 cc-pvtz cc-pvtz/c TightSCF  NoKeepInts
|  2>
|  3> %scf
|  4>   MaxCore 4096
|  5> end
|  6> *xyz  0  1
|  7>     C       15.0964536   15.2852077   17.5668810
|  8>     C       15.5926369   15.4012382   16.1143518
|  9>     O       16.9742026   14.9953874   16.0066489
| 10>     C       18.0995146   15.6283950   16.4838510
| 11>     O       19.1530170   15.0187709   16.4892627
| 12>     C       17.9216948   16.8209489   17.3688485
| 13>     C       17.4214798   17.9978375   16.9222582
| 14>     C       17.0080574   18.3437466   15.5074060
| 15>     N       17.3884218   19.1082151   17.7685830
| 16>     C       17.9764399   19.1651910   19.0045192
| 17>     S       17.9634890   20.5488197   19.9096681
| 18>     N       18.5850011   18.0183139   19.4494558
| 19>     C       18.5400734   16.7084556   18.7688758
| 20>     C       17.8476771   15.6507376   19.6283896
| 21>     C       18.2877900   14.3144847   19.5836514
| 22>     C       17.6617506   13.3242205   20.3584421
| 23>     C       16.5851986   13.6704287   21.1917003
| 24>     C       16.1444261   14.9991406   21.2446420
| 25>     O       15.0996585   15.3359067   22.0418534
| 26>     C       16.7697230   15.9834573   20.4725025
| 27>     H       15.5062611   14.3901410   18.0527335
| 28>     H       14.0024283   15.2128142   17.5908664
| 29>     H       15.3774731   16.1670148   18.1512143
| 30>     H       14.9988890   14.7082727   15.5040092
| 31>     H       15.4082722   16.4025196   15.7201158
| 32>     H       17.2085169   17.5292199   14.8006735
| 33>     H       17.5715959   19.2129030   15.1438830
| 34>     H       15.9413419   18.5933276   15.4526271
| 35>     H       16.9717973   19.9687725   17.4494185
| 36>     H       19.0037666   18.0858081   20.3686068
| 37>     H       19.5819320   16.3810333   18.6350198
| 38>     H       19.1165390   14.0387458   18.9347699
| 39>     H       18.0110719   12.2943086   20.3073515
| 40>     H       16.0974617   12.9079553   21.7899743
| 41>     H       14.8315458   14.5378749   22.5219259
| 42>     H       16.4014013   17.0023851   20.5290195
| 43> *
| 44>
| 45>                          ****END OF INPUT****

CARTESIAN COORDINATES (ANGSTROEM)
---------------------------------
  C     15.096454   15.285208   17.566881
  C     15.592637   15.401238   16.114352
  O     16.974203   14.995387   16.006649
  C     18.099515   15.628395   16.483851
  O     19.153017   15.018771   16.489263
  C     17.921695   16.820949   17.368848
  C     17.421480   17.997837   16.922258
  C     17.008057   18.343747   15.507406
  N     17.388422   19.108215   17.768583
  C     17.976440   19.165191   19.004519
  S     17.963489   20.548820   19.909668
  N     18.585001   18.018314   19.449456
  C     18.540073   16.708456   18.768876
  C     17.847677   15.650738   19.628390
  C     18.287790   14.314485   19.583651
  C     17.661751   13.324220   20.358442
  C     16.585199   13.670429   21.191700
  C     16.144426   14.999141   21.244642
  O     15.099659   15.335907   22.041853
  C     16.769723   15.983457   20.472503
  H     15.506261   14.390141   18.052733
  H     14.002428   15.212814   17.590866
  H     15.377473   16.167015   18.151214
  H     14.998889   14.708273   15.504009
  H     15.408272   16.402520   15.720116
  H     17.208517   17.529220   14.800673
  H     17.571596   19.212903   15.143883
  H     15.941342   18.593328   15.452627
  H     16.971797   19.968772   17.449418
  H     19.003767   18.085808   20.368607
  H     19.581932   16.381033   18.635020
  H     19.116539   14.038746   18.934770
  H     18.011072   12.294309   20.307351
  H     16.097462   12.907955   21.789974
  H     14.831546   14.537875   22.521926
  H     16.401401   17.002385   20.529020

 Total Charge           Charge          ....    0
 Multiplicity           Mult            ....    1
 Number of Electrons    NEL             ....  154
 Basis Dimension        Dim             ....  828

ORBITAL ENERGIES
----------------

  NO   OCC          E(Eh)            E(eV)
   0   2.0000     -91.890629     -2500.4711
   1   2.0000     -20.600930      -560.5798
   2   2.0000     -20.597379      -560.4832
   3   2.0000     -20.549594      -559.1829
   4   2.0000     -15.627981      -425.2590
   5   2.0000     -15.611609      -424.8135
   6   2.0000     -11.401008      -310.2372
   7   2.0000     -11.387127      -309.8595
   8   2.0000     -11.332193      -308.3647
   9   2.0000     -11.315165      -307.9013
  10   2.0000     -11.313975      -307.8689
  11   2.0000     -11.307513      -307.6931
  12   2.0000     -11.272120      -306.7300
  13   2.0000     -11.268716      -306.6374
  14   2.0000     -11.262092      -306.4571
  15   2.0000     -11.254383      -306.2473
  16   2.0000     -11.243676      -305.9560
  17   2.0000     -11.239288      -305.8366
  18   2.0000     -11.235887      -305.7440
  19   2.0000     -11.227312      -305.5107
  20   2.0000      -8.895738      -242.0653
  21   2.0000      -6.577328      -178.9782
  22   2.0000      -6.575299      -178.9230
  23   2.0000      -6.574724      -178.9073
  24   2.0000      -1.446611       -39.3643
  25   2.0000      -1.417199       -38.5640
  26   2.0000      -1.358607       -36.9696
  27   2.0000      -1.341684       -36.5091
  28   2.0000      -1.240871       -33.7658
  29   2.0000      -1.158826       -31.5333
  30   2.0000      -1.125616       -30.6296
  31   2.0000      -1.047954       -28.5163
  32   2.0000      -1.038487       -28.2587
  33   2.0000      -1.017351       -27.6835
  34   2.0000      -1.006062       -27.3763
  35   2.0000      -0.990325       -26.9481
  36   2.0000      -0.928127       -25.2556
  37   2.0000      -0.895040       -24.3553
  38   2.0000      -0.855635       -23.2830
  39   2.0000      -0.840881       -22.8815
  40   2.0000      -0.834195       -22.6996
  41   2.0000      -0.830799       -22.6072
  42   2.0000      -0.749317       -20.3899
  43   2.0000      -0.740918       -20.1614
  44   2.0000      -0.730420       -19.8757
  45   2.0000      -0.695369       -18.9220
  46   2.0000      -0.687602       -18.7106
  47   2.0000      -0.680081       -18.5059
  48   2.0000      -0.675612       -18.3843
  49   2.0000      -0.663220       -18.0471
  50   2.0000      -0.652776       -17.7629
  51   2.0000      -0.645657       -17.5692
  52   2.0000      -0.639462       -17.4006
  53   2.0000      -0.620202       -16.8766
  54   2.0000      -0.611361       -16.6360
  55   2.0000      -0.605969       -16.4893
  56   2.0000      -0.601605       -16.3705
  57   2.0000      -0.590560       -16.0700
  58   2.0000      -0.578360       -15.7380
  59   2.0000      -0.570558       -15.5257
  60   2.0000      -0.565942       -15.4001
  61   2.0000      -0.555595       -15.1185
  62   2.0000      -0.537948       -14.6383
  63   2.0000      -0.533895       -14.5280
  64   2.0000      -0.518715       -14.1150
  65   2.0000      -0.512688       -13.9509
  66   2.0000      -0.503405       -13.6983
  67   2.0000      -0.501292       -13.6409
  68   2.0000      -0.483012       -13.1434
  69   2.0000      -0.466298       -12.6886
  70   2.0000      -0.454695       -12.3729
  71   2.0000      -0.450745       -12.2654
  72   2.0000      -0.358550        -9.7566
  73   2.0000      -0.348021        -9.4701
  74   2.0000      -0.330260        -8.9868
  75   2.0000      -0.322902        -8.7866
  76   2.0000      -0.319358        -8.6902
  77   0.0000       0.084374         2.2959
  78   0.0000       0.107397         2.9224
  79   0.0000       0.111849         3.0436
  80   0.0000       0.129788         3.5317
  81   0.0000       0.131142         3.5686

MULLIKEN ATOMIC CHARGES
-----------------------
   0 C :   -0.319082
   1 C :    0.013682
   2 O :   -0.318457
   3 C :    0.418672
   4 O :   -0.385190
   5 C :   -0.228754
   6 C :    0.159120
   7 C :   -0.330730
   8 N :   -0.138724
   9 C :    0.205252
  10 S :   -0.440797
  11 N :   -0.229731
  12 C :    0.100109
  13 C :    0.017527
  14 C :   -0.214992
  15 C :   -0.137201
  16 C :   -0.277991
  17 C :    0.324598
  18 O :   -0.358206
  19 C :   -0.274517
  20 H :    0.126683
  21 H :    0.112694
  22 H :    0.105885
  23 H :    0.130042
  24 H :    0.088678
  25 H :    0.125587
  26 H :    0.143284
  27 H :    0.120155
  28 H :    0.196088
  29 H :    0.203569
  30 H :    0.167854
  31 H :    0.177267
  32 H :    0.164306
  33 H :    0.131845
  34 H :    0.241026
  35 H :    0.180449
Sum of atomic charges:   -0.0000000

LOEWDIN ATOMIC CHARGES
----------------------
   0 C :    0.104309
   1 C :   -0.021763
   2 O :    0.303575
   3 C :   -0.414439
   4 O :    0.122884
   5 C :   -0.077376
   6 C :   -0.100836
   7 C :    0.120909
   8 N :    0.402032
   9 C :   -0.458042
  10 S :   -0.037507
  11 N :    0.398395
  12 C :   -0.041698
  13 C :   -0.041698
  14 C :    0.020533
  15 C :    0.043054
  16 C :   -0.001664
  17 C :   -0.192961
  18 O :    0.395406
  19 C :    0.028154
  20 H :   -0.017845
  21 H :   -0.025734
  22 H :   -0.035509
  23 H :   -0.019144
  24 H :   -0.039963
  25 H :   -0.008708
  26 H :   -0.008029
  27 H :   -0.018462
  28 H :   -0.057557
  29 H :   -0.063214
  30 H :   -0.001713
  31 H :   -0.022132
  32 H :   -0.018647
  33 H :   -0.035033
  34 H :   -0.153541
  35 H :   -0.026034

  Mayer bond orders larger than 0.100000
B(  0-C ,  1-C ) :   0.9541 B(  0-C , 20-H ) :   0.9681 B(  0-C , 21-H ) :   0.9770
B(  0-C , 22-H ) :   0.9723 B(  1-C ,  2-O ) :   0.9063 B(  1-C , 23-H ) :   0.9850
B(  1-C , 24-H ) :   0.9734 B(  2-O ,  3-C ) :   1.1788 B(  3-C ,  4-O ) :   2.0782
B(  3-C ,  5-C ) :   0.9257 B(  5-C ,  6-C ) :   1.6922 B(  5-C , 12-C ) :   0.9436
B(  6-C ,  7-C ) :   0.9436 B(  6-C ,  8-N ) :   1.1083 B(  7-C , 25-H ) :   0.9813
B(  7-C , 26-H ) :   0.9677 B(  7-C , 27-H ) :   0.9673 B(  8-N ,  9-C ) :   1.1971
B(  8-N , 28-H ) :   0.9527 B(  9-C , 10-S ) :   1.6079 B(  9-C , 11-N ) :   1.2890
B( 11-N , 12-C ) :   0.9867 B( 11-N , 29-H ) :   0.9471 B( 12-C , 13-C ) :   0.9558
B( 12-C , 30-H ) :   0.9941 B( 13-C , 14-C ) :   1.3896 B( 13-C , 19-C ) :   1.3354
B( 14-C , 15-C ) :   1.4031 B( 14-C , 31-H ) :   0.9574 B( 15-C , 16-C ) :   1.3570
B( 15-C , 32-H ) :   0.9700 B( 16-C , 17-C ) :   1.3321 B( 16-C , 33-H ) :   0.9849
B( 17-C , 18-O ) :   1.1085 B( 17-C , 19-C ) :   1.3657 B( 18-O , 34-H ) :   0.9796
B( 19-C , 35-H ) :   0.9566

MP2 TOTAL ENERGY:    -1274.328819306 Eh
FINAL SINGLE POINT ENERGY     -1274.328819306184

DIPOLE MOMENT
-------------
                                X             Y             Z
Electronic contribution:      8.84477       6.46513       6.24706
Nuclear contribution   :    -10.32634      -7.44981      -6.96909
                        -----------------------------------------
Total Dipole Moment    :     -1.48158      -0.98468      -0.72203
                        -----------------------------------------
Magnitude (a.u.)       :      1.91989
Magnitude (Debye)      :      4.87998

Rotational constants in cm-1:     0.011913     0.009533     0.006750
Rotational constants in MHz :   357.138549   285.780234   202.351544

                             ****ORCA TERMINATED NORMALLY****
TOTAL RUN TIME: 0 days 1 hours 53 minutes 57 seconds 984 msec
