                         Program Version 4.2.0 -  RELEASE  -
|  1> ! ri-mp2 cc-pvtz cc-pvtz/c TightSCF  NoKeepInts
|  2>
|  3> %scf
|  4>   MaxCore 4096
|  5> end
|  6> *xyz  0  1
|  7>     C       15.0252440   15.6887802   17.4733484
|  8>     C       15.6370990   15.1651278   16.1565169
|  9>     O       17.0380685   14.8276489   16.2700832
| 10>     C       18.1247541   15.6462751   16.4733563
| 11>     O       19.2276440   15.1376091   16.3943129
| 12>     C       17.9463560   16.8098828   17.3880652
| 13>     C       17.4112034   17.9749416   16.9568189
| 14>     C       16.8771616   18.2713744   15.5720605
| 15>     N       17.3776368   19.0830038   17.8061190
| 16>     C       17.9957298   19.1445815   19.0279086
| 17>     S       17.9804835   20.5240883   19.9394666
| 18>     N       18.6304162   18.0043202   19.4562860
| 19>     C       18.5858382   16.6946304   18.7739181
| 20>     C       17.8920162   15.6336484   19.6254019
| 21>     C       18.3266266   14.2966381   19.5642373
| 22>     C       17.6977416   13.3009317   20.3297045
| 23>     C       16.6229015   13.6428736   21.1672361
| 24>     C       16.1840804   14.9719570   21.2310124
| 25>     O       15.1384521   15.3032474   22.0294573
| 26>     C       16.8108798   15.9615913   20.4668414
| 27>     H       15.3150616   15.0403550   18.3086977
| 28>     H       13.9307467   15.6650461   17.4075617
| 29>     H       15.3055461   16.7171110   17.7095281
| 30>     H       15.0966688   14.2518686   15.8750791
| 31>     H       15.4792095   15.8908037   15.3499956
| 32>     H       17.2099259   17.5331773   14.8322742
| 33>     H       17.2297021   19.2481126   15.2163399
| 34>     H       15.7805833   18.2893369   15.5684449
| 35>     H       16.9335249   19.9353750   17.5026630
| 36>     H       19.0683023   18.0751669   20.3661085
| 37>     H       19.6261263   16.3675651   18.6279545
| 38>     H       19.1511258   14.0258869   18.9075815
| 39>     H       18.0425920   12.2701983   20.2673235
| 40>     H       16.1331290   12.8762162   21.7583965
| 41>     H       14.8709191   14.5021943   22.5047290
| 42>     H       16.4435033   16.9804347   20.5291709
| 43> *
| 44>
| 45>                          ****END OF INPUT****

CARTESIAN COORDINATES (ANGSTROEM)
---------------------------------
  C     15.025244   15.688780   17.473348
  C     15.637099   15.165128   16.156517
  O     17.038069   14.827649   16.270083
  C     18.124754   15.646275   16.473356
  O     19.227644   15.137609   16.394313
  C     17.946356   16.809883   17.388065
  C     17.411203   17.974942   16.956819
  C     16.877162   18.271374   15.572060
  N     17.377637   19.083004   17.806119
  C     17.995730   19.144582   19.027909
  S     17.980483   20.524088   19.939467
  N     18.630416   18.004320   19.456286
  C     18.585838   16.694630   18.773918
  C     17.892016   15.633648   19.625402
  C     18.326627   14.296638   19.564237
  C     17.697742   13.300932   20.329704
  C     16.622902   13.642874   21.167236
  C     16.184080   14.971957   21.231012
  O     15.138452   15.303247   22.029457
  C     16.810880   15.961591   20.466841
  H     15.315062   15.040355   18.308698
  H     13.930747   15.665046   17.407562
  H     15.305546   16.717111   17.709528
  H     15.096669   14.251869   15.875079
  H     15.479209   15.890804   15.349996
  H     17.209926   17.533177   14.832274
  H     17.229702   19.248113   15.216340
  H     15.780583   18.289337   15.568445
  H     16.933525   19.935375   17.502663
  H     19.068302   18.075167   20.366108
  H     19.626126   16.367565   18.627954
  H     19.151126   14.025887   18.907581
  H     18.042592   12.270198   20.267323
  H     16.133129   12.876216   21.758396
  H     14.870919   14.502194   22.504729
  H     16.443503   16.980435   20.529171

 Total Charge           Charge          ....    0
 Multiplicity           Mult            ....    1
 Number of Electrons    NEL             ....  154
 Basis Dimension        Dim             ....  828

ORBITAL ENERGIES
----------------

  NO   OCC          E(Eh)            E(eV)
   0   2.0000     -91.889423     -2500.4383
   1   2.0000     -20.599353      -560.5369
   2   2.0000     -20.597142      -560.4767
   3   2.0000     -20.551978      -559.2478
   4   2.0000     -15.626251      -425.2119
   5   2.0000     -15.610938      -424.7952
   6   2.0000     -11.399272      -310.1900
   7   2.0000     -11.386100      -309.8315
   8   2.0000     -11.326427      -308.2077
   9   2.0000     -11.314890      -307.8938
  10   2.0000     -11.313667      -307.8605
  11   2.0000     -11.310417      -307.7721
  12   2.0000     -11.271942      -306.7251
  13   2.0000     -11.265198      -306.5416
  14   2.0000     -11.261557      -306.4425
  15   2.0000     -11.254292      -306.2449
  16   2.0000     -11.243359      -305.9474
  17   2.0000     -11.238893      -305.8258
  18   2.0000     -11.236069      -305.7490
  19   2.0000     -11.230199      -305.5893
  20   2.0000      -8.894534      -242.0326
  21   2.0000      -6.576127      -178.9455
  22   2.0000      -6.574097      -178.8903
  23   2.0000      -6.573525      -178.8747
  24   2.0000      -1.447816       -39.3971
  25   2.0000      -1.416977       -38.5579
  26   2.0000      -1.357627       -36.9429
  27   2.0000      -1.339647       -36.4536
  28   2.0000      -1.239267       -33.7222
  29   2.0000      -1.158619       -31.5276
  30   2.0000      -1.124984       -30.6124
  31   2.0000      -1.047808       -28.5123
  32   2.0000      -1.039315       -28.2812
  33   2.0000      -1.016793       -27.6683
  34   2.0000      -1.004967       -27.3465
  35   2.0000      -0.989720       -26.9317
  36   2.0000      -0.927495       -25.2384
  37   2.0000      -0.897525       -24.4229
  38   2.0000      -0.853767       -23.2322
  39   2.0000      -0.840052       -22.8590
  40   2.0000      -0.833926       -22.6923
  41   2.0000      -0.829531       -22.5727
  42   2.0000      -0.749321       -20.3901
  43   2.0000      -0.738251       -20.0888
  44   2.0000      -0.730278       -19.8719
  45   2.0000      -0.694601       -18.9010
  46   2.0000      -0.687169       -18.6988
  47   2.0000      -0.679270       -18.4839
  48   2.0000      -0.674804       -18.3624
  49   2.0000      -0.664255       -18.0753
  50   2.0000      -0.651854       -17.7379
  51   2.0000      -0.648742       -17.6532
  52   2.0000      -0.640653       -17.4330
  53   2.0000      -0.613830       -16.7032
  54   2.0000      -0.608601       -16.5609
  55   2.0000      -0.604573       -16.4513
  56   2.0000      -0.601759       -16.3747
  57   2.0000      -0.591480       -16.0950
  58   2.0000      -0.582426       -15.8486
  59   2.0000      -0.574140       -15.6231
  60   2.0000      -0.565215       -15.3803
  61   2.0000      -0.557893       -15.1810
  62   2.0000      -0.542270       -14.7559
  63   2.0000      -0.528138       -14.3714
  64   2.0000      -0.516418       -14.0524
  65   2.0000      -0.512825       -13.9547
  66   2.0000      -0.503556       -13.7025
  67   2.0000      -0.500830       -13.6283
  68   2.0000      -0.484867       -13.1939
  69   2.0000      -0.462947       -12.5974
  70   2.0000      -0.455081       -12.3834
  71   2.0000      -0.452104       -12.3024
  72   2.0000      -0.355544        -9.6748
  73   2.0000      -0.348098        -9.4722
  74   2.0000      -0.329108        -8.9555
  75   2.0000      -0.322237        -8.7685
  76   2.0000      -0.317476        -8.6390
  77   0.0000       0.087636         2.3847
  78   0.0000       0.104370         2.8400
  79   0.0000       0.112301         3.0559
  80   0.0000       0.129243         3.5169
  81   0.0000       0.131169         3.5693

MULLIKEN ATOMIC CHARGES
-----------------------
   0 C :   -0.326983
   1 C :    0.018409
   2 O :   -0.321524
   3 C :    0.395770
   4 O :   -0.374096
   5 C :   -0.161629
   6 C :    0.126233
   7 C :   -0.332926
   8 N :   -0.137258
   9 C :    0.206721
  10 S :   -0.442177
  11 N :   -0.228476
  12 C :    0.077885
  13 C :    0.029391
  14 C :   -0.206539
  15 C :   -0.136016
  16 C :   -0.275830
  17 C :    0.314960
  18 O :   -0.358969
  19 C :   -0.272634
  20 H :    0.128874
  21 H :    0.114525
  22 H :    0.105951
  23 H :    0.132533
  24 H :    0.087873
  25 H :    0.123398
  26 H :    0.136620
  27 H :    0.124422
  28 H :    0.195990
  29 H :    0.202564
  30 H :    0.169619
  31 H :    0.170477
  32 H :    0.163312
  33 H :    0.131929
  34 H :    0.240980
  35 H :    0.176622
Sum of atomic charges:   -0.0000000

LOEWDIN ATOMIC CHARGES
----------------------
   0 C :    0.104717
   1 C :   -0.020317
   2 O :    0.304548
   3 C :   -0.418375
   4 O :    0.130357
   5 C :   -0.077086
   6 C :   -0.106823
   7 C :    0.123783
   8 N :    0.401244
   9 C :   -0.456442
  10 S :   -0.038866
  11 N :    0.398605
  12 C :   -0.041595
  13 C :   -0.041428
  14 C :    0.022378
  15 C :    0.044279
  16 C :   -0.002295
  17 C :   -0.194523
  18 O :    0.395310
  19 C :    0.028294
  20 H :   -0.020049
  21 H :   -0.024795
  22 H :   -0.038468
  23 H :   -0.016924
  24 H :   -0.039752
  25 H :   -0.010231
  26 H :   -0.009674
  27 H :   -0.017190
  28 H :   -0.058831
  29 H :   -0.063701
  30 H :   -0.001411
  31 H :   -0.021742
  32 H :   -0.018682
  33 H :   -0.035167
  34 H :   -0.153679
  35 H :   -0.025468

  Mayer bond orders larger than 0.100000
B(  0-C ,  1-C ) :   0.9538 B(  0-C , 20-H ) :   0.9690 B(  0-C , 21-H ) :   0.9775
B(  0-C , 22-H ) :   0.9742 B(  1-C ,  2-O ) :   0.9157 B(  1-C , 23-H ) :   0.9821
B(  1-C , 24-H ) :   0.9775 B(  2-O ,  3-C ) :   1.1362 B(  3-C ,  4-O ) :   2.0839
B(  3-C ,  5-C ) :   0.9169 B(  5-C ,  6-C ) :   1.7105 B(  5-C , 12-C ) :   0.9573
B(  6-C ,  7-C ) :   0.9412 B(  6-C ,  8-N ) :   1.0960 B(  7-C , 25-H ) :   0.9810
B(  7-C , 26-H ) :   0.9743 B(  7-C , 27-H ) :   0.9644 B(  8-N ,  9-C ) :   1.1982
B(  8-N , 28-H ) :   0.9530 B(  9-C , 10-S ) :   1.6069 B(  9-C , 11-N ) :   1.2865
B( 11-N , 12-C ) :   0.9841 B( 11-N , 29-H ) :   0.9472 B( 12-C , 13-C ) :   0.9501
B( 12-C , 30-H ) :   0.9950 B( 13-C , 14-C ) :   1.3871 B( 13-C , 19-C ) :   1.3416
B( 14-C , 15-C ) :   1.4025 B( 14-C , 31-H ) :   0.9608 B( 15-C , 16-C ) :   1.3577
B( 15-C , 32-H ) :   0.9702 B( 16-C , 17-C ) :   1.3310 B( 16-C , 33-H ) :   0.9850
B( 17-C , 18-O ) :   1.1094 B( 17-C , 19-C ) :   1.3686 B( 18-O , 34-H ) :   0.9797
B( 19-C , 35-H ) :   0.9579

MP2 TOTAL ENERGY:    -1274.320018682 Eh
FINAL SINGLE POINT ENERGY     -1274.320018682348

DIPOLE MOMENT
-------------
                                X             Y             Z
Electronic contribution:      9.42688       5.91183       6.56060
Nuclear contribution   :    -11.00361      -7.04966      -7.36615
                        -----------------------------------------
Total Dipole Moment    :     -1.57673      -1.13782      -0.80554
                        -----------------------------------------
Magnitude (a.u.)       :      2.10467
Magnitude (Debye)      :      5.34964

Rotational constants in cm-1:     0.011921     0.009574     0.006856
Rotational constants in MHz :   357.372698   287.027281   205.552530

                             ****ORCA TERMINATED NORMALLY****
TOTAL RUN TIME: 0 days 1 hours 50 minutes 15 seconds 294 msec
