                         Program Version 4.2.0 -  RELEASE  -
|  1> ! ri-mp2 cc-pvtz cc-pvtz/c TightSCF  NoKeepInts
|  2>
|  3> %scf
|  4>   MaxCore 4096
|  5> end
|  6> *xyz  0  1
|  7>     C       15.9038433   13.1823364   16.6783636
|  8>     C       15.7531389   14.7111750   16.7506346
|  9>     O       16.9634405   15.2933987   16.2361206
| 10>     C       16.9926770   16.6502212   16.1094936
| 11>     O       16.2630756   17.1889144   15.2968542
| 12>     C       17.5712270   17.3600384   17.3061039
| 13>     C       17.4300184   18.6980227   17.4972731
| 14>     C       16.6320518   19.6717540   16.6563223
| 15>     N       18.1168921   19.3312346   18.5383610
| 16>     C       19.1199511   18.7528611   19.2704167
| 17>     S       20.0270218   19.6153103   20.3515302
| 18>     N       19.3442512   17.4184121   19.0451745
| 19>     C       18.4465257   16.5414158   18.2722593
| 20>     C       17.6384646   15.6897423   19.2452384
| 21>     C       17.9470766   14.3274178   19.4170469
| 22>     C       17.2106388   13.5344017   20.3130448
| 23>     C       16.1619314   14.1097520   21.0503455
| 24>     C       15.8611932   15.4694588   20.8934165
| 25>     O       14.8513265   16.0292674   21.6054488
| 26>     C       16.5942496   16.2557541   19.9993113
| 27>     H       16.7602933   12.8453888   17.2737538
| 28>     H       16.0557741   12.8595505   15.6408339
| 29>     H       15.0030090   12.6894172   17.0632580
| 30>     H       14.8966723   15.0195120   16.1353805
| 31>     H       15.5622808   15.0259964   17.7828982
| 32>     H       15.5813995   19.3602125   16.5970375
| 33>     H       17.0214331   19.7046480   15.6306591
| 34>     H       16.6501357   20.6946583   17.0502510
| 35>     H       17.9737023   20.3149740   18.7028326
| 36>     H       20.0745777   17.0122370   19.6157380
| 37>     H       19.0739746   15.8719915   17.6666895
| 38>     H       18.7574541   13.8791306   18.8480734
| 39>     H       17.4549519   12.4804704   20.4357576
| 40>     H       15.5911542   13.5015035   21.7445450
| 41>     H       14.5104230   15.3534188   22.2107885
| 42>     H       16.3507691   17.3080020   19.9027437
| 43> *
| 44>
| 45>                          ****END OF INPUT****

CARTESIAN COORDINATES (ANGSTROEM)
---------------------------------
  C     15.903843   13.182336   16.678364
  C     15.753139   14.711175   16.750635
  O     16.963441   15.293399   16.236121
  C     16.992677   16.650221   16.109494
  O     16.263076   17.188914   15.296854
  C     17.571227   17.360038   17.306104
  C     17.430018   18.698023   17.497273
  C     16.632052   19.671754   16.656322
  N     18.116892   19.331235   18.538361
  C     19.119951   18.752861   19.270417
  S     20.027022   19.615310   20.351530
  N     19.344251   17.418412   19.045174
  C     18.446526   16.541416   18.272259
  C     17.638465   15.689742   19.245238
  C     17.947077   14.327418   19.417047
  C     17.210639   13.534402   20.313045
  C     16.161931   14.109752   21.050345
  C     15.861193   15.469459   20.893417
  O     14.851327   16.029267   21.605449
  C     16.594250   16.255754   19.999311
  H     16.760293   12.845389   17.273754
  H     16.055774   12.859550   15.640834
  H     15.003009   12.689417   17.063258
  H     14.896672   15.019512   16.135381
  H     15.562281   15.025996   17.782898
  H     15.581399   19.360212   16.597037
  H     17.021433   19.704648   15.630659
  H     16.650136   20.694658   17.050251
  H     17.973702   20.314974   18.702833
  H     20.074578   17.012237   19.615738
  H     19.073975   15.871992   17.666690
  H     18.757454   13.879131   18.848073
  H     17.454952   12.480470   20.435758
  H     15.591154   13.501503   21.744545
  H     14.510423   15.353419   22.210788
  H     16.350769   17.308002   19.902744

 Total Charge           Charge          ....    0
 Multiplicity           Mult            ....    1
 Number of Electrons    NEL             ....  154
 Basis Dimension        Dim             ....  828

ORBITAL ENERGIES
----------------

  NO   OCC          E(Eh)            E(eV)
   0   2.0000     -91.891263     -2500.4884
   1   2.0000     -20.601932      -560.6071
   2   2.0000     -20.582222      -560.0707
   3   2.0000     -20.547704      -559.1315
   4   2.0000     -15.631911      -425.3659
   5   2.0000     -15.610060      -424.7713
   6   2.0000     -11.392170      -309.9967
   7   2.0000     -11.385781      -309.8229
   8   2.0000     -11.338323      -308.5315
   9   2.0000     -11.319799      -308.0274
  10   2.0000     -11.312473      -307.8281
  11   2.0000     -11.293152      -307.3023
  12   2.0000     -11.264614      -306.5257
  13   2.0000     -11.261306      -306.4357
  14   2.0000     -11.260268      -306.4075
  15   2.0000     -11.253659      -306.2276
  16   2.0000     -11.248913      -306.0985
  17   2.0000     -11.243487      -305.9508
  18   2.0000     -11.243155      -305.9418
  19   2.0000     -11.225532      -305.4623
  20   2.0000      -8.896284      -242.0802
  21   2.0000      -6.577848      -178.9923
  22   2.0000      -6.575855      -178.9381
  23   2.0000      -6.575258      -178.9219
  24   2.0000      -1.449075       -39.4313
  25   2.0000      -1.421625       -38.6844
  26   2.0000      -1.352138       -36.7935
  27   2.0000      -1.342952       -36.5436
  28   2.0000      -1.241240       -33.7758
  29   2.0000      -1.162724       -31.6393
  30   2.0000      -1.121716       -30.5234
  31   2.0000      -1.046558       -28.4783
  32   2.0000      -1.033734       -28.1293
  33   2.0000      -1.021118       -27.7860
  34   2.0000      -0.998413       -27.1682
  35   2.0000      -0.986323       -26.8392
  36   2.0000      -0.925958       -25.1966
  37   2.0000      -0.878530       -23.9060
  38   2.0000      -0.849737       -23.1225
  39   2.0000      -0.842927       -22.9372
  40   2.0000      -0.838955       -22.8291
  41   2.0000      -0.828947       -22.5568
  42   2.0000      -0.761673       -20.7262
  43   2.0000      -0.736608       -20.0441
  44   2.0000      -0.724202       -19.7066
  45   2.0000      -0.701427       -19.0868
  46   2.0000      -0.692053       -18.8317
  47   2.0000      -0.678730       -18.4692
  48   2.0000      -0.672930       -18.3114
  49   2.0000      -0.657287       -17.8857
  50   2.0000      -0.648836       -17.6557
  51   2.0000      -0.644949       -17.5499
  52   2.0000      -0.629280       -17.1236
  53   2.0000      -0.623729       -16.9725
  54   2.0000      -0.612747       -16.6737
  55   2.0000      -0.604221       -16.4417
  56   2.0000      -0.601439       -16.3660
  57   2.0000      -0.582345       -15.8464
  58   2.0000      -0.572638       -15.5823
  59   2.0000      -0.565937       -15.3999
  60   2.0000      -0.553221       -15.0539
  61   2.0000      -0.540827       -14.7167
  62   2.0000      -0.532590       -14.4925
  63   2.0000      -0.529706       -14.4140
  64   2.0000      -0.519049       -14.1240
  65   2.0000      -0.516961       -14.0672
  66   2.0000      -0.507531       -13.8106
  67   2.0000      -0.501422       -13.6444
  68   2.0000      -0.485331       -13.2065
  69   2.0000      -0.464160       -12.6304
  70   2.0000      -0.457889       -12.4598
  71   2.0000      -0.443968       -12.0810
  72   2.0000      -0.358506        -9.7554
  73   2.0000      -0.354424        -9.6444
  74   2.0000      -0.331139        -9.0107
  75   2.0000      -0.327124        -8.9015
  76   2.0000      -0.318144        -8.6571
  77   0.0000       0.067779         1.8444
  78   0.0000       0.101120         2.7516
  79   0.0000       0.121928         3.3178
  80   0.0000       0.127136         3.4595
  81   0.0000       0.132122         3.5952

MULLIKEN ATOMIC CHARGES
-----------------------
   0 C :   -0.270117
   1 C :    0.013904
   2 O :   -0.381689
   3 C :    0.516589
   4 O :   -0.406980
   5 C :   -0.284349
   6 C :    0.151463
   7 C :   -0.270164
   8 N :   -0.124185
   9 C :    0.211846
  10 S :   -0.435703
  11 N :   -0.198724
  12 C :    0.043434
  13 C :    0.037839
  14 C :   -0.188414
  15 C :   -0.132280
  16 C :   -0.268693
  17 C :    0.305387
  18 O :   -0.356376
  19 C :   -0.246576
  20 H :    0.090116
  21 H :    0.107468
  22 H :    0.089419
  23 H :    0.119957
  24 H :    0.109269
  25 H :    0.129982
  26 H :    0.134666
  27 H :    0.094644
  28 H :    0.198763
  29 H :    0.192291
  30 H :    0.150022
  31 H :    0.157125
  32 H :    0.166109
  33 H :    0.133803
  34 H :    0.241789
  35 H :    0.168370
Sum of atomic charges:   -0.0000000

LOEWDIN ATOMIC CHARGES
----------------------
   0 C :    0.110171
   1 C :   -0.018282
   2 O :    0.286915
   3 C :   -0.419695
   4 O :    0.120385
   5 C :   -0.099308
   6 C :   -0.057292
   7 C :    0.130937
   8 N :    0.407280
   9 C :   -0.456622
  10 S :   -0.031922
  11 N :    0.396169
  12 C :   -0.053486
  13 C :   -0.038710
  14 C :    0.015121
  15 C :    0.044526
  16 C :   -0.000793
  17 C :   -0.190896
  18 O :    0.396668
  19 C :    0.030104
  20 H :   -0.032476
  21 H :   -0.025589
  22 H :   -0.025122
  23 H :   -0.029519
  24 H :   -0.035817
  25 H :   -0.005202
  26 H :   -0.003001
  27 H :   -0.023242
  28 H :   -0.057331
  29 H :   -0.065507
  30 H :   -0.006760
  31 H :   -0.030056
  32 H :   -0.019770
  33 H :   -0.034190
  34 H :   -0.152579
  35 H :   -0.025112

  Mayer bond orders larger than 0.100000
B(  0-C ,  1-C ) :   0.9799 B(  0-C , 20-H ) :   0.9759 B(  0-C , 21-H ) :   0.9786
B(  0-C , 22-H ) :   0.9758 B(  1-C ,  2-O ) :   0.8750 B(  1-C , 23-H ) :   0.9794
B(  1-C , 24-H ) :   0.9634 B(  2-O ,  3-C ) :   1.1088 B(  3-C ,  4-O ) :   2.0193
B(  3-C ,  5-C ) :   1.0580 B(  5-C ,  6-C ) :   1.6543 B(  5-C , 12-C ) :   0.9704
B(  6-C ,  7-C ) :   0.9711 B(  6-C ,  8-N ) :   1.1564 B(  7-C , 25-H ) :   0.9622
B(  7-C , 26-H ) :   0.9574 B(  7-C , 27-H ) :   0.9893 B(  8-N ,  9-C ) :   1.1783
B(  8-N , 28-H ) :   0.9480 B(  9-C , 10-S ) :   1.6134 B(  9-C , 11-N ) :   1.3030
B( 11-N , 12-C ) :   0.9709 B( 11-N , 29-H ) :   0.9541 B( 12-C , 13-C ) :   0.9506
B( 12-C , 30-H ) :   1.0008 B( 13-C , 14-C ) :   1.3521 B( 13-C , 19-C ) :   1.3673
B( 14-C , 15-C ) :   1.3807 B( 14-C , 31-H ) :   0.9715 B( 15-C , 16-C ) :   1.3685
B( 15-C , 32-H ) :   0.9682 B( 16-C , 17-C ) :   1.3261 B( 16-C , 33-H ) :   0.9835
B( 17-C , 18-O ) :   1.1152 B( 17-C , 19-C ) :   1.3805 B( 18-O , 34-H ) :   0.9789
B( 19-C , 35-H ) :   0.9570

MP2 TOTAL ENERGY:    -1274.330693579 Eh
FINAL SINGLE POINT ENERGY     -1274.330693579066

DIPOLE MOMENT
-------------
                                X             Y             Z
Electronic contribution:      9.02883      10.85575       5.41539
Nuclear contribution   :    -10.12235     -12.30770      -5.17761
                        -----------------------------------------
Total Dipole Moment    :     -1.09352      -1.45195       0.23779
                        -----------------------------------------
Magnitude (a.u.)       :      1.83316
Magnitude (Debye)      :      4.65953

Rotational constants in cm-1:     0.012304     0.008995     0.006470
Rotational constants in MHz :   368.855735   269.659727   193.964616

                             ****ORCA TERMINATED NORMALLY****
TOTAL RUN TIME: 0 days 2 hours 6 minutes 5 seconds 892 msec
