                         Program Version 5.0.0 -  RELEASE  -
|  1> ! ri-mp2 cc-pvtz cc-pvtz/c TightSCF NoKeepInts
|  2>
|  3> %scf
|  4>   MaxCore 4096
|  5> end
|  6> *xyz  0  1
|  7>     C       14.2430957   15.1457200   16.1348773
|  8>     C       15.5597986   15.2498211   16.9219835
|  9>     O       16.6023523   15.5635368   15.9811647
| 10>     C       17.8537528   15.7952535   16.4724142
| 11>     O       18.6852379   14.9058330   16.4659561
| 12>     C       17.9363862   16.9496915   17.4238388
| 13>     C       17.2906387   18.1252767   17.2289821
| 14>     C       16.4321468   18.5115965   16.0432532
| 15>     N       17.4486037   19.1653772   18.1489448
| 16>     C       18.3258163   19.1490827   19.2020638
| 17>     S       18.5231858   20.4608504   20.1892111
| 18>     N       19.0289099   17.9861355   19.3987694
| 19>     C       18.8131068   16.7284024   18.6571665
| 20>     C       18.1919942   15.6647442   19.5582257
| 21>     C       18.7509452   14.3756307   19.6272962
| 22>     C       18.1671408   13.3837577   20.4328651
| 23>     C       17.0116620   13.6813572   21.1750421
| 24>     C       16.4483538   14.9623967   21.1049672
| 25>     O       15.3245799   15.2499631   21.8084293
| 26>     C       17.0313110   15.9476080   20.3019297
| 27>     H       13.4115809   14.9007585   16.8069132
| 28>     H       14.3119372   14.3581224   15.3738610
| 29>     H       14.0123756   16.0925206   15.6318408
| 30>     H       15.4633076   16.0283404   17.6897007
| 31>     H       15.7776756   14.2959063   17.4219886
| 32>     H       15.3914626   18.2022075   16.1953611
| 33>     H       16.7913646   18.0404058   15.1195395
| 34>     H       16.4389328   19.5943347   15.8664157
| 35>     H       16.9462946   20.0294468   18.0187880
| 36>     H       19.6502189   17.9936552   20.1978008
| 37>     H       19.7936970   16.3659925   18.3150571
| 38>     H       19.6322436   14.1360499   19.0363875
| 39>     H       18.6069056   12.3885671   20.4723405
| 40>     H       16.5559991   12.9166623   21.7954841
| 41>     H       15.1148163   14.4740964   22.3503816
| 42>     H       16.5791697   16.9328986   20.2647590
| 43> *
| 44>
| 45>                          ****END OF INPUT****

CARTESIAN COORDINATES (ANGSTROEM)
---------------------------------
  C     14.243096   15.145720   16.134877
  C     15.559799   15.249821   16.921983
  O     16.602352   15.563537   15.981165
  C     17.853753   15.795253   16.472414
  O     18.685238   14.905833   16.465956
  C     17.936386   16.949691   17.423839
  C     17.290639   18.125277   17.228982
  C     16.432147   18.511596   16.043253
  N     17.448604   19.165377   18.148945
  C     18.325816   19.149083   19.202064
  S     18.523186   20.460850   20.189211
  N     19.028910   17.986135   19.398769
  C     18.813107   16.728402   18.657166
  C     18.191994   15.664744   19.558226
  C     18.750945   14.375631   19.627296
  C     18.167141   13.383758   20.432865
  C     17.011662   13.681357   21.175042
  C     16.448354   14.962397   21.104967
  O     15.324580   15.249963   21.808429
  C     17.031311   15.947608   20.301930
  H     13.411581   14.900759   16.806913
  H     14.311937   14.358122   15.373861
  H     14.012376   16.092521   15.631841
  H     15.463308   16.028340   17.689701
  H     15.777676   14.295906   17.421989
  H     15.391463   18.202208   16.195361
  H     16.791365   18.040406   15.119539
  H     16.438933   19.594335   15.866416
  H     16.946295   20.029447   18.018788
  H     19.650219   17.993655   20.197801
  H     19.793697   16.365993   18.315057
  H     19.632244   14.136050   19.036388
  H     18.606906   12.388567   20.472341
  H     16.555999   12.916662   21.795484
  H     15.114816   14.474096   22.350382
  H     16.579170   16.932899   20.264759

 Total Charge           Charge          ....    0
 Multiplicity           Mult            ....    1
 Number of Electrons    NEL             ....  154
 Basis Dimension        Dim             ....  828

ORBITAL ENERGIES
----------------

  NO   OCC          E(Eh)            E(eV)
   0   2.0000     -91.890878     -2500.4779
   1   2.0000     -20.598152      -560.5042
   2   2.0000     -20.586926      -560.1987
   3   2.0000     -20.555656      -559.3478
   4   2.0000     -15.630453      -425.3263
   5   2.0000     -15.610483      -424.7828
   6   2.0000     -11.393977      -310.0459
   7   2.0000     -11.386682      -309.8474
   8   2.0000     -11.335254      -308.4479
   9   2.0000     -11.314335      -307.8787
  10   2.0000     -11.310756      -307.7813
  11   2.0000     -11.302375      -307.5533
  12   2.0000     -11.265042      -306.5374
  13   2.0000     -11.261605      -306.4438
  14   2.0000     -11.259968      -306.3993
  15   2.0000     -11.254169      -306.2415
  16   2.0000     -11.243942      -305.9632
  17   2.0000     -11.240050      -305.8573
  18   2.0000     -11.236760      -305.7678
  19   2.0000     -11.234756      -305.7133
  20   2.0000      -8.895951      -242.0711
  21   2.0000      -6.577528      -178.9836
  22   2.0000      -6.575517      -178.9289
  23   2.0000      -6.574931      -178.9130
  24   2.0000      -1.451163       -39.4882
  25   2.0000      -1.417947       -38.5843
  26   2.0000      -1.359079       -36.9824
  27   2.0000      -1.341775       -36.5116
  28   2.0000      -1.240029       -33.7429
  29   2.0000      -1.158768       -31.5317
  30   2.0000      -1.123831       -30.5810
  31   2.0000      -1.046716       -28.4826
  32   2.0000      -1.038318       -28.2541
  33   2.0000      -1.016166       -27.6513
  34   2.0000      -1.002817       -27.2880
  35   2.0000      -0.988311       -26.8933
  36   2.0000      -0.925979       -25.1972
  37   2.0000      -0.879174       -23.9235
  38   2.0000      -0.853167       -23.2159
  39   2.0000      -0.842517       -22.9260
  40   2.0000      -0.834720       -22.7139
  41   2.0000      -0.833784       -22.6884
  42   2.0000      -0.757771       -20.6200
  43   2.0000      -0.737633       -20.0720
  44   2.0000      -0.730697       -19.8833
  45   2.0000      -0.696119       -18.9424
  46   2.0000      -0.688001       -18.7215
  47   2.0000      -0.683156       -18.5896
  48   2.0000      -0.675884       -18.3917
  49   2.0000      -0.659450       -17.9446
  50   2.0000      -0.651356       -17.7243
  51   2.0000      -0.642836       -17.4925
  52   2.0000      -0.637715       -17.3531
  53   2.0000      -0.621188       -16.9034
  54   2.0000      -0.606647       -16.5077
  55   2.0000      -0.605916       -16.4878
  56   2.0000      -0.601767       -16.3749
  57   2.0000      -0.582205       -15.8426
  58   2.0000      -0.577140       -15.7048
  59   2.0000      -0.566394       -15.4124
  60   2.0000      -0.559505       -15.2249
  61   2.0000      -0.552636       -15.0380
  62   2.0000      -0.539158       -14.6712
  63   2.0000      -0.527481       -14.3535
  64   2.0000      -0.523910       -14.2563
  65   2.0000      -0.515087       -14.0162
  66   2.0000      -0.502332       -13.6692
  67   2.0000      -0.497682       -13.5426
  68   2.0000      -0.485295       -13.2055
  69   2.0000      -0.466976       -12.7071
  70   2.0000      -0.462291       -12.5796
  71   2.0000      -0.452316       -12.3081
  72   2.0000      -0.357120        -9.7177
  73   2.0000      -0.350002        -9.5240
  74   2.0000      -0.330164        -8.9842
  75   2.0000      -0.321760        -8.7555
  76   2.0000      -0.318398        -8.6640
  77   0.0000       0.071607         1.9485
  78   0.0000       0.104004         2.8301
  79   0.0000       0.117498         3.1973
  80   0.0000       0.130678         3.5559
  81   0.0000       0.134877         3.6702

MULLIKEN ATOMIC CHARGES
-----------------------
   0 C :   -0.261943
   1 C :    0.006303
   2 O :   -0.355584
   3 C :    0.463020
   4 O :   -0.381951
   5 C :   -0.240559
   6 C :    0.150238
   7 C :   -0.298361
   8 N :   -0.126706
   9 C :    0.198903
  10 S :   -0.437122
  11 N :   -0.202886
  12 C :    0.054104
  13 C :    0.049003
  14 C :   -0.172195
  15 C :   -0.132272
  16 C :   -0.279840
  17 C :    0.315143
  18 O :   -0.358825
  19 C :   -0.297470
  20 H :    0.094345
  21 H :    0.108336
  22 H :    0.091298
  23 H :    0.099494
  24 H :    0.121759
  25 H :    0.118565
  26 H :    0.135353
  27 H :    0.117749
  28 H :    0.197538
  29 H :    0.195051
  30 H :    0.158990
  31 H :    0.161752
  32 H :    0.162200
  33 H :    0.131517
  34 H :    0.241607
  35 H :    0.173448
Sum of atomic charges:   -0.0000000

LOEWDIN ATOMIC CHARGES
----------------------
   0 C :    0.111027
   1 C :   -0.022400
   2 O :    0.291696
   3 C :   -0.419801
   4 O :    0.134497
   5 C :   -0.093843
   6 C :   -0.081196
   7 C :    0.127827
   8 N :    0.403894
   9 C :   -0.457694
  10 S :   -0.034468
  11 N :    0.397141
  12 C :   -0.045849
  13 C :   -0.042247
  14 C :    0.022355
  15 C :    0.043273
  16 C :   -0.001467
  17 C :   -0.195088
  18 O :    0.393437
  19 C :    0.027825
  20 H :   -0.023489
  21 H :   -0.022863
  22 H :   -0.031219
  23 H :   -0.038929
  24 H :   -0.024559
  25 H :   -0.013815
  26 H :   -0.006067
  27 H :   -0.016195
  28 H :   -0.058158
  29 H :   -0.063686
  30 H :   -0.003479
  31 H :   -0.023187
  32 H :   -0.019439
  33 H :   -0.035113
  34 H :   -0.153284
  35 H :   -0.025438

  Mayer bond orders larger than 0.100000
B(  0-C ,  1-C ) :   0.9776 B(  0-C , 20-H ) :   0.9760 B(  0-C , 21-H ) :   0.9790
B(  0-C , 22-H ) :   0.9779 B(  1-C ,  2-O ) :   0.8931 B(  1-C , 23-H ) :   0.9642
B(  1-C , 24-H ) :   0.9765 B(  2-O ,  3-C ) :   1.1250 B(  3-C ,  4-O ) :   2.0826
B(  3-C ,  5-C ) :   0.9692 B(  5-C ,  6-C ) :   1.6635 B(  5-C , 12-C ) :   0.9639
B(  6-C ,  7-C ) :   0.9504 B(  6-C ,  8-N ) :   1.1338 B(  7-C , 25-H ) :   0.9628
B(  7-C , 26-H ) :   0.9703 B(  7-C , 27-H ) :   0.9852 B(  8-N ,  9-C ) :   1.1841
B(  8-N , 28-H ) :   0.9500 B(  9-C , 10-S ) :   1.6144 B(  9-C , 11-N ) :   1.2967
B( 11-N , 12-C ) :   0.9960 B( 11-N , 29-H ) :   0.9516 B( 12-C , 13-C ) :   0.9440
B( 12-C , 30-H ) :   0.9985 B( 13-C , 14-C ) :   1.3838 B( 13-C , 19-C ) :   1.3494
B( 14-C , 15-C ) :   1.3954 B( 14-C , 31-H ) :   0.9614 B( 15-C , 16-C ) :   1.3644
B( 15-C , 32-H ) :   0.9705 B( 16-C , 17-C ) :   1.3294 B( 16-C , 33-H ) :   0.9846
B( 17-C , 18-O ) :   1.1114 B( 17-C , 19-C ) :   1.3729 B( 18-O , 34-H ) :   0.9795
B( 19-C , 35-H ) :   0.9582

MP2 TOTAL ENERGY:    -1274.329294192 Eh
FINAL SINGLE POINT ENERGY     -1274.329294192310

DIPOLE MOMENT
-------------
                                X             Y             Z
Electronic contribution:     11.80853       7.38234       7.48173
Nuclear contribution   :    -13.18656      -8.45677      -7.83878
                        -----------------------------------------
Total Dipole Moment    :     -1.37803      -1.07443      -0.35705
                        -----------------------------------------
Magnitude (a.u.)       :      1.78350
Magnitude (Debye)      :      4.53329

Rotational constants in cm-1:     0.011214     0.009362     0.006794
Rotational constants in MHz :   336.201600   280.654579   203.677227

                             ****ORCA TERMINATED NORMALLY****
TOTAL RUN TIME: 0 days 2 hours 5 minutes 2 seconds 823 msec
