                         Program Version 4.2.0 -  RELEASE  -
|  1> ! ri-mp2 cc-pvtz cc-pvtz/c TightSCF  NoKeepInts
|  2>
|  3> %scf
|  4>   MaxCore 4096
|  5> end
|  6> *xyz  0  1
|  7>     C       15.6182978   13.6094678   15.3568240
|  8>     C       15.6339760   14.3931382   16.6799886
|  9>     O       16.7523726   15.2968530   16.6370913
| 10>     C       16.5210676   16.6429477   16.6208471
| 11>     O       15.5432267   17.1210842   16.0715213
| 12>     C       17.4231220   17.3981526   17.5580853
| 13>     C       17.3593650   18.7466914   17.6985184
| 14>     C       16.4250942   19.6993661   16.9836045
| 15>     N       18.2476493   19.4055912   18.5537148
| 16>     C       19.2889012   18.8090071   19.2131137
| 17>     S       20.3551250   19.6774738   20.1322307
| 18>     N       19.4065579   17.4502064   19.0690175
| 19>     C       18.4362735   16.5815785   18.3781249
| 20>     C       17.7515446   15.6700499   19.3928760
| 21>     C       18.0298757   14.2903205   19.4120506
| 22>     C       17.3960306   13.4458010   20.3389238
| 23>     C       16.4791409   13.9854804   21.2570469
| 24>     C       16.2045981   15.3599466   21.2451478
| 25>     O       15.3211768   15.8842519   22.1314118
| 26>     C       16.8359949   16.1976484   20.3206735
| 27>     H       15.4765097   14.2917693   14.5090292
| 28>     H       14.7989269   12.8805912   15.3506779
| 29>     H       16.5623149   13.0693273   15.2140183
| 30>     H       14.6818893   14.9234359   16.8204679
| 31>     H       15.7596684   13.6943271   17.5171840
| 32>     H       15.3817532   19.4867840   17.2500126
| 33>     H       16.5141145   19.5851221   15.8957679
| 34>     H       16.6207544   20.7515580   17.2211711
| 35>     H       18.1776127   20.4039298   18.6700073
| 36>     H       20.1625218   17.0342704   19.5975706
| 37>     H       19.0019026   15.9540440   17.6749478
| 38>     H       18.7350708   13.8699676   18.6998702
| 39>     H       17.6170834   12.3797874   20.3450305
| 40>     H       15.9880786   13.3377561   21.9759062
| 41>     H       15.0245909   15.1647869   22.7087482
| 42>     H       16.6148177   17.2594862   20.3327776
| 43> *
| 44>
| 45>                          ****END OF INPUT****

CARTESIAN COORDINATES (ANGSTROEM)
---------------------------------
  C     15.618298   13.609468   15.356824
  C     15.633976   14.393138   16.679989
  O     16.752373   15.296853   16.637091
  C     16.521068   16.642948   16.620847
  O     15.543227   17.121084   16.071521
  C     17.423122   17.398153   17.558085
  C     17.359365   18.746691   17.698518
  C     16.425094   19.699366   16.983604
  N     18.247649   19.405591   18.553715
  C     19.288901   18.809007   19.213114
  S     20.355125   19.677474   20.132231
  N     19.406558   17.450206   19.069018
  C     18.436273   16.581578   18.378125
  C     17.751545   15.670050   19.392876
  C     18.029876   14.290320   19.412051
  C     17.396031   13.445801   20.338924
  C     16.479141   13.985480   21.257047
  C     16.204598   15.359947   21.245148
  O     15.321177   15.884252   22.131412
  C     16.835995   16.197648   20.320673
  H     15.476510   14.291769   14.509029
  H     14.798927   12.880591   15.350678
  H     16.562315   13.069327   15.214018
  H     14.681889   14.923436   16.820468
  H     15.759668   13.694327   17.517184
  H     15.381753   19.486784   17.250013
  H     16.514115   19.585122   15.895768
  H     16.620754   20.751558   17.221171
  H     18.177613   20.403930   18.670007
  H     20.162522   17.034270   19.597571
  H     19.001903   15.954044   17.674948
  H     18.735071   13.869968   18.699870
  H     17.617083   12.379787   20.345031
  H     15.988079   13.337756   21.975906
  H     15.024591   15.164787   22.708748
  H     16.614818   17.259486   20.332778

 Total Charge           Charge          ....    0
 Multiplicity           Mult            ....    1
 Number of Electrons    NEL             ....  154
 Basis Dimension        Dim             ....  828

ORBITAL ENERGIES
----------------

  NO   OCC          E(Eh)            E(eV)
   0   2.0000     -91.889385     -2500.4373
   1   2.0000     -20.598129      -560.5036
   2   2.0000     -20.594695      -560.4101
   3   2.0000     -20.543726      -559.0232
   4   2.0000     -15.629626      -425.3037
   5   2.0000     -15.608816      -424.7375
   6   2.0000     -11.394710      -310.0658
   7   2.0000     -11.384517      -309.7885
   8   2.0000     -11.336284      -308.4760
   9   2.0000     -11.315606      -307.9133
  10   2.0000     -11.309892      -307.7578
  11   2.0000     -11.294244      -307.3320
  12   2.0000     -11.261270      -306.4347
  13   2.0000     -11.258995      -306.3728
  14   2.0000     -11.257067      -306.3204
  15   2.0000     -11.252610      -306.1991
  16   2.0000     -11.244694      -305.9837
  17   2.0000     -11.239931      -305.8541
  18   2.0000     -11.239669      -305.8470
  19   2.0000     -11.223611      -305.4100
  20   2.0000      -8.894444      -242.0301
  21   2.0000      -6.576017      -178.9425
  22   2.0000      -6.574014      -178.8880
  23   2.0000      -6.573425      -178.8720
  24   2.0000      -1.450492       -39.4699
  25   2.0000      -1.417772       -38.5795
  26   2.0000      -1.354176       -36.8490
  27   2.0000      -1.340596       -36.4795
  28   2.0000      -1.239153       -33.7191
  29   2.0000      -1.159077       -31.5401
  30   2.0000      -1.120879       -30.5007
  31   2.0000      -1.043804       -28.4033
  32   2.0000      -1.036138       -28.1948
  33   2.0000      -1.016814       -27.6689
  34   2.0000      -0.995961       -27.1015
  35   2.0000      -0.984537       -26.7906
  36   2.0000      -0.923419       -25.1275
  37   2.0000      -0.886665       -24.1274
  38   2.0000      -0.847719       -23.0676
  39   2.0000      -0.839115       -22.8335
  40   2.0000      -0.835546       -22.7364
  41   2.0000      -0.821119       -22.3438
  42   2.0000      -0.761194       -20.7131
  43   2.0000      -0.733584       -19.9618
  44   2.0000      -0.723828       -19.6964
  45   2.0000      -0.697076       -18.9684
  46   2.0000      -0.688856       -18.7447
  47   2.0000      -0.679488       -18.4898
  48   2.0000      -0.672007       -18.2862
  49   2.0000      -0.654124       -17.7996
  50   2.0000      -0.647158       -17.6101
  51   2.0000      -0.643522       -17.5111
  52   2.0000      -0.627631       -17.0787
  53   2.0000      -0.616411       -16.7734
  54   2.0000      -0.608585       -16.5604
  55   2.0000      -0.600841       -16.3497
  56   2.0000      -0.599597       -16.3159
  57   2.0000      -0.579658       -15.7733
  58   2.0000      -0.571988       -15.5646
  59   2.0000      -0.568026       -15.4568
  60   2.0000      -0.564667       -15.3654
  61   2.0000      -0.539596       -14.6832
  62   2.0000      -0.533795       -14.5253
  63   2.0000      -0.526458       -14.3257
  64   2.0000      -0.522201       -14.2098
  65   2.0000      -0.514299       -13.9948
  66   2.0000      -0.502188       -13.6652
  67   2.0000      -0.496532       -13.5113
  68   2.0000      -0.487852       -13.2751
  69   2.0000      -0.464325       -12.6349
  70   2.0000      -0.453958       -12.3528
  71   2.0000      -0.448413       -12.2019
  72   2.0000      -0.354634        -9.6501
  73   2.0000      -0.350950        -9.5498
  74   2.0000      -0.328880        -8.9493
  75   2.0000      -0.323169        -8.7939
  76   2.0000      -0.316719        -8.6184
  77   0.0000       0.073969         2.0128
  78   0.0000       0.104516         2.8440
  79   0.0000       0.124577         3.3899
  80   0.0000       0.131547         3.5796
  81   0.0000       0.136329         3.7097

MULLIKEN ATOMIC CHARGES
-----------------------
   0 C :   -0.266792
   1 C :    0.033291
   2 O :   -0.367565
   3 C :    0.460970
   4 O :   -0.425031
   5 C :   -0.235234
   6 C :    0.158109
   7 C :   -0.271192
   8 N :   -0.122780
   9 C :    0.212408
  10 S :   -0.439548
  11 N :   -0.206103
  12 C :    0.065990
  13 C :    0.066480
  14 C :   -0.204131
  15 C :   -0.127428
  16 C :   -0.280510
  17 C :    0.315706
  18 O :   -0.355862
  19 C :   -0.265980
  20 H :    0.104790
  21 H :    0.089131
  22 H :    0.090392
  23 H :    0.103483
  24 H :    0.112508
  25 H :    0.132334
  26 H :    0.130409
  27 H :    0.095361
  28 H :    0.197664
  29 H :    0.195041
  30 H :    0.150133
  31 H :    0.152536
  32 H :    0.163342
  33 H :    0.131310
  34 H :    0.240970
  35 H :    0.165798
Sum of atomic charges:    0.0000000

LOEWDIN ATOMIC CHARGES
----------------------
   0 C :    0.104795
   1 C :   -0.014785
   2 O :    0.305506
   3 C :   -0.416419
   4 O :    0.100870
   5 C :   -0.096227
   6 C :   -0.058882
   7 C :    0.131654
   8 N :    0.406701
   9 C :   -0.456117
  10 S :   -0.035030
  11 N :    0.396269
  12 C :   -0.052299
  13 C :   -0.037796
  14 C :    0.014288
  15 C :    0.038528
  16 C :   -0.002477
  17 C :   -0.189262
  18 O :    0.395667
  19 C :    0.031277
  20 H :   -0.023912
  21 H :   -0.028008
  22 H :   -0.029427
  23 H :   -0.028146
  24 H :   -0.029265
  25 H :   -0.004586
  26 H :   -0.003935
  27 H :   -0.023251
  28 H :   -0.057470
  29 H :   -0.064668
  30 H :   -0.010210
  31 H :   -0.029793
  32 H :   -0.021085
  33 H :   -0.035354
  34 H :   -0.153566
  35 H :   -0.023582

  Mayer bond orders larger than 0.100000
B(  0-C ,  1-C ) :   0.9794 B(  0-C , 20-H ) :   0.9782 B(  0-C , 21-H ) :   0.9766
B(  0-C , 22-H ) :   0.9787 B(  1-C ,  2-O ) :   0.8752 B(  1-C , 23-H ) :   0.9726
B(  1-C , 24-H ) :   0.9732 B(  2-O ,  3-C ) :   1.1410 B(  3-C ,  4-O ) :   1.9828
B(  3-C ,  5-C ) :   1.0651 B(  5-C ,  6-C ) :   1.6513 B(  5-C , 12-C ) :   0.9710
B(  6-C ,  7-C ) :   0.9667 B(  6-C ,  8-N ) :   1.1616 B(  7-C , 25-H ) :   0.9594
B(  7-C , 26-H ) :   0.9610 B(  7-C , 27-H ) :   0.9905 B(  8-N ,  9-C ) :   1.1831
B(  8-N , 28-H ) :   0.9477 B(  9-C , 10-S ) :   1.6071 B(  9-C , 11-N ) :   1.3059
B( 11-N , 12-C ) :   0.9826 B( 11-N , 29-H ) :   0.9517 B( 12-C , 13-C ) :   0.9365
B( 12-C , 30-H ) :   1.0021 B( 13-C , 14-C ) :   1.3485 B( 13-C , 19-C ) :   1.3825
B( 14-C , 15-C ) :   1.3881 B( 14-C , 31-H ) :   0.9727 B( 15-C , 16-C ) :   1.3618
B( 15-C , 32-H ) :   0.9701 B( 16-C , 17-C ) :   1.3308 B( 16-C , 33-H ) :   0.9847
B( 17-C , 18-O ) :   1.1114 B( 17-C , 19-C ) :   1.3710 B( 18-O , 34-H ) :   0.9795
B( 19-C , 35-H ) :   0.9581

MP2 TOTAL ENERGY:    -1274.343479457 Eh
FINAL SINGLE POINT ENERGY     -1274.343479456821

DIPOLE MOMENT
-------------
                                X             Y             Z
Electronic contribution:      9.64099      10.49777       8.86134
Nuclear contribution   :    -10.70262     -12.09463      -9.06024
                        -----------------------------------------
Total Dipole Moment    :     -1.06163      -1.59686      -0.19890
                        -----------------------------------------
Magnitude (a.u.)       :      1.92784
Magnitude (Debye)      :      4.90019

Rotational constants in cm-1:     0.011829     0.008553     0.006142
Rotational constants in MHz :   354.636942   256.407293   184.120033

                             ****ORCA TERMINATED NORMALLY****
TOTAL RUN TIME: 0 days 1 hours 46 minutes 42 seconds 881 msec
