                         Program Version 5.0.0 -  RELEASE  -
|  1> ! ri-mp2 cc-pvtz cc-pvtz/c TightSCF NoKeepInts
|  2>
|  3> %scf
|  4>   MaxCore 4096
|  5> end
|  6> *xyz  0  1
|  7>     C       15.0810449   13.9910830   15.6073940
|  8>     C       15.9479005   14.1907708   16.8682318
|  9>     O       17.0089331   15.1384181   16.6276019
| 10>     C       16.7494434   16.4768945   16.5089953
| 11>     O       15.7867583   16.9062260   15.8986143
| 12>     C       17.5558787   17.3016524   17.4763804
| 13>     C       17.4442852   18.6530129   17.5477043
| 14>     C       16.5438369   19.5450515   16.7197093
| 15>     N       18.2451518   19.3776384   18.4354886
| 16>     C       19.2512396   18.8458599   19.1967066
| 17>     S       20.2199893   19.7887835   20.1497410
| 18>     N       19.4198131   17.4869143   19.1245934
| 19>     C       18.5282373   16.5571025   18.4082140
| 20>     C       17.7988625   15.6728788   19.4160522
| 21>     C       18.1510963   14.3174118   19.5580944
| 22>     C       17.4752656   13.4953581   20.4754297
| 23>     C       16.4416539   14.0337119   21.2607049
| 24>     C       16.0937850   15.3849637   21.1278166
| 25>     O       15.0975651   15.9081203   21.8857288
| 26>     C       16.7669643   16.2001228   20.2127631
| 27>     H       14.4277224   14.8528251   15.4265285
| 28>     H       14.4391009   13.1097488   15.7235921
| 29>     H       15.7115331   13.8404982   14.7224244
| 30>     H       15.3232053   14.5201359   17.7096288
| 31>     H       16.3957299   13.2269094   17.1417589
| 32>     H       15.4887855   19.3228532   16.9252510
| 33>     H       16.7103665   19.3755990   15.6483124
| 34>     H       16.7023100   20.6126096   16.9121168
| 35>     H       18.1368849   20.3772650   18.4997065
| 36>     H       20.1466555   17.1203477   19.7255432
| 37>     H       19.1617742   15.9155246   17.7795569
| 38>     H       18.9478102   13.8980029   18.9493295
| 39>     H       17.7544516   12.4479601   20.5775552
| 40>     H       15.9178473   13.4034668   21.9720286
| 41>     H       14.7886148   15.2115724   22.4843818
| 42>     H       16.4865031   17.2447062   20.1303206
| 43> *
| 44>
| 45>                          ****END OF INPUT****

CARTESIAN COORDINATES (ANGSTROEM)
---------------------------------
  C     15.081045   13.991083   15.607394
  C     15.947900   14.190771   16.868232
  O     17.008933   15.138418   16.627602
  C     16.749443   16.476895   16.508995
  O     15.786758   16.906226   15.898614
  C     17.555879   17.301652   17.476380
  C     17.444285   18.653013   17.547704
  C     16.543837   19.545051   16.719709
  N     18.245152   19.377638   18.435489
  C     19.251240   18.845860   19.196707
  S     20.219989   19.788784   20.149741
  N     19.419813   17.486914   19.124593
  C     18.528237   16.557102   18.408214
  C     17.798862   15.672879   19.416052
  C     18.151096   14.317412   19.558094
  C     17.475266   13.495358   20.475430
  C     16.441654   14.033712   21.260705
  C     16.093785   15.384964   21.127817
  O     15.097565   15.908120   21.885729
  C     16.766964   16.200123   20.212763
  H     14.427722   14.852825   15.426528
  H     14.439101   13.109749   15.723592
  H     15.711533   13.840498   14.722424
  H     15.323205   14.520136   17.709629
  H     16.395730   13.226909   17.141759
  H     15.488786   19.322853   16.925251
  H     16.710366   19.375599   15.648312
  H     16.702310   20.612610   16.912117
  H     18.136885   20.377265   18.499706
  H     20.146655   17.120348   19.725543
  H     19.161774   15.915525   17.779557
  H     18.947810   13.898003   18.949330
  H     17.754452   12.447960   20.577555
  H     15.917847   13.403467   21.972029
  H     14.788615   15.211572   22.484382
  H     16.486503   17.244706   20.130321

 Total Charge           Charge          ....    0
 Multiplicity           Mult            ....    1
 Number of Electrons    NEL             ....  154
 Basis Dimension        Dim             ....  828

ORBITAL ENERGIES
----------------

  NO   OCC          E(Eh)            E(eV)
   0   2.0000     -91.889267     -2500.4341
   1   2.0000     -20.599175      -560.5320
   2   2.0000     -20.590129      -560.2859
   3   2.0000     -20.545417      -559.0692
   4   2.0000     -15.629480      -425.2998
   5   2.0000     -15.608670      -424.7335
   6   2.0000     -11.395586      -310.0897
   7   2.0000     -11.384331      -309.7834
   8   2.0000     -11.335990      -308.4680
   9   2.0000     -11.316698      -307.9430
  10   2.0000     -11.309813      -307.7557
  11   2.0000     -11.297954      -307.4330
  12   2.0000     -11.262062      -306.4563
  13   2.0000     -11.258747      -306.3661
  14   2.0000     -11.258081      -306.3480
  15   2.0000     -11.252709      -306.2018
  16   2.0000     -11.245615      -306.0087
  17   2.0000     -11.240691      -305.8748
  18   2.0000     -11.240438      -305.8679
  19   2.0000     -11.216710      -305.2222
  20   2.0000      -8.894330      -242.0270
  21   2.0000      -6.575904      -178.9395
  22   2.0000      -6.573900      -178.8849
  23   2.0000      -6.573313      -178.8689
  24   2.0000      -1.446966       -39.3739
  25   2.0000      -1.418840       -38.6086
  26   2.0000      -1.354671       -36.8625
  27   2.0000      -1.340556       -36.4784
  28   2.0000      -1.239148       -33.7189
  29   2.0000      -1.159779       -31.5592
  30   2.0000      -1.120479       -30.4898
  31   2.0000      -1.044100       -28.4114
  32   2.0000      -1.032179       -28.0870
  33   2.0000      -1.017751       -27.6944
  34   2.0000      -0.995603       -27.0917
  35   2.0000      -0.984088       -26.7784
  36   2.0000      -0.923599       -25.1324
  37   2.0000      -0.888610       -24.1803
  38   2.0000      -0.848131       -23.0788
  39   2.0000      -0.840000       -22.8576
  40   2.0000      -0.836334       -22.7578
  41   2.0000      -0.822386       -22.3783
  42   2.0000      -0.752450       -20.4752
  43   2.0000      -0.733161       -19.9503
  44   2.0000      -0.720800       -19.6140
  45   2.0000      -0.697917       -18.9913
  46   2.0000      -0.689294       -18.7567
  47   2.0000      -0.680160       -18.5081
  48   2.0000      -0.669785       -18.2258
  49   2.0000      -0.656579       -17.8664
  50   2.0000      -0.648968       -17.6593
  51   2.0000      -0.646462       -17.5911
  52   2.0000      -0.634896       -17.2764
  53   2.0000      -0.609599       -16.5880
  54   2.0000      -0.603180       -16.4134
  55   2.0000      -0.600151       -16.3309
  56   2.0000      -0.594606       -16.1801
  57   2.0000      -0.582461       -15.8496
  58   2.0000      -0.575907       -15.6712
  59   2.0000      -0.571128       -15.5412
  60   2.0000      -0.564113       -15.3503
  61   2.0000      -0.539096       -14.6695
  62   2.0000      -0.534680       -14.5494
  63   2.0000      -0.526796       -14.3348
  64   2.0000      -0.517424       -14.0798
  65   2.0000      -0.513163       -13.9639
  66   2.0000      -0.502130       -13.6637
  67   2.0000      -0.498192       -13.5565
  68   2.0000      -0.485547       -13.2124
  69   2.0000      -0.463712       -12.6182
  70   2.0000      -0.456065       -12.4101
  71   2.0000      -0.440682       -11.9916
  72   2.0000      -0.354495        -9.6463
  73   2.0000      -0.351838        -9.5740
  74   2.0000      -0.328960        -8.9514
  75   2.0000      -0.324041        -8.8176
  76   2.0000      -0.316689        -8.6175
  77   0.0000       0.072925         1.9844
  78   0.0000       0.103331         2.8118
  79   0.0000       0.124057         3.3758
  80   0.0000       0.130991         3.5645
  81   0.0000       0.136299         3.7089

MULLIKEN ATOMIC CHARGES
-----------------------
   0 C :   -0.280076
   1 C :    0.039467
   2 O :   -0.378470
   3 C :    0.471005
   4 O :   -0.421129
   5 C :   -0.235582
   6 C :    0.158216
   7 C :   -0.271155
   8 N :   -0.122449
   9 C :    0.214083
  10 S :   -0.440336
  11 N :   -0.207196
  12 C :    0.069630
  13 C :    0.041945
  14 C :   -0.180144
  15 C :   -0.128981
  16 C :   -0.281129
  17 C :    0.313753
  18 O :   -0.355962
  19 C :   -0.261474
  20 H :    0.119895
  21 H :    0.090122
  22 H :    0.093885
  23 H :    0.096299
  24 H :    0.103844
  25 H :    0.131951
  26 H :    0.130082
  27 H :    0.095561
  28 H :    0.197339
  29 H :    0.194958
  30 H :    0.149580
  31 H :    0.149157
  32 H :    0.162713
  33 H :    0.132089
  34 H :    0.241258
  35 H :    0.167249
Sum of atomic charges:   -0.0000000

LOEWDIN ATOMIC CHARGES
----------------------
   0 C :    0.104648
   1 C :   -0.016385
   2 O :    0.292316
   3 C :   -0.413544
   4 O :    0.114023
   5 C :   -0.096340
   6 C :   -0.059113
   7 C :    0.131079
   8 N :    0.406682
   9 C :   -0.456093
  10 S :   -0.035504
  11 N :    0.396132
  12 C :   -0.052332
  13 C :   -0.037381
  14 C :    0.015144
  15 C :    0.039873
  16 C :   -0.002607
  17 C :   -0.190222
  18 O :    0.395996
  19 C :    0.030387
  20 H :   -0.027695
  21 H :   -0.030734
  22 H :   -0.026928
  23 H :   -0.029107
  24 H :   -0.024806
  25 H :   -0.004897
  26 H :   -0.004103
  27 H :   -0.023256
  28 H :   -0.057520
  29 H :   -0.064837
  30 H :   -0.010004
  31 H :   -0.029790
  32 H :   -0.020786
  33 H :   -0.035182
  34 H :   -0.153337
  35 H :   -0.023777

  Mayer bond orders larger than 0.100000
B(  0-C ,  1-C ) :   0.9826 B(  0-C , 20-H ) :   0.9719 B(  0-C , 21-H ) :   0.9781
B(  0-C , 22-H ) :   0.9764 B(  1-C ,  2-O ) :   0.8842 B(  1-C , 23-H ) :   0.9689
B(  1-C , 24-H ) :   0.9811 B(  2-O ,  3-C ) :   1.1083 B(  3-C ,  4-O ) :   1.9841
B(  3-C ,  5-C ) :   1.0715 B(  5-C ,  6-C ) :   1.6505 B(  5-C , 12-C ) :   0.9716
B(  6-C ,  7-C ) :   0.9665 B(  6-C ,  8-N ) :   1.1614 B(  7-C , 25-H ) :   0.9593
B(  7-C , 26-H ) :   0.9612 B(  7-C , 27-H ) :   0.9908 B(  8-N ,  9-C ) :   1.1830
B(  8-N , 28-H ) :   0.9478 B(  9-C , 10-S ) :   1.6058 B(  9-C , 11-N ) :   1.3070
B( 11-N , 12-C ) :   0.9782 B( 11-N , 29-H ) :   0.9517 B( 12-C , 13-C ) :   0.9379
B( 12-C , 30-H ) :   1.0015 B( 13-C , 14-C ) :   1.3510 B( 13-C , 19-C ) :   1.3836
B( 14-C , 15-C ) :   1.3900 B( 14-C , 31-H ) :   0.9750 B( 15-C , 16-C ) :   1.3640
B( 15-C , 32-H ) :   0.9702 B( 16-C , 17-C ) :   1.3301 B( 16-C , 33-H ) :   0.9844
B( 17-C , 18-O ) :   1.1123 B( 17-C , 19-C ) :   1.3703 B( 18-O , 34-H ) :   0.9793
B( 19-C , 35-H ) :   0.9579

MP2 TOTAL ENERGY:    -1274.337268741 Eh
FINAL SINGLE POINT ENERGY     -1274.337268741235

DIPOLE MOMENT
-------------
                                X             Y             Z
Electronic contribution:     10.48921       9.94188       8.06535
Nuclear contribution   :    -11.48288     -11.55574      -8.17172
                        -----------------------------------------
Total Dipole Moment    :     -0.99367      -1.61386      -0.10638
                        -----------------------------------------
Magnitude (a.u.)       :      1.89822
Magnitude (Debye)      :      4.82489

Rotational constants in cm-1:     0.012088     0.008691     0.006211
Rotational constants in MHz :   362.398685   260.549606   186.187062

                             ****ORCA TERMINATED NORMALLY****
TOTAL RUN TIME: 0 days 1 hours 38 minutes 2 seconds 462 msec
