                         Program Version 5.0.0 -  RELEASE  -
|  1> ! ri-mp2 cc-pvtz cc-pvtz/c TightSCF NoKeepInts
|  2>
|  3> %scf
|  4>   MaxCore 4096
|  5> end
|  6> *xyz  0  1
|  7>     C       15.4775652   13.8470499   16.5591571
|  8>     C       15.3068896   15.1765357   15.7906549
|  9>     O       16.4725160   16.0409961   15.7795977
| 10>     C       17.5775909   15.8746565   16.5681760
| 11>     O       18.1765971   14.8165325   16.6615124
| 12>     C       17.8611095   17.0345770   17.4778773
| 13>     C       17.4320554   18.3076747   17.2760729
| 14>     C       16.6317760   18.8476395   16.1085685
| 15>     N       17.7901144   19.3123989   18.1809379
| 16>     C       18.6659039   19.1553478   19.2225198
| 17>     S       19.1166671   20.4259170   20.1806184
| 18>     N       19.1480145   17.8881630   19.4307917
| 19>     C       18.6891132   16.6813700   18.7177598
| 20>     C       17.8952073   15.7733405   19.6535429
| 21>     C       18.2565316   14.4227918   19.8127371
| 22>     C       17.5185024   13.5784051   20.6589032
| 23>     C       16.4080193   14.0878059   21.3530650
| 24>     C       16.0423473   15.4313569   21.1945855
| 25>     O       14.9654602   15.9242377   21.8568165
| 26>     C       16.7782840   16.2690991   20.3507818
| 27>     H       16.2437078   13.2166607   16.0903055
| 28>     H       14.5368272   13.2837481   16.5553237
| 29>     H       15.7569146   14.0236391   17.6061381
| 30>     H       15.0163041   14.9570461   14.7551847
| 31>     H       14.4749941   15.7264356   16.2492527
| 32>     H       15.5886491   18.5134759   16.1655976
| 33>     H       17.0478240   18.4977412   15.1553644
| 34>     H       16.6274564   19.9437884   16.0709276
| 35>     H       17.4482192   20.2503046   18.0450873
| 36>     H       19.7685848   17.7930899   20.2244133
| 37>     H       19.5817234   16.1346899   18.3803626
| 38>     H       19.1030468   14.0213673   19.2606423
| 39>     H       17.8052011   12.5339497   20.7678199
| 40>     H       15.8341251   13.4385452   22.0058296
| 41>     H       14.6243400   15.2156057   22.4228927
| 42>     H       16.4788172   17.3060171   20.2441815
| 43> *
| 44>
| 45>                          ****END OF INPUT****

CARTESIAN COORDINATES (ANGSTROEM)
---------------------------------
  C     15.477565   13.847050   16.559157
  C     15.306890   15.176536   15.790655
  O     16.472516   16.040996   15.779598
  C     17.577591   15.874657   16.568176
  O     18.176597   14.816532   16.661512
  C     17.861110   17.034577   17.477877
  C     17.432055   18.307675   17.276073
  C     16.631776   18.847639   16.108569
  N     17.790114   19.312399   18.180938
  C     18.665904   19.155348   19.222520
  S     19.116667   20.425917   20.180618
  N     19.148014   17.888163   19.430792
  C     18.689113   16.681370   18.717760
  C     17.895207   15.773340   19.653543
  C     18.256532   14.422792   19.812737
  C     17.518502   13.578405   20.658903
  C     16.408019   14.087806   21.353065
  C     16.042347   15.431357   21.194585
  O     14.965460   15.924238   21.856817
  C     16.778284   16.269099   20.350782
  H     16.243708   13.216661   16.090305
  H     14.536827   13.283748   16.555324
  H     15.756915   14.023639   17.606138
  H     15.016304   14.957046   14.755185
  H     14.474994   15.726436   16.249253
  H     15.588649   18.513476   16.165598
  H     17.047824   18.497741   15.155364
  H     16.627456   19.943788   16.070928
  H     17.448219   20.250305   18.045087
  H     19.768585   17.793090   20.224413
  H     19.581723   16.134690   18.380363
  H     19.103047   14.021367   19.260642
  H     17.805201   12.533950   20.767820
  H     15.834125   13.438545   22.005830
  H     14.624340   15.215606   22.422893
  H     16.478817   17.306017   20.244181

 Total Charge           Charge          ....    0
 Multiplicity           Mult            ....    1
 Number of Electrons    NEL             ....  154
 Basis Dimension        Dim             ....  828

ORBITAL ENERGIES
----------------

  NO   OCC          E(Eh)            E(eV)
   0   2.0000     -91.888368     -2500.4096
   1   2.0000     -20.594516      -560.4053
   2   2.0000     -20.590144      -560.2863
   3   2.0000     -20.548626      -559.1565
   4   2.0000     -15.628305      -425.2678
   5   2.0000     -15.607359      -424.6978
   6   2.0000     -11.396621      -310.1178
   7   2.0000     -11.383449      -309.7594
   8   2.0000     -11.335303      -308.4493
   9   2.0000     -11.310654      -307.7785
  10   2.0000     -11.306843      -307.6748
  11   2.0000     -11.306326      -307.6608
  12   2.0000     -11.259318      -306.3816
  13   2.0000     -11.258997      -306.3729
  14   2.0000     -11.256074      -306.2933
  15   2.0000     -11.250645      -306.1456
  16   2.0000     -11.240416      -305.8673
  17   2.0000     -11.236406      -305.7582
  18   2.0000     -11.233165      -305.6700
  19   2.0000     -11.225073      -305.4498
  20   2.0000      -8.893438      -242.0028
  21   2.0000      -6.575017      -178.9153
  22   2.0000      -6.573008      -178.8606
  23   2.0000      -6.572424      -178.8447
  24   2.0000      -1.444896       -39.3176
  25   2.0000      -1.414287       -38.4847
  26   2.0000      -1.355494       -36.8849
  27   2.0000      -1.339371       -36.4461
  28   2.0000      -1.237336       -33.6696
  29   2.0000      -1.154788       -31.4234
  30   2.0000      -1.119846       -30.4726
  31   2.0000      -1.042957       -28.3803
  32   2.0000      -1.033262       -28.1165
  33   2.0000      -1.012265       -27.5451
  34   2.0000      -0.998501       -27.1706
  35   2.0000      -0.983736       -26.7688
  36   2.0000      -0.922731       -25.1088
  37   2.0000      -0.895498       -24.3677
  38   2.0000      -0.848700       -23.0943
  39   2.0000      -0.837476       -22.7889
  40   2.0000      -0.830760       -22.6061
  41   2.0000      -0.819932       -22.3115
  42   2.0000      -0.743013       -20.2184
  43   2.0000      -0.727297       -19.7908
  44   2.0000      -0.725175       -19.7330
  45   2.0000      -0.692244       -18.8369
  46   2.0000      -0.684680       -18.6311
  47   2.0000      -0.676671       -18.4132
  48   2.0000      -0.675100       -18.3704
  49   2.0000      -0.665237       -18.1020
  50   2.0000      -0.648824       -17.6554
  51   2.0000      -0.644956       -17.5501
  52   2.0000      -0.635187       -17.2843
  53   2.0000      -0.616659       -16.7802
  54   2.0000      -0.603016       -16.4089
  55   2.0000      -0.601343       -16.3634
  56   2.0000      -0.598070       -16.2743
  57   2.0000      -0.575963       -15.6728
  58   2.0000      -0.574543       -15.6341
  59   2.0000      -0.565743       -15.3946
  60   2.0000      -0.554444       -15.0872
  61   2.0000      -0.545667       -14.8484
  62   2.0000      -0.537149       -14.6166
  63   2.0000      -0.526264       -14.3204
  64   2.0000      -0.518264       -14.1027
  65   2.0000      -0.511095       -13.9076
  66   2.0000      -0.499673       -13.5968
  67   2.0000      -0.495269       -13.4769
  68   2.0000      -0.480318       -13.0701
  69   2.0000      -0.463836       -12.6216
  70   2.0000      -0.454601       -12.3703
  71   2.0000      -0.448598       -12.2070
  72   2.0000      -0.353898        -9.6300
  73   2.0000      -0.346700        -9.4342
  74   2.0000      -0.327631        -8.9153
  75   2.0000      -0.317745        -8.6463
  76   2.0000      -0.315318        -8.5802
  77   0.0000       0.073968         2.0128
  78   0.0000       0.108415         2.9501
  79   0.0000       0.121111         3.2956
  80   0.0000       0.133549         3.6341
  81   0.0000       0.139154         3.7866

MULLIKEN ATOMIC CHARGES
-----------------------
   0 C :   -0.302698
   1 C :    0.056938
   2 O :   -0.374666
   3 C :    0.439597
   4 O :   -0.405054
   5 C :   -0.179274
   6 C :    0.143804
   7 C :   -0.282930
   8 N :   -0.123401
   9 C :    0.202416
  10 S :   -0.439817
  11 N :   -0.201761
  12 C :    0.053277
  13 C :    0.039819
  14 C :   -0.167094
  15 C :   -0.134313
  16 C :   -0.279177
  17 C :    0.309403
  18 O :   -0.358624
  19 C :   -0.269087
  20 H :    0.118598
  21 H :    0.099987
  22 H :    0.114814
  23 H :    0.099295
  24 H :    0.083271
  25 H :    0.122769
  26 H :    0.129604
  27 H :    0.103404
  28 H :    0.196980
  29 H :    0.194486
  30 H :    0.154713
  31 H :    0.156704
  32 H :    0.160552
  33 H :    0.129991
  34 H :    0.240493
  35 H :    0.166981
Sum of atomic charges:   -0.0000000

LOEWDIN ATOMIC CHARGES
----------------------
   0 C :    0.105642
   1 C :   -0.010363
   2 O :    0.286648
   3 C :   -0.415758
   4 O :    0.121823
   5 C :   -0.093548
   6 C :   -0.068444
   7 C :    0.125297
   8 N :    0.404537
   9 C :   -0.458410
  10 S :   -0.036404
  11 N :    0.397597
  12 C :   -0.046336
  13 C :   -0.040895
  14 C :    0.021644
  15 C :    0.040528
  16 C :   -0.002641
  17 C :   -0.193555
  18 O :    0.393365
  19 C :    0.027492
  20 H :   -0.023366
  21 H :   -0.026278
  22 H :   -0.023757
  23 H :   -0.025896
  24 H :   -0.032482
  25 H :   -0.010668
  26 H :   -0.006967
  27 H :   -0.020632
  28 H :   -0.059031
  29 H :   -0.063841
  30 H :   -0.005147
  31 H :   -0.024664
  32 H :   -0.020696
  33 H :   -0.035918
  34 H :   -0.154422
  35 H :   -0.024452

  Mayer bond orders larger than 0.100000
B(  0-C ,  1-C ) :   0.9779 B(  0-C , 20-H ) :   0.9718 B(  0-C , 21-H ) :   0.9728
B(  0-C , 22-H ) :   0.9686 B(  1-C ,  2-O ) :   0.9032 B(  1-C , 23-H ) :   0.9797
B(  1-C , 24-H ) :   0.9758 B(  2-O ,  3-C ) :   1.1052 B(  3-C ,  4-O ) :   2.0221
B(  3-C ,  5-C ) :   1.0260 B(  5-C ,  6-C ) :   1.6593 B(  5-C , 12-C ) :   0.9625
B(  6-C ,  7-C ) :   0.9526 B(  6-C ,  8-N ) :   1.1446 B(  7-C , 25-H ) :   0.9657
B(  7-C , 26-H ) :   0.9663 B(  7-C , 27-H ) :   0.9903 B(  8-N ,  9-C ) :   1.1819
B(  8-N , 28-H ) :   0.9489 B(  9-C , 10-S ) :   1.6100 B(  9-C , 11-N ) :   1.3029
B( 11-N , 12-C ) :   0.9907 B( 11-N , 29-H ) :   0.9516 B( 12-C , 13-C ) :   0.9431
B( 12-C , 30-H ) :   0.9996 B( 13-C , 14-C ) :   1.3791 B( 13-C , 19-C ) :   1.3687
B( 14-C , 15-C ) :   1.3944 B( 14-C , 31-H ) :   0.9638 B( 15-C , 16-C ) :   1.3616
B( 15-C , 32-H ) :   0.9712 B( 16-C , 17-C ) :   1.3314 B( 16-C , 33-H ) :   0.9853
B( 17-C , 18-O ) :   1.1095 B( 17-C , 19-C ) :   1.3763 B( 18-O , 34-H ) :   0.9801
B( 19-C , 35-H ) :   0.9577

MP2 TOTAL ENERGY:    -1274.332258595 Eh
FINAL SINGLE POINT ENERGY     -1274.332258594715

DIPOLE MOMENT
-------------
                                X             Y             Z
Electronic contribution:      9.89793      10.24183       7.87995
Nuclear contribution   :    -11.47649     -11.47531      -8.68220
                        -----------------------------------------
Total Dipole Moment    :     -1.57856      -1.23348      -0.80225
                        -----------------------------------------
Magnitude (a.u.)       :      2.15799
Magnitude (Debye)      :      5.48518

Rotational constants in cm-1:     0.011587     0.009172     0.006339
Rotational constants in MHz :   347.383369   274.957095   190.049306

                             ****ORCA TERMINATED NORMALLY****
TOTAL RUN TIME: 0 days 1 hours 57 minutes 6 seconds 164 msec
