                         Program Version 4.2.0 -  RELEASE  -
|  1> ! ri-mp2 cc-pvtz cc-pvtz/c TightSCF  NoKeepInts
|  2>
|  3> %scf
|  4>   MaxCore 4096
|  5> end
|  6> *xyz  0  1
|  7>     C       14.9079894   14.1108590   16.1539880
|  8>     C       15.6660902   14.9722425   15.1202169
|  9>     O       16.3631385   16.0492004   15.7788797
| 10>     C       17.3533940   15.7970542   16.6856294
| 11>     O       17.8875643   14.7039878   16.7825634
| 12>     C       17.7384168   16.9619789   17.5549147
| 13>     C       17.3191478   18.2452357   17.3903565
| 14>     C       16.3937723   18.8032072   16.3281225
| 15>     N       17.8021342   19.2469567   18.2396067
| 16>     C       18.7975702   19.0797233   19.1654373
| 17>     S       19.3996550   20.3494484   20.0377840
| 18>     N       19.2677638   17.8023515   19.3313829
| 19>     C       18.6774418   16.6012126   18.7123235
| 20>     C       17.9551456   15.7591089   19.7611592
| 21>     C       18.2778581   14.3997360   19.9288551
| 22>     C       17.6127327   13.6181508   20.8883327
| 23>     C       16.6150002   14.1999014   21.6887312
| 24>     C       16.2877517   15.5524441   21.5226779
| 25>     O       15.3202420   16.1155877   22.2896057
| 26>     C       16.9511723   16.3276823   20.5664567
| 27>     H       15.5969886   13.5562251   16.8027613
| 28>     H       14.2716467   13.3779801   15.6435619
| 29>     H       14.2665658   14.7377462   16.7856222
| 30>     H       16.3756793   14.3450158   14.5636099
| 31>     H       14.9487767   15.3917392   14.4033205
| 32>     H       16.7697039   18.5705306   15.3240084
| 33>     H       16.2865310   19.8930185   16.3876437
| 34>     H       15.3898010   18.3711220   16.4235641
| 35>     H       17.4698141   20.1920199   18.1335751
| 36>     H       19.9791916   17.6988436   20.0434446
| 37>     H       19.5027992   16.0029213   18.2998637
| 38>     H       19.0367046   13.9428540   19.2981964
| 39>     H       17.8677119   12.5662099   21.0031765
| 40>     H       16.0974422   13.5994633   22.4293306
| 41>     H       15.0095182   15.4371555   22.9076050
| 42>     H       16.6841442   17.3730854   20.4576920
| 43> *
| 44>
| 45>                          ****END OF INPUT****

CARTESIAN COORDINATES (ANGSTROEM)
---------------------------------
  C     14.907989   14.110859   16.153988
  C     15.666090   14.972243   15.120217
  O     16.363139   16.049200   15.778880
  C     17.353394   15.797054   16.685629
  O     17.887564   14.703988   16.782563
  C     17.738417   16.961979   17.554915
  C     17.319148   18.245236   17.390356
  C     16.393772   18.803207   16.328122
  N     17.802134   19.246957   18.239607
  C     18.797570   19.079723   19.165437
  S     19.399655   20.349448   20.037784
  N     19.267764   17.802352   19.331383
  C     18.677442   16.601213   18.712323
  C     17.955146   15.759109   19.761159
  C     18.277858   14.399736   19.928855
  C     17.612733   13.618151   20.888333
  C     16.615000   14.199901   21.688731
  C     16.287752   15.552444   21.522678
  O     15.320242   16.115588   22.289606
  C     16.951172   16.327682   20.566457
  H     15.596989   13.556225   16.802761
  H     14.271647   13.377980   15.643562
  H     14.266566   14.737746   16.785622
  H     16.375679   14.345016   14.563610
  H     14.948777   15.391739   14.403320
  H     16.769704   18.570531   15.324008
  H     16.286531   19.893018   16.387644
  H     15.389801   18.371122   16.423564
  H     17.469814   20.192020   18.133575
  H     19.979192   17.698844   20.043445
  H     19.502799   16.002921   18.299864
  H     19.036705   13.942854   19.298196
  H     17.867712   12.566210   21.003176
  H     16.097442   13.599463   22.429331
  H     15.009518   15.437155   22.907605
  H     16.684144   17.373085   20.457692

 Total Charge           Charge          ....    0
 Multiplicity           Mult            ....    1
 Number of Electrons    NEL             ....  154
 Basis Dimension        Dim             ....  828

ORBITAL ENERGIES
----------------

  NO   OCC          E(Eh)            E(eV)
   0   2.0000     -91.888172     -2500.4043
   1   2.0000     -20.602799      -560.6307
   2   2.0000     -20.591523      -560.3238
   3   2.0000     -20.544645      -559.0482
   4   2.0000     -15.628699      -425.2785
   5   2.0000     -15.606703      -424.6800
   6   2.0000     -11.396690      -310.1197
   7   2.0000     -11.382916      -309.7449
   8   2.0000     -11.337327      -308.5044
   9   2.0000     -11.307343      -307.6884
  10   2.0000     -11.305116      -307.6279
  11   2.0000     -11.302269      -307.5504
  12   2.0000     -11.260893      -306.4245
  13   2.0000     -11.258646      -306.3633
  14   2.0000     -11.253236      -306.2161
  15   2.0000     -11.247480      -306.0595
  16   2.0000     -11.237132      -305.7779
  17   2.0000     -11.233308      -305.6739
  18   2.0000     -11.230165      -305.5883
  19   2.0000     -11.225935      -305.4732
  20   2.0000      -8.893231      -241.9971
  21   2.0000      -6.574807      -178.9096
  22   2.0000      -6.572802      -178.8550
  23   2.0000      -6.572215      -178.8391
  24   2.0000      -1.452616       -39.5277
  25   2.0000      -1.411264       -38.4024
  26   2.0000      -1.356566       -36.9140
  27   2.0000      -1.339568       -36.4515
  28   2.0000      -1.237068       -33.6623
  29   2.0000      -1.152001       -31.3475
  30   2.0000      -1.119265       -30.4568
  31   2.0000      -1.041712       -28.3464
  32   2.0000      -1.033822       -28.1317
  33   2.0000      -1.009340       -27.4655
  34   2.0000      -0.997362       -27.1396
  35   2.0000      -0.982811       -26.7436
  36   2.0000      -0.921347       -25.0711
  37   2.0000      -0.895724       -24.3739
  38   2.0000      -0.847839       -23.0709
  39   2.0000      -0.835288       -22.7293
  40   2.0000      -0.827696       -22.5227
  41   2.0000      -0.815692       -22.1961
  42   2.0000      -0.750778       -20.4297
  43   2.0000      -0.735033       -20.0013
  44   2.0000      -0.724637       -19.7184
  45   2.0000      -0.690585       -18.7918
  46   2.0000      -0.685508       -18.6536
  47   2.0000      -0.678716       -18.4688
  48   2.0000      -0.671015       -18.2592
  49   2.0000      -0.654684       -17.8148
  50   2.0000      -0.652222       -17.7479
  51   2.0000      -0.644244       -17.5308
  52   2.0000      -0.631177       -17.1752
  53   2.0000      -0.614349       -16.7173
  54   2.0000      -0.600188       -16.3319
  55   2.0000      -0.599411       -16.3108
  56   2.0000      -0.594943       -16.1892
  57   2.0000      -0.581231       -15.8161
  58   2.0000      -0.573511       -15.6060
  59   2.0000      -0.564432       -15.3590
  60   2.0000      -0.557875       -15.1806
  61   2.0000      -0.544422       -14.8145
  62   2.0000      -0.537848       -14.6356
  63   2.0000      -0.526983       -14.3399
  64   2.0000      -0.516585       -14.0570
  65   2.0000      -0.509356       -13.8603
  66   2.0000      -0.499613       -13.5952
  67   2.0000      -0.495134       -13.4733
  68   2.0000      -0.480512       -13.0754
  69   2.0000      -0.463371       -12.6090
  70   2.0000      -0.458473       -12.4757
  71   2.0000      -0.451457       -12.2848
  72   2.0000      -0.354323        -9.6416
  73   2.0000      -0.343930        -9.3588
  74   2.0000      -0.327266        -8.9054
  75   2.0000      -0.315701        -8.5907
  76   2.0000      -0.313539        -8.5318
  77   0.0000       0.075441         2.0529
  78   0.0000       0.113289         3.0827
  79   0.0000       0.121308         3.3010
  80   0.0000       0.136172         3.7054
  81   0.0000       0.141276         3.8443

MULLIKEN ATOMIC CHARGES
-----------------------
   0 C :   -0.305300
   1 C :    0.034722
   2 O :   -0.350572
   3 C :    0.457384
   4 O :   -0.436865
   5 C :   -0.178597
   6 C :    0.144701
   7 C :   -0.282096
   8 N :   -0.120504
   9 C :    0.201364
  10 S :   -0.438795
  11 N :   -0.197585
  12 C :    0.036055
  13 C :    0.058825
  14 C :   -0.163800
  15 C :   -0.134106
  16 C :   -0.278852
  17 C :    0.311769
  18 O :   -0.359189
  19 C :   -0.273846
  20 H :    0.127154
  21 H :    0.096364
  22 H :    0.094181
  23 H :    0.104285
  24 H :    0.108089
  25 H :    0.128105
  26 H :    0.101212
  27 H :    0.125605
  28 H :    0.196707
  29 H :    0.193707
  30 H :    0.153820
  31 H :    0.154155
  32 H :    0.159236
  33 H :    0.128039
  34 H :    0.240067
  35 H :    0.164560
Sum of atomic charges:   -0.0000000

LOEWDIN ATOMIC CHARGES
----------------------
   0 C :    0.105955
   1 C :   -0.015835
   2 O :    0.302611
   3 C :   -0.413889
   4 O :    0.103166
   5 C :   -0.090896
   6 C :   -0.063745
   7 C :    0.125067
   8 N :    0.405067
   9 C :   -0.459132
  10 S :   -0.035633
  11 N :    0.398120
  12 C :   -0.046695
  13 C :   -0.038943
  14 C :    0.022065
  15 C :    0.040409
  16 C :   -0.002285
  17 C :   -0.192662
  18 O :    0.392961
  19 C :    0.028242
  20 H :   -0.023914
  21 H :   -0.026608
  22 H :   -0.029634
  23 H :   -0.028038
  24 H :   -0.025253
  25 H :   -0.008023
  26 H :   -0.021450
  27 H :   -0.010015
  28 H :   -0.059227
  29 H :   -0.063549
  30 H :   -0.005253
  31 H :   -0.025243
  32 H :   -0.021270
  33 H :   -0.036408
  34 H :   -0.154902
  35 H :   -0.025160

  Mayer bond orders larger than 0.100000
B(  0-C ,  1-C ) :   0.9611 B(  0-C , 20-H ) :   0.9720 B(  0-C , 21-H ) :   0.9763
B(  0-C , 22-H ) :   0.9761 B(  1-C ,  2-O ) :   0.8976 B(  1-C , 23-H ) :   0.9803
B(  1-C , 24-H ) :   0.9845 B(  2-O ,  3-C ) :   1.1559 B(  3-C ,  4-O ) :   1.9647
B(  3-C ,  5-C ) :   1.0651 B(  5-C ,  6-C ) :   1.6413 B(  5-C , 12-C ) :   0.9669
B(  6-C ,  7-C ) :   0.9567 B(  6-C ,  8-N ) :   1.1531 B(  7-C , 25-H ) :   0.9641
B(  7-C , 26-H ) :   0.9915 B(  7-C , 27-H ) :   0.9644 B(  8-N ,  9-C ) :   1.1769
B(  8-N , 28-H ) :   0.9486 B(  9-C , 10-S ) :   1.6112 B(  9-C , 11-N ) :   1.3052
B( 11-N , 12-C ) :   0.9921 B( 11-N , 29-H ) :   0.9519 B( 12-C , 13-C ) :   0.9462
B( 12-C , 30-H ) :   1.0007 B( 13-C , 14-C ) :   1.3749 B( 13-C , 19-C ) :   1.3690
B( 14-C , 15-C ) :   1.3943 B( 14-C , 31-H ) :   0.9646 B( 15-C , 16-C ) :   1.3622
B( 15-C , 32-H ) :   0.9714 B( 16-C , 17-C ) :   1.3318 B( 16-C , 33-H ) :   0.9860
B( 17-C , 18-O ) :   1.1079 B( 17-C , 19-C ) :   1.3788 B( 18-O , 34-H ) :   0.9806
B( 19-C , 35-H ) :   0.9584

MP2 TOTAL ENERGY:    -1274.348165414 Eh
FINAL SINGLE POINT ENERGY     -1274.348165413917

DIPOLE MOMENT
-------------
                                X             Y             Z
Electronic contribution:     10.80050       9.89317       9.22670
Nuclear contribution   :    -12.35816     -11.09554     -10.27511
                        -----------------------------------------
Total Dipole Moment    :     -1.55766      -1.20237      -1.04841
                        -----------------------------------------
Magnitude (a.u.)       :      2.22961
Magnitude (Debye)      :      5.66722

Rotational constants in cm-1:     0.010708     0.009185     0.006014
Rotational constants in MHz :   321.015669   275.354073   180.286019

                             ****ORCA TERMINATED NORMALLY****
TOTAL RUN TIME: 0 days 1 hours 44 minutes 42 seconds 303 msec
