                         Program Version 4.2.0 -  RELEASE  -
|  1> ! ri-mp2 cc-pvtz cc-pvtz/c TightSCF  NoKeepInts
|  2>
|  3> %scf
|  4>   MaxCore 4096
|  5> end
|  6> *xyz  0  1
|  7>     C       14.2096429   15.0480188   15.9307936
|  8>     C       15.6873127   14.6341513   15.8292348
|  9>     O       16.4742768   15.8335865   15.9216311
| 10>     C       17.6558043   15.7919546   16.6014407
| 11>     O       18.2986349   14.7599856   16.7056171
| 12>     C       17.8629950   16.9582396   17.5234816
| 13>     C       17.2975283   18.1826655   17.3604422
| 14>     C       16.3854144   18.6449198   16.2426066
| 15>     N       17.6037269   19.2133961   18.2550043
| 16>     C       18.5623871   19.1446504   19.2312875
| 17>     S       18.9495293   20.4528409   20.1663476
| 18>     N       19.1853404   17.9330092   19.3922006
| 19>     C       18.7913920   16.6850053   18.7118006
| 20>     C       18.1417396   15.7204321   19.7006295
| 21>     C       18.6474041   14.4172717   19.8621527
| 22>     C       18.0492926   13.5234903   20.7662302
| 23>     C       16.9345644   13.9350784   21.5163125
| 24>     C       16.4252238   15.2307711   21.3556426
| 25>     O       15.3445845   15.6289949   22.0732646
| 26>     C       17.0225158   16.1180045   20.4548449
| 27>     H       14.0141355   15.5513871   16.8859571
| 28>     H       13.5591242   14.1671513   15.8681217
| 29>     H       13.9421235   15.7315933   15.1155281
| 30>     H       15.9163124   13.9483493   16.6572840
| 31>     H       15.8874593   14.1164193   14.8820694
| 32>     H       16.7819601   18.3439527   15.2648698
| 33>     H       16.2662461   19.7348834   16.2178185
| 34>     H       15.3866827   18.2039069   16.3512018
| 35>     H       17.1576475   20.1109322   18.1527085
| 36>     H       19.8660076   17.9000580   20.1402304
| 37>     H       19.7059511   16.2152390   18.3217864
| 38>     H       19.4984388   14.0906300   19.2694658
| 39>     H       18.4468278   12.5162667   20.8772181
| 40>     H       16.4684578   13.2473652   22.2139711
| 41>     H       15.1059408   14.9002296   22.6655310
| 42>     H       16.6143749   17.1171693   20.3492731
| 43> *
| 44>
| 45>                          ****END OF INPUT****

CARTESIAN COORDINATES (ANGSTROEM)
---------------------------------
  C     14.209643   15.048019   15.930794
  C     15.687313   14.634151   15.829235
  O     16.474277   15.833586   15.921631
  C     17.655804   15.791955   16.601441
  O     18.298635   14.759986   16.705617
  C     17.862995   16.958240   17.523482
  C     17.297528   18.182665   17.360442
  C     16.385414   18.644920   16.242607
  N     17.603727   19.213396   18.255004
  C     18.562387   19.144650   19.231288
  S     18.949529   20.452841   20.166348
  N     19.185340   17.933009   19.392201
  C     18.791392   16.685005   18.711801
  C     18.141740   15.720432   19.700630
  C     18.647404   14.417272   19.862153
  C     18.049293   13.523490   20.766230
  C     16.934564   13.935078   21.516313
  C     16.425224   15.230771   21.355643
  O     15.344584   15.628995   22.073265
  C     17.022516   16.118005   20.454845
  H     14.014135   15.551387   16.885957
  H     13.559124   14.167151   15.868122
  H     13.942123   15.731593   15.115528
  H     15.916312   13.948349   16.657284
  H     15.887459   14.116419   14.882069
  H     16.781960   18.343953   15.264870
  H     16.266246   19.734883   16.217818
  H     15.386683   18.203907   16.351202
  H     17.157647   20.110932   18.152708
  H     19.866008   17.900058   20.140230
  H     19.705951   16.215239   18.321786
  H     19.498439   14.090630   19.269466
  H     18.446828   12.516267   20.877218
  H     16.468458   13.247365   22.213971
  H     15.105941   14.900230   22.665531
  H     16.614375   17.117169   20.349273

 Total Charge           Charge          ....    0
 Multiplicity           Mult            ....    1
 Number of Electrons    NEL             ....  154
 Basis Dimension        Dim             ....  828

ORBITAL ENERGIES
----------------

  NO   OCC          E(Eh)            E(eV)
   0   2.0000     -91.888260     -2500.4067
   1   2.0000     -20.597953      -560.4988
   2   2.0000     -20.593133      -560.3676
   3   2.0000     -20.548295      -559.1475
   4   2.0000     -15.628373      -425.2697
   5   2.0000     -15.607177      -424.6929
   6   2.0000     -11.394927      -310.0717
   7   2.0000     -11.383331      -309.7562
   8   2.0000     -11.335255      -308.4480
   9   2.0000     -11.309015      -307.7339
  10   2.0000     -11.306549      -307.6668
  11   2.0000     -11.299391      -307.4721
  12   2.0000     -11.260416      -306.4115
  13   2.0000     -11.259198      -306.3783
  14   2.0000     -11.254769      -306.2578
  15   2.0000     -11.249113      -306.1039
  16   2.0000     -11.238746      -305.8218
  17   2.0000     -11.234841      -305.7156
  18   2.0000     -11.234050      -305.6940
  19   2.0000     -11.231848      -305.6341
  20   2.0000      -8.893325      -241.9997
  21   2.0000      -6.574903      -178.9122
  22   2.0000      -6.572895      -178.8576
  23   2.0000      -6.572310      -178.8417
  24   2.0000      -1.454432       -39.5771
  25   2.0000      -1.412877       -38.4463
  26   2.0000      -1.357040       -36.9269
  27   2.0000      -1.339384       -36.4465
  28   2.0000      -1.237219       -33.6665
  29   2.0000      -1.153411       -31.3859
  30   2.0000      -1.120117       -30.4799
  31   2.0000      -1.044451       -28.4210
  32   2.0000      -1.037179       -28.2231
  33   2.0000      -1.010810       -27.5055
  34   2.0000      -0.998284       -27.1647
  35   2.0000      -0.983929       -26.7741
  36   2.0000      -0.921773       -25.0827
  37   2.0000      -0.888303       -24.1720
  38   2.0000      -0.847195       -23.0533
  39   2.0000      -0.835949       -22.7473
  40   2.0000      -0.829236       -22.5647
  41   2.0000      -0.818765       -22.2797
  42   2.0000      -0.760895       -20.7050
  43   2.0000      -0.736028       -20.0283
  44   2.0000      -0.725886       -19.7524
  45   2.0000      -0.691914       -18.8279
  46   2.0000      -0.684264       -18.6198
  47   2.0000      -0.680962       -18.5299
  48   2.0000      -0.676391       -18.4055
  49   2.0000      -0.659970       -17.9587
  50   2.0000      -0.650444       -17.6995
  51   2.0000      -0.644126       -17.5276
  52   2.0000      -0.635487       -17.2925
  53   2.0000      -0.602167       -16.3858
  54   2.0000      -0.601084       -16.3563
  55   2.0000      -0.596777       -16.2391
  56   2.0000      -0.595080       -16.1929
  57   2.0000      -0.578465       -15.7408
  58   2.0000      -0.574407       -15.6304
  59   2.0000      -0.566424       -15.4132
  60   2.0000      -0.560145       -15.2423
  61   2.0000      -0.557394       -15.1675
  62   2.0000      -0.541311       -14.7298
  63   2.0000      -0.518686       -14.1142
  64   2.0000      -0.518594       -14.1117
  65   2.0000      -0.511281       -13.9127
  66   2.0000      -0.502527       -13.6745
  67   2.0000      -0.496484       -13.5100
  68   2.0000      -0.481344       -13.0980
  69   2.0000      -0.462485       -12.5849
  70   2.0000      -0.459898       -12.5145
  71   2.0000      -0.456557       -12.4236
  72   2.0000      -0.354094        -9.6354
  73   2.0000      -0.345242        -9.3945
  74   2.0000      -0.327443        -8.9102
  75   2.0000      -0.316358        -8.6085
  76   2.0000      -0.314788        -8.5658
  77   0.0000       0.074865         2.0372
  78   0.0000       0.109888         2.9902
  79   0.0000       0.119756         3.2587
  80   0.0000       0.134999         3.6735
  81   0.0000       0.139522         3.7966

MULLIKEN ATOMIC CHARGES
-----------------------
   0 C :   -0.283190
   1 C :    0.048910
   2 O :   -0.348992
   3 C :    0.433650
   4 O :   -0.415225
   5 C :   -0.174640
   6 C :    0.142438
   7 C :   -0.286857
   8 N :   -0.123799
   9 C :    0.202321
  10 S :   -0.439634
  11 N :   -0.198589
  12 C :    0.043179
  13 C :    0.053989
  14 C :   -0.161546
  15 C :   -0.133761
  16 C :   -0.279953
  17 C :    0.311361
  18 O :   -0.359072
  19 C :   -0.274891
  20 H :    0.099037
  21 H :    0.104549
  22 H :    0.094318
  23 H :    0.098112
  24 H :    0.097703
  25 H :    0.126805
  26 H :    0.104964
  27 H :    0.125705
  28 H :    0.197020
  29 H :    0.193893
  30 H :    0.153852
  31 H :    0.154056
  32 H :    0.159841
  33 H :    0.128726
  34 H :    0.240345
  35 H :    0.165376
Sum of atomic charges:   -0.0000000

LOEWDIN ATOMIC CHARGES
----------------------
   0 C :    0.105086
   1 C :   -0.014516
   2 O :    0.303127
   3 C :   -0.416327
   4 O :    0.110841
   5 C :   -0.092429
   6 C :   -0.068883
   7 C :    0.125313
   8 N :    0.404534
   9 C :   -0.458375
  10 S :   -0.036227
  11 N :    0.397568
  12 C :   -0.046057
  13 C :   -0.039183
  14 C :    0.021936
  15 C :    0.040893
  16 C :   -0.002451
  17 C :   -0.193106
  18 O :    0.392959
  19 C :    0.027860
  20 H :   -0.026820
  21 H :   -0.023154
  22 H :   -0.029393
  23 H :   -0.025085
  24 H :   -0.029685
  25 H :   -0.008116
  26 H :   -0.020485
  27 H :   -0.010295
  28 H :   -0.059018
  29 H :   -0.063814
  30 H :   -0.004770
  31 H :   -0.025067
  32 H :   -0.020969
  33 H :   -0.036243
  34 H :   -0.154709
  35 H :   -0.024943

  Mayer bond orders larger than 0.100000
B(  0-C ,  1-C ) :   0.9702 B(  0-C , 20-H ) :   0.9765 B(  0-C , 21-H ) :   0.9786
B(  0-C , 22-H ) :   0.9775 B(  1-C ,  2-O ) :   0.9015 B(  1-C , 23-H ) :   0.9720
B(  1-C , 24-H ) :   0.9831 B(  2-O ,  3-C ) :   1.1369 B(  3-C ,  4-O ) :   2.0064
B(  3-C ,  5-C ) :   1.0411 B(  5-C ,  6-C ) :   1.6556 B(  5-C , 12-C ) :   0.9659
B(  6-C ,  7-C ) :   0.9540 B(  6-C ,  8-N ) :   1.1430 B(  7-C , 25-H ) :   0.9674
B(  7-C , 26-H ) :   0.9903 B(  7-C , 27-H ) :   0.9640 B(  8-N ,  9-C ) :   1.1811
B(  8-N , 28-H ) :   0.9491 B(  9-C , 10-S ) :   1.6104 B(  9-C , 11-N ) :   1.3029
B( 11-N , 12-C ) :   0.9913 B( 11-N , 29-H ) :   0.9519 B( 12-C , 13-C ) :   0.9460
B( 12-C , 30-H ) :   0.9989 B( 13-C , 14-C ) :   1.3762 B( 13-C , 19-C ) :   1.3693
B( 14-C , 15-C ) :   1.3943 B( 14-C , 31-H ) :   0.9646 B( 15-C , 16-C ) :   1.3628
B( 15-C , 32-H ) :   0.9712 B( 16-C , 17-C ) :   1.3313 B( 16-C , 33-H ) :   0.9858
B( 17-C , 18-O ) :   1.1083 B( 17-C , 19-C ) :   1.3779 B( 18-O , 34-H ) :   0.9804
B( 19-C , 35-H ) :   0.9585

MP2 TOTAL ENERGY:    -1274.340517269 Eh
FINAL SINGLE POINT ENERGY     -1274.340517269161

DIPOLE MOMENT
-------------
                                X             Y             Z
Electronic contribution:     11.93284       8.49355       9.02994
Nuclear contribution   :    -13.36454      -9.82873      -9.89973
                        -----------------------------------------
Total Dipole Moment    :     -1.43170      -1.33518      -0.86979
                        -----------------------------------------
Magnitude (a.u.)       :      2.14220
Magnitude (Debye)      :      5.44503

Rotational constants in cm-1:     0.010573     0.009222     0.006285
Rotational constants in MHz :   316.960430   276.476993   188.412730

                             ****ORCA TERMINATED NORMALLY****
TOTAL RUN TIME: 0 days 1 hours 42 minutes 14 seconds 910 msec
