                         Program Version 4.2.0 -  RELEASE  -
|  1> ! ri-mp2 cc-pvtz cc-pvtz/c TightSCF  NoKeepInts
|  2>
|  3> %scf
|  4>   MaxCore 4096
|  5> end
|  6> *xyz  0  1
|  7>     C       14.8352458   16.1520500   17.2642642
|  8>     C       15.6589086   14.8972294   16.9114360
|  9>     O       16.7892179   15.1350088   16.0358096
| 10>     C       17.9739647   15.7306323   16.3964576
| 11>     O       19.0086772   15.1030236   16.2653283
| 12>     C       17.9075888   16.8737493   17.3502183
| 13>     C       17.3674534   18.0637690   17.0008037
| 14>     C       16.7677512   18.4338530   15.6610619
| 15>     N       17.4162485   19.1378550   17.8917635
| 16>     C       18.0703300   19.1224359   19.0963774
| 17>     S       18.1173500   20.4535931   20.0760978
| 18>     N       18.6844654   17.9461330   19.4515872
| 19>     C       18.6220302   16.6831070   18.6886468
| 20>     C       17.9708358   15.5668276   19.5002865
| 21>     C       18.4835037   14.2582159   19.4327379
| 22>     C       17.8774606   13.2126282   20.1486685
| 23>     C       16.7463391   13.4756549   20.9395929
| 24>     C       16.2302145   14.7764743   21.0083870
| 25>     O       15.1303794   15.0319569   21.7601493
| 26>     C       16.8351283   15.8153959   20.2940301
| 27>     H       15.3215974   16.7667744   18.0271993
| 28>     H       13.8670182   15.8476566   17.6804225
| 29>     H       14.6329309   16.7554061   16.3724952
| 30>     H       15.9945810   14.4018403   17.8319867
| 31>     H       14.9885329   14.1940486   16.4005538
| 32>     H       16.6026815   17.5618729   15.0173283
| 33>     H       17.4349001   19.1140745   15.1165743
| 34>     H       15.8000761   18.9356716   15.7833328
| 35>     H       16.9922280   20.0169267   17.6398523
| 36>     H       19.1452621   17.9607498   20.3527761
| 37>     H       19.6561151   16.3784198   18.4689541
| 38>     H       19.3490871   14.0480189   18.8073786
| 39>     H       18.2831457   12.2042024   20.0839406
| 40>     H       16.2741077   12.6701211   21.4924481
| 41>     H       14.8982594   14.2136639   22.2250442
| 42>     H       16.4133838   16.8129591   20.3600089
| 43> *
| 44>
| 45>                          ****END OF INPUT****

CARTESIAN COORDINATES (ANGSTROEM)
---------------------------------
  C     14.835246   16.152050   17.264264
  C     15.658909   14.897229   16.911436
  O     16.789218   15.135009   16.035810
  C     17.973965   15.730632   16.396458
  O     19.008677   15.103024   16.265328
  C     17.907589   16.873749   17.350218
  C     17.367453   18.063769   17.000804
  C     16.767751   18.433853   15.661062
  N     17.416248   19.137855   17.891763
  C     18.070330   19.122436   19.096377
  S     18.117350   20.453593   20.076098
  N     18.684465   17.946133   19.451587
  C     18.622030   16.683107   18.688647
  C     17.970836   15.566828   19.500286
  C     18.483504   14.258216   19.432738
  C     17.877461   13.212628   20.148668
  C     16.746339   13.475655   20.939593
  C     16.230214   14.776474   21.008387
  O     15.130379   15.031957   21.760149
  C     16.835128   15.815396   20.294030
  H     15.321597   16.766774   18.027199
  H     13.867018   15.847657   17.680422
  H     14.632931   16.755406   16.372495
  H     15.994581   14.401840   17.831987
  H     14.988533   14.194049   16.400554
  H     16.602681   17.561873   15.017328
  H     17.434900   19.114075   15.116574
  H     15.800076   18.935672   15.783333
  H     16.992228   20.016927   17.639852
  H     19.145262   17.960750   20.352776
  H     19.656115   16.378420   18.468954
  H     19.349087   14.048019   18.807379
  H     18.283146   12.204202   20.083941
  H     16.274108   12.670121   21.492448
  H     14.898259   14.213664   22.225044
  H     16.413384   16.812959   20.360009

 Total Charge           Charge          ....    0
 Multiplicity           Mult            ....    1
 Number of Electrons    NEL             ....  154
 Basis Dimension        Dim             ....  828

ORBITAL ENERGIES
----------------

  NO   OCC          E(Eh)            E(eV)
   0   2.0000     -91.890747     -2500.4743
   1   2.0000     -20.601836      -560.6045
   2   2.0000     -20.587737      -560.2208
   3   2.0000     -20.553140      -559.2794
   4   2.0000     -15.627678      -425.2507
   5   2.0000     -15.612302      -424.8323
   6   2.0000     -11.396648      -310.1185
   7   2.0000     -11.387466      -309.8687
   8   2.0000     -11.329121      -308.2811
   9   2.0000     -11.319171      -308.0103
  10   2.0000     -11.315403      -307.9078
  11   2.0000     -11.304129      -307.6010
  12   2.0000     -11.265756      -306.5568
  13   2.0000     -11.265110      -306.5392
  14   2.0000     -11.261800      -306.4492
  15   2.0000     -11.259239      -306.3795
  16   2.0000     -11.248669      -306.0918
  17   2.0000     -11.244280      -305.9724
  18   2.0000     -11.241125      -305.8866
  19   2.0000     -11.232134      -305.6419
  20   2.0000      -8.895845      -242.0683
  21   2.0000      -6.577430      -178.9810
  22   2.0000      -6.575408      -178.9260
  23   2.0000      -6.574829      -178.9102
  24   2.0000      -1.443547       -39.2809
  25   2.0000      -1.421657       -38.6853
  26   2.0000      -1.354169       -36.8488
  27   2.0000      -1.340733       -36.4832
  28   2.0000      -1.240585       -33.7580
  29   2.0000      -1.163305       -31.6551
  30   2.0000      -1.125728       -30.6326
  31   2.0000      -1.049848       -28.5678
  32   2.0000      -1.036228       -28.1972
  33   2.0000      -1.020918       -27.7806
  34   2.0000      -1.005036       -27.3484
  35   2.0000      -0.990678       -26.9577
  36   2.0000      -0.928626       -25.2692
  37   2.0000      -0.892943       -24.2982
  38   2.0000      -0.852679       -23.2026
  39   2.0000      -0.842510       -22.9259
  40   2.0000      -0.839010       -22.8306
  41   2.0000      -0.831028       -22.6134
  42   2.0000      -0.751687       -20.4544
  43   2.0000      -0.735584       -20.0163
  44   2.0000      -0.730384       -19.8748
  45   2.0000      -0.699722       -19.0404
  46   2.0000      -0.689180       -18.7536
  47   2.0000      -0.678297       -18.4574
  48   2.0000      -0.675137       -18.3714
  49   2.0000      -0.662531       -18.0284
  50   2.0000      -0.655229       -17.8297
  51   2.0000      -0.644347       -17.5336
  52   2.0000      -0.640525       -17.4296
  53   2.0000      -0.614132       -16.7114
  54   2.0000      -0.608373       -16.5547
  55   2.0000      -0.606051       -16.4915
  56   2.0000      -0.601964       -16.3803
  57   2.0000      -0.591503       -16.0956
  58   2.0000      -0.580877       -15.8065
  59   2.0000      -0.578181       -15.7331
  60   2.0000      -0.566905       -15.4263
  61   2.0000      -0.556462       -15.1421
  62   2.0000      -0.539990       -14.6939
  63   2.0000      -0.530973       -14.4485
  64   2.0000      -0.522612       -14.2210
  65   2.0000      -0.514071       -13.9886
  66   2.0000      -0.503865       -13.7109
  67   2.0000      -0.493266       -13.4225
  68   2.0000      -0.489199       -13.3118
  69   2.0000      -0.464056       -12.6276
  70   2.0000      -0.457282       -12.4433
  71   2.0000      -0.448233       -12.1971
  72   2.0000      -0.355696        -9.6790
  73   2.0000      -0.354020        -9.6334
  74   2.0000      -0.330378        -8.9900
  75   2.0000      -0.327137        -8.9019
  76   2.0000      -0.319329        -8.6894
  77   0.0000       0.083963         2.2848
  78   0.0000       0.101697         2.7673
  79   0.0000       0.118224         3.2170
  80   0.0000       0.125322         3.4102
  81   0.0000       0.128674         3.5014

MULLIKEN ATOMIC CHARGES
-----------------------
   0 C :   -0.338632
   1 C :    0.038555
   2 O :   -0.353434
   3 C :    0.405244
   4 O :   -0.373173
   5 C :   -0.180622
   6 C :    0.129657
   7 C :   -0.330850
   8 N :   -0.132998
   9 C :    0.205226
  10 S :   -0.439568
  11 N :   -0.221698
  12 C :    0.087954
  13 C :    0.006718
  14 C :   -0.200353
  15 C :   -0.132727
  16 C :   -0.277627
  17 C :    0.319067
  18 O :   -0.356866
  19 C :   -0.278344
  20 H :    0.110817
  21 H :    0.125710
  22 H :    0.106022
  23 H :    0.104950
  24 H :    0.126130
  25 H :    0.127129
  26 H :    0.149619
  27 H :    0.113603
  28 H :    0.197242
  29 H :    0.200232
  30 H :    0.165290
  31 H :    0.172383
  32 H :    0.165174
  33 H :    0.133711
  34 H :    0.241936
  35 H :    0.184523
Sum of atomic charges:    0.0000000

LOEWDIN ATOMIC CHARGES
----------------------
   0 C :    0.103095
   1 C :   -0.011471
   2 O :    0.280666
   3 C :   -0.415916
   4 O :    0.132610
   5 C :   -0.084996
   6 C :   -0.094200
   7 C :    0.124969
   8 N :    0.403543
   9 C :   -0.456016
  10 S :   -0.036623
  11 N :    0.397641
  12 C :   -0.044353
  13 C :   -0.044781
  14 C :    0.020423
  15 C :    0.043806
  16 C :   -0.001010
  17 C :   -0.194373
  18 O :    0.395936
  19 C :    0.027929
  20 H :   -0.036344
  21 H :   -0.020867
  22 H :   -0.030229
  23 H :   -0.028160
  24 H :   -0.019241
  25 H :   -0.010734
  26 H :   -0.008854
  27 H :   -0.017485
  28 H :   -0.057094
  29 H :   -0.063894
  30 H :   -0.002964
  31 H :   -0.021480
  32 H :   -0.018035
  33 H :   -0.034124
  34 H :   -0.152622
  35 H :   -0.024751

  Mayer bond orders larger than 0.100000
B(  0-C ,  1-C ) :   0.9571 B(  0-C , 20-H ) :   0.9704 B(  0-C , 21-H ) :   0.9782
B(  0-C , 22-H ) :   0.9760 B(  1-C ,  2-O ) :   0.8981 B(  1-C , 23-H ) :   0.9717
B(  1-C , 24-H ) :   0.9841 B(  2-O ,  3-C ) :   1.1495 B(  3-C ,  4-O ) :   2.1005
B(  3-C ,  5-C ) :   0.9289 B(  5-C ,  6-C ) :   1.6866 B(  5-C , 12-C ) :   0.9497
B(  6-C ,  7-C ) :   0.9510 B(  6-C ,  8-N ) :   1.1166 B(  7-C , 25-H ) :   0.9769
B(  7-C , 26-H ) :   0.9652 B(  7-C , 27-H ) :   0.9699 B(  8-N ,  9-C ) :   1.1944
B(  8-N , 28-H ) :   0.9513 B(  9-C , 10-S ) :   1.6125 B(  9-C , 11-N ) :   1.2853
B( 11-N , 12-C ) :   0.9950 B( 11-N , 29-H ) :   0.9485 B( 12-C , 13-C ) :   0.9402
B( 12-C , 30-H ) :   0.9983 B( 13-C , 14-C ) :   1.3895 B( 13-C , 19-C ) :   1.3415
B( 14-C , 15-C ) :   1.4001 B( 14-C , 31-H ) :   0.9600 B( 15-C , 16-C ) :   1.3590
B( 15-C , 32-H ) :   0.9699 B( 16-C , 17-C ) :   1.3304 B( 16-C , 33-H ) :   0.9842
B( 17-C , 18-O ) :   1.1123 B( 17-C , 19-C ) :   1.3663 B( 18-O , 34-H ) :   0.9789
B( 19-C , 35-H ) :   0.9511

MP2 TOTAL ENERGY:    -1274.324145669 Eh
FINAL SINGLE POINT ENERGY     -1274.324145669124

DIPOLE MOMENT
-------------
                                X             Y             Z
Electronic contribution:      9.62642       5.43007       5.72622
Nuclear contribution   :    -11.01113      -6.65366      -6.00197
                        -----------------------------------------
Total Dipole Moment    :     -1.38471      -1.22359      -0.27575
                        -----------------------------------------
Magnitude (a.u.)       :      1.86832
Magnitude (Debye)      :      4.74890

Rotational constants in cm-1:     0.012443     0.009339     0.007019
Rotational constants in MHz :   373.031638   279.983613   210.409477

                             ****ORCA TERMINATED NORMALLY****
TOTAL RUN TIME: 0 days 2 hours 0 minutes 26 seconds 574 msec
