                         Program Version 4.2.0 -  RELEASE  -
|  1> ! ri-mp2 cc-pvtz cc-pvtz/c TightSCF  NoKeepInts
|  2>
|  3> %scf
|  4>   MaxCore 4096
|  5> end
|  6> *xyz  0  1
|  7>     C       15.1412028   13.9393353   16.7087885
|  8>     C       16.5225828   13.9964595   16.0215351
|  9>     O       17.3105304   15.0612985   16.5875868
| 10>     C       16.9081886   16.3654856   16.4880863
| 11>     O       16.0856227   16.7351433   15.6671131
| 12>     C       17.6296710   17.2679154   17.4498893
| 13>     C       17.4946515   18.6179883   17.4245113
| 14>     C       16.6517322   19.4364797   16.4701453
| 15>     N       18.2028205   19.4107906   18.3324793
| 16>     C       19.1170017   18.9417913   19.2375855
| 17>     S       19.9664091   19.9574946   20.2289553
| 18>     N       19.2938413   17.5824699   19.2817294
| 19>     C       18.5115516   16.5958530   18.5147245
| 20>     C       17.6870858   15.7339269   19.4669364
| 21>     C       17.9783110   14.3659153   19.6250995
| 22>     C       17.2123476   13.5672227   20.4908362
| 23>     C       16.1479187   14.1412392   21.2066353
| 24>     C       15.8582679   15.5042379   21.0552432
| 25>     O       14.8313469   16.0613782   21.7451037
| 26>     C       16.6222016   16.2964781   20.1928268
| 27>     H       15.2540788   13.8925979   17.7995129
| 28>     H       14.5912915   13.0479993   16.3840235
| 29>     H       14.5306009   14.8160104   16.4606461
| 30>     H       17.0426271   13.0421966   16.1739933
| 31>     H       16.3959814   14.1481840   14.9409960
| 32>     H       16.9394067   19.2346837   15.4304840
| 33>     H       16.7434179   20.5164618   16.6344486
| 34>     H       15.5908729   19.1741561   16.5723623
| 35>     H       18.0856900   20.4113025   18.3154944
| 36>     H       19.9448878   17.2642643   19.9879322
| 37>     H       19.2291389   15.9481237   17.9917749
| 38>     H       18.7960630   13.9181932   19.0668132
| 39>     H       17.4438095   12.5095960   20.6042789
| 40>     H       15.5534123   13.5286760   21.8764215
| 41>     H       14.4473842   15.3703417   22.3053126
| 42>     H       16.3850513   17.3503095   20.0936946
| 43> *
| 44>
| 45>                          ****END OF INPUT****

CARTESIAN COORDINATES (ANGSTROEM)
---------------------------------
  C     15.141203   13.939335   16.708789
  C     16.522583   13.996460   16.021535
  O     17.310530   15.061298   16.587587
  C     16.908189   16.365486   16.488086
  O     16.085623   16.735143   15.667113
  C     17.629671   17.267915   17.449889
  C     17.494651   18.617988   17.424511
  C     16.651732   19.436480   16.470145
  N     18.202821   19.410791   18.332479
  C     19.117002   18.941791   19.237586
  S     19.966409   19.957495   20.228955
  N     19.293841   17.582470   19.281729
  C     18.511552   16.595853   18.514724
  C     17.687086   15.733927   19.466936
  C     17.978311   14.365915   19.625099
  C     17.212348   13.567223   20.490836
  C     16.147919   14.141239   21.206635
  C     15.858268   15.504238   21.055243
  O     14.831347   16.061378   21.745104
  C     16.622202   16.296478   20.192827
  H     15.254079   13.892598   17.799513
  H     14.591291   13.047999   16.384024
  H     14.530601   14.816010   16.460646
  H     17.042627   13.042197   16.173993
  H     16.395981   14.148184   14.940996
  H     16.939407   19.234684   15.430484
  H     16.743418   20.516462   16.634449
  H     15.590873   19.174156   16.572362
  H     18.085690   20.411303   18.315494
  H     19.944888   17.264264   19.987932
  H     19.229139   15.948124   17.991775
  H     18.796063   13.918193   19.066813
  H     17.443810   12.509596   20.604279
  H     15.553412   13.528676   21.876421
  H     14.447384   15.370342   22.305313
  H     16.385051   17.350310   20.093695

 Total Charge           Charge          ....    0
 Multiplicity           Mult            ....    1
 Number of Electrons    NEL             ....  154
 Basis Dimension        Dim             ....  828

ORBITAL ENERGIES
----------------

  NO   OCC          E(Eh)            E(eV)
   0   2.0000     -91.888762     -2500.4203
   1   2.0000     -20.599410      -560.5384
   2   2.0000     -20.597124      -560.4762
   3   2.0000     -20.541556      -558.9642
   4   2.0000     -15.628877      -425.2834
   5   2.0000     -15.608253      -424.7222
   6   2.0000     -11.395204      -310.0793
   7   2.0000     -11.383984      -309.7740
   8   2.0000     -11.335819      -308.4633
   9   2.0000     -11.314473      -307.8825
  10   2.0000     -11.308730      -307.7262
  11   2.0000     -11.298091      -307.4367
  12   2.0000     -11.260123      -306.4035
  13   2.0000     -11.258720      -306.3653
  14   2.0000     -11.255757      -306.2847
  15   2.0000     -11.251999      -306.1825
  16   2.0000     -11.243875      -305.9614
  17   2.0000     -11.239175      -305.8335
  18   2.0000     -11.238672      -305.8198
  19   2.0000     -11.221461      -305.3515
  20   2.0000      -8.893828      -242.0134
  21   2.0000      -6.575403      -178.9258
  22   2.0000      -6.573397      -178.8712
  23   2.0000      -6.572811      -178.8553
  24   2.0000      -1.449632       -39.4465
  25   2.0000      -1.416811       -38.5534
  26   2.0000      -1.353988       -36.8439
  27   2.0000      -1.339842       -36.4590
  28   2.0000      -1.238404       -33.6987
  29   2.0000      -1.158295       -31.5188
  30   2.0000      -1.120569       -30.4922
  31   2.0000      -1.043065       -28.3832
  32   2.0000      -1.034547       -28.1515
  33   2.0000      -1.015676       -27.6379
  34   2.0000      -0.995296       -27.0834
  35   2.0000      -0.984153       -26.7802
  36   2.0000      -0.922635       -25.1062
  37   2.0000      -0.895602       -24.3706
  38   2.0000      -0.847031       -23.0489
  39   2.0000      -0.838085       -22.8055
  40   2.0000      -0.834615       -22.7110
  41   2.0000      -0.816054       -22.2060
  42   2.0000      -0.752393       -20.4737
  43   2.0000      -0.732802       -19.9406
  44   2.0000      -0.723106       -19.6767
  45   2.0000      -0.696215       -18.9450
  46   2.0000      -0.688683       -18.7400
  47   2.0000      -0.678089       -18.4518
  48   2.0000      -0.670950       -18.2575
  49   2.0000      -0.660128       -17.9630
  50   2.0000      -0.649046       -17.6614
  51   2.0000      -0.640910       -17.4401
  52   2.0000      -0.632510       -17.2115
  53   2.0000      -0.613501       -16.6942
  54   2.0000      -0.607213       -16.5231
  55   2.0000      -0.600316       -16.3354
  56   2.0000      -0.599027       -16.3004
  57   2.0000      -0.577867       -15.7246
  58   2.0000      -0.570718       -15.5300
  59   2.0000      -0.568338       -15.4653
  60   2.0000      -0.559405       -15.2222
  61   2.0000      -0.543269       -14.7831
  62   2.0000      -0.534348       -14.5404
  63   2.0000      -0.526194       -14.3185
  64   2.0000      -0.524619       -14.2756
  65   2.0000      -0.513218       -13.9654
  66   2.0000      -0.501616       -13.6497
  67   2.0000      -0.499929       -13.6038
  68   2.0000      -0.482252       -13.1227
  69   2.0000      -0.464468       -12.6388
  70   2.0000      -0.454709       -12.3733
  71   2.0000      -0.445765       -12.1299
  72   2.0000      -0.354081        -9.6350
  73   2.0000      -0.350101        -9.5267
  74   2.0000      -0.328227        -8.9315
  75   2.0000      -0.321936        -8.7603
  76   2.0000      -0.316138        -8.6025
  77   0.0000       0.076234         2.0744
  78   0.0000       0.106010         2.8847
  79   0.0000       0.125037         3.4024
  80   0.0000       0.132372         3.6020
  81   0.0000       0.137928         3.7532

MULLIKEN ATOMIC CHARGES
-----------------------
   0 C :   -0.312848
   1 C :    0.022717
   2 O :   -0.359672
   3 C :    0.470187
   4 O :   -0.436569
   5 C :   -0.226032
   6 C :    0.152583
   7 C :   -0.273224
   8 N :   -0.120379
   9 C :    0.211779
  10 S :   -0.440439
  11 N :   -0.206035
  12 C :    0.064475
  13 C :    0.054382
  14 C :   -0.186260
  15 C :   -0.134373
  16 C :   -0.278077
  17 C :    0.313950
  18 O :   -0.356541
  19 C :   -0.262434
  20 H :    0.109454
  21 H :    0.097371
  22 H :    0.119396
  23 H :    0.112818
  24 H :    0.113808
  25 H :    0.131209
  26 H :    0.095303
  27 H :    0.131727
  28 H :    0.197010
  29 H :    0.195098
  30 H :    0.150631
  31 H :    0.151291
  32 H :    0.160402
  33 H :    0.130687
  34 H :    0.240722
  35 H :    0.165883
Sum of atomic charges:   -0.0000000

LOEWDIN ATOMIC CHARGES
----------------------
   0 C :    0.104956
   1 C :   -0.016881
   2 O :    0.304805
   3 C :   -0.413104
   4 O :    0.097064
   5 C :   -0.094088
   6 C :   -0.059297
   7 C :    0.131616
   8 N :    0.406531
   9 C :   -0.456179
  10 S :   -0.035848
  11 N :    0.396478
  12 C :   -0.051882
  13 C :   -0.039576
  14 C :    0.014165
  15 C :    0.038694
  16 C :   -0.002154
  17 C :   -0.190046
  18 O :    0.395627
  19 C :    0.031563
  20 H :   -0.026210
  21 H :   -0.027724
  22 H :   -0.026139
  23 H :   -0.025108
  24 H :   -0.027950
  25 H :   -0.003880
  26 H :   -0.023406
  27 H :   -0.004705
  28 H :   -0.057596
  29 H :   -0.064526
  30 H :   -0.011342
  31 H :   -0.029889
  32 H :   -0.021354
  33 H :   -0.035410
  34 H :   -0.153797
  35 H :   -0.023407

  Mayer bond orders larger than 0.100000
B(  0-C ,  1-C ) :   0.9583 B(  0-C , 20-H ) :   0.9709 B(  0-C , 21-H ) :   0.9777
B(  0-C , 22-H ) :   0.9745 B(  1-C ,  2-O ) :   0.8959 B(  1-C , 23-H ) :   0.9845
B(  1-C , 24-H ) :   0.9828 B(  2-O ,  3-C ) :   1.1607 B(  3-C ,  4-O ) :   1.9647
B(  3-C ,  5-C ) :   1.0600 B(  5-C ,  6-C ) :   1.6545 B(  5-C , 12-C ) :   0.9714
B(  6-C ,  7-C ) :   0.9661 B(  6-C ,  8-N ) :   1.1655 B(  7-C , 25-H ) :   0.9606
B(  7-C , 26-H ) :   0.9903 B(  7-C , 27-H ) :   0.9604 B(  8-N ,  9-C ) :   1.1837
B(  8-N , 28-H ) :   0.9478 B(  9-C , 10-S ) :   1.6066 B(  9-C , 11-N ) :   1.3056
B( 11-N , 12-C ) :   0.9885 B( 11-N , 29-H ) :   0.9512 B( 12-C , 13-C ) :   0.9347
B( 12-C , 30-H ) :   1.0019 B( 13-C , 14-C ) :   1.3555 B( 13-C , 19-C ) :   1.3837
B( 14-C , 15-C ) :   1.3919 B( 14-C , 31-H ) :   0.9716 B( 15-C , 16-C ) :   1.3604
B( 15-C , 32-H ) :   0.9712 B( 16-C , 17-C ) :   1.3315 B( 16-C , 33-H ) :   0.9851
B( 17-C , 18-O ) :   1.1109 B( 17-C , 19-C ) :   1.3707 B( 18-O , 34-H ) :   0.9798
B( 19-C , 35-H ) :   0.9578

MP2 TOTAL ENERGY:    -1274.350452127 Eh
FINAL SINGLE POINT ENERGY     -1274.350452126630

DIPOLE MOMENT
-------------
                                X             Y             Z
Electronic contribution:      9.67499      10.42380       7.32074
Nuclear contribution   :    -10.60788     -12.19069      -7.71601
                        -----------------------------------------
Total Dipole Moment    :     -0.93289      -1.76689      -0.39527
                        -----------------------------------------
Magnitude (a.u.)       :      2.03677
Magnitude (Debye)      :      5.17706

Rotational constants in cm-1:     0.012300     0.008683     0.006286
Rotational constants in MHz :   368.736426   260.320892   188.446916

                             ****ORCA TERMINATED NORMALLY****
TOTAL RUN TIME: 0 days 1 hours 41 minutes 10 seconds 266 msec
